
  ___ ___ ___ _ _ _  
 |   |   |_  | | | | 
 | | | | | . | | | | 
 |__ |  _|___|_____|  21.6.1b1
 |___|_|             

User:   madkru@c153.nifl.fysik.dtu.dk
Date:   Mon Jun 27 01:01:00 2022
Arch:   x86_64
Pid:    48887
Python: 3.8.6
gpaw:   /home/niflheim/madkru/new_venv/gpaw/gpaw (1f0dfc9eae)
_gpaw:  /home/niflheim/madkru/new_venv/gpaw/build/lib.linux-x86_64-skylake-3.8/
        _gpaw.cpython-38-x86_64-linux-gnu.so (c1e45bfab3)
ase:    /home/niflheim/madkru/new_venv/ase/ase (version 3.23.0b1-ca38c75a67)
numpy:  /home/modules/software/SciPy-bundle/2020.11-foss-2020b/lib/python3.8/site-packages/numpy (version 1.19.4)
scipy:  /home/modules/software/SciPy-bundle/2020.11-foss-2020b/lib/python3.8/site-packages/scipy (version 1.5.4)
libxc:  4.3.4
units:  Angstrom and eV
cores: 40
OpenMP: False
OMP_NUM_THREADS: 1

Input parameters:
  convergence: {bands: occupied,
                density: 0.0001,
                eigenstates: 4e-08,
                energy: 0.0005,
                forces: 0.0001}
  kpts: [12 12  1]
  mode: {ecut: 600.0,
         gammacentered: False,
         name: pw}
  occupations: {fixmagmom: False,
                name: fermi-dirac,
                width: 0.001}
  symmetry: {point_group: False,
             time_reversal: False}

System changes: positions, numbers, cell, pbc, initial_charges, initial_magmoms 

Initialize ...

Cr-setup:
  name: Chromium
  id: 444e8044bc0f91048286c984738d87f5
  Z: 24.0
  valence: 6
  core: 18
  charge: 0.0
  file: /home/modules/software/GPAW-setups/0.9.20000/Cr.LDA.gz
  compensation charges: gauss, rc=0.35, lmax=2
  cutoffs: 2.14(filt), 3.04(core),
  valence states:
                energy  radius
    4s(1.00)    -4.191   1.164
    4p(0.00)    -1.079   1.217
    3d(5.00)    -3.128   1.111
    *s          23.021   1.164
    *p          26.132   1.217
    *d          24.083   1.111

  Using partial waves for Cr as LCAO basis

I-setup:
  name: Iodine
  id: b559721c0c096a7b4c8fc0e0f4de5cf4
  Z: 53.0
  valence: 7
  core: 46
  charge: 0.0
  file: /home/modules/software/GPAW-setups/0.9.20000/I.LDA.gz
  compensation charges: gauss, rc=0.37, lmax=2
  cutoffs: 2.06(filt), 2.90(core),
  valence states:
                energy  radius
    5s(2.00)   -17.626   1.164
    5p(5.00)    -7.241   1.164
    *s           9.585   1.164
    *p          19.970   1.164
    *d           0.000   1.164

  Using partial waves for I as LCAO basis

Reference energy: -2434708.556191

Spin-polarized calculation.
Magnetic moment: 12.175341

Convergence criteria:
  Maximum total energy change: 0.0005 eV / electron
  Maximum integral of absolute density change: 0.0001 electrons
  Maximum integral of absolute eigenstate change: 4e-08 eV^2
  Maximum change in atomic force: 0.0001 eV / Ang
  Maximum number of iterations: 333

Symmetries present (total): 1

  ( 1  0  0)
  ( 0  1  0)
  ( 0  0  1)

144 k-points: 12 x 12 x 1 Monkhorst-Pack grid
144 k-points in the irreducible part of the Brillouin zone
       k-points in crystal coordinates                weights
   0:    -0.45833333   -0.45833333    0.00000000          1/144
   1:    -0.45833333   -0.37500000    0.00000000          1/144
   2:    -0.45833333   -0.29166667    0.00000000          1/144
   3:    -0.45833333   -0.20833333    0.00000000          1/144
   4:    -0.45833333   -0.12500000    0.00000000          1/144
   5:    -0.45833333   -0.04166667    0.00000000          1/144
   6:    -0.45833333    0.04166667    0.00000000          1/144
   7:    -0.45833333    0.12500000    0.00000000          1/144
   8:    -0.45833333    0.20833333    0.00000000          1/144
   9:    -0.45833333    0.29166667    0.00000000          1/144
          ...
 143:     0.45833333    0.45833333    0.00000000          1/144

Wave functions: Plane wave expansion
  Cutoff energy: 600.000 eV
  Number of coefficients (min, max): 39797, 39902
  Pulay-stress correction: 0.000000 eV/Ang^3 (de/decut=0.000000)
  Using FFTW library
  ScaLapack parameters: grid=1x1, blocksize=None
  Wavefunction extrapolation:
    Improved wavefunction reuse through dual PAW basis 

Occupation numbers: Fermi-Dirac: width=0.0010 eV
 

Eigensolver
   Davidson(niter=2) 

Densities:
  Coarse grid: 42*42*160 grid
  Fine grid: 84*84*320 grid
  Total Charge: 0.000000 

Density mixing:
  Method: difference
  Backend: pulay
  Linear mixing parameter: 0.05
  Mixing with 5 old densities
  Damping of long wave oscillations: 50 

Hamiltonian:
  XC and Coulomb potentials evaluated on a 84*84*320 grid
  Using the LDA Exchange-Correlation functional
  External potential:
    <gpaw.external.NoExternalPotential object at 0x2b332cf04430>
 

Memory estimate:
  Process memory now: 40075.95 MiB
  Calculator: 580.26 MiB
    Density: 158.40 MiB
      Arrays: 75.37 MiB
      Localized functions: 52.88 MiB
      Mixer: 30.15 MiB
    Hamiltonian: 57.28 MiB
      Arrays: 55.99 MiB
      XC: 0.00 MiB
      Poisson: 0.00 MiB
      vbar: 1.29 MiB
    Wavefunctions: 364.58 MiB
      Arrays psit_nG: 281.29 MiB
      Eigensolver: 50.83 MiB
      Projections: 1.61 MiB
      Projectors: 18.26 MiB
      PW-descriptor: 12.59 MiB

Total number of cores used: 40
Parallelization over k-points: 40

Number of atoms: 16
Number of atomic orbitals: 84
Number of bands in calculation: 77
Number of valence electrons: 108
Bands to converge: occupied

... initialized

Initializing position-dependent things.

Density initialized from atomic densities
Creating initial wave functions:
  77 bands from LCAO basis set

                                       
                                       
                                       
                                       
                      I                
                            I          
                   I                   
                       Cr  I           
             Cr                        
                 I                     
                         I             
                     I                 
                             I         
               Cr                      
                   I   Cr              
          I                            
                 I                     
                        I              
                                       
                                       
                                       
                                       

Positions:
   0 Cr     0.889135    0.000185   -3.063135    ( 0.0000,  0.0000,  3.4336)
   1 Cr    -2.666158    2.052642   -3.080223    ( 0.0000,  0.0000,  3.4336)
   2 I      1.822012   -2.046247   -4.559876    ( 0.0000,  0.0000, -0.1299)
   3 I     -1.348662    0.216415   -4.560605    ( 0.0000,  0.0000, -0.1299)
   4 I     -4.915070    1.830062   -4.560598    ( 0.0000,  0.0000, -0.1299)
   5 I     -0.074828   -2.063434   -1.604960    ( 0.0000,  0.0000, -0.1299)
   6 I     -0.416551    1.865690   -1.594231    ( 0.0000,  0.0000, -0.1299)
   7 I      3.157525    0.197989   -1.594234    ( 0.0000,  0.0000, -0.1299)
   8 Cr    -2.666887   -2.052642    3.080226    ( 0.0000,  0.0000,  3.4336)
   9 Cr     0.888546   -0.000185    3.063139    ( 0.0000,  0.0000,  3.4336)
  10 I      1.852510    2.063434    1.594959    ( 0.0000,  0.0000, -0.1299)
  11 I      2.194233   -1.865690    1.594230    ( 0.0000,  0.0000, -0.1299)
  12 I     -1.379843   -0.197989    1.594233    ( 0.0000,  0.0000, -0.1299)
  13 I     -0.044330    2.046247    4.559875    ( 0.0000,  0.0000, -0.1299)
  14 I      3.126343   -0.216415    4.560604    ( 0.0000,  0.0000, -0.1299)
  15 I     -0.417976   -1.830062    4.560597    ( 0.0000,  0.0000, -0.1299)

Unit cell:
           periodic     x           y           z      points  spacing
  1. axis:    yes    7.110727   -0.000000    0.000000    42     0.1466
  2. axis:    yes   -3.555363    6.158070    0.000000    42     0.1466
  3. axis:    no     0.000000   -0.000000   27.269192   160     0.1704

  Lengths:   7.110727   7.110727  27.269192
  Angles:   90.000000  90.000000 120.000000

Effective grid spacing dv^(1/3) = 0.1617

                     log10-error:           total        iterations:
           time      wfs    density  force  energy       poisson  magmom
iter:   1  01:02:21                        -76.906353             +12.1076
iter:   2  01:03:13  -0.99  -0.91          -70.502122             +9.9552
iter:   3  01:04:05  -1.83  -1.33          -70.496774             +11.0114
iter:   4  01:04:56  -1.58  -1.38          -70.970189             +12.0928
iter:   5  01:05:48  -2.53  -1.51          -70.628858             +12.0161
iter:   6  01:06:40  -1.90  -1.83          -70.402456             +12.0006
iter:   7  01:07:32  -2.97  -2.20          -70.395424             +12.0040
iter:   8  01:08:24  -3.31  -2.31          -70.389999             +12.0055
iter:   9  01:09:16  -3.68  -2.67          -70.391181             +12.0017
iter:  10  01:10:08  -3.86  -2.86          -70.391854             +11.9998
iter:  11  01:11:00  -3.99  -2.94          -70.392419             +12.0000
iter:  12  01:11:52  -3.98  -3.06          -70.392723             +12.0000
iter:  13  01:12:44  -4.07  -3.11          -70.392944             +12.0000
iter:  14  01:13:36  -4.08  -3.15          -70.393070             +12.0000
iter:  15  01:14:28  -4.15  -3.26          -70.393237             +12.0000
iter:  16  01:15:19  -4.31  -3.32          -70.393352             +12.0000
iter:  17  01:16:12  -4.49  -3.38          -70.393403             +12.0000
iter:  18  01:17:04  -4.61  -3.58          -70.393467             +12.0000
iter:  19  01:17:55  -4.79  -3.63          -70.393511             +12.0000
iter:  20  01:18:48  -4.80  -3.77          -70.393556             +12.0000
iter:  21  01:19:39  -4.98  -4.06          -70.393588             +12.0000
iter:  22  01:20:31  -5.11  -4.03          -70.393610             +12.0000
iter:  23  01:21:23  -5.18  -4.03          -70.393627             +12.0000
iter:  24  01:22:15  -5.22  -3.93          -70.393634             +12.0000
iter:  25  01:23:07  -5.41  -4.25          -70.393644             +12.0000
iter:  26  01:23:59  -5.55  -4.30          -70.393651             +12.0000
iter:  27  01:24:51  -5.62  -4.33          -70.393655             +12.0000
iter:  28  01:25:43  -5.88  -4.49          -70.393660             +12.0000
iter:  29  01:26:35  -5.97  -4.55          -70.393662             +12.0000
iter:  30  01:27:27  -6.08  -4.51          -70.393664             +12.0000
iter:  31  01:28:19  -6.23  -4.58          -70.393666             +12.0000
iter:  32  01:29:11  -6.34  -4.54          -70.393667             +12.0000
iter:  33  01:30:03  -6.45  -4.57          -70.393667             +12.0000
iter:  34  01:30:55  -6.53  -4.57          -70.393668             +12.0000
iter:  35  01:31:47  -6.74  -4.61          -70.393669             +12.0000
iter:  36  01:32:39  -7.05  -4.62          -70.393669             +12.0000
iter:  37  01:33:31  -7.13  -4.71          -70.393669             +12.0000
iter:  38  01:34:23  -7.25  -4.66          -70.393669             +12.0000
iter:  39  01:35:15  -7.35  -5.00          -70.393669             +12.0000
iter:  40  01:36:17  -7.56  -5.00          -70.393670             +12.0000
iter:  41  01:37:19  -7.68  -5.11    -3.10 -70.393670             +12.0000
iter:  42  01:38:22  -7.77  -5.45    -3.62 -70.393670             +12.0000
iter:  43  01:39:25  -7.94  -5.56    -3.93 -70.393670             +12.0000
iter:  44  01:40:28  -8.05  -5.65    -3.61 -70.393670             +12.0000
iter:  45  01:41:31  -8.16  -5.91    -4.14 -70.393670             +12.0000

Converged after 45 iterations.

Dipole moment: (-31.571237, 0.001037, -0.088028) |e|*Ang

Total magnetic moment: (0.000000, 0.000000, 12.000000)
Local magnetic moments:
   0 Cr ( 0.000000,  0.000000,  2.910203)
   1 Cr ( 0.000000,  0.000000,  2.914234)
   2 I  ( 0.000000,  0.000000, -0.047178)
   3 I  ( 0.000000,  0.000000, -0.046814)
   4 I  ( 0.000000,  0.000000, -0.046779)
   5 I  ( 0.000000,  0.000000, -0.049073)
   6 I  ( 0.000000,  0.000000, -0.049450)
   7 I  ( 0.000000,  0.000000, -0.049455)
   8 Cr ( 0.000000,  0.000000,  2.915450)
   9 Cr ( 0.000000,  0.000000,  2.911347)
  10 I  ( 0.000000,  0.000000, -0.049653)
  11 I  ( 0.000000,  0.000000, -0.049564)
  12 I  ( 0.000000,  0.000000, -0.049602)
  13 I  ( 0.000000,  0.000000, -0.046966)
  14 I  ( 0.000000,  0.000000, -0.046918)
  15 I  ( 0.000000,  0.000000, -0.046992)

Energy contributions relative to reference atoms: (reference = -2434708.556191)

Kinetic:        +23.519998
Potential:      -37.452942
External:        +0.000000
XC:             -56.637911
Entropy (-ST):   -0.000000
Local:           +0.177186
--------------------------
Free energy:    -70.393670
Extrapolated:   -70.393670

Spin contamination: 1.118092 electrons
Showing only first 2 kpts
                      Up                     Down
 Kpt  Band  Eigenvalues  Occupancy  Eigenvalues  Occupancy
  0    52     -2.13863    1.00000     -0.01306    0.00000
  0    53     -2.10261    1.00000      0.00246    0.00000
  0    54     -2.01963    1.00000      0.17960    0.00000
  0    55     -2.01853    1.00000      0.21012    0.00000

  1    52     -2.11762    1.00000     -0.01948    0.00000
  1    53     -2.07381    1.00000      0.01808    0.00000
  1    54     -2.02013    1.00000      0.16957    0.00000
  1    55     -1.98977    1.00000      0.20846    0.00000


Fermi level: -1.17404

Gap: 0.972 eV
Transition (v -> c):
  (s=0, k=132, n=59, [0.46, -0.46, 0.00]) -> (s=0, k=126, n=60, [0.38, 0.04, 0.00])
Writing to born-0.01-5z-.gpw (mode='all')

Timing:                              incl.     excl.
-----------------------------------------------------------
Hamiltonian:                         2.812     0.011   0.0% |
 Atomic:                             1.316     1.316   0.0% |
  XC Correction:                     0.000     0.000   0.0% |
 Calculate atomic Hamiltonians:      0.330     0.330   0.0% |
 Communicate:                        0.000     0.000   0.0% |
 Initialize Hamiltonian:             0.004     0.004   0.0% |
 Poisson:                            0.013     0.013   0.0% |
 XC 3D grid:                         1.138     1.138   0.0% |
LCAO initialization:                21.262     0.141   0.0% |
 LCAO eigensolver:                   3.319     0.001   0.0% |
  Calculate projections:             0.004     0.004   0.0% |
  DenseAtomicCorrection:             0.006     0.006   0.0% |
  Distribute overlap matrix:         0.000     0.000   0.0% |
  Orbital Layouts:                   0.016     0.016   0.0% |
  Potential matrix:                  3.281     3.281   0.1% |
  Sum over cells:                    0.012     0.012   0.0% |
 LCAO to grid:                      17.521    17.521   0.3% |
 Set positions (LCAO WFS):           0.281     0.050   0.0% |
  Basic WFS set positions:           0.001     0.001   0.0% |
  Basis functions set positions:     0.000     0.000   0.0% |
  P tci:                             0.123     0.123   0.0% |
  ST tci:                            0.064     0.064   0.0% |
  mktci:                             0.043     0.043   0.0% |
PWDescriptor:                        0.088     0.088   0.0% |
SCF-cycle:                        2402.311   558.592  10.0% |---|
 Davidson:                        1455.182   242.114   4.3% |-|
  Apply H:                         244.205   236.773   4.2% |-|
   HMM T:                            7.431     7.431   0.1% |
  Subspace diag:                   301.116     0.061   0.0% |
   calc_h_matrix:                  266.622    20.836   0.4% |
    Apply H:                       245.786   237.984   4.3% |-|
     HMM T:                          7.802     7.802   0.1% |
   diagonalize:                      0.560     0.560   0.0% |
   rotate_psi:                      33.873    33.873   0.6% |
  calc. matrices:                  602.966   117.844   2.1% ||
   Apply H:                        485.122   470.173   8.4% |--|
    HMM T:                          14.948    14.948   0.3% |
  diagonalize:                       5.275     5.275   0.1% |
  rotate_psi:                       59.506    59.506   1.1% |
 Density:                          237.302     0.002   0.0% |
  Atomic density matrices:           0.327     0.327   0.0% |
  Mix:                              39.963    39.963   0.7% |
  Multipole moments:                 0.021     0.021   0.0% |
  Pseudo density:                  196.989   196.985   3.5% ||
   Symmetrize density:               0.003     0.003   0.0% |
 Forces:                            59.348    59.348   1.1% |
 Hamiltonian:                       90.255     0.761   0.0% |
  Atomic:                            6.037     6.036   0.1% |
   XC Correction:                    0.000     0.000   0.0% |
  Calculate atomic Hamiltonians:    28.843    28.843   0.5% |
  Communicate:                       0.008     0.008   0.0% |
  Poisson:                           0.537     0.537   0.0% |
  XC 3D grid:                       54.068    54.068   1.0% |
 Orthonormalize:                     1.633     0.002   0.0% |
  calc_s_matrix:                     0.216     0.216   0.0% |
  inverse-cholesky:                  0.004     0.004   0.0% |
  projections:                       0.979     0.979   0.0% |
  rotate_psi_s:                      0.431     0.431   0.0% |
Set symmetry:                        0.000     0.000   0.0% |
Other:                            3164.312  3164.312  56.6% |----------------------|
-----------------------------------------------------------
Total:                                      5590.785 100.0%

Memory usage: 39.14 GiB
Date: Mon Jun 27 02:34:11 2022
