
  ___ ___ ___ _ _ _  
 |   |   |_  | | | | 
 | | | | | . | | | | 
 |__ |  _|___|_____|  21.6.1b1
 |___|_|             

User:   madkru@c007.nifl.fysik.dtu.dk
Date:   Wed Jun 29 17:53:10 2022
Arch:   x86_64
Pid:    215850
Python: 3.8.6
gpaw:   /home/niflheim/madkru/new_venv/gpaw/gpaw (1f0dfc9eae)
_gpaw:  /home/niflheim/madkru/new_venv/gpaw/build/lib.linux-x86_64-skylake-3.8/
        _gpaw.cpython-38-x86_64-linux-gnu.so (c1e45bfab3)
ase:    /home/niflheim/madkru/new_venv/ase/ase (version 3.23.0b1-ca38c75a67)
numpy:  /home/modules/software/SciPy-bundle/2020.11-foss-2020b/lib/python3.8/site-packages/numpy (version 1.19.4)
scipy:  /home/modules/software/SciPy-bundle/2020.11-foss-2020b/lib/python3.8/site-packages/scipy (version 1.5.4)
libxc:  4.3.4
units:  Angstrom and eV
cores: 40
OpenMP: False
OMP_NUM_THREADS: 1

Input parameters:
  convergence: {bands: occupied,
                density: 0.0001,
                eigenstates: 4e-08,
                energy: 0.0005,
                forces: 0.0001}
  kpts: [12 12  1]
  mode: {ecut: 600.0,
         gammacentered: False,
         name: pw}
  occupations: {fixmagmom: False,
                name: fermi-dirac,
                width: 0.001}
  symmetry: {point_group: False,
             time_reversal: False}

System changes: positions, numbers, cell, pbc, initial_charges, initial_magmoms 

Initialize ...

Cr-setup:
  name: Chromium
  id: 444e8044bc0f91048286c984738d87f5
  Z: 24.0
  valence: 6
  core: 18
  charge: 0.0
  file: /home/modules/software/GPAW-setups/0.9.20000/Cr.LDA.gz
  compensation charges: gauss, rc=0.35, lmax=2
  cutoffs: 2.14(filt), 3.04(core),
  valence states:
                energy  radius
    4s(1.00)    -4.191   1.164
    4p(0.00)    -1.079   1.217
    3d(5.00)    -3.128   1.111
    *s          23.021   1.164
    *p          26.132   1.217
    *d          24.083   1.111

  Using partial waves for Cr as LCAO basis

I-setup:
  name: Iodine
  id: b559721c0c096a7b4c8fc0e0f4de5cf4
  Z: 53.0
  valence: 7
  core: 46
  charge: 0.0
  file: /home/modules/software/GPAW-setups/0.9.20000/I.LDA.gz
  compensation charges: gauss, rc=0.37, lmax=2
  cutoffs: 2.06(filt), 2.90(core),
  valence states:
                energy  radius
    5s(2.00)   -17.626   1.164
    5p(5.00)    -7.241   1.164
    *s           9.585   1.164
    *p          19.970   1.164
    *d           0.000   1.164

  Using partial waves for I as LCAO basis

Reference energy: -2434708.556191

Spin-polarized calculation.
Magnetic moment: 12.175341

Convergence criteria:
  Maximum total energy change: 0.0005 eV / electron
  Maximum integral of absolute density change: 0.0001 electrons
  Maximum integral of absolute eigenstate change: 4e-08 eV^2
  Maximum change in atomic force: 0.0001 eV / Ang
  Maximum number of iterations: 333

Symmetries present (total): 1

  ( 1  0  0)
  ( 0  1  0)
  ( 0  0  1)

144 k-points: 12 x 12 x 1 Monkhorst-Pack grid
144 k-points in the irreducible part of the Brillouin zone
       k-points in crystal coordinates                weights
   0:    -0.45833333   -0.45833333    0.00000000          1/144
   1:    -0.45833333   -0.37500000    0.00000000          1/144
   2:    -0.45833333   -0.29166667    0.00000000          1/144
   3:    -0.45833333   -0.20833333    0.00000000          1/144
   4:    -0.45833333   -0.12500000    0.00000000          1/144
   5:    -0.45833333   -0.04166667    0.00000000          1/144
   6:    -0.45833333    0.04166667    0.00000000          1/144
   7:    -0.45833333    0.12500000    0.00000000          1/144
   8:    -0.45833333    0.20833333    0.00000000          1/144
   9:    -0.45833333    0.29166667    0.00000000          1/144
          ...
 143:     0.45833333    0.45833333    0.00000000          1/144

Wave functions: Plane wave expansion
  Cutoff energy: 600.000 eV
  Number of coefficients (min, max): 39797, 39902
  Pulay-stress correction: 0.000000 eV/Ang^3 (de/decut=0.000000)
  Using FFTW library
  ScaLapack parameters: grid=1x1, blocksize=None
  Wavefunction extrapolation:
    Improved wavefunction reuse through dual PAW basis 

Occupation numbers: Fermi-Dirac: width=0.0010 eV
 

Eigensolver
   Davidson(niter=2) 

Densities:
  Coarse grid: 42*42*160 grid
  Fine grid: 84*84*320 grid
  Total Charge: 0.000000 

Density mixing:
  Method: difference
  Backend: pulay
  Linear mixing parameter: 0.05
  Mixing with 5 old densities
  Damping of long wave oscillations: 50 

Hamiltonian:
  XC and Coulomb potentials evaluated on a 84*84*320 grid
  Using the LDA Exchange-Correlation functional
  External potential:
    <gpaw.external.NoExternalPotential object at 0x2b8974554940>
 

Memory estimate:
  Process memory now: 40232.82 MiB
  Calculator: 580.26 MiB
    Density: 158.40 MiB
      Arrays: 75.37 MiB
      Localized functions: 52.88 MiB
      Mixer: 30.15 MiB
    Hamiltonian: 57.28 MiB
      Arrays: 55.99 MiB
      XC: 0.00 MiB
      Poisson: 0.00 MiB
      vbar: 1.29 MiB
    Wavefunctions: 364.58 MiB
      Arrays psit_nG: 281.29 MiB
      Eigensolver: 50.83 MiB
      Projections: 1.61 MiB
      Projectors: 18.26 MiB
      PW-descriptor: 12.59 MiB

Total number of cores used: 40
Parallelization over k-points: 40

Number of atoms: 16
Number of atomic orbitals: 84
Number of bands in calculation: 77
Number of valence electrons: 108
Bands to converge: occupied

... initialized

Initializing position-dependent things.

Density initialized from atomic densities
Creating initial wave functions:
  77 bands from LCAO basis set

                                       
                                       
                                       
                                       
                      I                
                            I          
                   I                   
                       Cr  I           
             Cr                        
                 I                     
                         I             
                     I                 
                             I         
               Cr                      
                   I   Cr              
          I                            
                 I                     
                        I              
                                       
                                       
                                       
                                       

Positions:
   0 Cr     0.889135    0.000185   -3.063135    ( 0.0000,  0.0000,  3.4336)
   1 Cr    -2.666158    2.052642   -3.080223    ( 0.0000,  0.0000,  3.4336)
   2 I      1.822012   -2.046247   -4.559876    ( 0.0000,  0.0000, -0.1299)
   3 I     -1.348662    0.216415   -4.560605    ( 0.0000,  0.0000, -0.1299)
   4 I     -4.915070    1.830062   -4.560598    ( 0.0000,  0.0000, -0.1299)
   5 I     -0.074828   -2.063434   -1.594960    ( 0.0000,  0.0000, -0.1299)
   6 I     -0.416551    1.865690   -1.594231    ( 0.0000,  0.0000, -0.1299)
   7 I      3.157525    0.197989   -1.594234    ( 0.0000,  0.0000, -0.1299)
   8 Cr    -2.666887   -2.052642    3.080226    ( 0.0000,  0.0000,  3.4336)
   9 Cr     0.888546   -0.000185    3.063139    ( 0.0000,  0.0000,  3.4336)
  10 I      1.852510    2.063434    1.594959    ( 0.0000,  0.0000, -0.1299)
  11 I      2.194233   -1.865690    1.594230    ( 0.0000,  0.0000, -0.1299)
  12 I     -1.379843   -0.197989    1.594233    ( 0.0000,  0.0000, -0.1299)
  13 I     -0.044330    2.046247    4.559875    ( 0.0000,  0.0000, -0.1299)
  14 I      3.126343   -0.216415    4.550604    ( 0.0000,  0.0000, -0.1299)
  15 I     -0.417976   -1.830062    4.560597    ( 0.0000,  0.0000, -0.1299)

Unit cell:
           periodic     x           y           z      points  spacing
  1. axis:    yes    7.110727   -0.000000    0.000000    42     0.1466
  2. axis:    yes   -3.555363    6.158070    0.000000    42     0.1466
  3. axis:    no     0.000000   -0.000000   27.269192   160     0.1704

  Lengths:   7.110727   7.110727  27.269192
  Angles:   90.000000  90.000000 120.000000

Effective grid spacing dv^(1/3) = 0.1617

                     log10-error:           total        iterations:
           time      wfs    density  force  energy       poisson  magmom
iter:   1  17:54:30                        -76.910546             +12.1076
iter:   2  17:55:22  -0.99  -0.91          -70.499801             +9.9519
iter:   3  17:56:14  -1.83  -1.33          -70.496279             +11.0094
iter:   4  17:57:06  -1.58  -1.38          -70.966669             +12.0930
iter:   5  17:57:57  -2.53  -1.51          -70.629242             +12.0163
iter:   6  17:58:49  -1.91  -1.83          -70.401922             +12.0006
iter:   7  17:59:41  -2.97  -2.20          -70.395193             +12.0040
iter:   8  18:00:33  -3.31  -2.32          -70.390039             +12.0056
iter:   9  18:01:25  -3.68  -2.66          -70.391178             +12.0018
iter:  10  18:02:17  -3.86  -2.86          -70.391870             +11.9997
iter:  11  18:03:08  -3.99  -2.94          -70.392449             +12.0000
iter:  12  18:04:00  -4.00  -3.02          -70.392772             +12.0000
iter:  13  18:04:52  -4.07  -3.09          -70.392979             +12.0000
iter:  14  18:05:44  -4.11  -3.13          -70.393064             +12.0000
iter:  15  18:06:36  -4.22  -3.27          -70.393222             +12.0000
iter:  16  18:07:27  -4.37  -3.33          -70.393337             +12.0000
iter:  17  18:08:19  -4.63  -3.46          -70.393409             +12.0000
iter:  18  18:09:11  -4.78  -3.57          -70.393473             +12.0000
iter:  19  18:10:03  -4.91  -3.71          -70.393524             +12.0000
iter:  20  18:10:55  -4.96  -3.79          -70.393561             +12.0000
iter:  21  18:11:47  -5.14  -3.96          -70.393590             +12.0000
iter:  22  18:12:39  -5.26  -4.06          -70.393611             +12.0000
iter:  23  18:13:30  -5.27  -4.02          -70.393627             +12.0000
iter:  24  18:14:22  -5.41  -3.97          -70.393638             +12.0000
iter:  25  18:15:14  -5.61  -4.03          -70.393647             +12.0000
iter:  26  18:16:06  -5.73  -4.02          -70.393654             +12.0000
iter:  27  18:16:58  -5.79  -4.01          -70.393657             +12.0000
iter:  28  18:17:49  -5.99  -4.07          -70.393661             +12.0000
iter:  29  18:18:41  -6.22  -4.10          -70.393663             +12.0000
iter:  30  18:19:33  -6.42  -4.08          -70.393665             +12.0000
iter:  31  18:20:25  -6.44  -4.09          -70.393672             +12.0000
iter:  32  18:21:17  -6.69  -4.12          -70.393670             +12.0000
iter:  33  18:22:09  -6.92  -4.14          -70.393670             +12.0000
iter:  34  18:23:00  -7.05  -4.13          -70.393669             +12.0000
iter:  35  18:23:52  -7.19  -4.16          -70.393669             +12.0000
iter:  36  18:24:44  -7.17  -4.15          -70.393669             +12.0000
iter:  37  18:25:36  -6.60  -4.15          -70.393668             +12.0000
iter:  38  18:26:28  -7.22  -4.22          -70.393667             +12.0000
iter:  39  18:27:19  -7.24  -4.33          -70.393667             +12.0000
iter:  40  18:28:11  -7.29  -4.51          -70.393667             +12.0000
iter:  41  18:29:13  -7.81  -4.72          -70.393666             +12.0000
iter:  42  18:30:15  -8.10  -4.87    -3.46 -70.393666             +12.0000
iter:  43  18:31:18  -8.35  -4.89    -3.95 -70.393666             +12.0000
iter:  44  18:32:21  -8.51  -4.90    -3.26 -70.393666             +12.0000
iter:  45  18:33:23  -8.27  -4.94    -3.33 -70.393666             +12.0000
iter:  46  18:34:26  -8.78  -5.07    -3.68 -70.393666             +12.0000
iter:  47  18:35:28  -8.67  -5.10    -3.33 -70.393666             +12.0000
iter:  48  18:36:31  -8.40  -5.20    -3.54 -70.393666             +12.0000
iter:  49  18:37:34  -8.55  -5.40    -3.60 -70.393666             +12.0000
iter:  50  18:38:36  -8.81  -5.75    -3.82 -70.393666             +12.0000
iter:  51  18:39:39  -9.00  -5.79    -4.07 -70.393666             +12.0000

Converged after 51 iterations.

Dipole moment: (-31.571615, -0.000099, -0.000573) |e|*Ang

Total magnetic moment: (0.000000, 0.000000, 12.000000)
Local magnetic moments:
   0 Cr ( 0.000000,  0.000000,  2.911285)
   1 Cr ( 0.000000,  0.000000,  2.915428)
   2 I  ( 0.000000,  0.000000, -0.046978)
   3 I  ( 0.000000,  0.000000, -0.046931)
   4 I  ( 0.000000,  0.000000, -0.046953)
   5 I  ( 0.000000,  0.000000, -0.049693)
   6 I  ( 0.000000,  0.000000, -0.049648)
   7 I  ( 0.000000,  0.000000, -0.049617)
   8 Cr ( 0.000000,  0.000000,  2.914379)
   9 Cr ( 0.000000,  0.000000,  2.910241)
  10 I  ( 0.000000,  0.000000, -0.049487)
  11 I  ( 0.000000,  0.000000, -0.049888)
  12 I  ( 0.000000,  0.000000, -0.049488)
  13 I  ( 0.000000,  0.000000, -0.046730)
  14 I  ( 0.000000,  0.000000, -0.046444)
  15 I  ( 0.000000,  0.000000, -0.046706)

Energy contributions relative to reference atoms: (reference = -2434708.556191)

Kinetic:        +23.575261
Potential:      -37.494277
External:        +0.000000
XC:             -56.651269
Entropy (-ST):   -0.000000
Local:           +0.176619
--------------------------
Free energy:    -70.393666
Extrapolated:   -70.393666

Spin contamination: 1.118021 electrons
Showing only first 2 kpts
                      Up                     Down
 Kpt  Band  Eigenvalues  Occupancy  Eigenvalues  Occupancy
  0    52     -2.13760    1.00000     -0.01139    0.00000
  0    53     -2.10174    1.00000      0.00357    0.00000
  0    54     -2.01934    1.00000      0.18097    0.00000
  0    55     -2.01776    1.00000      0.21181    0.00000

  1    52     -2.11695    1.00000     -0.01773    0.00000
  1    53     -2.07274    1.00000      0.01942    0.00000
  1    54     -2.01963    1.00000      0.17064    0.00000
  1    55     -1.98917    1.00000      0.20942    0.00000


Fermi level: -1.16184

Gap: 0.971 eV
Transition (v -> c):
  (s=0, k=132, n=59, [0.46, -0.46, 0.00]) -> (s=0, k=71, n=60, [-0.04, 0.46, 0.00])
Writing to born-0.01-14z-.gpw (mode='all')

Timing:                              incl.     excl.
-----------------------------------------------------------
Hamiltonian:                         2.780     0.011   0.0% |
 Atomic:                             1.284     1.284   0.0% |
  XC Correction:                     0.000     0.000   0.0% |
 Calculate atomic Hamiltonians:      0.330     0.330   0.0% |
 Communicate:                        0.000     0.000   0.0% |
 Initialize Hamiltonian:             0.004     0.004   0.0% |
 Poisson:                            0.012     0.012   0.0% |
 XC 3D grid:                         1.138     1.138   0.0% |
LCAO initialization:                20.512     0.168   0.0% |
 LCAO eigensolver:                   3.069     0.001   0.0% |
  Calculate projections:             0.004     0.004   0.0% |
  DenseAtomicCorrection:             0.005     0.005   0.0% |
  Distribute overlap matrix:         0.000     0.000   0.0% |
  Orbital Layouts:                   0.016     0.016   0.0% |
  Potential matrix:                  3.032     3.032   0.0% |
  Sum over cells:                    0.011     0.011   0.0% |
 LCAO to grid:                      16.997    16.997   0.3% |
 Set positions (LCAO WFS):           0.279     0.050   0.0% |
  Basic WFS set positions:           0.001     0.001   0.0% |
  Basis functions set positions:     0.000     0.000   0.0% |
  P tci:                             0.122     0.122   0.0% |
  ST tci:                            0.064     0.064   0.0% |
  mktci:                             0.043     0.043   0.0% |
PWDescriptor:                        0.088     0.088   0.0% |
SCF-cycle:                        2761.711   582.917   9.5% |---|
 Davidson:                        1692.068   264.981   4.3% |-|
  Apply H:                         296.623   287.030   4.7% |-|
   HMM T:                            9.593     9.593   0.2% |
  Subspace diag:                   356.234     0.077   0.0% |
   calc_h_matrix:                  315.941    22.082   0.4% |
    Apply H:                       293.859   283.799   4.6% |-|
     HMM T:                         10.060    10.060   0.2% |
   diagonalize:                      0.645     0.645   0.0% |
   rotate_psi:                      39.571    39.571   0.6% |
  calc. matrices:                  697.332   124.816   2.0% ||
   Apply H:                        572.516   553.752   9.0% |---|
    HMM T:                          18.764    18.764   0.3% |
  diagonalize:                       6.035     6.035   0.1% |
  rotate_psi:                       70.862    70.862   1.2% |
 Density:                          275.617     0.002   0.0% |
  Atomic density matrices:           0.373     0.373   0.0% |
  Mix:                              47.096    47.096   0.8% |
  Multipole moments:                 0.024     0.024   0.0% |
  Pseudo density:                  228.123   228.119   3.7% ||
   Symmetrize density:               0.004     0.004   0.0% |
 Forces:                           108.362   108.362   1.8% ||
 Hamiltonian:                      101.015     0.858   0.0% |
  Atomic:                            4.975     4.975   0.1% |
   XC Correction:                    0.000     0.000   0.0% |
  Calculate atomic Hamiltonians:    33.403    33.403   0.5% |
  Communicate:                       0.016     0.016   0.0% |
  Poisson:                           0.610     0.610   0.0% |
  XC 3D grid:                       61.152    61.152   1.0% |
 Orthonormalize:                     1.733     0.002   0.0% |
  calc_s_matrix:                     0.228     0.228   0.0% |
  inverse-cholesky:                  0.004     0.004   0.0% |
  projections:                       1.051     1.051   0.0% |
  rotate_psi_s:                      0.449     0.449   0.0% |
Set symmetry:                        0.000     0.000   0.0% |
Other:                            3360.830  3360.830  54.7% |---------------------|
-----------------------------------------------------------
Total:                                      6145.921 100.0%

Memory usage: 39.29 GiB
Date: Wed Jun 29 19:35:36 2022
