
  ___ ___ ___ _ _ _  
 |   |   |_  | | | | 
 | | | | | . | | | | 
 |__ |  _|___|_____|  21.6.1b1
 |___|_|             

User:   madkru@c153.nifl.fysik.dtu.dk
Date:   Mon Jun 27 17:50:58 2022
Arch:   x86_64
Pid:    48887
Python: 3.8.6
gpaw:   /home/niflheim/madkru/new_venv/gpaw/gpaw (1f0dfc9eae)
_gpaw:  /home/niflheim/madkru/new_venv/gpaw/build/lib.linux-x86_64-skylake-3.8/
        _gpaw.cpython-38-x86_64-linux-gnu.so (c1e45bfab3)
ase:    /home/niflheim/madkru/new_venv/ase/ase (version 3.23.0b1-ca38c75a67)
numpy:  /home/modules/software/SciPy-bundle/2020.11-foss-2020b/lib/python3.8/site-packages/numpy (version 1.19.4)
scipy:  /home/modules/software/SciPy-bundle/2020.11-foss-2020b/lib/python3.8/site-packages/scipy (version 1.5.4)
libxc:  4.3.4
units:  Angstrom and eV
cores: 40
OpenMP: False
OMP_NUM_THREADS: 1

Input parameters:
  convergence: {bands: occupied,
                density: 0.0001,
                eigenstates: 4e-08,
                energy: 0.0005,
                forces: 0.0001}
  kpts: [12 12  1]
  mode: {ecut: 600.0,
         gammacentered: False,
         name: pw}
  occupations: {fixmagmom: False,
                name: fermi-dirac,
                width: 0.001}
  symmetry: {point_group: False,
             time_reversal: False}

System changes: positions, numbers, cell, pbc, initial_charges, initial_magmoms 

Initialize ...

Cr-setup:
  name: Chromium
  id: 444e8044bc0f91048286c984738d87f5
  Z: 24.0
  valence: 6
  core: 18
  charge: 0.0
  file: /home/modules/software/GPAW-setups/0.9.20000/Cr.LDA.gz
  compensation charges: gauss, rc=0.35, lmax=2
  cutoffs: 2.14(filt), 3.04(core),
  valence states:
                energy  radius
    4s(1.00)    -4.191   1.164
    4p(0.00)    -1.079   1.217
    3d(5.00)    -3.128   1.111
    *s          23.021   1.164
    *p          26.132   1.217
    *d          24.083   1.111

  Using partial waves for Cr as LCAO basis

I-setup:
  name: Iodine
  id: b559721c0c096a7b4c8fc0e0f4de5cf4
  Z: 53.0
  valence: 7
  core: 46
  charge: 0.0
  file: /home/modules/software/GPAW-setups/0.9.20000/I.LDA.gz
  compensation charges: gauss, rc=0.37, lmax=2
  cutoffs: 2.06(filt), 2.90(core),
  valence states:
                energy  radius
    5s(2.00)   -17.626   1.164
    5p(5.00)    -7.241   1.164
    *s           9.585   1.164
    *p          19.970   1.164
    *d           0.000   1.164

  Using partial waves for I as LCAO basis

Reference energy: -2434708.556191

Spin-polarized calculation.
Magnetic moment: 12.175341

Convergence criteria:
  Maximum total energy change: 0.0005 eV / electron
  Maximum integral of absolute density change: 0.0001 electrons
  Maximum integral of absolute eigenstate change: 4e-08 eV^2
  Maximum change in atomic force: 0.0001 eV / Ang
  Maximum number of iterations: 333

Symmetries present (total): 1

  ( 1  0  0)
  ( 0  1  0)
  ( 0  0  1)

144 k-points: 12 x 12 x 1 Monkhorst-Pack grid
144 k-points in the irreducible part of the Brillouin zone
       k-points in crystal coordinates                weights
   0:    -0.45833333   -0.45833333    0.00000000          1/144
   1:    -0.45833333   -0.37500000    0.00000000          1/144
   2:    -0.45833333   -0.29166667    0.00000000          1/144
   3:    -0.45833333   -0.20833333    0.00000000          1/144
   4:    -0.45833333   -0.12500000    0.00000000          1/144
   5:    -0.45833333   -0.04166667    0.00000000          1/144
   6:    -0.45833333    0.04166667    0.00000000          1/144
   7:    -0.45833333    0.12500000    0.00000000          1/144
   8:    -0.45833333    0.20833333    0.00000000          1/144
   9:    -0.45833333    0.29166667    0.00000000          1/144
          ...
 143:     0.45833333    0.45833333    0.00000000          1/144

Wave functions: Plane wave expansion
  Cutoff energy: 600.000 eV
  Number of coefficients (min, max): 39797, 39902
  Pulay-stress correction: 0.000000 eV/Ang^3 (de/decut=0.000000)
  Using FFTW library
  ScaLapack parameters: grid=1x1, blocksize=None
  Wavefunction extrapolation:
    Improved wavefunction reuse through dual PAW basis 

Occupation numbers: Fermi-Dirac: width=0.0010 eV
 

Eigensolver
   Davidson(niter=2) 

Densities:
  Coarse grid: 42*42*160 grid
  Fine grid: 84*84*320 grid
  Total Charge: 0.000000 

Density mixing:
  Method: difference
  Backend: pulay
  Linear mixing parameter: 0.05
  Mixing with 5 old densities
  Damping of long wave oscillations: 50 

Hamiltonian:
  XC and Coulomb potentials evaluated on a 84*84*320 grid
  Using the LDA Exchange-Correlation functional
  External potential:
    <gpaw.external.NoExternalPotential object at 0x2b3331ff5e50>
 

Memory estimate:
  Process memory now: 40163.27 MiB
  Calculator: 580.26 MiB
    Density: 158.40 MiB
      Arrays: 75.37 MiB
      Localized functions: 52.88 MiB
      Mixer: 30.15 MiB
    Hamiltonian: 57.28 MiB
      Arrays: 55.99 MiB
      XC: 0.00 MiB
      Poisson: 0.00 MiB
      vbar: 1.29 MiB
    Wavefunctions: 364.58 MiB
      Arrays psit_nG: 281.29 MiB
      Eigensolver: 50.83 MiB
      Projections: 1.61 MiB
      Projectors: 18.26 MiB
      PW-descriptor: 12.59 MiB

Total number of cores used: 40
Parallelization over k-points: 40

Number of atoms: 16
Number of atomic orbitals: 84
Number of bands in calculation: 77
Number of valence electrons: 108
Bands to converge: occupied

... initialized

Initializing position-dependent things.

Density initialized from atomic densities
Creating initial wave functions:
  77 bands from LCAO basis set

                                       
                                       
                                       
                                       
                      I                
                            I          
                   I                   
                       Cr  I           
             Cr                        
                 I                     
                         I             
                     I                 
                             I         
               Cr                      
                   I   Cr              
          I                            
                 I                     
                        I              
                                       
                                       
                                       
                                       

Positions:
   0 Cr     0.889135    0.000185   -3.063135    ( 0.0000,  0.0000,  3.4336)
   1 Cr    -2.666158    2.052642   -3.080223    ( 0.0000,  0.0000,  3.4336)
   2 I      1.822012   -2.046247   -4.559876    ( 0.0000,  0.0000, -0.1299)
   3 I     -1.348662    0.216415   -4.560605    ( 0.0000,  0.0000, -0.1299)
   4 I     -4.915070    1.830062   -4.560598    ( 0.0000,  0.0000, -0.1299)
   5 I     -0.074828   -2.063434   -1.594960    ( 0.0000,  0.0000, -0.1299)
   6 I     -0.416551    1.865690   -1.594231    ( 0.0000,  0.0000, -0.1299)
   7 I      3.157525    0.197989   -1.594234    ( 0.0000,  0.0000, -0.1299)
   8 Cr    -2.666887   -2.052642    3.090226    ( 0.0000,  0.0000,  3.4336)
   9 Cr     0.888546   -0.000185    3.063139    ( 0.0000,  0.0000,  3.4336)
  10 I      1.852510    2.063434    1.594959    ( 0.0000,  0.0000, -0.1299)
  11 I      2.194233   -1.865690    1.594230    ( 0.0000,  0.0000, -0.1299)
  12 I     -1.379843   -0.197989    1.594233    ( 0.0000,  0.0000, -0.1299)
  13 I     -0.044330    2.046247    4.559875    ( 0.0000,  0.0000, -0.1299)
  14 I      3.126343   -0.216415    4.560604    ( 0.0000,  0.0000, -0.1299)
  15 I     -0.417976   -1.830062    4.560597    ( 0.0000,  0.0000, -0.1299)

Unit cell:
           periodic     x           y           z      points  spacing
  1. axis:    yes    7.110727   -0.000000    0.000000    42     0.1466
  2. axis:    yes   -3.555363    6.158070    0.000000    42     0.1466
  3. axis:    no     0.000000   -0.000000   27.269192   160     0.1704

  Lengths:   7.110727   7.110727  27.269192
  Angles:   90.000000  90.000000 120.000000

Effective grid spacing dv^(1/3) = 0.1617

                     log10-error:           total        iterations:
           time      wfs    density  force  energy       poisson  magmom
iter:   1  17:52:19                        -76.900171             +12.1076
iter:   2  17:53:11  -0.99  -0.91          -70.503804             +9.9676
iter:   3  17:54:03  -1.83  -1.33          -70.497197             +11.0180
iter:   4  17:54:54  -1.59  -1.38          -70.962550             +12.0929
iter:   5  17:55:46  -2.54  -1.51          -70.629063             +12.0161
iter:   6  17:56:38  -1.91  -1.83          -70.401207             +12.0004
iter:   7  17:57:30  -2.97  -2.20          -70.394619             +12.0039
iter:   8  17:58:21  -3.30  -2.32          -70.389920             +12.0056
iter:   9  17:59:13  -3.67  -2.66          -70.390991             +12.0018
iter:  10  18:00:05  -3.85  -2.86          -70.391706             +11.9998
iter:  11  18:00:57  -3.99  -2.94          -70.392293             +12.0000
iter:  12  18:01:49  -4.03  -2.99          -70.392642             +12.0000
iter:  13  18:02:41  -4.09  -3.08          -70.392824             +12.0000
iter:  14  18:03:32  -4.12  -3.13          -70.392877             +12.0000
iter:  15  18:04:24  -4.27  -3.30          -70.393015             +12.0000
iter:  16  18:05:16  -4.42  -3.44          -70.393144             +12.0000
iter:  17  18:06:08  -4.51  -3.65          -70.393235             +12.0000
iter:  18  18:06:59  -4.73  -3.77          -70.393291             +12.0000
iter:  19  18:07:51  -4.91  -3.94          -70.393342             +12.0000
iter:  20  18:08:43  -4.93  -3.93          -70.393379             +12.0000
iter:  21  18:09:35  -5.17  -3.86          -70.393405             +12.0000
iter:  22  18:10:27  -5.31  -4.07          -70.393424             +12.0000
iter:  23  18:11:19  -5.37  -4.25          -70.393439             +12.0000
iter:  24  18:12:10  -5.54  -4.24          -70.393450             +12.0000
iter:  25  18:13:02  -5.58  -4.23          -70.393458             +12.0000
iter:  26  18:13:54  -5.56  -4.20          -70.393465             +12.0000
iter:  27  18:14:46  -5.75  -4.26          -70.393469             +12.0000
iter:  28  18:15:38  -5.91  -4.21          -70.393473             +12.0000
iter:  29  18:16:30  -6.17  -4.33          -70.393475             +12.0000
iter:  30  18:17:21  -6.37  -4.35          -70.393476             +12.0000
iter:  31  18:18:13  -6.54  -4.46          -70.393477             +12.0000
iter:  32  18:19:05  -6.58  -4.58          -70.393478             +12.0000
iter:  33  18:19:57  -6.74  -4.75          -70.393479             +12.0000
iter:  34  18:20:49  -6.81  -4.78          -70.393479             +12.0000
iter:  35  18:21:40  -6.96  -4.88          -70.393479             +12.0000
iter:  36  18:22:32  -7.16  -4.96          -70.393480             +12.0000
iter:  37  18:23:24  -7.34  -5.13          -70.393480             +12.0000
iter:  38  18:24:26  -7.48  -5.24          -70.393480             +12.0000
iter:  39  18:25:28  -7.54  -5.25    -3.80 -70.393480             +12.0000
iter:  40  18:26:31  -7.66  -5.36    -3.93 -70.393480             +12.0000
iter:  41  18:27:34  -7.81  -5.38    -4.30 -70.393480             +12.0000

Converged after 41 iterations.

Dipole moment: (-31.570933, 0.000064, 0.010643) |e|*Ang

Total magnetic moment: (0.000000, 0.000000, 12.000000)
Local magnetic moments:
   0 Cr ( 0.000000,  0.000000,  2.911238)
   1 Cr ( 0.000000,  0.000000,  2.915311)
   2 I  ( 0.000000,  0.000000, -0.046983)
   3 I  ( 0.000000,  0.000000, -0.046942)
   4 I  ( 0.000000,  0.000000, -0.046960)
   5 I  ( 0.000000,  0.000000, -0.049726)
   6 I  ( 0.000000,  0.000000, -0.049702)
   7 I  ( 0.000000,  0.000000, -0.049712)
   8 Cr ( 0.000000,  0.000000,  2.915817)
   9 Cr ( 0.000000,  0.000000,  2.911151)
  10 I  ( 0.000000,  0.000000, -0.050092)
  11 I  ( 0.000000,  0.000000, -0.050070)
  12 I  ( 0.000000,  0.000000, -0.050079)
  13 I  ( 0.000000,  0.000000, -0.046547)
  14 I  ( 0.000000,  0.000000, -0.046504)
  15 I  ( 0.000000,  0.000000, -0.046521)

Energy contributions relative to reference atoms: (reference = -2434708.556191)

Kinetic:        +23.281246
Potential:      -37.254320
External:        +0.000000
XC:             -56.597732
Entropy (-ST):   -0.000000
Local:           +0.177325
--------------------------
Free energy:    -70.393480
Extrapolated:   -70.393480

Spin contamination: 1.119755 electrons
Showing only first 2 kpts
                      Up                     Down
 Kpt  Band  Eigenvalues  Occupancy  Eigenvalues  Occupancy
  0    52     -2.13779    1.00000     -0.00989    0.00000
  0    53     -2.10128    1.00000      0.00428    0.00000
  0    54     -2.01725    1.00000      0.18172    0.00000
  0    55     -2.01631    1.00000      0.21254    0.00000

  1    52     -2.11605    1.00000     -0.01738    0.00000
  1    53     -2.07251    1.00000      0.02002    0.00000
  1    54     -2.01810    1.00000      0.17137    0.00000
  1    55     -1.98767    1.00000      0.21081    0.00000


Fermi level: -1.19475

Gap: 0.972 eV
Transition (v -> c):
  (s=0, k=132, n=59, [0.46, -0.46, 0.00]) -> (s=0, k=126, n=60, [0.38, 0.04, 0.00])
