
  ___ ___ ___ _ _ _  
 |   |   |_  | | | | 
 | | | | | . | | | | 
 |__ |  _|___|_____|  21.6.1b1
 |___|_|             

User:   madkru@c153.nifl.fysik.dtu.dk
Date:   Mon Jun 27 00:11:40 2022
Arch:   x86_64
Pid:    48887
Python: 3.8.6
gpaw:   /home/niflheim/madkru/new_venv/gpaw/gpaw (1f0dfc9eae)
_gpaw:  /home/niflheim/madkru/new_venv/gpaw/build/lib.linux-x86_64-skylake-3.8/
        _gpaw.cpython-38-x86_64-linux-gnu.so (c1e45bfab3)
ase:    /home/niflheim/madkru/new_venv/ase/ase (version 3.23.0b1-ca38c75a67)
numpy:  /home/modules/software/SciPy-bundle/2020.11-foss-2020b/lib/python3.8/site-packages/numpy (version 1.19.4)
scipy:  /home/modules/software/SciPy-bundle/2020.11-foss-2020b/lib/python3.8/site-packages/scipy (version 1.5.4)
libxc:  4.3.4
units:  Angstrom and eV
cores: 40
OpenMP: False
OMP_NUM_THREADS: 1

Input parameters:
  convergence: {bands: occupied,
                density: 0.0001,
                eigenstates: 4e-08,
                energy: 0.0005,
                forces: 0.0001}
  kpts: [12 12  1]
  mode: {ecut: 600.0,
         gammacentered: False,
         name: pw}
  occupations: {fixmagmom: False,
                name: fermi-dirac,
                width: 0.001}
  symmetry: {point_group: False,
             time_reversal: False}

System changes: positions, numbers, cell, pbc, initial_charges, initial_magmoms 

Initialize ...

Cr-setup:
  name: Chromium
  id: 444e8044bc0f91048286c984738d87f5
  Z: 24.0
  valence: 6
  core: 18
  charge: 0.0
  file: /home/modules/software/GPAW-setups/0.9.20000/Cr.LDA.gz
  compensation charges: gauss, rc=0.35, lmax=2
  cutoffs: 2.14(filt), 3.04(core),
  valence states:
                energy  radius
    4s(1.00)    -4.191   1.164
    4p(0.00)    -1.079   1.217
    3d(5.00)    -3.128   1.111
    *s          23.021   1.164
    *p          26.132   1.217
    *d          24.083   1.111

  Using partial waves for Cr as LCAO basis

I-setup:
  name: Iodine
  id: b559721c0c096a7b4c8fc0e0f4de5cf4
  Z: 53.0
  valence: 7
  core: 46
  charge: 0.0
  file: /home/modules/software/GPAW-setups/0.9.20000/I.LDA.gz
  compensation charges: gauss, rc=0.37, lmax=2
  cutoffs: 2.06(filt), 2.90(core),
  valence states:
                energy  radius
    5s(2.00)   -17.626   1.164
    5p(5.00)    -7.241   1.164
    *s           9.585   1.164
    *p          19.970   1.164
    *d           0.000   1.164

  Using partial waves for I as LCAO basis

Reference energy: -2434708.556191

Spin-polarized calculation.
Magnetic moment: 12.175341

Convergence criteria:
  Maximum total energy change: 0.0005 eV / electron
  Maximum integral of absolute density change: 0.0001 electrons
  Maximum integral of absolute eigenstate change: 4e-08 eV^2
  Maximum change in atomic force: 0.0001 eV / Ang
  Maximum number of iterations: 333

Symmetries present (total): 1

  ( 1  0  0)
  ( 0  1  0)
  ( 0  0  1)

144 k-points: 12 x 12 x 1 Monkhorst-Pack grid
144 k-points in the irreducible part of the Brillouin zone
       k-points in crystal coordinates                weights
   0:    -0.45833333   -0.45833333    0.00000000          1/144
   1:    -0.45833333   -0.37500000    0.00000000          1/144
   2:    -0.45833333   -0.29166667    0.00000000          1/144
   3:    -0.45833333   -0.20833333    0.00000000          1/144
   4:    -0.45833333   -0.12500000    0.00000000          1/144
   5:    -0.45833333   -0.04166667    0.00000000          1/144
   6:    -0.45833333    0.04166667    0.00000000          1/144
   7:    -0.45833333    0.12500000    0.00000000          1/144
   8:    -0.45833333    0.20833333    0.00000000          1/144
   9:    -0.45833333    0.29166667    0.00000000          1/144
          ...
 143:     0.45833333    0.45833333    0.00000000          1/144

Wave functions: Plane wave expansion
  Cutoff energy: 600.000 eV
  Number of coefficients (min, max): 39797, 39902
  Pulay-stress correction: 0.000000 eV/Ang^3 (de/decut=0.000000)
  Using FFTW library
  ScaLapack parameters: grid=1x1, blocksize=None
  Wavefunction extrapolation:
    Improved wavefunction reuse through dual PAW basis 

Occupation numbers: Fermi-Dirac: width=0.0010 eV
 

Eigensolver
   Davidson(niter=2) 

Densities:
  Coarse grid: 42*42*160 grid
  Fine grid: 84*84*320 grid
  Total Charge: 0.000000 

Density mixing:
  Method: difference
  Backend: pulay
  Linear mixing parameter: 0.05
  Mixing with 5 old densities
  Damping of long wave oscillations: 50 

Hamiltonian:
  XC and Coulomb potentials evaluated on a 84*84*320 grid
  Using the LDA Exchange-Correlation functional
  External potential:
    <gpaw.external.NoExternalPotential object at 0x2b3335c11ca0>
 

Memory estimate:
  Process memory now: 40075.95 MiB
  Calculator: 580.26 MiB
    Density: 158.40 MiB
      Arrays: 75.37 MiB
      Localized functions: 52.88 MiB
      Mixer: 30.15 MiB
    Hamiltonian: 57.28 MiB
      Arrays: 55.99 MiB
      XC: 0.00 MiB
      Poisson: 0.00 MiB
      vbar: 1.29 MiB
    Wavefunctions: 364.58 MiB
      Arrays psit_nG: 281.29 MiB
      Eigensolver: 50.83 MiB
      Projections: 1.61 MiB
      Projectors: 18.26 MiB
      PW-descriptor: 12.59 MiB

Total number of cores used: 40
Parallelization over k-points: 40

Number of atoms: 16
Number of atomic orbitals: 84
Number of bands in calculation: 77
Number of valence electrons: 108
Bands to converge: occupied

... initialized

Initializing position-dependent things.

Density initialized from atomic densities
Creating initial wave functions:
  77 bands from LCAO basis set

                                       
                                       
                                       
                                       
                      I                
                            I          
                   I                   
                       Cr  I           
             Cr                        
                 I                     
                         I             
                     I                 
                             I         
               Cr                      
                   I   Cr              
          I                            
                 I                     
                        I              
                                       
                                       
                                       
                                       

Positions:
   0 Cr     0.889135    0.000185   -3.063135    ( 0.0000,  0.0000,  3.4336)
   1 Cr    -2.666158    2.052642   -3.080223    ( 0.0000,  0.0000,  3.4336)
   2 I      1.822012   -2.046247   -4.559876    ( 0.0000,  0.0000, -0.1299)
   3 I     -1.348662    0.216415   -4.560605    ( 0.0000,  0.0000, -0.1299)
   4 I     -4.915070    1.830062   -4.560598    ( 0.0000,  0.0000, -0.1299)
   5 I     -0.074828   -2.053434   -1.594960    ( 0.0000,  0.0000, -0.1299)
   6 I     -0.416551    1.865690   -1.594231    ( 0.0000,  0.0000, -0.1299)
   7 I      3.157525    0.197989   -1.594234    ( 0.0000,  0.0000, -0.1299)
   8 Cr    -2.666887   -2.052642    3.080226    ( 0.0000,  0.0000,  3.4336)
   9 Cr     0.888546   -0.000185    3.063139    ( 0.0000,  0.0000,  3.4336)
  10 I      1.852510    2.063434    1.594959    ( 0.0000,  0.0000, -0.1299)
  11 I      2.194233   -1.865690    1.594230    ( 0.0000,  0.0000, -0.1299)
  12 I     -1.379843   -0.197989    1.594233    ( 0.0000,  0.0000, -0.1299)
  13 I     -0.044330    2.046247    4.559875    ( 0.0000,  0.0000, -0.1299)
  14 I      3.126343   -0.216415    4.560604    ( 0.0000,  0.0000, -0.1299)
  15 I     -0.417976   -1.830062    4.560597    ( 0.0000,  0.0000, -0.1299)

Unit cell:
           periodic     x           y           z      points  spacing
  1. axis:    yes    7.110727   -0.000000    0.000000    42     0.1466
  2. axis:    yes   -3.555363    6.158070    0.000000    42     0.1466
  3. axis:    no     0.000000   -0.000000   27.269192   160     0.1704

  Lengths:   7.110727   7.110727  27.269192
  Angles:   90.000000  90.000000 120.000000

Effective grid spacing dv^(1/3) = 0.1617

                     log10-error:           total        iterations:
           time      wfs    density  force  energy       poisson  magmom
iter:   1  00:13:01                        -76.901090             +12.1076
iter:   2  00:13:53  -0.99  -0.91          -70.502864             +9.9591
iter:   3  00:14:44  -1.83  -1.33          -70.496940             +11.0135
iter:   4  00:15:36  -1.58  -1.38          -70.967502             +12.0928
iter:   5  00:16:28  -2.53  -1.51          -70.628521             +12.0160
iter:   6  00:17:20  -1.91  -1.83          -70.402219             +12.0005
iter:   7  00:18:12  -2.97  -2.20          -70.395217             +12.0039
iter:   8  00:19:04  -3.31  -2.32          -70.390006             +12.0056
iter:   9  00:19:56  -3.68  -2.67          -70.391169             +12.0017
iter:  10  00:20:47  -3.86  -2.86          -70.391853             +11.9998
iter:  11  00:21:39  -3.99  -2.94          -70.392425             +12.0000
iter:  12  00:22:31  -3.99  -3.03          -70.392740             +12.0000
iter:  13  00:23:23  -4.05  -3.10          -70.392950             +12.0000
iter:  14  00:24:15  -4.10  -3.15          -70.393053             +12.0000
iter:  15  00:25:06  -4.19  -3.27          -70.393215             +12.0000
iter:  16  00:25:58  -4.34  -3.32          -70.393337             +12.0000
iter:  17  00:26:50  -4.60  -3.38          -70.393395             +12.0000
iter:  18  00:27:42  -4.76  -3.56          -70.393465             +12.0000
iter:  19  00:28:34  -4.90  -3.66          -70.393513             +12.0000
iter:  20  00:29:26  -5.01  -3.74          -70.393554             +12.0000
iter:  21  00:30:17  -5.18  -4.21          -70.393580             +12.0000
iter:  22  00:31:09  -5.17  -4.24          -70.393600             +12.0000
iter:  23  00:32:01  -5.30  -4.22          -70.393618             +12.0000
iter:  24  00:32:53  -5.51  -4.13          -70.393629             +12.0000
iter:  25  00:33:45  -5.64  -4.18          -70.393636             +12.0000
iter:  26  00:34:37  -5.78  -4.21          -70.393642             +12.0000
iter:  27  00:35:28  -5.87  -4.25          -70.393646             +12.0000
iter:  28  00:36:20  -6.04  -4.31          -70.393650             +12.0000
iter:  29  00:37:12  -6.19  -4.26          -70.393651             +12.0000
iter:  30  00:38:04  -6.33  -4.44          -70.393653             +12.0000
iter:  31  00:38:56  -6.47  -4.51          -70.393654             +12.0000
iter:  32  00:39:47  -6.71  -4.84          -70.393655             +12.0000
iter:  33  00:40:39  -6.76  -5.02          -70.393655             +12.0000
iter:  34  00:41:31  -6.79  -5.22          -70.393655             +12.0000
iter:  35  00:42:23  -7.02  -5.30          -70.393656             +12.0000
iter:  36  00:43:15  -7.22  -5.53          -70.393656             +12.0000
iter:  37  00:44:06  -7.33  -5.54          -70.393656             +12.0000
iter:  38  00:45:08  -7.44  -5.57          -70.393656             +12.0000
iter:  39  00:46:11  -7.57  -5.48    -4.25 -70.393656             +12.0000

Converged after 39 iterations.

Dipole moment: (-31.522249, 0.003978, -0.002014) |e|*Ang

Total magnetic moment: (0.000000, 0.000000, 12.000000)
Local magnetic moments:
   0 Cr ( 0.000000,  0.000000,  2.909288)
   1 Cr ( 0.000000,  0.000000,  2.917509)
   2 I  ( 0.000000,  0.000000, -0.046988)
   3 I  ( 0.000000,  0.000000, -0.047156)
   4 I  ( 0.000000,  0.000000, -0.046702)
   5 I  ( 0.000000,  0.000000, -0.049680)
   6 I  ( 0.000000,  0.000000, -0.049715)
   7 I  ( 0.000000,  0.000000, -0.049576)
   8 Cr ( 0.000000,  0.000000,  2.915434)
   9 Cr ( 0.000000,  0.000000,  2.911237)
  10 I  ( 0.000000,  0.000000, -0.049669)
  11 I  ( 0.000000,  0.000000, -0.049644)
  12 I  ( 0.000000,  0.000000, -0.049691)
  13 I  ( 0.000000,  0.000000, -0.046975)
  14 I  ( 0.000000,  0.000000, -0.046930)
  15 I  ( 0.000000,  0.000000, -0.046963)

Energy contributions relative to reference atoms: (reference = -2434708.556191)

Kinetic:        +23.267508
Potential:      -37.240225
External:        +0.000000
XC:             -56.597394
Entropy (-ST):   -0.000000
Local:           +0.176454
--------------------------
Free energy:    -70.393656
Extrapolated:   -70.393656

Spin contamination: 1.119656 electrons
Showing only first 2 kpts
                      Up                     Down
 Kpt  Band  Eigenvalues  Occupancy  Eigenvalues  Occupancy
  0    52     -2.13865    1.00000     -0.01256    0.00000
  0    53     -2.10274    1.00000      0.00357    0.00000
  0    54     -2.01973    1.00000      0.18048    0.00000
  0    55     -2.01862    1.00000      0.21133    0.00000

  1    52     -2.11803    1.00000     -0.01995    0.00000
  1    53     -2.07384    1.00000      0.01945    0.00000
  1    54     -2.02022    1.00000      0.17009    0.00000
  1    55     -1.98975    1.00000      0.20892    0.00000


Fermi level: -1.19483

Gap: 0.970 eV
Transition (v -> c):
  (s=0, k=138, n=59, [0.46, 0.04, 0.00]) -> (s=0, k=126, n=60, [0.38, 0.04, 0.00])
Writing to born-0.01-5y+.gpw (mode='all')

Timing:                              incl.     excl.
-----------------------------------------------------------
Hamiltonian:                         3.047     0.010   0.0% |
 Atomic:                             1.557     1.557   0.0% |
  XC Correction:                     0.000     0.000   0.0% |
 Calculate atomic Hamiltonians:      0.321     0.321   0.0% |
 Communicate:                        0.000     0.000   0.0% |
 Initialize Hamiltonian:             0.003     0.003   0.0% |
 Poisson:                            0.009     0.009   0.0% |
 XC 3D grid:                         1.147     1.147   0.0% |
LCAO initialization:                21.265     0.142   0.0% |
 LCAO eigensolver:                   3.324     0.001   0.0% |
  Calculate projections:             0.004     0.004   0.0% |
  DenseAtomicCorrection:             0.006     0.006   0.0% |
  Distribute overlap matrix:         0.000     0.000   0.0% |
  Orbital Layouts:                   0.016     0.016   0.0% |
  Potential matrix:                  3.287     3.287   0.1% |
  Sum over cells:                    0.011     0.011   0.0% |
 LCAO to grid:                      17.514    17.514   0.3% |
 Set positions (LCAO WFS):           0.284     0.050   0.0% |
  Basic WFS set positions:           0.001     0.001   0.0% |
  Basis functions set positions:     0.000     0.000   0.0% |
  P tci:                             0.124     0.124   0.0% |
  ST tci:                            0.066     0.066   0.0% |
  mktci:                             0.044     0.044   0.0% |
PWDescriptor:                        0.088     0.088   0.0% |
SCF-cycle:                        2042.426   456.680   8.2% |--|
 Davidson:                        1284.013   207.736   3.7% ||
  Apply H:                         221.004   214.785   3.9% |-|
   HMM T:                            6.219     6.219   0.1% |
  Subspace diag:                   268.846     0.058   0.0% |
   calc_h_matrix:                  238.894    18.025   0.3% |
    Apply H:                       220.870   214.576   3.9% |-|
     HMM T:                          6.294     6.294   0.1% |
   diagonalize:                      0.486     0.486   0.0% |
   rotate_psi:                      29.408    29.408   0.5% |
  calc. matrices:                  526.120   105.813   1.9% ||
   Apply H:                        420.307   408.924   7.4% |--|
    HMM T:                          11.383    11.383   0.2% |
  diagonalize:                       4.736     4.736   0.1% |
  rotate_psi:                       55.571    55.571   1.0% |
 Density:                          202.491     0.002   0.0% |
  Atomic density matrices:           0.283     0.283   0.0% |
  Mix:                              34.779    34.779   0.6% |
  Multipole moments:                 0.018     0.018   0.0% |
  Pseudo density:                  167.409   167.406   3.0% ||
   Symmetrize density:               0.003     0.003   0.0% |
 Forces:                            19.818    19.818   0.4% |
 Hamiltonian:                       77.712     0.474   0.0% |
  Atomic:                            5.283     5.283   0.1% |
   XC Correction:                    0.000     0.000   0.0% |
  Calculate atomic Hamiltonians:    25.224    25.224   0.5% |
  Communicate:                       0.007     0.007   0.0% |
  Poisson:                           0.443     0.443   0.0% |
  XC 3D grid:                       46.282    46.282   0.8% |
 Orthonormalize:                     1.711     0.002   0.0% |
  calc_s_matrix:                     0.239     0.239   0.0% |
  inverse-cholesky:                  0.004     0.004   0.0% |
  projections:                       1.044     1.044   0.0% |
  rotate_psi_s:                      0.422     0.422   0.0% |
Set symmetry:                        0.000     0.000   0.0% |
Other:                            3481.559  3481.559  62.7% |------------------------|
-----------------------------------------------------------
Total:                                      5548.384 100.0%

Memory usage: 39.14 GiB
Date: Mon Jun 27 01:44:08 2022
