
  ___ ___ ___ _ _ _  
 |   |   |_  | | | | 
 | | | | | . | | | | 
 |__ |  _|___|_____|  21.6.1b1
 |___|_|             

User:   madkru@c153.nifl.fysik.dtu.dk
Date:   Mon Jun 27 07:13:40 2022
Arch:   x86_64
Pid:    48887
Python: 3.8.6
gpaw:   /home/niflheim/madkru/new_venv/gpaw/gpaw (1f0dfc9eae)
_gpaw:  /home/niflheim/madkru/new_venv/gpaw/build/lib.linux-x86_64-skylake-3.8/
        _gpaw.cpython-38-x86_64-linux-gnu.so (c1e45bfab3)
ase:    /home/niflheim/madkru/new_venv/ase/ase (version 3.23.0b1-ca38c75a67)
numpy:  /home/modules/software/SciPy-bundle/2020.11-foss-2020b/lib/python3.8/site-packages/numpy (version 1.19.4)
scipy:  /home/modules/software/SciPy-bundle/2020.11-foss-2020b/lib/python3.8/site-packages/scipy (version 1.5.4)
libxc:  4.3.4
units:  Angstrom and eV
cores: 40
OpenMP: False
OMP_NUM_THREADS: 1

Input parameters:
  convergence: {bands: occupied,
                density: 0.0001,
                eigenstates: 4e-08,
                energy: 0.0005,
                forces: 0.0001}
  kpts: [12 12  1]
  mode: {ecut: 600.0,
         gammacentered: False,
         name: pw}
  occupations: {fixmagmom: False,
                name: fermi-dirac,
                width: 0.001}
  symmetry: {point_group: False,
             time_reversal: False}

System changes: positions, numbers, cell, pbc, initial_charges, initial_magmoms 

Initialize ...

Cr-setup:
  name: Chromium
  id: 444e8044bc0f91048286c984738d87f5
  Z: 24.0
  valence: 6
  core: 18
  charge: 0.0
  file: /home/modules/software/GPAW-setups/0.9.20000/Cr.LDA.gz
  compensation charges: gauss, rc=0.35, lmax=2
  cutoffs: 2.14(filt), 3.04(core),
  valence states:
                energy  radius
    4s(1.00)    -4.191   1.164
    4p(0.00)    -1.079   1.217
    3d(5.00)    -3.128   1.111
    *s          23.021   1.164
    *p          26.132   1.217
    *d          24.083   1.111

  Using partial waves for Cr as LCAO basis

I-setup:
  name: Iodine
  id: b559721c0c096a7b4c8fc0e0f4de5cf4
  Z: 53.0
  valence: 7
  core: 46
  charge: 0.0
  file: /home/modules/software/GPAW-setups/0.9.20000/I.LDA.gz
  compensation charges: gauss, rc=0.37, lmax=2
  cutoffs: 2.06(filt), 2.90(core),
  valence states:
                energy  radius
    5s(2.00)   -17.626   1.164
    5p(5.00)    -7.241   1.164
    *s           9.585   1.164
    *p          19.970   1.164
    *d           0.000   1.164

  Using partial waves for I as LCAO basis

Reference energy: -2434708.556191

Spin-polarized calculation.
Magnetic moment: 12.175341

Convergence criteria:
  Maximum total energy change: 0.0005 eV / electron
  Maximum integral of absolute density change: 0.0001 electrons
  Maximum integral of absolute eigenstate change: 4e-08 eV^2
  Maximum change in atomic force: 0.0001 eV / Ang
  Maximum number of iterations: 333

Symmetries present (total): 1

  ( 1  0  0)
  ( 0  1  0)
  ( 0  0  1)

144 k-points: 12 x 12 x 1 Monkhorst-Pack grid
144 k-points in the irreducible part of the Brillouin zone
       k-points in crystal coordinates                weights
   0:    -0.45833333   -0.45833333    0.00000000          1/144
   1:    -0.45833333   -0.37500000    0.00000000          1/144
   2:    -0.45833333   -0.29166667    0.00000000          1/144
   3:    -0.45833333   -0.20833333    0.00000000          1/144
   4:    -0.45833333   -0.12500000    0.00000000          1/144
   5:    -0.45833333   -0.04166667    0.00000000          1/144
   6:    -0.45833333    0.04166667    0.00000000          1/144
   7:    -0.45833333    0.12500000    0.00000000          1/144
   8:    -0.45833333    0.20833333    0.00000000          1/144
   9:    -0.45833333    0.29166667    0.00000000          1/144
          ...
 143:     0.45833333    0.45833333    0.00000000          1/144

Wave functions: Plane wave expansion
  Cutoff energy: 600.000 eV
  Number of coefficients (min, max): 39797, 39902
  Pulay-stress correction: 0.000000 eV/Ang^3 (de/decut=0.000000)
  Using FFTW library
  ScaLapack parameters: grid=1x1, blocksize=None
  Wavefunction extrapolation:
    Improved wavefunction reuse through dual PAW basis 

Occupation numbers: Fermi-Dirac: width=0.0010 eV
 

Eigensolver
   Davidson(niter=2) 

Densities:
  Coarse grid: 42*42*160 grid
  Fine grid: 84*84*320 grid
  Total Charge: 0.000000 

Density mixing:
  Method: difference
  Backend: pulay
  Linear mixing parameter: 0.05
  Mixing with 5 old densities
  Damping of long wave oscillations: 50 

Hamiltonian:
  XC and Coulomb potentials evaluated on a 84*84*320 grid
  Using the LDA Exchange-Correlation functional
  External potential:
    <gpaw.external.NoExternalPotential object at 0x2b333696f2b0>
 

Memory estimate:
  Process memory now: 40101.31 MiB
  Calculator: 580.26 MiB
    Density: 158.40 MiB
      Arrays: 75.37 MiB
      Localized functions: 52.88 MiB
      Mixer: 30.15 MiB
    Hamiltonian: 57.28 MiB
      Arrays: 55.99 MiB
      XC: 0.00 MiB
      Poisson: 0.00 MiB
      vbar: 1.29 MiB
    Wavefunctions: 364.58 MiB
      Arrays psit_nG: 281.29 MiB
      Eigensolver: 50.83 MiB
      Projections: 1.61 MiB
      Projectors: 18.26 MiB
      PW-descriptor: 12.59 MiB

Total number of cores used: 40
Parallelization over k-points: 40

Number of atoms: 16
Number of atomic orbitals: 84
Number of bands in calculation: 77
Number of valence electrons: 108
Bands to converge: occupied

... initialized

Initializing position-dependent things.

Density initialized from atomic densities
Creating initial wave functions:
  77 bands from LCAO basis set

                                       
                                       
                                       
                                       
                      I                
                            I          
                   I                   
                       Cr  I           
             Cr                        
                 I                     
                         I             
                     I                 
                             I         
               Cr                      
                   I   Cr              
          I                            
                 I                     
                        I              
                                       
                                       
                                       
                                       

Positions:
   0 Cr     0.889135    0.000185   -3.063135    ( 0.0000,  0.0000,  3.4336)
   1 Cr    -2.666158    2.052642   -3.080223    ( 0.0000,  0.0000,  3.4336)
   2 I      1.822012   -2.046247   -4.559876    ( 0.0000,  0.0000, -0.1299)
   3 I     -1.348662    0.216415   -4.560605    ( 0.0000,  0.0000, -0.1299)
   4 I     -4.915070    1.830062   -4.560598    ( 0.0000,  0.0000, -0.1299)
   5 I     -0.074828   -2.063434   -1.594960    ( 0.0000,  0.0000, -0.1299)
   6 I     -0.416551    1.865690   -1.584231    ( 0.0000,  0.0000, -0.1299)
   7 I      3.157525    0.197989   -1.594234    ( 0.0000,  0.0000, -0.1299)
   8 Cr    -2.666887   -2.052642    3.080226    ( 0.0000,  0.0000,  3.4336)
   9 Cr     0.888546   -0.000185    3.063139    ( 0.0000,  0.0000,  3.4336)
  10 I      1.852510    2.063434    1.594959    ( 0.0000,  0.0000, -0.1299)
  11 I      2.194233   -1.865690    1.594230    ( 0.0000,  0.0000, -0.1299)
  12 I     -1.379843   -0.197989    1.594233    ( 0.0000,  0.0000, -0.1299)
  13 I     -0.044330    2.046247    4.559875    ( 0.0000,  0.0000, -0.1299)
  14 I      3.126343   -0.216415    4.560604    ( 0.0000,  0.0000, -0.1299)
  15 I     -0.417976   -1.830062    4.560597    ( 0.0000,  0.0000, -0.1299)

Unit cell:
           periodic     x           y           z      points  spacing
  1. axis:    yes    7.110727   -0.000000    0.000000    42     0.1466
  2. axis:    yes   -3.555363    6.158070    0.000000    42     0.1466
  3. axis:    no     0.000000   -0.000000   27.269192   160     0.1704

  Lengths:   7.110727   7.110727  27.269192
  Angles:   90.000000  90.000000 120.000000

Effective grid spacing dv^(1/3) = 0.1617

                     log10-error:           total        iterations:
           time      wfs    density  force  energy       poisson  magmom
iter:   1  07:15:01                        -76.892926             +12.1076
iter:   2  07:15:52  -0.99  -0.91          -70.504530             +9.9679
iter:   3  07:16:44  -1.83  -1.33          -70.497411             +11.0181
iter:   4  07:17:35  -1.59  -1.38          -70.965442             +12.0927
iter:   5  07:18:27  -2.54  -1.51          -70.628407             +12.0158
iter:   6  07:19:18  -1.91  -1.83          -70.402021             +12.0004
iter:   7  07:20:10  -2.97  -2.20          -70.395038             +12.0039
iter:   8  07:21:01  -3.30  -2.32          -70.390045             +12.0056
iter:   9  07:21:53  -3.68  -2.67          -70.391180             +12.0017
iter:  10  07:22:44  -3.86  -2.86          -70.391875             +11.9998
iter:  11  07:23:36  -3.99  -2.94          -70.392454             +12.0000
iter:  12  07:24:27  -4.01  -3.02          -70.392781             +12.0000
iter:  13  07:25:19  -4.08  -3.10          -70.392981             +12.0000
iter:  14  07:26:10  -4.11  -3.15          -70.393065             +12.0000
iter:  15  07:27:02  -4.23  -3.29          -70.393220             +12.0000
iter:  16  07:27:54  -4.36  -3.33          -70.393340             +12.0000
iter:  17  07:28:45  -4.65  -3.41          -70.393408             +12.0000
iter:  18  07:29:37  -4.80  -3.55          -70.393477             +12.0000
iter:  19  07:30:28  -4.92  -3.63          -70.393528             +12.0000
iter:  20  07:31:20  -4.99  -3.69          -70.393565             +12.0000
iter:  21  07:32:11  -5.16  -3.97          -70.393591             +12.0000
iter:  22  07:33:03  -5.24  -4.05          -70.393613             +12.0000
iter:  23  07:33:54  -5.31  -4.07          -70.393629             +12.0000
iter:  24  07:34:46  -5.33  -4.03          -70.393636             +12.0000
iter:  25  07:35:37  -5.44  -4.31          -70.393643             +12.0000
iter:  26  07:36:29  -5.53  -4.35          -70.393649             +12.0000
iter:  27  07:37:20  -5.62  -4.37          -70.393653             +12.0000
iter:  28  07:38:12  -5.76  -4.47          -70.393656             +12.0000
iter:  29  07:39:03  -5.83  -4.46          -70.393659             +12.0000
iter:  30  07:39:54  -6.14  -4.52          -70.393662             +12.0000
iter:  31  07:40:46  -6.33  -4.55          -70.393664             +12.0000
iter:  32  07:41:37  -6.40  -4.59          -70.393665             +12.0000
iter:  33  07:42:28  -6.58  -5.11          -70.393666             +12.0000
iter:  34  07:43:20  -6.77  -5.20          -70.393666             +12.0000
iter:  35  07:44:11  -6.95  -5.35          -70.393667             +12.0000
iter:  36  07:45:02  -7.07  -5.36          -70.393667             +12.0000
iter:  37  07:45:53  -7.21  -5.61          -70.393667             +12.0000
iter:  38  07:46:44  -7.37  -5.69          -70.393667             +12.0000
iter:  39  07:47:46  -7.52  -5.73          -70.393667             +12.0000
iter:  40  07:48:48  -7.67  -5.84    -4.59 -70.393667             +12.0000

Converged after 40 iterations.

Dipole moment: (-31.570978, 0.000542, 0.090769) |e|*Ang

Total magnetic moment: (0.000000, 0.000000, 12.000000)
Local magnetic moments:
   0 Cr ( 0.000000,  0.000000,  2.912391)
   1 Cr ( 0.000000,  0.000000,  2.916655)
   2 I  ( 0.000000,  0.000000, -0.047150)
   3 I  ( 0.000000,  0.000000, -0.046737)
   4 I  ( 0.000000,  0.000000, -0.047071)
   5 I  ( 0.000000,  0.000000, -0.049878)
   6 I  ( 0.000000,  0.000000, -0.050253)
   7 I  ( 0.000000,  0.000000, -0.049859)
   8 Cr ( 0.000000,  0.000000,  2.915442)
   9 Cr ( 0.000000,  0.000000,  2.911247)
  10 I  ( 0.000000,  0.000000, -0.049735)
  11 I  ( 0.000000,  0.000000, -0.049672)
  12 I  ( 0.000000,  0.000000, -0.049749)
  13 I  ( 0.000000,  0.000000, -0.046936)
  14 I  ( 0.000000,  0.000000, -0.046946)
  15 I  ( 0.000000,  0.000000, -0.046970)

Energy contributions relative to reference atoms: (reference = -2434708.556191)

Kinetic:        +23.021479
Potential:      -37.034818
External:        +0.000000
XC:             -56.555929
Entropy (-ST):   -0.000000
Local:           +0.175601
--------------------------
Free energy:    -70.393667
Extrapolated:   -70.393667

Spin contamination: 1.121174 electrons
Showing only first 2 kpts
                      Up                     Down
 Kpt  Band  Eigenvalues  Occupancy  Eigenvalues  Occupancy
  0    52     -2.13871    1.00000     -0.01184    0.00000
  0    53     -2.10297    1.00000      0.00418    0.00000
  0    54     -2.01879    1.00000      0.18051    0.00000
  0    55     -2.01747    1.00000      0.21167    0.00000

  1    52     -2.11816    1.00000     -0.01944    0.00000
  1    53     -2.07394    1.00000      0.01952    0.00000
  1    54     -2.01931    1.00000      0.17012    0.00000
  1    55     -1.98903    1.00000      0.20984    0.00000


Fermi level: -1.19429

Gap: 0.969 eV
Transition (v -> c):
  (s=0, k=5, n=59, [-0.46, -0.04, 0.00]) -> (s=0, k=133, n=60, [0.46, -0.38, 0.00])
Writing to born-0.01-6z+.gpw (mode='all')

Timing:                              incl.     excl.
-----------------------------------------------------------
Hamiltonian:                         2.522     0.011   0.0% |
 Atomic:                             0.920     0.920   0.0% |
  XC Correction:                     0.000     0.000   0.0% |
 Calculate atomic Hamiltonians:      0.429     0.429   0.0% |
 Communicate:                        0.000     0.000   0.0% |
 Initialize Hamiltonian:             0.004     0.004   0.0% |
 Poisson:                            0.013     0.013   0.0% |
 XC 3D grid:                         1.145     1.145   0.0% |
LCAO initialization:                21.282     0.141   0.0% |
 LCAO eigensolver:                   3.321     0.001   0.0% |
  Calculate projections:             0.004     0.004   0.0% |
  DenseAtomicCorrection:             0.006     0.006   0.0% |
  Distribute overlap matrix:         0.000     0.000   0.0% |
  Orbital Layouts:                   0.016     0.016   0.0% |
  Potential matrix:                  3.283     3.283   0.1% |
  Sum over cells:                    0.012     0.012   0.0% |
 LCAO to grid:                      17.538    17.538   0.3% |
 Set positions (LCAO WFS):           0.281     0.050   0.0% |
  Basic WFS set positions:           0.001     0.001   0.0% |
  Basis functions set positions:     0.000     0.000   0.0% |
  P tci:                             0.123     0.123   0.0% |
  ST tci:                            0.064     0.064   0.0% |
  mktci:                             0.043     0.043   0.0% |
PWDescriptor:                        0.088     0.088   0.0% |
SCF-cycle:                        2079.298   460.646   8.3% |--|
 Davidson:                        1311.262   212.407   3.8% |-|
  Apply H:                         226.755   220.182   4.0% |-|
   HMM T:                            6.573     6.573   0.1% |
  Subspace diag:                   275.038     0.057   0.0% |
   calc_h_matrix:                  244.667    17.774   0.3% |
    Apply H:                       226.893   220.070   4.0% |-|
     HMM T:                          6.822     6.822   0.1% |
   diagonalize:                      0.489     0.489   0.0% |
   rotate_psi:                      29.824    29.824   0.5% |
  calc. matrices:                  536.372   104.213   1.9% ||
   Apply H:                        432.159   419.865   7.6% |--|
    HMM T:                          12.294    12.294   0.2% |
  diagonalize:                       4.759     4.759   0.1% |
  rotate_psi:                       55.931    55.931   1.0% |
 Density:                          205.682     0.002   0.0% |
  Atomic density matrices:           0.286     0.286   0.0% |
  Mix:                              35.396    35.396   0.6% |
  Multipole moments:                 0.018     0.018   0.0% |
  Pseudo density:                  169.980   169.977   3.1% ||
   Symmetrize density:               0.003     0.003   0.0% |
 Forces:                            19.974    19.974   0.4% |
 Hamiltonian:                       80.033     0.477   0.0% |
  Atomic:                            5.487     5.487   0.1% |
   XC Correction:                    0.000     0.000   0.0% |
  Calculate atomic Hamiltonians:    25.851    25.851   0.5% |
  Communicate:                       0.006     0.006   0.0% |
  Poisson:                           0.482     0.482   0.0% |
  XC 3D grid:                       47.730    47.730   0.9% |
 Orthonormalize:                     1.700     0.002   0.0% |
  calc_s_matrix:                     0.224     0.224   0.0% |
  inverse-cholesky:                  0.004     0.004   0.0% |
  projections:                       1.039     1.039   0.0% |
  rotate_psi_s:                      0.430     0.430   0.0% |
Set symmetry:                        0.000     0.000   0.0% |
Other:                            3436.348  3436.348  62.0% |------------------------|
-----------------------------------------------------------
Total:                                      5539.538 100.0%

Memory usage: 39.16 GiB
Date: Mon Jun 27 08:46:00 2022
