
  ___ ___ ___ _ _ _  
 |   |   |_  | | | | 
 | | | | | . | | | | 
 |__ |  _|___|_____|  21.6.1b1
 |___|_|             

User:   madkru@c153.nifl.fysik.dtu.dk
Date:   Mon Jun 27 15:10:52 2022
Arch:   x86_64
Pid:    48887
Python: 3.8.6
gpaw:   /home/niflheim/madkru/new_venv/gpaw/gpaw (1f0dfc9eae)
_gpaw:  /home/niflheim/madkru/new_venv/gpaw/build/lib.linux-x86_64-skylake-3.8/
        _gpaw.cpython-38-x86_64-linux-gnu.so (c1e45bfab3)
ase:    /home/niflheim/madkru/new_venv/ase/ase (version 3.23.0b1-ca38c75a67)
numpy:  /home/modules/software/SciPy-bundle/2020.11-foss-2020b/lib/python3.8/site-packages/numpy (version 1.19.4)
scipy:  /home/modules/software/SciPy-bundle/2020.11-foss-2020b/lib/python3.8/site-packages/scipy (version 1.5.4)
libxc:  4.3.4
units:  Angstrom and eV
cores: 40
OpenMP: False
OMP_NUM_THREADS: 1

Input parameters:
  convergence: {bands: occupied,
                density: 0.0001,
                eigenstates: 4e-08,
                energy: 0.0005,
                forces: 0.0001}
  kpts: [12 12  1]
  mode: {ecut: 600.0,
         gammacentered: False,
         name: pw}
  occupations: {fixmagmom: False,
                name: fermi-dirac,
                width: 0.001}
  symmetry: {point_group: False,
             time_reversal: False}

System changes: positions, numbers, cell, pbc, initial_charges, initial_magmoms 

Initialize ...

Cr-setup:
  name: Chromium
  id: 444e8044bc0f91048286c984738d87f5
  Z: 24.0
  valence: 6
  core: 18
  charge: 0.0
  file: /home/modules/software/GPAW-setups/0.9.20000/Cr.LDA.gz
  compensation charges: gauss, rc=0.35, lmax=2
  cutoffs: 2.14(filt), 3.04(core),
  valence states:
                energy  radius
    4s(1.00)    -4.191   1.164
    4p(0.00)    -1.079   1.217
    3d(5.00)    -3.128   1.111
    *s          23.021   1.164
    *p          26.132   1.217
    *d          24.083   1.111

  Using partial waves for Cr as LCAO basis

I-setup:
  name: Iodine
  id: b559721c0c096a7b4c8fc0e0f4de5cf4
  Z: 53.0
  valence: 7
  core: 46
  charge: 0.0
  file: /home/modules/software/GPAW-setups/0.9.20000/I.LDA.gz
  compensation charges: gauss, rc=0.37, lmax=2
  cutoffs: 2.06(filt), 2.90(core),
  valence states:
                energy  radius
    5s(2.00)   -17.626   1.164
    5p(5.00)    -7.241   1.164
    *s           9.585   1.164
    *p          19.970   1.164
    *d           0.000   1.164

  Using partial waves for I as LCAO basis

Reference energy: -2434708.556191

Spin-polarized calculation.
Magnetic moment: 12.175341

Convergence criteria:
  Maximum total energy change: 0.0005 eV / electron
  Maximum integral of absolute density change: 0.0001 electrons
  Maximum integral of absolute eigenstate change: 4e-08 eV^2
  Maximum change in atomic force: 0.0001 eV / Ang
  Maximum number of iterations: 333

Symmetries present (total): 1

  ( 1  0  0)
  ( 0  1  0)
  ( 0  0  1)

144 k-points: 12 x 12 x 1 Monkhorst-Pack grid
144 k-points in the irreducible part of the Brillouin zone
       k-points in crystal coordinates                weights
   0:    -0.45833333   -0.45833333    0.00000000          1/144
   1:    -0.45833333   -0.37500000    0.00000000          1/144
   2:    -0.45833333   -0.29166667    0.00000000          1/144
   3:    -0.45833333   -0.20833333    0.00000000          1/144
   4:    -0.45833333   -0.12500000    0.00000000          1/144
   5:    -0.45833333   -0.04166667    0.00000000          1/144
   6:    -0.45833333    0.04166667    0.00000000          1/144
   7:    -0.45833333    0.12500000    0.00000000          1/144
   8:    -0.45833333    0.20833333    0.00000000          1/144
   9:    -0.45833333    0.29166667    0.00000000          1/144
          ...
 143:     0.45833333    0.45833333    0.00000000          1/144

Wave functions: Plane wave expansion
  Cutoff energy: 600.000 eV
  Number of coefficients (min, max): 39797, 39902
  Pulay-stress correction: 0.000000 eV/Ang^3 (de/decut=0.000000)
  Using FFTW library
  ScaLapack parameters: grid=1x1, blocksize=None
  Wavefunction extrapolation:
    Improved wavefunction reuse through dual PAW basis 

Occupation numbers: Fermi-Dirac: width=0.0010 eV
 

Eigensolver
   Davidson(niter=2) 

Densities:
  Coarse grid: 42*42*160 grid
  Fine grid: 84*84*320 grid
  Total Charge: 0.000000 

Density mixing:
  Method: difference
  Backend: pulay
  Linear mixing parameter: 0.05
  Mixing with 5 old densities
  Damping of long wave oscillations: 50 

Hamiltonian:
  XC and Coulomb potentials evaluated on a 84*84*320 grid
  Using the LDA Exchange-Correlation functional
  External potential:
    <gpaw.external.NoExternalPotential object at 0x2b3324d0beb0>
 

Memory estimate:
  Process memory now: 40163.27 MiB
  Calculator: 580.26 MiB
    Density: 158.40 MiB
      Arrays: 75.37 MiB
      Localized functions: 52.88 MiB
      Mixer: 30.15 MiB
    Hamiltonian: 57.28 MiB
      Arrays: 55.99 MiB
      XC: 0.00 MiB
      Poisson: 0.00 MiB
      vbar: 1.29 MiB
    Wavefunctions: 364.58 MiB
      Arrays psit_nG: 281.29 MiB
      Eigensolver: 50.83 MiB
      Projections: 1.61 MiB
      Projectors: 18.26 MiB
      PW-descriptor: 12.59 MiB

Total number of cores used: 40
Parallelization over k-points: 40

Number of atoms: 16
Number of atomic orbitals: 84
Number of bands in calculation: 77
Number of valence electrons: 108
Bands to converge: occupied

... initialized

Initializing position-dependent things.

Density initialized from atomic densities
Creating initial wave functions:
  77 bands from LCAO basis set

                                       
                                       
                                       
                                       
                      I                
                            I          
                   I                   
                       Cr  I           
             Cr                        
                 I                     
                         I             
                     I                 
                             I         
               Cr                      
                   I   Cr              
          I                            
                 I                     
                        I              
                                       
                                       
                                       
                                       

Positions:
   0 Cr     0.889135    0.000185   -3.063135    ( 0.0000,  0.0000,  3.4336)
   1 Cr    -2.666158    2.052642   -3.080223    ( 0.0000,  0.0000,  3.4336)
   2 I      1.822012   -2.046247   -4.559876    ( 0.0000,  0.0000, -0.1299)
   3 I     -1.348662    0.216415   -4.560605    ( 0.0000,  0.0000, -0.1299)
   4 I     -4.915070    1.830062   -4.560598    ( 0.0000,  0.0000, -0.1299)
   5 I     -0.074828   -2.063434   -1.594960    ( 0.0000,  0.0000, -0.1299)
   6 I     -0.416551    1.865690   -1.594231    ( 0.0000,  0.0000, -0.1299)
   7 I      3.157525    0.197989   -1.594234    ( 0.0000,  0.0000, -0.1299)
   8 Cr    -2.666887   -2.062642    3.080226    ( 0.0000,  0.0000,  3.4336)
   9 Cr     0.888546   -0.000185    3.063139    ( 0.0000,  0.0000,  3.4336)
  10 I      1.852510    2.063434    1.594959    ( 0.0000,  0.0000, -0.1299)
  11 I      2.194233   -1.865690    1.594230    ( 0.0000,  0.0000, -0.1299)
  12 I     -1.379843   -0.197989    1.594233    ( 0.0000,  0.0000, -0.1299)
  13 I     -0.044330    2.046247    4.559875    ( 0.0000,  0.0000, -0.1299)
  14 I      3.126343   -0.216415    4.560604    ( 0.0000,  0.0000, -0.1299)
  15 I     -0.417976   -1.830062    4.560597    ( 0.0000,  0.0000, -0.1299)

Unit cell:
           periodic     x           y           z      points  spacing
  1. axis:    yes    7.110727   -0.000000    0.000000    42     0.1466
  2. axis:    yes   -3.555363    6.158070    0.000000    42     0.1466
  3. axis:    no     0.000000   -0.000000   27.269192   160     0.1704

  Lengths:   7.110727   7.110727  27.269192
  Angles:   90.000000  90.000000 120.000000

Effective grid spacing dv^(1/3) = 0.1617

                     log10-error:           total        iterations:
           time      wfs    density  force  energy       poisson  magmom
iter:   1  15:12:13                        -76.899597             +12.1076
iter:   2  15:13:04  -0.99  -0.91          -70.501580             +9.9549
iter:   3  15:13:56  -1.83  -1.33          -70.496558             +11.0112
iter:   4  15:14:47  -1.58  -1.38          -70.967616             +12.0928
iter:   5  15:15:39  -2.53  -1.51          -70.628300             +12.0160
iter:   6  15:16:30  -1.91  -1.83          -70.402063             +12.0006
iter:   7  15:17:22  -2.97  -2.20          -70.395090             +12.0040
iter:   8  15:18:13  -3.31  -2.32          -70.389848             +12.0056
iter:   9  15:19:05  -3.68  -2.67          -70.391009             +12.0017
iter:  10  15:19:57  -3.86  -2.86          -70.391693             +11.9998
iter:  11  15:20:48  -3.99  -2.94          -70.392266             +12.0000
iter:  12  15:21:40  -3.99  -3.04          -70.392579             +12.0000
iter:  13  15:22:31  -4.06  -3.10          -70.392790             +12.0000
iter:  14  15:23:23  -4.10  -3.15          -70.392895             +12.0000
iter:  15  15:24:15  -4.19  -3.27          -70.393057             +12.0000
iter:  16  15:25:06  -4.33  -3.32          -70.393177             +12.0000
iter:  17  15:25:58  -4.60  -3.37          -70.393234             +12.0000
iter:  18  15:26:49  -4.75  -3.56          -70.393305             +12.0000
iter:  19  15:27:41  -4.89  -3.65          -70.393352             +12.0000
iter:  20  15:28:32  -5.00  -3.74          -70.393394             +12.0000
iter:  21  15:29:24  -5.18  -4.25          -70.393421             +12.0000
iter:  22  15:30:15  -5.17  -4.26          -70.393442             +12.0000
iter:  23  15:31:07  -5.27  -4.26          -70.393460             +12.0000
iter:  24  15:31:58  -5.36  -4.09          -70.393468             +12.0000
iter:  25  15:32:50  -5.48  -4.23          -70.393476             +12.0000
iter:  26  15:33:41  -5.69  -4.25          -70.393483             +12.0000
iter:  27  15:34:33  -5.72  -4.24          -70.393487             +12.0000
iter:  28  15:35:24  -5.93  -4.27          -70.393493             +12.0000
iter:  29  15:36:16  -6.28  -4.16          -70.393494             +12.0000
iter:  30  15:37:07  -6.40  -4.24          -70.393496             +12.0000
iter:  31  15:37:59  -6.52  -4.23          -70.393497             +12.0000
iter:  32  15:38:50  -6.66  -4.26          -70.393498             +12.0000
iter:  33  15:39:42  -6.76  -4.25          -70.393498             +12.0000
iter:  34  15:40:33  -6.97  -4.31          -70.393497             +12.0000
iter:  35  15:41:24  -7.16  -4.42          -70.393498             +12.0000
iter:  36  15:42:16  -7.31  -4.43          -70.393498             +12.0000
iter:  37  15:43:07  -7.37  -4.44          -70.393498             +12.0000
iter:  38  15:44:09  -7.46  -4.48          -70.393498             +12.0000
iter:  39  15:45:11  -7.58  -4.59    -2.98 -70.393498             +12.0000
iter:  40  15:46:13  -7.74  -4.66    -3.07 -70.393498             +12.0000
iter:  41  15:47:15  -7.93  -4.80    -3.05 -70.393498             +12.0000
iter:  42  15:48:18  -8.09  -4.87    -4.08 -70.393498             +12.0000

Converged after 42 iterations.

Dipole moment: (-31.571323, -0.007100, -0.000039) |e|*Ang

Total magnetic moment: (0.000000, 0.000000, 12.000000)
Local magnetic moments:
   0 Cr ( 0.000000,  0.000000,  2.911316)
   1 Cr ( 0.000000,  0.000000,  2.915474)
   2 I  ( 0.000000,  0.000000, -0.046989)
   3 I  ( 0.000000,  0.000000, -0.046936)
   4 I  ( 0.000000,  0.000000, -0.046959)
   5 I  ( 0.000000,  0.000000, -0.049701)
   6 I  ( 0.000000,  0.000000, -0.049612)
   7 I  ( 0.000000,  0.000000, -0.049677)
   8 Cr ( 0.000000,  0.000000,  2.915420)
   9 Cr ( 0.000000,  0.000000,  2.911324)
  10 I  ( 0.000000,  0.000000, -0.049188)
  11 I  ( 0.000000,  0.000000, -0.049781)
  12 I  ( 0.000000,  0.000000, -0.050011)
  13 I  ( 0.000000,  0.000000, -0.046493)
  14 I  ( 0.000000,  0.000000, -0.047287)
  15 I  ( 0.000000,  0.000000, -0.047090)

Energy contributions relative to reference atoms: (reference = -2434708.556191)

Kinetic:        +23.267536
Potential:      -37.238200
External:        +0.000000
XC:             -56.596774
Entropy (-ST):   -0.000000
Local:           +0.173939
--------------------------
Free energy:    -70.393498
Extrapolated:   -70.393498

Spin contamination: 1.119656 electrons
Showing only first 2 kpts
                      Up                     Down
 Kpt  Band  Eigenvalues  Occupancy  Eigenvalues  Occupancy
  0    52     -2.14107    1.00000     -0.01047    0.00000
  0    53     -2.10210    1.00000      0.00375    0.00000
  0    54     -2.01909    1.00000      0.18033    0.00000
  0    55     -2.01726    1.00000      0.21063    0.00000

  1    52     -2.11954    1.00000     -0.01783    0.00000
  1    53     -2.07386    1.00000      0.01912    0.00000
  1    54     -2.01860    1.00000      0.16990    0.00000
  1    55     -1.98961    1.00000      0.20910    0.00000


Fermi level: -1.17359

Gap: 0.970 eV
Transition (v -> c):
  (s=0, k=71, n=59, [-0.04, 0.46, 0.00]) -> (s=0, k=10, n=60, [-0.46, 0.38, 0.00])
Writing to born-0.01-8y-.gpw (mode='all')

Timing:                              incl.     excl.
-----------------------------------------------------------
Hamiltonian:                         2.850     0.011   0.0% |
 Atomic:                             1.352     1.352   0.0% |
  XC Correction:                     0.000     0.000   0.0% |
 Calculate atomic Hamiltonians:      0.330     0.330   0.0% |
 Communicate:                        0.000     0.000   0.0% |
 Initialize Hamiltonian:             0.004     0.004   0.0% |
 Poisson:                            0.012     0.012   0.0% |
 XC 3D grid:                         1.142     1.142   0.0% |
LCAO initialization:                21.291     0.141   0.0% |
 LCAO eigensolver:                   3.358     0.001   0.0% |
  Calculate projections:             0.004     0.004   0.0% |
  DenseAtomicCorrection:             0.006     0.006   0.0% |
  Distribute overlap matrix:         0.000     0.000   0.0% |
  Orbital Layouts:                   0.016     0.016   0.0% |
  Potential matrix:                  3.321     3.321   0.1% |
  Sum over cells:                    0.011     0.011   0.0% |
 LCAO to grid:                      17.509    17.509   0.3% |
 Set positions (LCAO WFS):           0.283     0.050   0.0% |
  Basic WFS set positions:           0.001     0.001   0.0% |
  Basis functions set positions:     0.000     0.000   0.0% |
  P tci:                             0.123     0.123   0.0% |
  ST tci:                            0.066     0.066   0.0% |
  mktci:                             0.043     0.043   0.0% |
PWDescriptor:                        0.088     0.088   0.0% |
SCF-cycle:                        2216.833   516.106   8.9% |---|
 Davidson:                        1344.883   226.351   3.9% |-|
  Apply H:                         221.984   215.467   3.7% ||
   HMM T:                            6.517     6.517   0.1% |
  Subspace diag:                   275.345     0.057   0.0% |
   calc_h_matrix:                  242.605    19.479   0.3% |
    Apply H:                       223.126   216.289   3.7% ||
     HMM T:                          6.838     6.838   0.1% |
   diagonalize:                      0.521     0.521   0.0% |
   rotate_psi:                      32.162    32.162   0.6% |
  calc. matrices:                  559.442   112.799   1.9% ||
   Apply H:                        446.643   433.251   7.5% |--|
    HMM T:                          13.392    13.392   0.2% |
  diagonalize:                       4.939     4.939   0.1% |
  rotate_psi:                       56.822    56.822   1.0% |
 Density:                          220.377     0.002   0.0% |
  Atomic density matrices:           0.298     0.298   0.0% |
  Mix:                              37.014    37.014   0.6% |
  Multipole moments:                 0.019     0.019   0.0% |
  Pseudo density:                  183.045   183.042   3.2% ||
   Symmetrize density:               0.003     0.003   0.0% |
 Forces:                            49.311    49.311   0.9% |
 Hamiltonian:                       84.528     0.541   0.0% |
  Atomic:                            6.860     6.860   0.1% |
   XC Correction:                    0.000     0.000   0.0% |
  Calculate atomic Hamiltonians:    27.254    27.254   0.5% |
  Communicate:                       0.008     0.008   0.0% |
  Poisson:                           0.527     0.527   0.0% |
  XC 3D grid:                       49.338    49.338   0.9% |
 Orthonormalize:                     1.628     0.001   0.0% |
  calc_s_matrix:                     0.212     0.212   0.0% |
  inverse-cholesky:                  0.004     0.004   0.0% |
  projections:                       0.992     0.992   0.0% |
  rotate_psi_s:                      0.419     0.419   0.0% |
Set symmetry:                        0.000     0.000   0.0% |
Other:                            3554.448  3554.448  61.3% |------------------------|
-----------------------------------------------------------
Total:                                      5795.510 100.0%

Memory usage: 39.22 GiB
Date: Mon Jun 27 16:47:28 2022
