
  ___ ___ ___ _ _ _  
 |   |   |_  | | | | 
 | | | | | . | | | | 
 |__ |  _|___|_____|  21.6.1b1
 |___|_|             

User:   madkru@c153.nifl.fysik.dtu.dk
Date:   Sat Jun 25 22:59:20 2022
Arch:   x86_64
Pid:    48887
Python: 3.8.6
gpaw:   /home/niflheim/madkru/new_venv/gpaw/gpaw (1f0dfc9eae)
_gpaw:  /home/niflheim/madkru/new_venv/gpaw/build/lib.linux-x86_64-skylake-3.8/
        _gpaw.cpython-38-x86_64-linux-gnu.so (c1e45bfab3)
ase:    /home/niflheim/madkru/new_venv/ase/ase (version 3.23.0b1-ca38c75a67)
numpy:  /home/modules/software/SciPy-bundle/2020.11-foss-2020b/lib/python3.8/site-packages/numpy (version 1.19.4)
scipy:  /home/modules/software/SciPy-bundle/2020.11-foss-2020b/lib/python3.8/site-packages/scipy (version 1.5.4)
libxc:  4.3.4
units:  Angstrom and eV
cores: 40
OpenMP: False
OMP_NUM_THREADS: 1

Input parameters:
  convergence: {bands: occupied,
                density: 0.0001,
                eigenstates: 4e-08,
                energy: 0.0005,
                forces: 0.0001}
  kpts: [12 12  1]
  mode: {ecut: 600.0,
         gammacentered: False,
         name: pw}
  occupations: {fixmagmom: False,
                name: fermi-dirac,
                width: 0.001}
  symmetry: {point_group: False,
             time_reversal: False}

System changes: positions, numbers, cell, pbc, initial_charges, initial_magmoms 

Initialize ...

Cr-setup:
  name: Chromium
  id: 444e8044bc0f91048286c984738d87f5
  Z: 24.0
  valence: 6
  core: 18
  charge: 0.0
  file: /home/modules/software/GPAW-setups/0.9.20000/Cr.LDA.gz
  compensation charges: gauss, rc=0.35, lmax=2
  cutoffs: 2.14(filt), 3.04(core),
  valence states:
                energy  radius
    4s(1.00)    -4.191   1.164
    4p(0.00)    -1.079   1.217
    3d(5.00)    -3.128   1.111
    *s          23.021   1.164
    *p          26.132   1.217
    *d          24.083   1.111

  Using partial waves for Cr as LCAO basis

I-setup:
  name: Iodine
  id: b559721c0c096a7b4c8fc0e0f4de5cf4
  Z: 53.0
  valence: 7
  core: 46
  charge: 0.0
  file: /home/modules/software/GPAW-setups/0.9.20000/I.LDA.gz
  compensation charges: gauss, rc=0.37, lmax=2
  cutoffs: 2.06(filt), 2.90(core),
  valence states:
                energy  radius
    5s(2.00)   -17.626   1.164
    5p(5.00)    -7.241   1.164
    *s           9.585   1.164
    *p          19.970   1.164
    *d           0.000   1.164

  Using partial waves for I as LCAO basis

Reference energy: -2434708.556191

Spin-polarized calculation.
Magnetic moment: 12.175341

Convergence criteria:
  Maximum total energy change: 0.0005 eV / electron
  Maximum integral of absolute density change: 0.0001 electrons
  Maximum integral of absolute eigenstate change: 4e-08 eV^2
  Maximum change in atomic force: 0.0001 eV / Ang
  Maximum number of iterations: 333

Symmetries present (total): 1

  ( 1  0  0)
  ( 0  1  0)
  ( 0  0  1)

144 k-points: 12 x 12 x 1 Monkhorst-Pack grid
144 k-points in the irreducible part of the Brillouin zone
       k-points in crystal coordinates                weights
   0:    -0.45833333   -0.45833333    0.00000000          1/144
   1:    -0.45833333   -0.37500000    0.00000000          1/144
   2:    -0.45833333   -0.29166667    0.00000000          1/144
   3:    -0.45833333   -0.20833333    0.00000000          1/144
   4:    -0.45833333   -0.12500000    0.00000000          1/144
   5:    -0.45833333   -0.04166667    0.00000000          1/144
   6:    -0.45833333    0.04166667    0.00000000          1/144
   7:    -0.45833333    0.12500000    0.00000000          1/144
   8:    -0.45833333    0.20833333    0.00000000          1/144
   9:    -0.45833333    0.29166667    0.00000000          1/144
          ...
 143:     0.45833333    0.45833333    0.00000000          1/144

Wave functions: Plane wave expansion
  Cutoff energy: 600.000 eV
  Number of coefficients (min, max): 39797, 39902
  Pulay-stress correction: 0.000000 eV/Ang^3 (de/decut=0.000000)
  Using FFTW library
  ScaLapack parameters: grid=1x1, blocksize=None
  Wavefunction extrapolation:
    Improved wavefunction reuse through dual PAW basis 

Occupation numbers: Fermi-Dirac: width=0.0010 eV
 

Eigensolver
   Davidson(niter=2) 

Densities:
  Coarse grid: 42*42*160 grid
  Fine grid: 84*84*320 grid
  Total Charge: 0.000000 

Density mixing:
  Method: difference
  Backend: pulay
  Linear mixing parameter: 0.05
  Mixing with 5 old densities
  Damping of long wave oscillations: 50 

Hamiltonian:
  XC and Coulomb potentials evaluated on a 84*84*320 grid
  Using the LDA Exchange-Correlation functional
  External potential:
    <gpaw.external.NoExternalPotential object at 0x2b33281859d0>
 

Memory estimate:
  Process memory now: 39810.93 MiB
  Calculator: 580.26 MiB
    Density: 158.40 MiB
      Arrays: 75.37 MiB
      Localized functions: 52.88 MiB
      Mixer: 30.15 MiB
    Hamiltonian: 57.28 MiB
      Arrays: 55.99 MiB
      XC: 0.00 MiB
      Poisson: 0.00 MiB
      vbar: 1.29 MiB
    Wavefunctions: 364.58 MiB
      Arrays psit_nG: 281.29 MiB
      Eigensolver: 50.83 MiB
      Projections: 1.61 MiB
      Projectors: 18.26 MiB
      PW-descriptor: 12.59 MiB

Total number of cores used: 40
Parallelization over k-points: 40

Number of atoms: 16
Number of atomic orbitals: 84
Number of bands in calculation: 77
Number of valence electrons: 108
Bands to converge: occupied

... initialized

Initializing position-dependent things.

Density initialized from atomic densities
Creating initial wave functions:
  77 bands from LCAO basis set

                                       
                                       
                                       
                                       
                      I                
                            I          
                   I                   
                       Cr  I           
             Cr                        
                 I                     
                         I             
                     I                 
                             I         
               Cr                      
                   I   Cr              
          I                            
                 I                     
                        I              
                                       
                                       
                                       
                                       

Positions:
   0 Cr     0.889135    0.000185   -3.053135    ( 0.0000,  0.0000,  3.4336)
   1 Cr    -2.666158    2.052642   -3.080223    ( 0.0000,  0.0000,  3.4336)
   2 I      1.822012   -2.046247   -4.559876    ( 0.0000,  0.0000, -0.1299)
   3 I     -1.348662    0.216415   -4.560605    ( 0.0000,  0.0000, -0.1299)
   4 I     -4.915070    1.830062   -4.560598    ( 0.0000,  0.0000, -0.1299)
   5 I     -0.074828   -2.063434   -1.594960    ( 0.0000,  0.0000, -0.1299)
   6 I     -0.416551    1.865690   -1.594231    ( 0.0000,  0.0000, -0.1299)
   7 I      3.157525    0.197989   -1.594234    ( 0.0000,  0.0000, -0.1299)
   8 Cr    -2.666887   -2.052642    3.080226    ( 0.0000,  0.0000,  3.4336)
   9 Cr     0.888546   -0.000185    3.063139    ( 0.0000,  0.0000,  3.4336)
  10 I      1.852510    2.063434    1.594959    ( 0.0000,  0.0000, -0.1299)
  11 I      2.194233   -1.865690    1.594230    ( 0.0000,  0.0000, -0.1299)
  12 I     -1.379843   -0.197989    1.594233    ( 0.0000,  0.0000, -0.1299)
  13 I     -0.044330    2.046247    4.559875    ( 0.0000,  0.0000, -0.1299)
  14 I      3.126343   -0.216415    4.560604    ( 0.0000,  0.0000, -0.1299)
  15 I     -0.417976   -1.830062    4.560597    ( 0.0000,  0.0000, -0.1299)

Unit cell:
           periodic     x           y           z      points  spacing
  1. axis:    yes    7.110727   -0.000000    0.000000    42     0.1466
  2. axis:    yes   -3.555363    6.158070    0.000000    42     0.1466
  3. axis:    no     0.000000   -0.000000   27.269192   160     0.1704

  Lengths:   7.110727   7.110727  27.269192
  Angles:   90.000000  90.000000 120.000000

Effective grid spacing dv^(1/3) = 0.1617

                     log10-error:           total        iterations:
           time      wfs    density  force  energy       poisson  magmom
iter:   1  23:00:41                        -76.900105             +12.1076
iter:   2  23:01:32  -0.99  -0.91          -70.505789             +9.9618
iter:   3  23:02:24  -1.83  -1.33          -70.497342             +11.0153
iter:   4  23:03:15  -1.58  -1.38          -70.972321             +12.0925
iter:   5  23:04:07  -2.53  -1.51          -70.627685             +12.0157
iter:   6  23:04:58  -1.90  -1.83          -70.402861             +12.0006
iter:   7  23:05:50  -2.98  -2.19          -70.395214             +12.0039
iter:   8  23:06:41  -3.32  -2.31          -70.389795             +12.0054
iter:   9  23:07:33  -3.68  -2.67          -70.390998             +12.0017
iter:  10  23:08:24  -3.86  -2.86          -70.391655             +11.9998
iter:  11  23:09:16  -3.99  -2.94          -70.392208             +12.0000
iter:  12  23:10:07  -4.02  -3.10          -70.392506             +11.9999
iter:  13  23:10:59  -4.14  -3.15          -70.392764             +12.0000
iter:  14  23:11:50  -4.16  -3.18          -70.392925             +12.0000
iter:  15  23:12:42  -4.22  -3.25          -70.393075             +12.0000
iter:  16  23:13:33  -4.35  -3.37          -70.393188             +12.0000
iter:  17  23:14:25  -4.46  -3.42          -70.393243             +12.0000
iter:  18  23:15:16  -4.56  -3.59          -70.393297             +12.0000
iter:  19  23:16:08  -4.65  -3.66          -70.393343             +12.0000
iter:  20  23:16:59  -4.96  -3.70          -70.393389             +12.0000
iter:  21  23:17:51  -5.23  -3.79          -70.393417             +12.0000
iter:  22  23:18:42  -5.28  -3.90          -70.393437             +12.0000
iter:  23  23:19:33  -5.38  -3.95          -70.393451             +12.0000
iter:  24  23:20:25  -5.62  -3.98          -70.393461             +12.0000
iter:  25  23:21:16  -5.81  -4.06          -70.393470             +12.0000
iter:  26  23:22:08  -5.88  -4.11          -70.393475             +12.0000
iter:  27  23:22:59  -5.95  -4.27          -70.393478             +12.0000
iter:  28  23:23:51  -6.03  -4.39          -70.393481             +12.0000
iter:  29  23:24:42  -6.14  -4.51          -70.393483             +12.0000
iter:  30  23:25:33  -6.34  -4.56          -70.393484             +12.0000
iter:  31  23:26:24  -6.56  -4.64          -70.393485             +12.0000
iter:  32  23:27:16  -6.67  -4.72          -70.393486             +12.0000
iter:  33  23:28:07  -6.71  -4.69          -70.393487             +12.0000
iter:  34  23:28:58  -6.85  -4.78          -70.393487             +12.0000
iter:  35  23:29:49  -7.00  -4.83          -70.393488             +12.0000
iter:  36  23:30:41  -7.11  -4.82          -70.393488             +12.0000
iter:  37  23:31:32  -7.26  -4.84          -70.393488             +12.0000
iter:  38  23:32:33  -7.53  -4.79          -70.393488             +12.0000
iter:  39  23:33:35  -7.60  -4.78    -3.06 -70.393488             +12.0000
iter:  40  23:34:37  -7.80  -4.74    -3.03 -70.393488             +12.0000
iter:  41  23:35:39  -8.03  -4.83    -3.19 -70.393488             +12.0000
iter:  42  23:36:41  -8.02  -4.82    -2.71 -70.393489             +12.0000
iter:  43  23:37:43  -8.30  -4.77    -3.29 -70.393489             +12.0000
iter:  44  23:38:45  -8.44  -4.78    -3.47 -70.393489             +12.0000
iter:  45  23:39:47  -8.58  -4.77    -3.53 -70.393489             +12.0000
iter:  46  23:40:49  -8.60  -4.75    -3.11 -70.393489             +12.0000
iter:  47  23:41:51  -8.84  -4.76    -3.79 -70.393489             +12.0000
iter:  48  23:42:53  -8.21  -4.80    -2.77 -70.393488             +12.0000
iter:  49  23:43:55  -9.05  -5.40    -3.94 -70.393488             +12.0000
iter:  50  23:44:57  -9.36  -5.47    -4.41 -70.393488             +12.0000

Converged after 50 iterations.

Dipole moment: (-31.570740, -0.000062, 0.010371) |e|*Ang

Total magnetic moment: (0.000000, 0.000000, 12.000000)
Local magnetic moments:
   0 Cr ( 0.000000,  0.000000,  2.910963)
   1 Cr ( 0.000000,  0.000000,  2.915622)
   2 I  ( 0.000000,  0.000000, -0.047411)
   3 I  ( 0.000000,  0.000000, -0.047371)
   4 I  ( 0.000000,  0.000000, -0.047389)
   5 I  ( 0.000000,  0.000000, -0.049275)
   6 I  ( 0.000000,  0.000000, -0.049249)
   7 I  ( 0.000000,  0.000000, -0.049258)
   8 Cr ( 0.000000,  0.000000,  2.915549)
   9 Cr ( 0.000000,  0.000000,  2.911395)
  10 I  ( 0.000000,  0.000000, -0.049647)
  11 I  ( 0.000000,  0.000000, -0.049623)
  12 I  ( 0.000000,  0.000000, -0.049633)
  13 I  ( 0.000000,  0.000000, -0.046973)
  14 I  ( 0.000000,  0.000000, -0.046932)
  15 I  ( 0.000000,  0.000000, -0.046950)

Energy contributions relative to reference atoms: (reference = -2434708.556191)

Kinetic:        +23.271207
Potential:      -37.244392
External:        +0.000000
XC:             -56.596125
Entropy (-ST):   -0.000000
Local:           +0.175822
--------------------------
Free energy:    -70.393488
Extrapolated:   -70.393488

Spin contamination: 1.119638 electrons
Showing only first 2 kpts
                      Up                     Down
 Kpt  Band  Eigenvalues  Occupancy  Eigenvalues  Occupancy
  0    52     -2.13956    1.00000     -0.01310    0.00000
  0    53     -2.10380    1.00000      0.00144    0.00000
  0    54     -2.02128    1.00000      0.17955    0.00000
  0    55     -2.02059    1.00000      0.20983    0.00000

  1    52     -2.11843    1.00000     -0.02026    0.00000
  1    53     -2.07496    1.00000      0.01707    0.00000
  1    54     -2.02178    1.00000      0.16934    0.00000
  1    55     -1.99156    1.00000      0.20741    0.00000


Fermi level: -1.13585

Gap: 0.970 eV
Transition (v -> c):
  (s=0, k=11, n=59, [-0.46, 0.46, 0.00]) -> (s=0, k=121, n=60, [0.38, -0.38, 0.00])
Writing to born-0.01-0z+.gpw (mode='all')

Timing:                              incl.     excl.
-----------------------------------------------------------
Hamiltonian:                         2.910     0.010   0.0% |
 Atomic:                             1.421     1.421   0.0% |
  XC Correction:                     0.000     0.000   0.0% |
 Calculate atomic Hamiltonians:      0.324     0.324   0.0% |
 Communicate:                        0.000     0.000   0.0% |
 Initialize Hamiltonian:             0.003     0.003   0.0% |
 Poisson:                            0.012     0.012   0.0% |
 XC 3D grid:                         1.140     1.140   0.0% |
LCAO initialization:                21.206     0.142   0.0% |
 LCAO eigensolver:                   3.329     0.001   0.0% |
  Calculate projections:             0.004     0.004   0.0% |
  DenseAtomicCorrection:             0.005     0.005   0.0% |
  Distribute overlap matrix:         0.000     0.000   0.0% |
  Orbital Layouts:                   0.016     0.016   0.0% |
  Potential matrix:                  3.291     3.291   0.1% |
  Sum over cells:                    0.012     0.012   0.0% |
 LCAO to grid:                      17.456    17.456   0.3% |
 Set positions (LCAO WFS):           0.279     0.050   0.0% |
  Basic WFS set positions:           0.001     0.001   0.0% |
  Basis functions set positions:     0.000     0.000   0.0% |
  P tci:                             0.122     0.122   0.0% |
  ST tci:                            0.063     0.063   0.0% |
  mktci:                             0.043     0.043   0.0% |
PWDescriptor:                        0.087     0.087   0.0% |
SCF-cycle:                        2708.417   566.055   9.8% |---|
 Davidson:                        1642.787   261.307   4.5% |-|
  Apply H:                         285.508   276.755   4.8% |-|
   HMM T:                            8.753     8.753   0.2% |
  Subspace diag:                   345.656     0.073   0.0% |
   calc_h_matrix:                  307.570    22.312   0.4% |
    Apply H:                       285.258   276.235   4.8% |-|
     HMM T:                          9.022     9.022   0.2% |
   diagonalize:                      0.619     0.619   0.0% |
   rotate_psi:                      37.395    37.395   0.6% |
  calc. matrices:                  675.595   127.651   2.2% ||
   Apply H:                        547.944   531.764   9.2% |---|
    HMM T:                          16.181    16.181   0.3% |
  diagonalize:                       5.962     5.962   0.1% |
  rotate_psi:                       68.759    68.759   1.2% |
 Density:                          270.251     0.002   0.0% |
  Atomic density matrices:           0.356     0.356   0.0% |
  Mix:                              44.602    44.602   0.8% |
  Multipole moments:                 0.022     0.022   0.0% |
  Pseudo density:                  225.269   225.266   3.9% |-|
   Symmetrize density:               0.003     0.003   0.0% |
 Forces:                           127.743   127.743   2.2% ||
 Hamiltonian:                       99.921     0.628   0.0% |
  Atomic:                            6.231     6.230   0.1% |
   XC Correction:                    0.000     0.000   0.0% |
  Calculate atomic Hamiltonians:    32.727    32.727   0.6% |
  Communicate:                       0.009     0.009   0.0% |
  Poisson:                           0.570     0.570   0.0% |
  XC 3D grid:                       59.757    59.757   1.0% |
 Orthonormalize:                     1.659     0.002   0.0% |
  calc_s_matrix:                     0.227     0.227   0.0% |
  inverse-cholesky:                  0.004     0.004   0.0% |
  projections:                       1.019     1.019   0.0% |
  rotate_psi_s:                      0.408     0.408   0.0% |
Set symmetry:                        0.000     0.000   0.0% |
Other:                            3056.649  3056.649  52.8% |--------------------|
-----------------------------------------------------------
Total:                                      5789.269 100.0%

Memory usage: 38.93 GiB
Date: Sun Jun 26 00:35:49 2022
