
  ___ ___ ___ _ _ _  
 |   |   |_  | | | | 
 | | | | | . | | | | 
 |__ |  _|___|_____|  21.6.1b1
 |___|_|             

User:   madkru@c153.nifl.fysik.dtu.dk
Date:   Sun Jun 26 21:28:05 2022
Arch:   x86_64
Pid:    48887
Python: 3.8.6
gpaw:   /home/niflheim/madkru/new_venv/gpaw/gpaw (1f0dfc9eae)
_gpaw:  /home/niflheim/madkru/new_venv/gpaw/build/lib.linux-x86_64-skylake-3.8/
        _gpaw.cpython-38-x86_64-linux-gnu.so (c1e45bfab3)
ase:    /home/niflheim/madkru/new_venv/ase/ase (version 3.23.0b1-ca38c75a67)
numpy:  /home/modules/software/SciPy-bundle/2020.11-foss-2020b/lib/python3.8/site-packages/numpy (version 1.19.4)
scipy:  /home/modules/software/SciPy-bundle/2020.11-foss-2020b/lib/python3.8/site-packages/scipy (version 1.5.4)
libxc:  4.3.4
units:  Angstrom and eV
cores: 40
OpenMP: False
OMP_NUM_THREADS: 1

Input parameters:
  convergence: {bands: occupied,
                density: 0.0001,
                eigenstates: 4e-08,
                energy: 0.0005,
                forces: 0.0001}
  kpts: [12 12  1]
  mode: {ecut: 600.0,
         gammacentered: False,
         name: pw}
  occupations: {fixmagmom: False,
                name: fermi-dirac,
                width: 0.001}
  symmetry: {point_group: False,
             time_reversal: False}

System changes: positions, numbers, cell, pbc, initial_charges, initial_magmoms 

Initialize ...

Cr-setup:
  name: Chromium
  id: 444e8044bc0f91048286c984738d87f5
  Z: 24.0
  valence: 6
  core: 18
  charge: 0.0
  file: /home/modules/software/GPAW-setups/0.9.20000/Cr.LDA.gz
  compensation charges: gauss, rc=0.35, lmax=2
  cutoffs: 2.14(filt), 3.04(core),
  valence states:
                energy  radius
    4s(1.00)    -4.191   1.164
    4p(0.00)    -1.079   1.217
    3d(5.00)    -3.128   1.111
    *s          23.021   1.164
    *p          26.132   1.217
    *d          24.083   1.111

  Using partial waves for Cr as LCAO basis

I-setup:
  name: Iodine
  id: b559721c0c096a7b4c8fc0e0f4de5cf4
  Z: 53.0
  valence: 7
  core: 46
  charge: 0.0
  file: /home/modules/software/GPAW-setups/0.9.20000/I.LDA.gz
  compensation charges: gauss, rc=0.37, lmax=2
  cutoffs: 2.06(filt), 2.90(core),
  valence states:
                energy  radius
    5s(2.00)   -17.626   1.164
    5p(5.00)    -7.241   1.164
    *s           9.585   1.164
    *p          19.970   1.164
    *d           0.000   1.164

  Using partial waves for I as LCAO basis

Reference energy: -2434708.556191

Spin-polarized calculation.
Magnetic moment: 12.175341

Convergence criteria:
  Maximum total energy change: 0.0005 eV / electron
  Maximum integral of absolute density change: 0.0001 electrons
  Maximum integral of absolute eigenstate change: 4e-08 eV^2
  Maximum change in atomic force: 0.0001 eV / Ang
  Maximum number of iterations: 333

Symmetries present (total): 1

  ( 1  0  0)
  ( 0  1  0)
  ( 0  0  1)

144 k-points: 12 x 12 x 1 Monkhorst-Pack grid
144 k-points in the irreducible part of the Brillouin zone
       k-points in crystal coordinates                weights
   0:    -0.45833333   -0.45833333    0.00000000          1/144
   1:    -0.45833333   -0.37500000    0.00000000          1/144
   2:    -0.45833333   -0.29166667    0.00000000          1/144
   3:    -0.45833333   -0.20833333    0.00000000          1/144
   4:    -0.45833333   -0.12500000    0.00000000          1/144
   5:    -0.45833333   -0.04166667    0.00000000          1/144
   6:    -0.45833333    0.04166667    0.00000000          1/144
   7:    -0.45833333    0.12500000    0.00000000          1/144
   8:    -0.45833333    0.20833333    0.00000000          1/144
   9:    -0.45833333    0.29166667    0.00000000          1/144
          ...
 143:     0.45833333    0.45833333    0.00000000          1/144

Wave functions: Plane wave expansion
  Cutoff energy: 600.000 eV
  Number of coefficients (min, max): 39797, 39902
  Pulay-stress correction: 0.000000 eV/Ang^3 (de/decut=0.000000)
  Using FFTW library
  ScaLapack parameters: grid=1x1, blocksize=None
  Wavefunction extrapolation:
    Improved wavefunction reuse through dual PAW basis 

Occupation numbers: Fermi-Dirac: width=0.0010 eV
 

Eigensolver
   Davidson(niter=2) 

Densities:
  Coarse grid: 42*42*160 grid
  Fine grid: 84*84*320 grid
  Total Charge: 0.000000 

Density mixing:
  Method: difference
  Backend: pulay
  Linear mixing parameter: 0.05
  Mixing with 5 old densities
  Damping of long wave oscillations: 50 

Hamiltonian:
  XC and Coulomb potentials evaluated on a 84*84*320 grid
  Using the LDA Exchange-Correlation functional
  External potential:
    <gpaw.external.NoExternalPotential object at 0x2b3324d48760>
 

Memory estimate:
  Process memory now: 40075.95 MiB
  Calculator: 580.26 MiB
    Density: 158.40 MiB
      Arrays: 75.37 MiB
      Localized functions: 52.88 MiB
      Mixer: 30.15 MiB
    Hamiltonian: 57.28 MiB
      Arrays: 55.99 MiB
      XC: 0.00 MiB
      Poisson: 0.00 MiB
      vbar: 1.29 MiB
    Wavefunctions: 364.58 MiB
      Arrays psit_nG: 281.29 MiB
      Eigensolver: 50.83 MiB
      Projections: 1.61 MiB
      Projectors: 18.26 MiB
      PW-descriptor: 12.59 MiB

Total number of cores used: 40
Parallelization over k-points: 40

Number of atoms: 16
Number of atomic orbitals: 84
Number of bands in calculation: 77
Number of valence electrons: 108
Bands to converge: occupied

... initialized

Initializing position-dependent things.

Density initialized from atomic densities
Creating initial wave functions:
  77 bands from LCAO basis set

                                       
                                       
                                       
                                       
                      I                
                            I          
                   I                   
                       Cr  I           
             Cr                        
                 I                     
                         I             
                     I                 
                             I         
               Cr                      
                   I   Cr              
          I                            
                 I                     
                        I              
                                       
                                       
                                       
                                       

Positions:
   0 Cr     0.889135    0.000185   -3.063135    ( 0.0000,  0.0000,  3.4336)
   1 Cr    -2.666158    2.052642   -3.080223    ( 0.0000,  0.0000,  3.4336)
   2 I      1.822012   -2.046247   -4.559876    ( 0.0000,  0.0000, -0.1299)
   3 I     -1.348662    0.216415   -4.560605    ( 0.0000,  0.0000, -0.1299)
   4 I     -4.915070    1.830062   -4.560598    ( 0.0000,  0.0000, -0.1299)
   5 I     -0.084828   -2.063434   -1.594960    ( 0.0000,  0.0000, -0.1299)
   6 I     -0.416551    1.865690   -1.594231    ( 0.0000,  0.0000, -0.1299)
   7 I      3.157525    0.197989   -1.594234    ( 0.0000,  0.0000, -0.1299)
   8 Cr    -2.666887   -2.052642    3.080226    ( 0.0000,  0.0000,  3.4336)
   9 Cr     0.888546   -0.000185    3.063139    ( 0.0000,  0.0000,  3.4336)
  10 I      1.852510    2.063434    1.594959    ( 0.0000,  0.0000, -0.1299)
  11 I      2.194233   -1.865690    1.594230    ( 0.0000,  0.0000, -0.1299)
  12 I     -1.379843   -0.197989    1.594233    ( 0.0000,  0.0000, -0.1299)
  13 I     -0.044330    2.046247    4.559875    ( 0.0000,  0.0000, -0.1299)
  14 I      3.126343   -0.216415    4.560604    ( 0.0000,  0.0000, -0.1299)
  15 I     -0.417976   -1.830062    4.560597    ( 0.0000,  0.0000, -0.1299)

Unit cell:
           periodic     x           y           z      points  spacing
  1. axis:    yes    7.110727   -0.000000    0.000000    42     0.1466
  2. axis:    yes   -3.555363    6.158070    0.000000    42     0.1466
  3. axis:    no     0.000000   -0.000000   27.269192   160     0.1704

  Lengths:   7.110727   7.110727  27.269192
  Angles:   90.000000  90.000000 120.000000

Effective grid spacing dv^(1/3) = 0.1617

                     log10-error:           total        iterations:
           time      wfs    density  force  energy       poisson  magmom
iter:   1  21:29:26                        -76.892971             +12.1076
iter:   2  21:30:17  -0.99  -0.91          -70.503089             +9.9630
iter:   3  21:31:09  -1.83  -1.33          -70.497209             +11.0155
iter:   4  21:32:00  -1.59  -1.38          -70.966459             +12.0927
iter:   5  21:32:52  -2.54  -1.51          -70.628428             +12.0159
iter:   6  21:33:43  -1.91  -1.83          -70.402260             +12.0005
iter:   7  21:34:35  -2.97  -2.20          -70.395242             +12.0039
iter:   8  21:35:26  -3.31  -2.32          -70.390102             +12.0056
iter:   9  21:36:18  -3.68  -2.67          -70.391263             +12.0017
iter:  10  21:37:09  -3.86  -2.86          -70.391949             +11.9998
iter:  11  21:38:01  -3.99  -2.94          -70.392523             +12.0000
iter:  12  21:38:52  -3.99  -3.03          -70.392841             +12.0000
iter:  13  21:39:44  -4.06  -3.11          -70.393049             +12.0000
iter:  14  21:40:36  -4.10  -3.15          -70.393146             +12.0000
iter:  15  21:41:27  -4.20  -3.28          -70.393306             +12.0000
iter:  16  21:42:19  -4.34  -3.32          -70.393426             +12.0000
iter:  17  21:43:10  -4.62  -3.38          -70.393487             +12.0000
iter:  18  21:44:02  -4.77  -3.56          -70.393558             +12.0000
iter:  19  21:44:53  -4.90  -3.65          -70.393606             +12.0000
iter:  20  21:45:45  -5.01  -3.72          -70.393648             +12.0000
iter:  21  21:46:36  -5.19  -4.18          -70.393674             +12.0000
iter:  22  21:47:28  -5.17  -4.21          -70.393694             +12.0000
iter:  23  21:48:19  -5.29  -4.20          -70.393711             +12.0000
iter:  24  21:49:11  -5.51  -4.14          -70.393722             +12.0000
iter:  25  21:50:03  -5.66  -4.16          -70.393731             +12.0000
iter:  26  21:50:54  -5.77  -4.14          -70.393738             +12.0000
iter:  27  21:51:46  -5.93  -4.13          -70.393743             +12.0000
iter:  28  21:52:37  -6.08  -4.13          -70.393745             +12.0000
iter:  29  21:53:29  -6.29  -4.13          -70.393747             +12.0000
iter:  30  21:54:20  -6.37  -4.10          -70.393751             +12.0000
iter:  31  21:55:12  -6.50  -4.04          -70.393750             +12.0000
iter:  32  21:56:03  -6.71  -4.20          -70.393751             +12.0000
iter:  33  21:56:55  -6.79  -4.17          -70.393750             +12.0000
iter:  34  21:57:46  -7.03  -4.13          -70.393750             +12.0000
iter:  35  21:58:38  -7.12  -4.13          -70.393750             +12.0000
iter:  36  21:59:29  -7.25  -4.12          -70.393750             +12.0000
iter:  37  22:00:20  -7.20  -4.16          -70.393750             +12.0000
iter:  38  22:01:22  -7.49  -4.58          -70.393750             +12.0000
iter:  39  22:02:24  -7.54  -4.73    -3.14 -70.393750             +12.0000
iter:  40  22:03:26  -7.85  -4.90    -3.54 -70.393750             +12.0000
iter:  41  22:04:28  -7.93  -4.98    -3.09 -70.393750             +12.0000
iter:  42  22:05:30  -8.08  -5.17    -3.50 -70.393750             +12.0000
iter:  43  22:06:33  -8.18  -5.22    -3.86 -70.393750             +12.0000
iter:  44  22:07:35  -8.35  -5.28    -3.58 -70.393750             +12.0000
iter:  45  22:08:37  -8.50  -5.48    -3.75 -70.393750             +12.0000
iter:  46  22:09:39  -8.63  -5.65    -4.36 -70.393750             +12.0000

Converged after 46 iterations.

Dipole moment: (-31.656430, -0.000608, -0.004573) |e|*Ang

Total magnetic moment: (0.000000, 0.000000, 12.000000)
Local magnetic moments:
   0 Cr ( 0.000000,  0.000000,  2.912076)
   1 Cr ( 0.000000,  0.000000,  2.916273)
   2 I  ( 0.000000,  0.000000, -0.046868)
   3 I  ( 0.000000,  0.000000, -0.047138)
   4 I  ( 0.000000,  0.000000, -0.047179)
   5 I  ( 0.000000,  0.000000, -0.049958)
   6 I  ( 0.000000,  0.000000, -0.049667)
   7 I  ( 0.000000,  0.000000, -0.049689)
   8 Cr ( 0.000000,  0.000000,  2.915300)
   9 Cr ( 0.000000,  0.000000,  2.911208)
  10 I  ( 0.000000,  0.000000, -0.049706)
  11 I  ( 0.000000,  0.000000, -0.049668)
  12 I  ( 0.000000,  0.000000, -0.049669)
  13 I  ( 0.000000,  0.000000, -0.046977)
  14 I  ( 0.000000,  0.000000, -0.046934)
  15 I  ( 0.000000,  0.000000, -0.046968)

Energy contributions relative to reference atoms: (reference = -2434708.556191)

Kinetic:        +23.084409
Potential:      -37.089169
External:        +0.000000
XC:             -56.565010
Entropy (-ST):   -0.000000
Local:           +0.176020
--------------------------
Free energy:    -70.393750
Extrapolated:   -70.393750

Spin contamination: 1.120660 electrons
Showing only first 2 kpts
                      Up                     Down
 Kpt  Band  Eigenvalues  Occupancy  Eigenvalues  Occupancy
  0    52     -2.13853    1.00000     -0.01180    0.00000
  0    53     -2.10367    1.00000      0.00375    0.00000
  0    54     -2.01977    1.00000      0.18078    0.00000
  0    55     -2.01856    1.00000      0.21125    0.00000

  1    52     -2.11788    1.00000     -0.01929    0.00000
  1    53     -2.07462    1.00000      0.01892    0.00000
  1    54     -2.02050    1.00000      0.17032    0.00000
  1    55     -1.98989    1.00000      0.20851    0.00000


Fermi level: -1.19461

Gap: 0.970 eV
Transition (v -> c):
  (s=0, k=138, n=59, [0.46, 0.04, 0.00]) -> (s=0, k=22, n=60, [-0.38, 0.38, 0.00])
Writing to born-0.01-5x-.gpw (mode='all')

Timing:                              incl.     excl.
-----------------------------------------------------------
Hamiltonian:                         2.751     0.011   0.0% |
 Atomic:                             1.256     1.256   0.0% |
  XC Correction:                     0.000     0.000   0.0% |
 Calculate atomic Hamiltonians:      0.326     0.326   0.0% |
 Communicate:                        0.000     0.000   0.0% |
 Initialize Hamiltonian:             0.004     0.004   0.0% |
 Poisson:                            0.012     0.012   0.0% |
 XC 3D grid:                         1.142     1.142   0.0% |
LCAO initialization:                21.227     0.141   0.0% |
 LCAO eigensolver:                   3.322     0.001   0.0% |
  Calculate projections:             0.004     0.004   0.0% |
  DenseAtomicCorrection:             0.006     0.006   0.0% |
  Distribute overlap matrix:         0.000     0.000   0.0% |
  Orbital Layouts:                   0.016     0.016   0.0% |
  Potential matrix:                  3.285     3.285   0.1% |
  Sum over cells:                    0.012     0.012   0.0% |
 LCAO to grid:                      17.484    17.484   0.3% |
 Set positions (LCAO WFS):           0.280     0.050   0.0% |
  Basic WFS set positions:           0.001     0.001   0.0% |
  Basis functions set positions:     0.000     0.000   0.0% |
  P tci:                             0.123     0.123   0.0% |
  ST tci:                            0.063     0.063   0.0% |
  mktci:                             0.043     0.043   0.0% |
PWDescriptor:                        0.087     0.087   0.0% |
SCF-cycle:                        2465.447   559.022   9.8% |---|
 Davidson:                        1479.707   247.019   4.3% |-|
  Apply H:                         246.208   238.926   4.2% |-|
   HMM T:                            7.282     7.282   0.1% |
  Subspace diag:                   304.622     0.062   0.0% |
   calc_h_matrix:                  268.668    21.142   0.4% |
    Apply H:                       247.526   239.949   4.2% |-|
     HMM T:                          7.578     7.578   0.1% |
   diagonalize:                      0.578     0.578   0.0% |
   rotate_psi:                      35.313    35.313   0.6% |
  calc. matrices:                  614.898   121.442   2.1% ||
   Apply H:                        493.457   478.587   8.4% |--|
    HMM T:                          14.869    14.869   0.3% |
  diagonalize:                       5.381     5.381   0.1% |
  rotate_psi:                       61.579    61.579   1.1% |
 Density:                          244.080     0.002   0.0% |
  Atomic density matrices:           0.328     0.328   0.0% |
  Mix:                              41.498    41.498   0.7% |
  Multipole moments:                 0.021     0.021   0.0% |
  Pseudo density:                  202.231   202.228   3.5% ||
   Symmetrize density:               0.003     0.003   0.0% |
 Forces:                            89.037    89.037   1.6% ||
 Hamiltonian:                       91.990     0.552   0.0% |
  Atomic:                            5.749     5.749   0.1% |
   XC Correction:                    0.000     0.000   0.0% |
  Calculate atomic Hamiltonians:    29.962    29.962   0.5% |
  Communicate:                       0.008     0.008   0.0% |
  Poisson:                           0.543     0.543   0.0% |
  XC 3D grid:                       55.176    55.176   1.0% |
 Orthonormalize:                     1.612     0.001   0.0% |
  calc_s_matrix:                     0.214     0.214   0.0% |
  inverse-cholesky:                  0.004     0.004   0.0% |
  projections:                       0.981     0.981   0.0% |
  rotate_psi_s:                      0.412     0.412   0.0% |
Set symmetry:                        0.000     0.000   0.0% |
Other:                            3215.790  3215.790  56.4% |----------------------|
-----------------------------------------------------------
Total:                                      5705.303 100.0%

Memory usage: 39.14 GiB
Date: Sun Jun 26 23:03:10 2022
