
  ___ ___ ___ _ _ _  
 |   |   |_  | | | | 
 | | | | | . | | | | 
 |__ |  _|___|_____|  21.6.1b1
 |___|_|             

User:   madkru@c153.nifl.fysik.dtu.dk
Date:   Sun Jun 26 23:15:21 2022
Arch:   x86_64
Pid:    48887
Python: 3.8.6
gpaw:   /home/niflheim/madkru/new_venv/gpaw/gpaw (1f0dfc9eae)
_gpaw:  /home/niflheim/madkru/new_venv/gpaw/build/lib.linux-x86_64-skylake-3.8/
        _gpaw.cpython-38-x86_64-linux-gnu.so (c1e45bfab3)
ase:    /home/niflheim/madkru/new_venv/ase/ase (version 3.23.0b1-ca38c75a67)
numpy:  /home/modules/software/SciPy-bundle/2020.11-foss-2020b/lib/python3.8/site-packages/numpy (version 1.19.4)
scipy:  /home/modules/software/SciPy-bundle/2020.11-foss-2020b/lib/python3.8/site-packages/scipy (version 1.5.4)
libxc:  4.3.4
units:  Angstrom and eV
cores: 40
OpenMP: False
OMP_NUM_THREADS: 1

Input parameters:
  convergence: {bands: occupied,
                density: 0.0001,
                eigenstates: 4e-08,
                energy: 0.0005,
                forces: 0.0001}
  kpts: [12 12  1]
  mode: {ecut: 600.0,
         gammacentered: False,
         name: pw}
  occupations: {fixmagmom: False,
                name: fermi-dirac,
                width: 0.001}
  symmetry: {point_group: False,
             time_reversal: False}

System changes: positions, numbers, cell, pbc, initial_charges, initial_magmoms 

Initialize ...

Cr-setup:
  name: Chromium
  id: 444e8044bc0f91048286c984738d87f5
  Z: 24.0
  valence: 6
  core: 18
  charge: 0.0
  file: /home/modules/software/GPAW-setups/0.9.20000/Cr.LDA.gz
  compensation charges: gauss, rc=0.35, lmax=2
  cutoffs: 2.14(filt), 3.04(core),
  valence states:
                energy  radius
    4s(1.00)    -4.191   1.164
    4p(0.00)    -1.079   1.217
    3d(5.00)    -3.128   1.111
    *s          23.021   1.164
    *p          26.132   1.217
    *d          24.083   1.111

  Using partial waves for Cr as LCAO basis

I-setup:
  name: Iodine
  id: b559721c0c096a7b4c8fc0e0f4de5cf4
  Z: 53.0
  valence: 7
  core: 46
  charge: 0.0
  file: /home/modules/software/GPAW-setups/0.9.20000/I.LDA.gz
  compensation charges: gauss, rc=0.37, lmax=2
  cutoffs: 2.06(filt), 2.90(core),
  valence states:
                energy  radius
    5s(2.00)   -17.626   1.164
    5p(5.00)    -7.241   1.164
    *s           9.585   1.164
    *p          19.970   1.164
    *d           0.000   1.164

  Using partial waves for I as LCAO basis

Reference energy: -2434708.556191

Spin-polarized calculation.
Magnetic moment: 12.175341

Convergence criteria:
  Maximum total energy change: 0.0005 eV / electron
  Maximum integral of absolute density change: 0.0001 electrons
  Maximum integral of absolute eigenstate change: 4e-08 eV^2
  Maximum change in atomic force: 0.0001 eV / Ang
  Maximum number of iterations: 333

Symmetries present (total): 1

  ( 1  0  0)
  ( 0  1  0)
  ( 0  0  1)

144 k-points: 12 x 12 x 1 Monkhorst-Pack grid
144 k-points in the irreducible part of the Brillouin zone
       k-points in crystal coordinates                weights
   0:    -0.45833333   -0.45833333    0.00000000          1/144
   1:    -0.45833333   -0.37500000    0.00000000          1/144
   2:    -0.45833333   -0.29166667    0.00000000          1/144
   3:    -0.45833333   -0.20833333    0.00000000          1/144
   4:    -0.45833333   -0.12500000    0.00000000          1/144
   5:    -0.45833333   -0.04166667    0.00000000          1/144
   6:    -0.45833333    0.04166667    0.00000000          1/144
   7:    -0.45833333    0.12500000    0.00000000          1/144
   8:    -0.45833333    0.20833333    0.00000000          1/144
   9:    -0.45833333    0.29166667    0.00000000          1/144
          ...
 143:     0.45833333    0.45833333    0.00000000          1/144

Wave functions: Plane wave expansion
  Cutoff energy: 600.000 eV
  Number of coefficients (min, max): 39797, 39902
  Pulay-stress correction: 0.000000 eV/Ang^3 (de/decut=0.000000)
  Using FFTW library
  ScaLapack parameters: grid=1x1, blocksize=None
  Wavefunction extrapolation:
    Improved wavefunction reuse through dual PAW basis 

Occupation numbers: Fermi-Dirac: width=0.0010 eV
 

Eigensolver
   Davidson(niter=2) 

Densities:
  Coarse grid: 42*42*160 grid
  Fine grid: 84*84*320 grid
  Total Charge: 0.000000 

Density mixing:
  Method: difference
  Backend: pulay
  Linear mixing parameter: 0.05
  Mixing with 5 old densities
  Damping of long wave oscillations: 50 

Hamiltonian:
  XC and Coulomb potentials evaluated on a 84*84*320 grid
  Using the LDA Exchange-Correlation functional
  External potential:
    <gpaw.external.NoExternalPotential object at 0x2b332cee3760>
 

Memory estimate:
  Process memory now: 40075.95 MiB
  Calculator: 580.26 MiB
    Density: 158.40 MiB
      Arrays: 75.37 MiB
      Localized functions: 52.88 MiB
      Mixer: 30.15 MiB
    Hamiltonian: 57.28 MiB
      Arrays: 55.99 MiB
      XC: 0.00 MiB
      Poisson: 0.00 MiB
      vbar: 1.29 MiB
    Wavefunctions: 364.58 MiB
      Arrays psit_nG: 281.29 MiB
      Eigensolver: 50.83 MiB
      Projections: 1.61 MiB
      Projectors: 18.26 MiB
      PW-descriptor: 12.59 MiB

Total number of cores used: 40
Parallelization over k-points: 40

Number of atoms: 16
Number of atomic orbitals: 84
Number of bands in calculation: 77
Number of valence electrons: 108
Bands to converge: occupied

... initialized

Initializing position-dependent things.

Density initialized from atomic densities
Creating initial wave functions:
  77 bands from LCAO basis set

                                       
                                       
                                       
                                       
                      I                
                            I          
                   I                   
                       Cr  I           
             Cr                        
                 I                     
                         I             
                     I                 
                             I         
               Cr                      
                   I   Cr              
          I                            
                 I                     
                        I              
                                       
                                       
                                       
                                       

Positions:
   0 Cr     0.889135    0.000185   -3.063135    ( 0.0000,  0.0000,  3.4336)
   1 Cr    -2.666158    2.052642   -3.080223    ( 0.0000,  0.0000,  3.4336)
   2 I      1.822012   -2.046247   -4.559876    ( 0.0000,  0.0000, -0.1299)
   3 I     -1.348662    0.216415   -4.560605    ( 0.0000,  0.0000, -0.1299)
   4 I     -4.915070    1.830062   -4.560598    ( 0.0000,  0.0000, -0.1299)
   5 I     -0.074828   -2.073434   -1.594960    ( 0.0000,  0.0000, -0.1299)
   6 I     -0.416551    1.865690   -1.594231    ( 0.0000,  0.0000, -0.1299)
   7 I      3.157525    0.197989   -1.594234    ( 0.0000,  0.0000, -0.1299)
   8 Cr    -2.666887   -2.052642    3.080226    ( 0.0000,  0.0000,  3.4336)
   9 Cr     0.888546   -0.000185    3.063139    ( 0.0000,  0.0000,  3.4336)
  10 I      1.852510    2.063434    1.594959    ( 0.0000,  0.0000, -0.1299)
  11 I      2.194233   -1.865690    1.594230    ( 0.0000,  0.0000, -0.1299)
  12 I     -1.379843   -0.197989    1.594233    ( 0.0000,  0.0000, -0.1299)
  13 I     -0.044330    2.046247    4.559875    ( 0.0000,  0.0000, -0.1299)
  14 I      3.126343   -0.216415    4.560604    ( 0.0000,  0.0000, -0.1299)
  15 I     -0.417976   -1.830062    4.560597    ( 0.0000,  0.0000, -0.1299)

Unit cell:
           periodic     x           y           z      points  spacing
  1. axis:    yes    7.110727   -0.000000    0.000000    42     0.1466
  2. axis:    yes   -3.555363    6.158070    0.000000    42     0.1466
  3. axis:    no     0.000000   -0.000000   27.269192   160     0.1704

  Lengths:   7.110727   7.110727  27.269192
  Angles:   90.000000  90.000000 120.000000

Effective grid spacing dv^(1/3) = 0.1617

                     log10-error:           total        iterations:
           time      wfs    density  force  energy       poisson  magmom
iter:   1  23:16:41                        -76.898176             +12.1076
iter:   2  23:17:32  -0.99  -0.91          -70.503814             +9.9635
iter:   3  23:18:24  -1.83  -1.33          -70.497264             +11.0159
iter:   4  23:19:15  -1.58  -1.38          -70.968350             +12.0927
iter:   5  23:20:07  -2.53  -1.51          -70.628673             +12.0159
iter:   6  23:20:58  -1.91  -1.83          -70.402261             +12.0005
iter:   7  23:21:49  -2.97  -2.20          -70.395259             +12.0039
iter:   8  23:22:41  -3.31  -2.31          -70.390009             +12.0055
iter:   9  23:23:32  -3.68  -2.67          -70.391169             +12.0017
iter:  10  23:24:24  -3.86  -2.86          -70.391852             +11.9998
iter:  11  23:25:15  -3.99  -2.94          -70.392425             +12.0000
iter:  12  23:26:07  -3.99  -3.04          -70.392738             +12.0000
iter:  13  23:26:58  -4.06  -3.11          -70.392950             +12.0000
iter:  14  23:27:50  -4.10  -3.15          -70.393054             +12.0000
iter:  15  23:28:41  -4.19  -3.27          -70.393216             +12.0000
iter:  16  23:29:33  -4.33  -3.32          -70.393335             +12.0000
iter:  17  23:30:25  -4.60  -3.37          -70.393393             +12.0000
iter:  18  23:31:16  -4.74  -3.56          -70.393464             +12.0000
iter:  19  23:32:07  -4.88  -3.65          -70.393511             +12.0000
iter:  20  23:32:59  -5.00  -3.74          -70.393553             +12.0000
iter:  21  23:33:50  -5.18  -4.24          -70.393581             +12.0000
iter:  22  23:34:42  -5.18  -4.25          -70.393602             +12.0000
iter:  23  23:35:33  -5.18  -4.26          -70.393616             +12.0000
iter:  24  23:36:25  -5.39  -4.16          -70.393629             +12.0000
iter:  25  23:37:16  -5.53  -4.23          -70.393637             +12.0000
iter:  26  23:38:07  -5.64  -4.22          -70.393643             +12.0000
iter:  27  23:38:59  -5.78  -4.20          -70.393648             +12.0000
iter:  28  23:39:50  -5.93  -4.23          -70.393653             +12.0000
iter:  29  23:40:41  -6.28  -4.10          -70.393654             +12.0000
iter:  30  23:41:33  -6.44  -4.24          -70.393656             +12.0000
iter:  31  23:42:24  -6.43  -4.25          -70.393657             +12.0000
iter:  32  23:43:15  -6.66  -4.23          -70.393656             +12.0000
iter:  33  23:44:06  -6.75  -4.33          -70.393657             +12.0000
iter:  34  23:44:57  -6.95  -4.31          -70.393657             +12.0000
iter:  35  23:45:49  -7.07  -4.35          -70.393657             +12.0000
iter:  36  23:46:40  -7.19  -4.44          -70.393657             +12.0000
iter:  37  23:47:31  -7.16  -4.49          -70.393657             +12.0000
iter:  38  23:48:32  -7.44  -4.77          -70.393657             +12.0000
iter:  39  23:49:34  -7.61  -4.83    -3.31 -70.393657             +12.0000
iter:  40  23:50:37  -7.78  -4.87    -3.70 -70.393657             +12.0000
iter:  41  23:51:39  -7.94  -4.89    -3.36 -70.393657             +12.0000
iter:  42  23:52:41  -8.07  -5.00    -3.29 -70.393657             +12.0000
iter:  43  23:53:43  -8.22  -5.15    -3.64 -70.393657             +12.0000
iter:  44  23:54:45  -8.21  -5.22    -3.46 -70.393657             +12.0000
iter:  45  23:55:47  -8.33  -5.32    -3.41 -70.393657             +12.0000
iter:  46  23:56:49  -8.50  -5.41    -4.73 -70.393657             +12.0000

Converged after 46 iterations.

Dipole moment: (-31.618857, -0.003833, 0.001981) |e|*Ang

Total magnetic moment: (0.000000, 0.000000, 12.000000)
Local magnetic moments:
   0 Cr ( 0.000000,  0.000000,  2.913289)
   1 Cr ( 0.000000,  0.000000,  2.913369)
   2 I  ( 0.000000,  0.000000, -0.046963)
   3 I  ( 0.000000,  0.000000, -0.046716)
   4 I  ( 0.000000,  0.000000, -0.047206)
   5 I  ( 0.000000,  0.000000, -0.049655)
   6 I  ( 0.000000,  0.000000, -0.049590)
   7 I  ( 0.000000,  0.000000, -0.049750)
   8 Cr ( 0.000000,  0.000000,  2.915468)
   9 Cr ( 0.000000,  0.000000,  2.911365)
  10 I  ( 0.000000,  0.000000, -0.049682)
  11 I  ( 0.000000,  0.000000, -0.049658)
  12 I  ( 0.000000,  0.000000, -0.049633)
  13 I  ( 0.000000,  0.000000, -0.046978)
  14 I  ( 0.000000,  0.000000, -0.046940)
  15 I  ( 0.000000,  0.000000, -0.046943)

Energy contributions relative to reference atoms: (reference = -2434708.556191)

Kinetic:        +23.268491
Potential:      -37.240523
External:        +0.000000
XC:             -56.596170
Entropy (-ST):   -0.000000
Local:           +0.174544
--------------------------
Free energy:    -70.393657
Extrapolated:   -70.393657

Spin contamination: 1.119638 electrons
Showing only first 2 kpts
                      Up                     Down
 Kpt  Band  Eigenvalues  Occupancy  Eigenvalues  Occupancy
  0    52     -2.13850    1.00000     -0.01172    0.00000
  0    53     -2.10295    1.00000      0.00309    0.00000
  0    54     -2.01903    1.00000      0.18039    0.00000
  0    55     -2.01836    1.00000      0.21098    0.00000

  1    52     -2.11774    1.00000     -0.01819    0.00000
  1    53     -2.07405    1.00000      0.01842    0.00000
  1    54     -2.01997    1.00000      0.17012    0.00000
  1    55     -1.98958    1.00000      0.20905    0.00000


Fermi level: -1.19508

Gap: 0.968 eV
Transition (v -> c):
  (s=0, k=11, n=59, [-0.46, 0.46, 0.00]) -> (s=0, k=72, n=60, [0.04, -0.46, 0.00])
Writing to born-0.01-5y-.gpw (mode='all')

Timing:                              incl.     excl.
-----------------------------------------------------------
Hamiltonian:                         2.840     0.011   0.0% |
 Atomic:                             1.345     1.345   0.0% |
  XC Correction:                     0.000     0.000   0.0% |
 Calculate atomic Hamiltonians:      0.327     0.327   0.0% |
 Communicate:                        0.000     0.000   0.0% |
 Initialize Hamiltonian:             0.003     0.003   0.0% |
 Poisson:                            0.011     0.011   0.0% |
 XC 3D grid:                         1.143     1.143   0.0% |
LCAO initialization:                21.208     0.141   0.0% |
 LCAO eigensolver:                   3.334     0.001   0.0% |
  Calculate projections:             0.004     0.004   0.0% |
  DenseAtomicCorrection:             0.005     0.005   0.0% |
  Distribute overlap matrix:         0.000     0.000   0.0% |
  Orbital Layouts:                   0.016     0.016   0.0% |
  Potential matrix:                  3.296     3.296   0.1% |
  Sum over cells:                    0.011     0.011   0.0% |
 LCAO to grid:                      17.452    17.452   0.3% |
 Set positions (LCAO WFS):           0.281     0.050   0.0% |
  Basic WFS set positions:           0.001     0.001   0.0% |
  Basis functions set positions:     0.000     0.000   0.0% |
  P tci:                             0.122     0.122   0.0% |
  ST tci:                            0.064     0.064   0.0% |
  mktci:                             0.044     0.044   0.0% |
PWDescriptor:                        0.087     0.087   0.0% |
SCF-cycle:                        2459.913   549.653   9.8% |---|
 Davidson:                        1481.982   244.782   4.4% |-|
  Apply H:                         249.246   241.737   4.3% |-|
   HMM T:                            7.508     7.508   0.1% |
  Subspace diag:                   307.013     0.063   0.0% |
   calc_h_matrix:                  270.980    20.995   0.4% |
    Apply H:                       249.984   242.038   4.3% |-|
     HMM T:                          7.946     7.946   0.1% |
   diagonalize:                      0.569     0.569   0.0% |
   rotate_psi:                      35.401    35.401   0.6% |
  calc. matrices:                  613.891   118.559   2.1% ||
   Apply H:                        495.331   479.997   8.6% |--|
    HMM T:                          15.334    15.334   0.3% |
  diagonalize:                       5.401     5.401   0.1% |
  rotate_psi:                       61.651    61.651   1.1% |
 Density:                          245.075     0.002   0.0% |
  Atomic density matrices:           0.326     0.326   0.0% |
  Mix:                              40.801    40.801   0.7% |
  Multipole moments:                 0.021     0.021   0.0% |
  Pseudo density:                  203.926   203.923   3.6% ||
   Symmetrize density:               0.003     0.003   0.0% |
 Forces:                            88.892    88.892   1.6% ||
 Hamiltonian:                       92.652     0.575   0.0% |
  Atomic:                            7.412     7.412   0.1% |
   XC Correction:                    0.000     0.000   0.0% |
  Calculate atomic Hamiltonians:    29.842    29.842   0.5% |
  Communicate:                       0.008     0.008   0.0% |
  Poisson:                           0.523     0.523   0.0% |
  XC 3D grid:                       54.291    54.291   1.0% |
 Orthonormalize:                     1.659     0.002   0.0% |
  calc_s_matrix:                     0.216     0.216   0.0% |
  inverse-cholesky:                  0.004     0.004   0.0% |
  projections:                       0.999     0.999   0.0% |
  rotate_psi_s:                      0.438     0.438   0.0% |
Set symmetry:                        0.000     0.000   0.0% |
Other:                            3123.576  3123.576  55.7% |---------------------|
-----------------------------------------------------------
Total:                                      5607.624 100.0%

Memory usage: 39.14 GiB
Date: Mon Jun 27 00:48:48 2022
