
  ___ ___ ___ _ _ _  
 |   |   |_  | | | | 
 | | | | | . | | | | 
 |__ |  _|___|_____|  21.6.1b1
 |___|_|             

User:   madkru@c007.nifl.fysik.dtu.dk
Date:   Wed Jun 29 00:53:24 2022
Arch:   x86_64
Pid:    215850
Python: 3.8.6
gpaw:   /home/niflheim/madkru/new_venv/gpaw/gpaw (1f0dfc9eae)
_gpaw:  /home/niflheim/madkru/new_venv/gpaw/build/lib.linux-x86_64-skylake-3.8/
        _gpaw.cpython-38-x86_64-linux-gnu.so (c1e45bfab3)
ase:    /home/niflheim/madkru/new_venv/ase/ase (version 3.23.0b1-ca38c75a67)
numpy:  /home/modules/software/SciPy-bundle/2020.11-foss-2020b/lib/python3.8/site-packages/numpy (version 1.19.4)
scipy:  /home/modules/software/SciPy-bundle/2020.11-foss-2020b/lib/python3.8/site-packages/scipy (version 1.5.4)
libxc:  4.3.4
units:  Angstrom and eV
cores: 40
OpenMP: False
OMP_NUM_THREADS: 1

Input parameters:
  convergence: {bands: occupied,
                density: 0.0001,
                eigenstates: 4e-08,
                energy: 0.0005,
                forces: 0.0001}
  kpts: [12 12  1]
  mode: {ecut: 600.0,
         gammacentered: False,
         name: pw}
  occupations: {fixmagmom: False,
                name: fermi-dirac,
                width: 0.001}
  symmetry: {point_group: False,
             time_reversal: False}

System changes: positions, numbers, cell, pbc, initial_charges, initial_magmoms 

Initialize ...

Cr-setup:
  name: Chromium
  id: 444e8044bc0f91048286c984738d87f5
  Z: 24.0
  valence: 6
  core: 18
  charge: 0.0
  file: /home/modules/software/GPAW-setups/0.9.20000/Cr.LDA.gz
  compensation charges: gauss, rc=0.35, lmax=2
  cutoffs: 2.14(filt), 3.04(core),
  valence states:
                energy  radius
    4s(1.00)    -4.191   1.164
    4p(0.00)    -1.079   1.217
    3d(5.00)    -3.128   1.111
    *s          23.021   1.164
    *p          26.132   1.217
    *d          24.083   1.111

  Using partial waves for Cr as LCAO basis

I-setup:
  name: Iodine
  id: b559721c0c096a7b4c8fc0e0f4de5cf4
  Z: 53.0
  valence: 7
  core: 46
  charge: 0.0
  file: /home/modules/software/GPAW-setups/0.9.20000/I.LDA.gz
  compensation charges: gauss, rc=0.37, lmax=2
  cutoffs: 2.06(filt), 2.90(core),
  valence states:
                energy  radius
    5s(2.00)   -17.626   1.164
    5p(5.00)    -7.241   1.164
    *s           9.585   1.164
    *p          19.970   1.164
    *d           0.000   1.164

  Using partial waves for I as LCAO basis

Reference energy: -2434708.556191

Spin-polarized calculation.
Magnetic moment: 12.175341

Convergence criteria:
  Maximum total energy change: 0.0005 eV / electron
  Maximum integral of absolute density change: 0.0001 electrons
  Maximum integral of absolute eigenstate change: 4e-08 eV^2
  Maximum change in atomic force: 0.0001 eV / Ang
  Maximum number of iterations: 333

Symmetries present (total): 1

  ( 1  0  0)
  ( 0  1  0)
  ( 0  0  1)

144 k-points: 12 x 12 x 1 Monkhorst-Pack grid
144 k-points in the irreducible part of the Brillouin zone
       k-points in crystal coordinates                weights
   0:    -0.45833333   -0.45833333    0.00000000          1/144
   1:    -0.45833333   -0.37500000    0.00000000          1/144
   2:    -0.45833333   -0.29166667    0.00000000          1/144
   3:    -0.45833333   -0.20833333    0.00000000          1/144
   4:    -0.45833333   -0.12500000    0.00000000          1/144
   5:    -0.45833333   -0.04166667    0.00000000          1/144
   6:    -0.45833333    0.04166667    0.00000000          1/144
   7:    -0.45833333    0.12500000    0.00000000          1/144
   8:    -0.45833333    0.20833333    0.00000000          1/144
   9:    -0.45833333    0.29166667    0.00000000          1/144
          ...
 143:     0.45833333    0.45833333    0.00000000          1/144

Wave functions: Plane wave expansion
  Cutoff energy: 600.000 eV
  Number of coefficients (min, max): 39797, 39902
  Pulay-stress correction: 0.000000 eV/Ang^3 (de/decut=0.000000)
  Using FFTW library
  ScaLapack parameters: grid=1x1, blocksize=None
  Wavefunction extrapolation:
    Improved wavefunction reuse through dual PAW basis 

Occupation numbers: Fermi-Dirac: width=0.0010 eV
 

Eigensolver
   Davidson(niter=2) 

Densities:
  Coarse grid: 42*42*160 grid
  Fine grid: 84*84*320 grid
  Total Charge: 0.000000 

Density mixing:
  Method: difference
  Backend: pulay
  Linear mixing parameter: 0.05
  Mixing with 5 old densities
  Damping of long wave oscillations: 50 

Hamiltonian:
  XC and Coulomb potentials evaluated on a 84*84*320 grid
  Using the LDA Exchange-Correlation functional
  External potential:
    <gpaw.external.NoExternalPotential object at 0x2b8966977eb0>
 

Memory estimate:
  Process memory now: 40096.25 MiB
  Calculator: 580.26 MiB
    Density: 158.40 MiB
      Arrays: 75.37 MiB
      Localized functions: 52.88 MiB
      Mixer: 30.15 MiB
    Hamiltonian: 57.28 MiB
      Arrays: 55.99 MiB
      XC: 0.00 MiB
      Poisson: 0.00 MiB
      vbar: 1.29 MiB
    Wavefunctions: 364.58 MiB
      Arrays psit_nG: 281.29 MiB
      Eigensolver: 50.83 MiB
      Projections: 1.61 MiB
      Projectors: 18.26 MiB
      PW-descriptor: 12.59 MiB

Total number of cores used: 40
Parallelization over k-points: 40

Number of atoms: 16
Number of atomic orbitals: 84
Number of bands in calculation: 77
Number of valence electrons: 108
Bands to converge: occupied

... initialized

Initializing position-dependent things.

Density initialized from atomic densities
Creating initial wave functions:
  77 bands from LCAO basis set

                                       
                                       
                                       
                                       
                      I                
                            I          
                   I                   
                       Cr  I           
             Cr                        
                 I                     
                         I             
                     I                 
                             I         
               Cr                      
                   I   Cr              
          I                            
                 I                     
                        I              
                                       
                                       
                                       
                                       

Positions:
   0 Cr     0.889135    0.000185   -3.063135    ( 0.0000,  0.0000,  3.4336)
   1 Cr    -2.666158    2.052642   -3.080223    ( 0.0000,  0.0000,  3.4336)
   2 I      1.822012   -2.046247   -4.559876    ( 0.0000,  0.0000, -0.1299)
   3 I     -1.348662    0.216415   -4.560605    ( 0.0000,  0.0000, -0.1299)
   4 I     -4.915070    1.830062   -4.560598    ( 0.0000,  0.0000, -0.1299)
   5 I     -0.074828   -2.063434   -1.594960    ( 0.0000,  0.0000, -0.1299)
   6 I     -0.416551    1.865690   -1.594231    ( 0.0000,  0.0000, -0.1299)
   7 I      3.157525    0.197989   -1.594234    ( 0.0000,  0.0000, -0.1299)
   8 Cr    -2.666887   -2.052642    3.080226    ( 0.0000,  0.0000,  3.4336)
   9 Cr     0.888546   -0.000185    3.063139    ( 0.0000,  0.0000,  3.4336)
  10 I      1.852510    2.063434    1.594959    ( 0.0000,  0.0000, -0.1299)
  11 I      2.194233   -1.855690    1.594230    ( 0.0000,  0.0000, -0.1299)
  12 I     -1.379843   -0.197989    1.594233    ( 0.0000,  0.0000, -0.1299)
  13 I     -0.044330    2.046247    4.559875    ( 0.0000,  0.0000, -0.1299)
  14 I      3.126343   -0.216415    4.560604    ( 0.0000,  0.0000, -0.1299)
  15 I     -0.417976   -1.830062    4.560597    ( 0.0000,  0.0000, -0.1299)

Unit cell:
           periodic     x           y           z      points  spacing
  1. axis:    yes    7.110727   -0.000000    0.000000    42     0.1466
  2. axis:    yes   -3.555363    6.158070    0.000000    42     0.1466
  3. axis:    no     0.000000   -0.000000   27.269192   160     0.1704

  Lengths:   7.110727   7.110727  27.269192
  Angles:   90.000000  90.000000 120.000000

Effective grid spacing dv^(1/3) = 0.1617

                     log10-error:           total        iterations:
           time      wfs    density  force  energy       poisson  magmom
iter:   1  00:54:44                        -76.906133             +12.1076
iter:   2  00:55:36  -0.99  -0.91          -70.502933             +9.9573
iter:   3  00:56:28  -1.83  -1.33          -70.496954             +11.0126
iter:   4  00:57:19  -1.58  -1.38          -70.969071             +12.0928
iter:   5  00:58:11  -2.53  -1.51          -70.628835             +12.0160
iter:   6  00:59:02  -1.91  -1.83          -70.402362             +12.0006
iter:   7  00:59:54  -2.97  -2.20          -70.395379             +12.0040
iter:   8  01:00:46  -3.31  -2.31          -70.390082             +12.0056
iter:   9  01:01:37  -3.68  -2.67          -70.391243             +12.0017
iter:  10  01:02:29  -3.86  -2.86          -70.391924             +11.9998
iter:  11  01:03:20  -3.99  -2.94          -70.392496             +12.0000
iter:  12  01:04:12  -3.98  -3.04          -70.392807             +12.0000
iter:  13  01:05:03  -4.05  -3.10          -70.393020             +12.0000
iter:  14  01:05:55  -4.09  -3.14          -70.393129             +12.0000
iter:  15  01:06:46  -4.18  -3.26          -70.393293             +12.0000
iter:  16  01:07:38  -4.33  -3.32          -70.393413             +12.0000
iter:  17  01:08:29  -4.56  -3.38          -70.393468             +12.0000
iter:  18  01:09:21  -4.74  -3.56          -70.393538             +12.0000
iter:  19  01:10:13  -4.87  -3.66          -70.393585             +12.0000
iter:  20  01:11:04  -5.00  -3.75          -70.393627             +12.0000
iter:  21  01:11:56  -5.17  -4.24          -70.393655             +12.0000
iter:  22  01:12:47  -5.27  -4.24          -70.393678             +12.0000
iter:  23  01:13:39  -5.35  -4.24          -70.393693             +12.0000
iter:  24  01:14:30  -5.50  -4.15          -70.393704             +12.0000
iter:  25  01:15:22  -5.58  -4.28          -70.393711             +12.0000
iter:  26  01:16:13  -5.71  -4.29          -70.393718             +12.0000
iter:  27  01:17:05  -5.76  -4.26          -70.393721             +12.0000
iter:  28  01:17:56  -5.95  -4.32          -70.393726             +12.0000
iter:  29  01:18:48  -6.27  -4.24          -70.393727             +12.0000
iter:  30  01:19:39  -6.44  -4.33          -70.393729             +12.0000
iter:  31  01:20:30  -6.52  -4.32          -70.393730             +12.0000
iter:  32  01:21:22  -6.61  -4.32          -70.393731             +12.0000
iter:  33  01:22:13  -6.80  -4.45          -70.393731             +12.0000
iter:  34  01:23:05  -6.96  -4.54          -70.393731             +12.0000
iter:  35  01:23:56  -7.09  -4.56          -70.393731             +12.0000
iter:  36  01:24:47  -7.24  -4.61          -70.393731             +12.0000
iter:  37  01:25:49  -7.42  -4.77          -70.393731             +12.0000
iter:  38  01:26:51  -7.55  -4.82    -3.22 -70.393731             +12.0000
iter:  39  01:27:53  -7.69  -5.05    -3.74 -70.393731             +12.0000
iter:  40  01:28:55  -7.81  -5.11    -3.06 -70.393731             +12.0000
iter:  41  01:29:57  -7.98  -5.39    -4.07 -70.393732             +12.0000

Converged after 41 iterations.

Dipole moment: (-31.510628, 0.009637, -0.002987) |e|*Ang

Total magnetic moment: (0.000000, 0.000000, 12.000000)
Local magnetic moments:
   0 Cr ( 0.000000,  0.000000,  2.911332)
   1 Cr ( 0.000000,  0.000000,  2.915560)
   2 I  ( 0.000000,  0.000000, -0.046969)
   3 I  ( 0.000000,  0.000000, -0.046934)
   4 I  ( 0.000000,  0.000000, -0.046952)
   5 I  ( 0.000000,  0.000000, -0.049681)
   6 I  ( 0.000000,  0.000000, -0.049621)
   7 I  ( 0.000000,  0.000000, -0.049642)
   8 Cr ( 0.000000,  0.000000,  2.915768)
   9 Cr ( 0.000000,  0.000000,  2.909599)
  10 I  ( 0.000000,  0.000000, -0.049610)
  11 I  ( 0.000000,  0.000000, -0.049412)
  12 I  ( 0.000000,  0.000000, -0.049677)
  13 I  ( 0.000000,  0.000000, -0.046654)
  14 I  ( 0.000000,  0.000000, -0.047035)
  15 I  ( 0.000000,  0.000000, -0.046886)

Energy contributions relative to reference atoms: (reference = -2434708.556191)

Kinetic:        +23.453764
Potential:      -37.395209
External:        +0.000000
XC:             -56.626751
Entropy (-ST):   -0.000000
Local:           +0.174464
--------------------------
Free energy:    -70.393732
Extrapolated:   -70.393732

Spin contamination: 1.118738 electrons
Showing only first 2 kpts
                      Up                     Down
 Kpt  Band  Eigenvalues  Occupancy  Eigenvalues  Occupancy
  0    52     -2.13763    1.00000     -0.01212    0.00000
  0    53     -2.10170    1.00000      0.00314    0.00000
  0    54     -2.01934    1.00000      0.18119    0.00000
  0    55     -2.01829    1.00000      0.21209    0.00000

  1    52     -2.11718    1.00000     -0.01914    0.00000
  1    53     -2.07329    1.00000      0.01881    0.00000
  1    54     -2.01987    1.00000      0.17092    0.00000
  1    55     -1.98939    1.00000      0.20950    0.00000


Fermi level: -1.20162

Gap: 0.972 eV
Transition (v -> c):
  (s=0, k=5, n=59, [-0.46, -0.04, 0.00]) -> (s=0, k=72, n=60, [0.04, -0.46, 0.00])
Writing to born-0.01-11y+.gpw (mode='all')

Timing:                              incl.     excl.
-----------------------------------------------------------
Hamiltonian:                         2.892     0.011   0.0% |
 Atomic:                             1.396     1.396   0.0% |
  XC Correction:                     0.000     0.000   0.0% |
 Calculate atomic Hamiltonians:      0.328     0.328   0.0% |
 Communicate:                        0.000     0.000   0.0% |
 Initialize Hamiltonian:             0.004     0.004   0.0% |
 Poisson:                            0.014     0.014   0.0% |
 XC 3D grid:                         1.138     1.138   0.0% |
LCAO initialization:                20.320     0.141   0.0% |
 LCAO eigensolver:                   3.058     0.001   0.0% |
  Calculate projections:             0.004     0.004   0.0% |
  DenseAtomicCorrection:             0.005     0.005   0.0% |
  Distribute overlap matrix:         0.000     0.000   0.0% |
  Orbital Layouts:                   0.016     0.016   0.0% |
  Potential matrix:                  3.022     3.022   0.1% |
  Sum over cells:                    0.011     0.011   0.0% |
 LCAO to grid:                      16.840    16.840   0.3% |
 Set positions (LCAO WFS):           0.281     0.050   0.0% |
  Basic WFS set positions:           0.001     0.001   0.0% |
  Basis functions set positions:     0.000     0.000   0.0% |
  P tci:                             0.123     0.123   0.0% |
  ST tci:                            0.065     0.065   0.0% |
  mktci:                             0.042     0.042   0.0% |
PWDescriptor:                        0.087     0.087   0.0% |
SCF-cycle:                        2165.420   473.631   8.8% |---|
 Davidson:                        1343.583   214.504   4.0% |-|
  Apply H:                         234.590   227.733   4.2% |-|
   HMM T:                            6.857     6.857   0.1% |
  Subspace diag:                   283.439     0.060   0.0% |
   calc_h_matrix:                  251.774    18.322   0.3% |
    Apply H:                       233.452   226.539   4.2% |-|
     HMM T:                          6.913     6.913   0.1% |
   diagonalize:                      0.517     0.517   0.0% |
   rotate_psi:                      31.089    31.089   0.6% |
  calc. matrices:                  549.217   103.444   1.9% ||
   Apply H:                        445.773   433.096   8.1% |--|
    HMM T:                          12.677    12.677   0.2% |
  diagonalize:                       4.912     4.912   0.1% |
  rotate_psi:                       56.921    56.921   1.1% |
 Density:                          216.262     0.002   0.0% |
  Atomic density matrices:           0.332     0.332   0.0% |
  Mix:                              37.512    37.512   0.7% |
  Multipole moments:                 0.019     0.019   0.0% |
  Pseudo density:                  178.398   178.394   3.3% ||
   Symmetrize density:               0.003     0.003   0.0% |
 Forces:                            49.513    49.513   0.9% |
 Hamiltonian:                       80.741     0.702   0.0% |
  Atomic:                            3.940     3.940   0.1% |
   XC Correction:                    0.000     0.000   0.0% |
  Calculate atomic Hamiltonians:    26.674    26.674   0.5% |
  Communicate:                       0.030     0.030   0.0% |
  Poisson:                           0.561     0.561   0.0% |
  XC 3D grid:                       48.833    48.833   0.9% |
 Orthonormalize:                     1.691     0.002   0.0% |
  calc_s_matrix:                     0.223     0.223   0.0% |
  inverse-cholesky:                  0.004     0.004   0.0% |
  projections:                       1.028     1.028   0.0% |
  rotate_psi_s:                      0.433     0.433   0.0% |
Set symmetry:                        0.000     0.000   0.0% |
Other:                            3173.275  3173.275  59.2% |-----------------------|
-----------------------------------------------------------
Total:                                      5361.993 100.0%

Memory usage: 39.17 GiB
Date: Wed Jun 29 02:22:46 2022
