
  ___ ___ ___ _ _ _  
 |   |   |_  | | | | 
 | | | | | . | | | | 
 |__ |  _|___|_____|  21.6.1b1
 |___|_|             

User:   madkru@c007.nifl.fysik.dtu.dk
Date:   Wed Jun 29 18:54:26 2022
Arch:   x86_64
Pid:    215850
Python: 3.8.6
gpaw:   /home/niflheim/madkru/new_venv/gpaw/gpaw (1f0dfc9eae)
_gpaw:  /home/niflheim/madkru/new_venv/gpaw/build/lib.linux-x86_64-skylake-3.8/
        _gpaw.cpython-38-x86_64-linux-gnu.so (c1e45bfab3)
ase:    /home/niflheim/madkru/new_venv/ase/ase (version 3.23.0b1-ca38c75a67)
numpy:  /home/modules/software/SciPy-bundle/2020.11-foss-2020b/lib/python3.8/site-packages/numpy (version 1.19.4)
scipy:  /home/modules/software/SciPy-bundle/2020.11-foss-2020b/lib/python3.8/site-packages/scipy (version 1.5.4)
libxc:  4.3.4
units:  Angstrom and eV
cores: 40
OpenMP: False
OMP_NUM_THREADS: 1

Input parameters:
  convergence: {bands: occupied,
                density: 0.0001,
                eigenstates: 4e-08,
                energy: 0.0005,
                forces: 0.0001}
  kpts: [12 12  1]
  mode: {ecut: 600.0,
         gammacentered: False,
         name: pw}
  occupations: {fixmagmom: False,
                name: fermi-dirac,
                width: 0.001}
  symmetry: {point_group: False,
             time_reversal: False}

System changes: positions, numbers, cell, pbc, initial_charges, initial_magmoms 

Initialize ...

Cr-setup:
  name: Chromium
  id: 444e8044bc0f91048286c984738d87f5
  Z: 24.0
  valence: 6
  core: 18
  charge: 0.0
  file: /home/modules/software/GPAW-setups/0.9.20000/Cr.LDA.gz
  compensation charges: gauss, rc=0.35, lmax=2
  cutoffs: 2.14(filt), 3.04(core),
  valence states:
                energy  radius
    4s(1.00)    -4.191   1.164
    4p(0.00)    -1.079   1.217
    3d(5.00)    -3.128   1.111
    *s          23.021   1.164
    *p          26.132   1.217
    *d          24.083   1.111

  Using partial waves for Cr as LCAO basis

I-setup:
  name: Iodine
  id: b559721c0c096a7b4c8fc0e0f4de5cf4
  Z: 53.0
  valence: 7
  core: 46
  charge: 0.0
  file: /home/modules/software/GPAW-setups/0.9.20000/I.LDA.gz
  compensation charges: gauss, rc=0.37, lmax=2
  cutoffs: 2.06(filt), 2.90(core),
  valence states:
                energy  radius
    5s(2.00)   -17.626   1.164
    5p(5.00)    -7.241   1.164
    *s           9.585   1.164
    *p          19.970   1.164
    *d           0.000   1.164

  Using partial waves for I as LCAO basis

Reference energy: -2434708.556191

Spin-polarized calculation.
Magnetic moment: 12.175341

Convergence criteria:
  Maximum total energy change: 0.0005 eV / electron
  Maximum integral of absolute density change: 0.0001 electrons
  Maximum integral of absolute eigenstate change: 4e-08 eV^2
  Maximum change in atomic force: 0.0001 eV / Ang
  Maximum number of iterations: 333

Symmetries present (total): 1

  ( 1  0  0)
  ( 0  1  0)
  ( 0  0  1)

144 k-points: 12 x 12 x 1 Monkhorst-Pack grid
144 k-points in the irreducible part of the Brillouin zone
       k-points in crystal coordinates                weights
   0:    -0.45833333   -0.45833333    0.00000000          1/144
   1:    -0.45833333   -0.37500000    0.00000000          1/144
   2:    -0.45833333   -0.29166667    0.00000000          1/144
   3:    -0.45833333   -0.20833333    0.00000000          1/144
   4:    -0.45833333   -0.12500000    0.00000000          1/144
   5:    -0.45833333   -0.04166667    0.00000000          1/144
   6:    -0.45833333    0.04166667    0.00000000          1/144
   7:    -0.45833333    0.12500000    0.00000000          1/144
   8:    -0.45833333    0.20833333    0.00000000          1/144
   9:    -0.45833333    0.29166667    0.00000000          1/144
          ...
 143:     0.45833333    0.45833333    0.00000000          1/144

Wave functions: Plane wave expansion
  Cutoff energy: 600.000 eV
  Number of coefficients (min, max): 39797, 39902
  Pulay-stress correction: 0.000000 eV/Ang^3 (de/decut=0.000000)
  Using FFTW library
  ScaLapack parameters: grid=1x1, blocksize=None
  Wavefunction extrapolation:
    Improved wavefunction reuse through dual PAW basis 

Occupation numbers: Fermi-Dirac: width=0.0010 eV
 

Eigensolver
   Davidson(niter=2) 

Densities:
  Coarse grid: 42*42*160 grid
  Fine grid: 84*84*320 grid
  Total Charge: 0.000000 

Density mixing:
  Method: difference
  Backend: pulay
  Linear mixing parameter: 0.05
  Mixing with 5 old densities
  Damping of long wave oscillations: 50 

Hamiltonian:
  XC and Coulomb potentials evaluated on a 84*84*320 grid
  Using the LDA Exchange-Correlation functional
  External potential:
    <gpaw.external.NoExternalPotential object at 0x2b897057a0d0>
 

Memory estimate:
  Process memory now: 40232.82 MiB
  Calculator: 580.26 MiB
    Density: 158.40 MiB
      Arrays: 75.37 MiB
      Localized functions: 52.88 MiB
      Mixer: 30.15 MiB
    Hamiltonian: 57.28 MiB
      Arrays: 55.99 MiB
      XC: 0.00 MiB
      Poisson: 0.00 MiB
      vbar: 1.29 MiB
    Wavefunctions: 364.58 MiB
      Arrays psit_nG: 281.29 MiB
      Eigensolver: 50.83 MiB
      Projections: 1.61 MiB
      Projectors: 18.26 MiB
      PW-descriptor: 12.59 MiB

Total number of cores used: 40
Parallelization over k-points: 40

Number of atoms: 16
Number of atomic orbitals: 84
Number of bands in calculation: 77
Number of valence electrons: 108
Bands to converge: occupied

... initialized

Initializing position-dependent things.

Density initialized from atomic densities
Creating initial wave functions:
  77 bands from LCAO basis set

                                       
                                       
                                       
                                       
                      I                
                            I          
                   I                   
                       Cr  I           
             Cr                        
                 I                     
                         I             
                     I                 
                             I         
               Cr                      
                   I   Cr              
          I                            
                 I                     
                        I              
                                       
                                       
                                       
                                       

Positions:
   0 Cr     0.889135    0.000185   -3.063135    ( 0.0000,  0.0000,  3.4336)
   1 Cr    -2.666158    2.052642   -3.080223    ( 0.0000,  0.0000,  3.4336)
   2 I      1.822012   -2.046247   -4.559876    ( 0.0000,  0.0000, -0.1299)
   3 I     -1.348662    0.216415   -4.560605    ( 0.0000,  0.0000, -0.1299)
   4 I     -4.915070    1.830062   -4.560598    ( 0.0000,  0.0000, -0.1299)
   5 I     -0.074828   -2.063434   -1.594960    ( 0.0000,  0.0000, -0.1299)
   6 I     -0.416551    1.865690   -1.594231    ( 0.0000,  0.0000, -0.1299)
   7 I      3.157525    0.197989   -1.594234    ( 0.0000,  0.0000, -0.1299)
   8 Cr    -2.666887   -2.052642    3.080226    ( 0.0000,  0.0000,  3.4336)
   9 Cr     0.888546   -0.000185    3.063139    ( 0.0000,  0.0000,  3.4336)
  10 I      1.852510    2.063434    1.594959    ( 0.0000,  0.0000, -0.1299)
  11 I      2.194233   -1.865690    1.594230    ( 0.0000,  0.0000, -0.1299)
  12 I     -1.379843   -0.197989    1.594233    ( 0.0000,  0.0000, -0.1299)
  13 I     -0.044330    2.046247    4.559875    ( 0.0000,  0.0000, -0.1299)
  14 I      3.126343   -0.216415    4.570604    ( 0.0000,  0.0000, -0.1299)
  15 I     -0.417976   -1.830062    4.560597    ( 0.0000,  0.0000, -0.1299)

Unit cell:
           periodic     x           y           z      points  spacing
  1. axis:    yes    7.110727   -0.000000    0.000000    42     0.1466
  2. axis:    yes   -3.555363    6.158070    0.000000    42     0.1466
  3. axis:    no     0.000000   -0.000000   27.269192   160     0.1704

  Lengths:   7.110727   7.110727  27.269192
  Angles:   90.000000  90.000000 120.000000

Effective grid spacing dv^(1/3) = 0.1617

                     log10-error:           total        iterations:
           time      wfs    density  force  energy       poisson  magmom
iter:   1  18:55:47                        -76.888703             +12.1076
iter:   2  18:56:39  -0.99  -0.91          -70.506561             +9.9703
iter:   3  18:57:32  -1.83  -1.33          -70.497863             +11.0197
iter:   4  18:58:24  -1.58  -1.38          -70.968933             +12.0925
iter:   5  18:59:16  -2.53  -1.51          -70.628076             +12.0156
iter:   6  19:00:09  -1.91  -1.83          -70.402567             +12.0005
iter:   7  19:01:01  -2.97  -2.20          -70.395241             +12.0039
iter:   8  19:01:53  -3.31  -2.32          -70.390011             +12.0055
iter:   9  19:02:46  -3.68  -2.68          -70.391190             +12.0017
iter:  10  19:03:38  -3.86  -2.86          -70.391864             +11.9998
iter:  11  19:04:31  -3.99  -2.95          -70.392431             +12.0000
iter:  12  19:05:23  -3.98  -3.05          -70.392740             +12.0000
iter:  13  19:06:15  -4.06  -3.12          -70.392954             +12.0000
iter:  14  19:07:08  -4.08  -3.16          -70.393074             +12.0000
iter:  15  19:08:00  -4.16  -3.27          -70.393236             +12.0000
iter:  16  19:08:53  -4.30  -3.32          -70.393355             +12.0000
iter:  17  19:09:45  -4.55  -3.37          -70.393411             +12.0000
iter:  18  19:10:37  -4.67  -3.58          -70.393479             +12.0000
iter:  19  19:11:30  -4.84  -3.63          -70.393525             +12.0000
iter:  20  19:12:22  -4.87  -3.76          -70.393568             +12.0000
iter:  21  19:13:15  -5.04  -4.02          -70.393600             +12.0000
iter:  22  19:14:07  -5.22  -4.00          -70.393622             +12.0000
iter:  23  19:14:59  -5.32  -4.00          -70.393639             +12.0000
iter:  24  19:15:52  -5.33  -3.95          -70.393646             +12.0000
iter:  25  19:16:44  -5.45  -4.24          -70.393653             +12.0000
iter:  26  19:17:36  -5.57  -4.30          -70.393659             +12.0000
iter:  27  19:18:29  -5.66  -4.32          -70.393663             +12.0000
iter:  28  19:19:21  -5.84  -4.32          -70.393668             +12.0000
iter:  29  19:20:14  -5.98  -4.33          -70.393671             +12.0000
iter:  30  19:21:06  -6.10  -4.36          -70.393673             +12.0000
iter:  31  19:21:58  -6.25  -4.57          -70.393674             +12.0000
iter:  32  19:22:51  -6.30  -4.65          -70.393675             +12.0000
iter:  33  19:23:43  -6.45  -4.86          -70.393676             +12.0000
iter:  34  19:24:36  -6.64  -5.14          -70.393676             +12.0000
iter:  35  19:25:28  -6.73  -5.30          -70.393677             +12.0000
iter:  36  19:26:21  -6.81  -5.30          -70.393677             +12.0000
iter:  37  19:27:13  -6.94  -5.26          -70.393677             +12.0000
iter:  38  19:28:05  -7.11  -5.24          -70.393677             +12.0000
iter:  39  19:28:58  -7.17  -5.21          -70.393677             +12.0000
iter:  40  19:29:50  -7.32  -5.24          -70.393678             +12.0000
iter:  41  19:30:52  -7.41  -5.23          -70.393678             +12.0000
iter:  42  19:31:56  -7.60  -5.19    -3.77 -70.393678             +12.0000
iter:  43  19:32:59  -7.82  -5.24    -4.07 -70.393678             +12.0000

Converged after 43 iterations.

Dipole moment: (-31.569976, 0.000110, 0.000511) |e|*Ang

Total magnetic moment: (0.000000, 0.000000, 12.000000)
Local magnetic moments:
   0 Cr ( 0.000000,  0.000000,  2.911322)
   1 Cr ( 0.000000,  0.000000,  2.915485)
   2 I  ( 0.000000,  0.000000, -0.046978)
   3 I  ( 0.000000,  0.000000, -0.046941)
   4 I  ( 0.000000,  0.000000, -0.046955)
   5 I  ( 0.000000,  0.000000, -0.049658)
   6 I  ( 0.000000,  0.000000, -0.049653)
   7 I  ( 0.000000,  0.000000, -0.049706)
   8 Cr ( 0.000000,  0.000000,  2.916533)
   9 Cr ( 0.000000,  0.000000,  2.912364)
  10 I  ( 0.000000,  0.000000, -0.049864)
  11 I  ( 0.000000,  0.000000, -0.049418)
  12 I  ( 0.000000,  0.000000, -0.049836)
  13 I  ( 0.000000,  0.000000, -0.047222)
  14 I  ( 0.000000,  0.000000, -0.047424)
  15 I  ( 0.000000,  0.000000, -0.047200)

Energy contributions relative to reference atoms: (reference = -2434708.556191)

Kinetic:        +22.950355
Potential:      -36.978880
External:        +0.000000
XC:             -56.541422
Entropy (-ST):   -0.000000
Local:           +0.176269
--------------------------
Free energy:    -70.393678
Extrapolated:   -70.393678

Spin contamination: 1.121038 electrons
Showing only first 2 kpts
                      Up                     Down
 Kpt  Band  Eigenvalues  Occupancy  Eigenvalues  Occupancy
  0    52     -2.13957    1.00000     -0.01303    0.00000
  0    53     -2.10399    1.00000      0.00324    0.00000
  0    54     -2.02017    1.00000      0.17989    0.00000
  0    55     -2.01850    1.00000      0.21047    0.00000

  1    52     -2.11885    1.00000     -0.02043    0.00000
  1    53     -2.07519    1.00000      0.01849    0.00000
  1    54     -2.02061    1.00000      0.16955    0.00000
  1    55     -1.99016    1.00000      0.20845    0.00000


Fermi level: -1.19460

Gap: 0.970 eV
Transition (v -> c):
  (s=0, k=11, n=59, [-0.46, 0.46, 0.00]) -> (s=0, k=17, n=60, [-0.38, -0.04, 0.00])
Writing to born-0.01-14z+.gpw (mode='all')

Timing:                              incl.     excl.
-----------------------------------------------------------
Hamiltonian:                         2.734     0.011   0.0% |
 Atomic:                             1.237     1.237   0.0% |
  XC Correction:                     0.000     0.000   0.0% |
 Calculate atomic Hamiltonians:      0.329     0.329   0.0% |
 Communicate:                        0.000     0.000   0.0% |
 Initialize Hamiltonian:             0.004     0.004   0.0% |
 Poisson:                            0.013     0.013   0.0% |
 XC 3D grid:                         1.139     1.139   0.0% |
LCAO initialization:                20.371     0.141   0.0% |
 LCAO eigensolver:                   3.063     0.001   0.0% |
  Calculate projections:             0.004     0.004   0.0% |
  DenseAtomicCorrection:             0.005     0.005   0.0% |
  Distribute overlap matrix:         0.000     0.000   0.0% |
  Orbital Layouts:                   0.016     0.016   0.0% |
  Potential matrix:                  3.026     3.026   0.1% |
  Sum over cells:                    0.011     0.011   0.0% |
 LCAO to grid:                      16.889    16.889   0.3% |
 Set positions (LCAO WFS):           0.278     0.050   0.0% |
  Basic WFS set positions:           0.001     0.001   0.0% |
  Basis functions set positions:     0.000     0.000   0.0% |
  P tci:                             0.122     0.122   0.0% |
  ST tci:                            0.063     0.063   0.0% |
  mktci:                             0.042     0.042   0.0% |
PWDescriptor:                        0.087     0.087   0.0% |
SCF-cycle:                        2285.253   523.773   8.7% |--|
 Davidson:                        1417.484   222.174   3.7% ||
  Apply H:                         248.397   240.577   4.0% |-|
   HMM T:                            7.820     7.820   0.1% |
  Subspace diag:                   299.187     0.063   0.0% |
   calc_h_matrix:                  265.940    19.097   0.3% |
    Apply H:                       246.842   238.633   4.0% |-|
     HMM T:                          8.209     8.209   0.1% |
   diagonalize:                      0.539     0.539   0.0% |
   rotate_psi:                      32.645    32.645   0.5% |
  calc. matrices:                  583.046   106.506   1.8% ||
   Apply H:                        476.540   461.731   7.7% |--|
    HMM T:                          14.809    14.809   0.2% |
  diagonalize:                       5.086     5.086   0.1% |
  rotate_psi:                       59.595    59.595   1.0% |
 Density:                          227.503     0.002   0.0% |
  Atomic density matrices:           0.307     0.307   0.0% |
  Mix:                              39.393    39.393   0.7% |
  Multipole moments:                 0.020     0.020   0.0% |
  Pseudo density:                  187.782   187.779   3.1% ||
   Symmetrize density:               0.003     0.003   0.0% |
 Forces:                            29.736    29.736   0.5% |
 Hamiltonian:                       85.062     0.735   0.0% |
  Atomic:                            4.359     4.359   0.1% |
   XC Correction:                    0.000     0.000   0.0% |
  Calculate atomic Hamiltonians:    27.979    27.979   0.5% |
  Communicate:                       0.008     0.008   0.0% |
  Poisson:                           0.577     0.577   0.0% |
  XC 3D grid:                       51.404    51.404   0.9% |
 Orthonormalize:                     1.695     0.002   0.0% |
  calc_s_matrix:                     0.227     0.227   0.0% |
  inverse-cholesky:                  0.004     0.004   0.0% |
  projections:                       1.027     1.027   0.0% |
  rotate_psi_s:                      0.435     0.435   0.0% |
Set symmetry:                        0.000     0.000   0.0% |
Other:                            3703.250  3703.250  61.6% |------------------------|
-----------------------------------------------------------
Total:                                      6011.694 100.0%

Memory usage: 39.30 GiB
Date: Wed Jun 29 20:34:38 2022
