
  ___ ___ ___ _ _ _  
 |   |   |_  | | | | 
 | | | | | . | | | | 
 |__ |  _|___|_____|  21.6.1b1
 |___|_|             

User:   madkru@c153.nifl.fysik.dtu.dk
Date:   Sun Jun 26 00:45:54 2022
Arch:   x86_64
Pid:    48887
Python: 3.8.6
gpaw:   /home/niflheim/madkru/new_venv/gpaw/gpaw (1f0dfc9eae)
_gpaw:  /home/niflheim/madkru/new_venv/gpaw/build/lib.linux-x86_64-skylake-3.8/
        _gpaw.cpython-38-x86_64-linux-gnu.so (c1e45bfab3)
ase:    /home/niflheim/madkru/new_venv/ase/ase (version 3.23.0b1-ca38c75a67)
numpy:  /home/modules/software/SciPy-bundle/2020.11-foss-2020b/lib/python3.8/site-packages/numpy (version 1.19.4)
scipy:  /home/modules/software/SciPy-bundle/2020.11-foss-2020b/lib/python3.8/site-packages/scipy (version 1.5.4)
libxc:  4.3.4
units:  Angstrom and eV
cores: 40
OpenMP: False
OMP_NUM_THREADS: 1

Input parameters:
  convergence: {bands: occupied,
                density: 0.0001,
                eigenstates: 4e-08,
                energy: 0.0005,
                forces: 0.0001}
  kpts: [12 12  1]
  mode: {ecut: 600.0,
         gammacentered: False,
         name: pw}
  occupations: {fixmagmom: False,
                name: fermi-dirac,
                width: 0.001}
  symmetry: {point_group: False,
             time_reversal: False}

System changes: positions, numbers, cell, pbc, initial_charges, initial_magmoms 

Initialize ...

Cr-setup:
  name: Chromium
  id: 444e8044bc0f91048286c984738d87f5
  Z: 24.0
  valence: 6
  core: 18
  charge: 0.0
  file: /home/modules/software/GPAW-setups/0.9.20000/Cr.LDA.gz
  compensation charges: gauss, rc=0.35, lmax=2
  cutoffs: 2.14(filt), 3.04(core),
  valence states:
                energy  radius
    4s(1.00)    -4.191   1.164
    4p(0.00)    -1.079   1.217
    3d(5.00)    -3.128   1.111
    *s          23.021   1.164
    *p          26.132   1.217
    *d          24.083   1.111

  Using partial waves for Cr as LCAO basis

I-setup:
  name: Iodine
  id: b559721c0c096a7b4c8fc0e0f4de5cf4
  Z: 53.0
  valence: 7
  core: 46
  charge: 0.0
  file: /home/modules/software/GPAW-setups/0.9.20000/I.LDA.gz
  compensation charges: gauss, rc=0.37, lmax=2
  cutoffs: 2.06(filt), 2.90(core),
  valence states:
                energy  radius
    5s(2.00)   -17.626   1.164
    5p(5.00)    -7.241   1.164
    *s           9.585   1.164
    *p          19.970   1.164
    *d           0.000   1.164

  Using partial waves for I as LCAO basis

Reference energy: -2434708.556191

Spin-polarized calculation.
Magnetic moment: 12.175341

Convergence criteria:
  Maximum total energy change: 0.0005 eV / electron
  Maximum integral of absolute density change: 0.0001 electrons
  Maximum integral of absolute eigenstate change: 4e-08 eV^2
  Maximum change in atomic force: 0.0001 eV / Ang
  Maximum number of iterations: 333

Symmetries present (total): 1

  ( 1  0  0)
  ( 0  1  0)
  ( 0  0  1)

144 k-points: 12 x 12 x 1 Monkhorst-Pack grid
144 k-points in the irreducible part of the Brillouin zone
       k-points in crystal coordinates                weights
   0:    -0.45833333   -0.45833333    0.00000000          1/144
   1:    -0.45833333   -0.37500000    0.00000000          1/144
   2:    -0.45833333   -0.29166667    0.00000000          1/144
   3:    -0.45833333   -0.20833333    0.00000000          1/144
   4:    -0.45833333   -0.12500000    0.00000000          1/144
   5:    -0.45833333   -0.04166667    0.00000000          1/144
   6:    -0.45833333    0.04166667    0.00000000          1/144
   7:    -0.45833333    0.12500000    0.00000000          1/144
   8:    -0.45833333    0.20833333    0.00000000          1/144
   9:    -0.45833333    0.29166667    0.00000000          1/144
          ...
 143:     0.45833333    0.45833333    0.00000000          1/144

Wave functions: Plane wave expansion
  Cutoff energy: 600.000 eV
  Number of coefficients (min, max): 39797, 39902
  Pulay-stress correction: 0.000000 eV/Ang^3 (de/decut=0.000000)
  Using FFTW library
  ScaLapack parameters: grid=1x1, blocksize=None
  Wavefunction extrapolation:
    Improved wavefunction reuse through dual PAW basis 

Occupation numbers: Fermi-Dirac: width=0.0010 eV
 

Eigensolver
   Davidson(niter=2) 

Densities:
  Coarse grid: 42*42*160 grid
  Fine grid: 84*84*320 grid
  Total Charge: 0.000000 

Density mixing:
  Method: difference
  Backend: pulay
  Linear mixing parameter: 0.05
  Mixing with 5 old densities
  Damping of long wave oscillations: 50 

Hamiltonian:
  XC and Coulomb potentials evaluated on a 84*84*320 grid
  Using the LDA Exchange-Correlation functional
  External potential:
    <gpaw.external.NoExternalPotential object at 0x2b332661f9a0>
 

Memory estimate:
  Process memory now: 39865.43 MiB
  Calculator: 580.26 MiB
    Density: 158.40 MiB
      Arrays: 75.37 MiB
      Localized functions: 52.88 MiB
      Mixer: 30.15 MiB
    Hamiltonian: 57.28 MiB
      Arrays: 55.99 MiB
      XC: 0.00 MiB
      Poisson: 0.00 MiB
      vbar: 1.29 MiB
    Wavefunctions: 364.58 MiB
      Arrays psit_nG: 281.29 MiB
      Eigensolver: 50.83 MiB
      Projections: 1.61 MiB
      Projectors: 18.26 MiB
      PW-descriptor: 12.59 MiB

Total number of cores used: 40
Parallelization over k-points: 40

Number of atoms: 16
Number of atomic orbitals: 84
Number of bands in calculation: 77
Number of valence electrons: 108
Bands to converge: occupied

... initialized

Initializing position-dependent things.

Density initialized from atomic densities
Creating initial wave functions:
  77 bands from LCAO basis set

                                       
                                       
                                       
                                       
                      I                
                            I          
                   I                   
                       Cr  I           
             Cr                        
                 I                     
                         I             
                     I                 
                             I         
               Cr                      
                   I   Cr              
          I                            
                 I                     
                        I              
                                       
                                       
                                       
                                       

Positions:
   0 Cr     0.889135    0.000185   -3.063135    ( 0.0000,  0.0000,  3.4336)
   1 Cr    -2.656158    2.052642   -3.080223    ( 0.0000,  0.0000,  3.4336)
   2 I      1.822012   -2.046247   -4.559876    ( 0.0000,  0.0000, -0.1299)
   3 I     -1.348662    0.216415   -4.560605    ( 0.0000,  0.0000, -0.1299)
   4 I     -4.915070    1.830062   -4.560598    ( 0.0000,  0.0000, -0.1299)
   5 I     -0.074828   -2.063434   -1.594960    ( 0.0000,  0.0000, -0.1299)
   6 I     -0.416551    1.865690   -1.594231    ( 0.0000,  0.0000, -0.1299)
   7 I      3.157525    0.197989   -1.594234    ( 0.0000,  0.0000, -0.1299)
   8 Cr    -2.666887   -2.052642    3.080226    ( 0.0000,  0.0000,  3.4336)
   9 Cr     0.888546   -0.000185    3.063139    ( 0.0000,  0.0000,  3.4336)
  10 I      1.852510    2.063434    1.594959    ( 0.0000,  0.0000, -0.1299)
  11 I      2.194233   -1.865690    1.594230    ( 0.0000,  0.0000, -0.1299)
  12 I     -1.379843   -0.197989    1.594233    ( 0.0000,  0.0000, -0.1299)
  13 I     -0.044330    2.046247    4.559875    ( 0.0000,  0.0000, -0.1299)
  14 I      3.126343   -0.216415    4.560604    ( 0.0000,  0.0000, -0.1299)
  15 I     -0.417976   -1.830062    4.560597    ( 0.0000,  0.0000, -0.1299)

Unit cell:
           periodic     x           y           z      points  spacing
  1. axis:    yes    7.110727   -0.000000    0.000000    42     0.1466
  2. axis:    yes   -3.555363    6.158070    0.000000    42     0.1466
  3. axis:    no     0.000000   -0.000000   27.269192   160     0.1704

  Lengths:   7.110727   7.110727  27.269192
  Angles:   90.000000  90.000000 120.000000

Effective grid spacing dv^(1/3) = 0.1617

                     log10-error:           total        iterations:
           time      wfs    density  force  energy       poisson  magmom
iter:   1  00:47:14                        -76.899653             +12.1076
iter:   2  00:48:05  -0.99  -0.91          -70.504233             +9.9646
iter:   3  00:48:57  -1.83  -1.33          -70.497207             +11.0165
iter:   4  00:49:48  -1.58  -1.38          -70.967872             +12.0927
iter:   5  00:50:40  -2.53  -1.51          -70.628459             +12.0159
iter:   6  00:51:31  -1.91  -1.83          -70.402028             +12.0005
iter:   7  00:52:22  -2.97  -2.20          -70.395057             +12.0039
iter:   8  00:53:13  -3.31  -2.32          -70.389844             +12.0056
iter:   9  00:54:05  -3.68  -2.67          -70.391004             +12.0017
iter:  10  00:54:56  -3.86  -2.86          -70.391687             +11.9998
iter:  11  00:55:47  -3.99  -2.94          -70.392260             +12.0000
iter:  12  00:56:38  -3.99  -3.04          -70.392573             +12.0000
iter:  13  00:57:30  -4.06  -3.11          -70.392783             +12.0000
iter:  14  00:58:21  -4.10  -3.15          -70.392889             +12.0000
iter:  15  00:59:12  -4.19  -3.27          -70.393050             +12.0000
iter:  16  01:00:03  -4.33  -3.32          -70.393170             +12.0000
iter:  17  01:00:55  -4.60  -3.37          -70.393227             +12.0000
iter:  18  01:01:46  -4.75  -3.57          -70.393299             +12.0000
iter:  19  01:02:37  -4.89  -3.65          -70.393346             +12.0000
iter:  20  01:03:28  -5.00  -3.74          -70.393388             +12.0000
iter:  21  01:04:20  -5.19  -4.25          -70.393416             +12.0000
iter:  22  01:05:11  -5.18  -4.26          -70.393437             +12.0000
iter:  23  01:06:02  -5.18  -4.27          -70.393451             +12.0000
iter:  24  01:06:53  -5.40  -4.16          -70.393464             +12.0000
iter:  25  01:07:45  -5.54  -4.22          -70.393472             +12.0000
iter:  26  01:08:36  -5.65  -4.21          -70.393478             +12.0000
iter:  27  01:09:27  -5.80  -4.19          -70.393483             +12.0000
iter:  28  01:10:18  -5.94  -4.22          -70.393488             +12.0000
iter:  29  01:11:10  -6.25  -4.11          -70.393489             +12.0000
iter:  30  01:12:01  -6.37  -4.23          -70.393491             +12.0000
iter:  31  01:12:52  -6.54  -4.21          -70.393490             +12.0000
iter:  32  01:13:43  -6.71  -4.34          -70.393491             +12.0000
iter:  33  01:14:34  -6.86  -4.38          -70.393491             +12.0000
iter:  34  01:15:25  -6.98  -4.42          -70.393491             +12.0000
iter:  35  01:16:16  -7.15  -4.60          -70.393491             +12.0000
iter:  36  01:17:08  -7.19  -4.69          -70.393492             +12.0000
iter:  37  01:17:59  -7.39  -4.89          -70.393492             +12.0000
iter:  38  01:19:00  -7.42  -4.97          -70.393492             +12.0000
iter:  39  01:20:01  -7.55  -5.26    -3.43 -70.393492             +12.0000
iter:  40  01:21:03  -7.71  -5.42    -3.84 -70.393492             +12.0000
iter:  41  01:22:05  -7.84  -5.55    -3.86 -70.393492             +12.0000
iter:  42  01:23:07  -8.01  -5.60    -4.33 -70.393492             +12.0000

Converged after 42 iterations.

Dipole moment: (-31.545336, 0.000690, -0.000008) |e|*Ang

Total magnetic moment: (0.000000, 0.000000, 12.000000)
Local magnetic moments:
   0 Cr ( 0.000000,  0.000000,  2.911298)
   1 Cr ( 0.000000,  0.000000,  2.915386)
   2 I  ( 0.000000,  0.000000, -0.046851)
   3 I  ( 0.000000,  0.000000, -0.046574)
   4 I  ( 0.000000,  0.000000, -0.047425)
   5 I  ( 0.000000,  0.000000, -0.049802)
   6 I  ( 0.000000,  0.000000, -0.049163)
   7 I  ( 0.000000,  0.000000, -0.050008)
   8 Cr ( 0.000000,  0.000000,  2.915445)
   9 Cr ( 0.000000,  0.000000,  2.911291)
  10 I  ( 0.000000,  0.000000, -0.049706)
  11 I  ( 0.000000,  0.000000, -0.049656)
  12 I  ( 0.000000,  0.000000, -0.049623)
  13 I  ( 0.000000,  0.000000, -0.046979)
  14 I  ( 0.000000,  0.000000, -0.046938)
  15 I  ( 0.000000,  0.000000, -0.046946)

Energy contributions relative to reference atoms: (reference = -2434708.556191)

Kinetic:        +23.272798
Potential:      -37.244646
External:        +0.000000
XC:             -56.597323
Entropy (-ST):   -0.000000
Local:           +0.175679
--------------------------
Free energy:    -70.393492
Extrapolated:   -70.393492

Spin contamination: 1.119589 electrons
Showing only first 2 kpts
                      Up                     Down
 Kpt  Band  Eigenvalues  Occupancy  Eigenvalues  Occupancy
  0    52     -2.13876    1.00000     -0.01298    0.00000
  0    53     -2.10221    1.00000      0.00209    0.00000
  0    54     -2.02008    1.00000      0.18117    0.00000
  0    55     -2.01827    1.00000      0.21198    0.00000

  1    52     -2.11750    1.00000     -0.02027    0.00000
  1    53     -2.07289    1.00000      0.01780    0.00000
  1    54     -2.02076    1.00000      0.17105    0.00000
  1    55     -1.99011    1.00000      0.20945    0.00000


Fermi level: -1.19888

Gap: 0.968 eV
Transition (v -> c):
  (s=0, k=11, n=59, [-0.46, 0.46, 0.00]) -> (s=0, k=17, n=60, [-0.38, -0.04, 0.00])
Writing to born-0.01-1x+.gpw (mode='all')

Timing:                              incl.     excl.
-----------------------------------------------------------
Hamiltonian:                         2.676     0.011   0.0% |
 Atomic:                             1.180     1.180   0.0% |
  XC Correction:                     0.000     0.000   0.0% |
 Calculate atomic Hamiltonians:      0.323     0.323   0.0% |
 Communicate:                        0.000     0.000   0.0% |
 Initialize Hamiltonian:             0.004     0.004   0.0% |
 Poisson:                            0.011     0.011   0.0% |
 XC 3D grid:                         1.148     1.148   0.0% |
LCAO initialization:                21.355     0.142   0.0% |
 LCAO eigensolver:                   3.324     0.001   0.0% |
  Calculate projections:             0.004     0.004   0.0% |
  DenseAtomicCorrection:             0.006     0.006   0.0% |
  Distribute overlap matrix:         0.000     0.000   0.0% |
  Orbital Layouts:                   0.016     0.016   0.0% |
  Potential matrix:                  3.287     3.287   0.1% |
  Sum over cells:                    0.012     0.012   0.0% |
 LCAO to grid:                      17.608    17.608   0.3% |
 Set positions (LCAO WFS):           0.281     0.050   0.0% |
  Basic WFS set positions:           0.001     0.001   0.0% |
  Basis functions set positions:     0.000     0.000   0.0% |
  P tci:                             0.122     0.122   0.0% |
  ST tci:                            0.065     0.065   0.0% |
  mktci:                             0.043     0.043   0.0% |
PWDescriptor:                        0.086     0.086   0.0% |
SCF-cycle:                        2205.247   475.054   8.4% |--|
 Davidson:                        1377.145   218.598   3.9% |-|
  Apply H:                         239.787   232.414   4.1% |-|
   HMM T:                            7.374     7.374   0.1% |
  Subspace diag:                   290.893     0.060   0.0% |
   calc_h_matrix:                  258.449    18.370   0.3% |
    Apply H:                       240.079   232.313   4.1% |-|
     HMM T:                          7.766     7.766   0.1% |
   diagonalize:                      0.517     0.517   0.0% |
   rotate_psi:                      31.867    31.867   0.6% |
  calc. matrices:                  565.407   104.276   1.9% ||
   Apply H:                        461.131   447.242   7.9% |--|
    HMM T:                          13.889    13.889   0.2% |
  diagonalize:                       4.983     4.983   0.1% |
  rotate_psi:                       57.477    57.477   1.0% |
 Density:                          218.263     0.002   0.0% |
  Atomic density matrices:           0.304     0.304   0.0% |
  Mix:                              36.839    36.839   0.7% |
  Multipole moments:                 0.019     0.019   0.0% |
  Pseudo density:                  181.099   181.097   3.2% ||
   Symmetrize density:               0.002     0.002   0.0% |
 Forces:                            49.141    49.141   0.9% |
 Hamiltonian:                       83.989     0.523   0.0% |
  Atomic:                            6.375     6.375   0.1% |
   XC Correction:                    0.000     0.000   0.0% |
  Calculate atomic Hamiltonians:    26.794    26.794   0.5% |
  Communicate:                       0.007     0.007   0.0% |
  Poisson:                           0.472     0.472   0.0% |
  XC 3D grid:                       49.817    49.817   0.9% |
 Orthonormalize:                     1.654     0.002   0.0% |
  calc_s_matrix:                     0.222     0.222   0.0% |
  inverse-cholesky:                  0.004     0.004   0.0% |
  projections:                       1.010     1.010   0.0% |
  rotate_psi_s:                      0.417     0.417   0.0% |
Set symmetry:                        0.000     0.000   0.0% |
Other:                            3399.368  3399.368  60.4% |-----------------------|
-----------------------------------------------------------
Total:                                      5628.732 100.0%

Memory usage: 38.95 GiB
Date: Sun Jun 26 02:19:42 2022
