
  ___ ___ ___ _ _ _  
 |   |   |_  | | | | 
 | | | | | . | | | | 
 |__ |  _|___|_____|  21.6.1b1
 |___|_|             

User:   madkru@c007.nifl.fysik.dtu.dk
Date:   Wed Jun 29 11:33:09 2022
Arch:   x86_64
Pid:    215850
Python: 3.8.6
gpaw:   /home/niflheim/madkru/new_venv/gpaw/gpaw (1f0dfc9eae)
_gpaw:  /home/niflheim/madkru/new_venv/gpaw/build/lib.linux-x86_64-skylake-3.8/
        _gpaw.cpython-38-x86_64-linux-gnu.so (c1e45bfab3)
ase:    /home/niflheim/madkru/new_venv/ase/ase (version 3.23.0b1-ca38c75a67)
numpy:  /home/modules/software/SciPy-bundle/2020.11-foss-2020b/lib/python3.8/site-packages/numpy (version 1.19.4)
scipy:  /home/modules/software/SciPy-bundle/2020.11-foss-2020b/lib/python3.8/site-packages/scipy (version 1.5.4)
libxc:  4.3.4
units:  Angstrom and eV
cores: 40
OpenMP: False
OMP_NUM_THREADS: 1

Input parameters:
  convergence: {bands: occupied,
                density: 0.0001,
                eigenstates: 4e-08,
                energy: 0.0005,
                forces: 0.0001}
  kpts: [12 12  1]
  mode: {ecut: 600.0,
         gammacentered: False,
         name: pw}
  occupations: {fixmagmom: False,
                name: fermi-dirac,
                width: 0.001}
  symmetry: {point_group: False,
             time_reversal: False}

System changes: positions, numbers, cell, pbc, initial_charges, initial_magmoms 

Initialize ...

Cr-setup:
  name: Chromium
  id: 444e8044bc0f91048286c984738d87f5
  Z: 24.0
  valence: 6
  core: 18
  charge: 0.0
  file: /home/modules/software/GPAW-setups/0.9.20000/Cr.LDA.gz
  compensation charges: gauss, rc=0.35, lmax=2
  cutoffs: 2.14(filt), 3.04(core),
  valence states:
                energy  radius
    4s(1.00)    -4.191   1.164
    4p(0.00)    -1.079   1.217
    3d(5.00)    -3.128   1.111
    *s          23.021   1.164
    *p          26.132   1.217
    *d          24.083   1.111

  Using partial waves for Cr as LCAO basis

I-setup:
  name: Iodine
  id: b559721c0c096a7b4c8fc0e0f4de5cf4
  Z: 53.0
  valence: 7
  core: 46
  charge: 0.0
  file: /home/modules/software/GPAW-setups/0.9.20000/I.LDA.gz
  compensation charges: gauss, rc=0.37, lmax=2
  cutoffs: 2.06(filt), 2.90(core),
  valence states:
                energy  radius
    5s(2.00)   -17.626   1.164
    5p(5.00)    -7.241   1.164
    *s           9.585   1.164
    *p          19.970   1.164
    *d           0.000   1.164

  Using partial waves for I as LCAO basis

Reference energy: -2434708.556191

Spin-polarized calculation.
Magnetic moment: 12.175341

Convergence criteria:
  Maximum total energy change: 0.0005 eV / electron
  Maximum integral of absolute density change: 0.0001 electrons
  Maximum integral of absolute eigenstate change: 4e-08 eV^2
  Maximum change in atomic force: 0.0001 eV / Ang
  Maximum number of iterations: 333

Symmetries present (total): 1

  ( 1  0  0)
  ( 0  1  0)
  ( 0  0  1)

144 k-points: 12 x 12 x 1 Monkhorst-Pack grid
144 k-points in the irreducible part of the Brillouin zone
       k-points in crystal coordinates                weights
   0:    -0.45833333   -0.45833333    0.00000000          1/144
   1:    -0.45833333   -0.37500000    0.00000000          1/144
   2:    -0.45833333   -0.29166667    0.00000000          1/144
   3:    -0.45833333   -0.20833333    0.00000000          1/144
   4:    -0.45833333   -0.12500000    0.00000000          1/144
   5:    -0.45833333   -0.04166667    0.00000000          1/144
   6:    -0.45833333    0.04166667    0.00000000          1/144
   7:    -0.45833333    0.12500000    0.00000000          1/144
   8:    -0.45833333    0.20833333    0.00000000          1/144
   9:    -0.45833333    0.29166667    0.00000000          1/144
          ...
 143:     0.45833333    0.45833333    0.00000000          1/144

Wave functions: Plane wave expansion
  Cutoff energy: 600.000 eV
  Number of coefficients (min, max): 39797, 39902
  Pulay-stress correction: 0.000000 eV/Ang^3 (de/decut=0.000000)
  Using FFTW library
  ScaLapack parameters: grid=1x1, blocksize=None
  Wavefunction extrapolation:
    Improved wavefunction reuse through dual PAW basis 

Occupation numbers: Fermi-Dirac: width=0.0010 eV
 

Eigensolver
   Davidson(niter=2) 

Densities:
  Coarse grid: 42*42*160 grid
  Fine grid: 84*84*320 grid
  Total Charge: 0.000000 

Density mixing:
  Method: difference
  Backend: pulay
  Linear mixing parameter: 0.05
  Mixing with 5 old densities
  Damping of long wave oscillations: 50 

Hamiltonian:
  XC and Coulomb potentials evaluated on a 84*84*320 grid
  Using the LDA Exchange-Correlation functional
  External potential:
    <gpaw.external.NoExternalPotential object at 0x2b896518bdf0>
 

Memory estimate:
  Process memory now: 40164.96 MiB
  Calculator: 580.26 MiB
    Density: 158.40 MiB
      Arrays: 75.37 MiB
      Localized functions: 52.88 MiB
      Mixer: 30.15 MiB
    Hamiltonian: 57.28 MiB
      Arrays: 55.99 MiB
      XC: 0.00 MiB
      Poisson: 0.00 MiB
      vbar: 1.29 MiB
    Wavefunctions: 364.58 MiB
      Arrays psit_nG: 281.29 MiB
      Eigensolver: 50.83 MiB
      Projections: 1.61 MiB
      Projectors: 18.26 MiB
      PW-descriptor: 12.59 MiB

Total number of cores used: 40
Parallelization over k-points: 40

Number of atoms: 16
Number of atomic orbitals: 84
Number of bands in calculation: 77
Number of valence electrons: 108
Bands to converge: occupied

... initialized

Initializing position-dependent things.

Density initialized from atomic densities
Creating initial wave functions:
  77 bands from LCAO basis set

                                       
                                       
                                       
                                       
                      I                
                            I          
                   I                   
                       Cr  I           
             Cr                        
                 I                     
                         I             
                     I                 
                             I         
               Cr                      
                   I   Cr              
          I                            
                 I                     
                        I              
                                       
                                       
                                       
                                       

Positions:
   0 Cr     0.889135    0.000185   -3.063135    ( 0.0000,  0.0000,  3.4336)
   1 Cr    -2.666158    2.052642   -3.080223    ( 0.0000,  0.0000,  3.4336)
   2 I      1.822012   -2.046247   -4.559876    ( 0.0000,  0.0000, -0.1299)
   3 I     -1.348662    0.216415   -4.560605    ( 0.0000,  0.0000, -0.1299)
   4 I     -4.915070    1.830062   -4.560598    ( 0.0000,  0.0000, -0.1299)
   5 I     -0.074828   -2.063434   -1.594960    ( 0.0000,  0.0000, -0.1299)
   6 I     -0.416551    1.865690   -1.594231    ( 0.0000,  0.0000, -0.1299)
   7 I      3.157525    0.197989   -1.594234    ( 0.0000,  0.0000, -0.1299)
   8 Cr    -2.666887   -2.052642    3.080226    ( 0.0000,  0.0000,  3.4336)
   9 Cr     0.888546   -0.000185    3.063139    ( 0.0000,  0.0000,  3.4336)
  10 I      1.852510    2.063434    1.594959    ( 0.0000,  0.0000, -0.1299)
  11 I      2.194233   -1.865690    1.594230    ( 0.0000,  0.0000, -0.1299)
  12 I     -1.379843   -0.197989    1.594233    ( 0.0000,  0.0000, -0.1299)
  13 I     -0.044330    2.056247    4.559875    ( 0.0000,  0.0000, -0.1299)
  14 I      3.126343   -0.216415    4.560604    ( 0.0000,  0.0000, -0.1299)
  15 I     -0.417976   -1.830062    4.560597    ( 0.0000,  0.0000, -0.1299)

Unit cell:
           periodic     x           y           z      points  spacing
  1. axis:    yes    7.110727   -0.000000    0.000000    42     0.1466
  2. axis:    yes   -3.555363    6.158070    0.000000    42     0.1466
  3. axis:    no     0.000000   -0.000000   27.269192   160     0.1704

  Lengths:   7.110727   7.110727  27.269192
  Angles:   90.000000  90.000000 120.000000

Effective grid spacing dv^(1/3) = 0.1617

                     log10-error:           total        iterations:
           time      wfs    density  force  energy       poisson  magmom
iter:   1  11:34:30                        -76.899855             +12.1076
iter:   2  11:35:22  -0.99  -0.91          -70.503758             +9.9626
iter:   3  11:36:14  -1.83  -1.33          -70.497198             +11.0154
iter:   4  11:37:06  -1.58  -1.38          -70.967818             +12.0927
iter:   5  11:37:58  -2.53  -1.51          -70.628634             +12.0159
iter:   6  11:38:51  -1.91  -1.83          -70.402228             +12.0005
iter:   7  11:39:43  -2.97  -2.20          -70.395261             +12.0039
iter:   8  11:40:35  -3.31  -2.31          -70.390001             +12.0056
iter:   9  11:41:27  -3.68  -2.67          -70.391164             +12.0017
iter:  10  11:42:20  -3.86  -2.86          -70.391846             +11.9998
iter:  11  11:43:12  -3.99  -2.94          -70.392419             +12.0000
iter:  12  11:44:04  -3.99  -3.04          -70.392733             +12.0000
iter:  13  11:44:57  -4.06  -3.10          -70.392945             +12.0000
iter:  14  11:45:49  -4.09  -3.14          -70.393047             +12.0000
iter:  15  11:46:41  -4.19  -3.27          -70.393210             +12.0000
iter:  16  11:47:34  -4.33  -3.32          -70.393328             +12.0000
iter:  17  11:48:26  -4.59  -3.38          -70.393387             +12.0000
iter:  18  11:49:18  -4.75  -3.56          -70.393458             +12.0000
iter:  19  11:50:10  -4.88  -3.66          -70.393505             +12.0000
iter:  20  11:51:03  -4.99  -3.74          -70.393548             +12.0000
iter:  21  11:51:55  -5.17  -4.17          -70.393575             +12.0000
iter:  22  11:52:47  -5.16  -4.21          -70.393595             +12.0000
iter:  23  11:53:39  -5.33  -4.19          -70.393613             +12.0000
iter:  24  11:54:32  -5.55  -4.13          -70.393623             +12.0000
iter:  25  11:55:24  -5.71  -4.15          -70.393632             +12.0000
iter:  26  11:56:16  -5.77  -4.13          -70.393638             +12.0000
iter:  27  11:57:08  -5.87  -4.13          -70.393642             +12.0000
iter:  28  11:58:01  -5.97  -4.15          -70.393645             +12.0000
iter:  29  11:58:53  -6.23  -4.12          -70.393647             +12.0000
iter:  30  11:59:45  -6.41  -4.13          -70.393650             +12.0000
iter:  31  12:00:38  -6.48  -4.03          -70.393652             +12.0000
iter:  32  12:01:30  -6.62  -4.05          -70.393652             +12.0000
iter:  33  12:02:22  -6.59  -4.13          -70.393652             +12.0000
iter:  34  12:03:15  -6.49  -4.06          -70.393657             +12.0000
iter:  35  12:04:07  -6.98  -4.02          -70.393659             +12.0000
iter:  36  12:04:59  -7.25  -4.02          -70.393658             +12.0000
iter:  37  12:05:51  -6.96  -4.02          -70.393664             +12.0000
iter:  38  12:06:44  -6.79  -3.99          -70.393656             +12.0000
iter:  39  12:07:36  -6.26  -3.98          -70.393688             +12.0000
iter:  40  12:08:28  -6.18  -3.78          -70.393652             +12.0000
iter:  41  12:09:20  -6.68  -4.37          -70.393651             +12.0000
iter:  42  12:10:13  -7.17  -4.42          -70.393651             +12.0000
iter:  43  12:11:15  -7.61  -4.69          -70.393651             +12.0000
iter:  44  12:12:18  -7.87  -4.69    -3.20 -70.393651             +12.0000
iter:  45  12:13:21  -7.93  -4.73    -2.73 -70.393651             +12.0000
iter:  46  12:14:24  -8.38  -4.95    -3.33 -70.393651             +12.0000
iter:  47  12:15:27  -8.89  -5.33    -4.05 -70.393651             +12.0000

Converged after 47 iterations.

Dipole moment: (-31.511624, 0.003706, -0.000836) |e|*Ang

Total magnetic moment: (0.000000, 0.000000, 12.000000)
Local magnetic moments:
   0 Cr ( 0.000000,  0.000000,  2.911283)
   1 Cr ( 0.000000,  0.000000,  2.915450)
   2 I  ( 0.000000,  0.000000, -0.046979)
   3 I  ( 0.000000,  0.000000, -0.046934)
   4 I  ( 0.000000,  0.000000, -0.046952)
   5 I  ( 0.000000,  0.000000, -0.049680)
   6 I  ( 0.000000,  0.000000, -0.049599)
   7 I  ( 0.000000,  0.000000, -0.049667)
   8 Cr ( 0.000000,  0.000000,  2.913509)
   9 Cr ( 0.000000,  0.000000,  2.913202)
  10 I  ( 0.000000,  0.000000, -0.049685)
  11 I  ( 0.000000,  0.000000, -0.049905)
  12 I  ( 0.000000,  0.000000, -0.049403)
  13 I  ( 0.000000,  0.000000, -0.046987)
  14 I  ( 0.000000,  0.000000, -0.047006)
  15 I  ( 0.000000,  0.000000, -0.046872)

Energy contributions relative to reference atoms: (reference = -2434708.556191)

Kinetic:        +23.280274
Potential:      -37.251409
External:        +0.000000
XC:             -56.597768
Entropy (-ST):   -0.000000
Local:           +0.175253
--------------------------
Free energy:    -70.393651
Extrapolated:   -70.393651

Spin contamination: 1.119739 electrons
Showing only first 2 kpts
                      Up                     Down
 Kpt  Band  Eigenvalues  Occupancy  Eigenvalues  Occupancy
  0    52     -2.13880    1.00000     -0.01244    0.00000
  0    53     -2.10278    1.00000      0.00348    0.00000
  0    54     -2.01900    1.00000      0.18062    0.00000
  0    55     -2.01814    1.00000      0.21109    0.00000

  1    52     -2.11790    1.00000     -0.01963    0.00000
  1    53     -2.07374    1.00000      0.01927    0.00000
  1    54     -2.02009    1.00000      0.17012    0.00000
  1    55     -1.98942    1.00000      0.20888    0.00000


Fermi level: -1.19494

Gap: 0.970 eV
Transition (v -> c):
  (s=0, k=138, n=59, [0.46, 0.04, 0.00]) -> (s=0, k=133, n=60, [0.46, -0.38, 0.00])
Writing to born-0.01-13y+.gpw (mode='all')

Timing:                              incl.     excl.
-----------------------------------------------------------
Hamiltonian:                         2.528     0.011   0.0% |
 Atomic:                             0.876     0.876   0.0% |
  XC Correction:                     0.000     0.000   0.0% |
 Calculate atomic Hamiltonians:      0.492     0.492   0.0% |
 Communicate:                        0.000     0.000   0.0% |
 Initialize Hamiltonian:             0.004     0.004   0.0% |
 Poisson:                            0.012     0.012   0.0% |
 XC 3D grid:                         1.133     1.133   0.0% |
LCAO initialization:                20.454     0.141   0.0% |
 LCAO eigensolver:                   3.060     0.001   0.0% |
  Calculate projections:             0.004     0.004   0.0% |
  DenseAtomicCorrection:             0.005     0.005   0.0% |
  Distribute overlap matrix:         0.001     0.001   0.0% |
  Orbital Layouts:                   0.016     0.016   0.0% |
  Potential matrix:                  3.023     3.023   0.0% |
  Sum over cells:                    0.011     0.011   0.0% |
 LCAO to grid:                      16.953    16.953   0.3% |
 Set positions (LCAO WFS):           0.300     0.050   0.0% |
  Basic WFS set positions:           0.001     0.001   0.0% |
  Basis functions set positions:     0.000     0.000   0.0% |
  P tci:                             0.142     0.142   0.0% |
  ST tci:                            0.064     0.064   0.0% |
  mktci:                             0.043     0.043   0.0% |
PWDescriptor:                        0.087     0.087   0.0% |
SCF-cycle:                        2511.083   550.081   9.0% |---|
 Davidson:                        1566.303   244.116   4.0% |-|
  Apply H:                         275.823   267.032   4.4% |-|
   HMM T:                            8.791     8.791   0.1% |
  Subspace diag:                   331.698     0.066   0.0% |
   calc_h_matrix:                  295.773    20.430   0.3% |
    Apply H:                       275.342   266.225   4.4% |-|
     HMM T:                          9.117     9.117   0.1% |
   diagonalize:                      0.565     0.565   0.0% |
   rotate_psi:                      35.294    35.294   0.6% |
  calc. matrices:                  646.512   115.186   1.9% ||
   Apply H:                        531.325   514.571   8.4% |--|
    HMM T:                          16.755    16.755   0.3% |
  diagonalize:                       5.428     5.428   0.1% |
  rotate_psi:                       62.727    62.727   1.0% |
 Density:                          249.595     0.002   0.0% |
  Atomic density matrices:           0.340     0.340   0.0% |
  Mix:                              42.453    42.453   0.7% |
  Multipole moments:                 0.022     0.022   0.0% |
  Pseudo density:                  206.777   206.774   3.4% ||
   Symmetrize density:               0.003     0.003   0.0% |
 Forces:                            49.698    49.698   0.8% |
 Hamiltonian:                       93.733     0.789   0.0% |
  Atomic:                            5.783     5.783   0.1% |
   XC Correction:                    0.000     0.000   0.0% |
  Calculate atomic Hamiltonians:    30.911    30.911   0.5% |
  Communicate:                       0.024     0.024   0.0% |
  Poisson:                           0.607     0.607   0.0% |
  XC 3D grid:                       55.618    55.618   0.9% |
 Orthonormalize:                     1.674     0.002   0.0% |
  calc_s_matrix:                     0.224     0.224   0.0% |
  inverse-cholesky:                  0.004     0.004   0.0% |
  projections:                       1.005     1.005   0.0% |
  rotate_psi_s:                      0.439     0.439   0.0% |
Set symmetry:                        0.000     0.000   0.0% |
Other:                            3574.478  3574.478  58.5% |----------------------|
-----------------------------------------------------------
Total:                                      6108.630 100.0%

Memory usage: 39.22 GiB
Date: Wed Jun 29 13:14:57 2022
