
  ___ ___ ___ _ _ _  
 |   |   |_  | | | | 
 | | | | | . | | | | 
 |__ |  _|___|_____|  21.6.1b1
 |___|_|             

User:   madkru@c153.nifl.fysik.dtu.dk
Date:   Sun Jun 26 11:25:10 2022
Arch:   x86_64
Pid:    48887
Python: 3.8.6
gpaw:   /home/niflheim/madkru/new_venv/gpaw/gpaw (1f0dfc9eae)
_gpaw:  /home/niflheim/madkru/new_venv/gpaw/build/lib.linux-x86_64-skylake-3.8/
        _gpaw.cpython-38-x86_64-linux-gnu.so (c1e45bfab3)
ase:    /home/niflheim/madkru/new_venv/ase/ase (version 3.23.0b1-ca38c75a67)
numpy:  /home/modules/software/SciPy-bundle/2020.11-foss-2020b/lib/python3.8/site-packages/numpy (version 1.19.4)
scipy:  /home/modules/software/SciPy-bundle/2020.11-foss-2020b/lib/python3.8/site-packages/scipy (version 1.5.4)
libxc:  4.3.4
units:  Angstrom and eV
cores: 40
OpenMP: False
OMP_NUM_THREADS: 1

Input parameters:
  convergence: {bands: occupied,
                density: 0.0001,
                eigenstates: 4e-08,
                energy: 0.0005,
                forces: 0.0001}
  kpts: [12 12  1]
  mode: {ecut: 600.0,
         gammacentered: False,
         name: pw}
  occupations: {fixmagmom: False,
                name: fermi-dirac,
                width: 0.001}
  symmetry: {point_group: False,
             time_reversal: False}

System changes: positions, numbers, cell, pbc, initial_charges, initial_magmoms 

Initialize ...

Cr-setup:
  name: Chromium
  id: 444e8044bc0f91048286c984738d87f5
  Z: 24.0
  valence: 6
  core: 18
  charge: 0.0
  file: /home/modules/software/GPAW-setups/0.9.20000/Cr.LDA.gz
  compensation charges: gauss, rc=0.35, lmax=2
  cutoffs: 2.14(filt), 3.04(core),
  valence states:
                energy  radius
    4s(1.00)    -4.191   1.164
    4p(0.00)    -1.079   1.217
    3d(5.00)    -3.128   1.111
    *s          23.021   1.164
    *p          26.132   1.217
    *d          24.083   1.111

  Using partial waves for Cr as LCAO basis

I-setup:
  name: Iodine
  id: b559721c0c096a7b4c8fc0e0f4de5cf4
  Z: 53.0
  valence: 7
  core: 46
  charge: 0.0
  file: /home/modules/software/GPAW-setups/0.9.20000/I.LDA.gz
  compensation charges: gauss, rc=0.37, lmax=2
  cutoffs: 2.06(filt), 2.90(core),
  valence states:
                energy  radius
    5s(2.00)   -17.626   1.164
    5p(5.00)    -7.241   1.164
    *s           9.585   1.164
    *p          19.970   1.164
    *d           0.000   1.164

  Using partial waves for I as LCAO basis

Reference energy: -2434708.556191

Spin-polarized calculation.
Magnetic moment: 12.175341

Convergence criteria:
  Maximum total energy change: 0.0005 eV / electron
  Maximum integral of absolute density change: 0.0001 electrons
  Maximum integral of absolute eigenstate change: 4e-08 eV^2
  Maximum change in atomic force: 0.0001 eV / Ang
  Maximum number of iterations: 333

Symmetries present (total): 1

  ( 1  0  0)
  ( 0  1  0)
  ( 0  0  1)

144 k-points: 12 x 12 x 1 Monkhorst-Pack grid
144 k-points in the irreducible part of the Brillouin zone
       k-points in crystal coordinates                weights
   0:    -0.45833333   -0.45833333    0.00000000          1/144
   1:    -0.45833333   -0.37500000    0.00000000          1/144
   2:    -0.45833333   -0.29166667    0.00000000          1/144
   3:    -0.45833333   -0.20833333    0.00000000          1/144
   4:    -0.45833333   -0.12500000    0.00000000          1/144
   5:    -0.45833333   -0.04166667    0.00000000          1/144
   6:    -0.45833333    0.04166667    0.00000000          1/144
   7:    -0.45833333    0.12500000    0.00000000          1/144
   8:    -0.45833333    0.20833333    0.00000000          1/144
   9:    -0.45833333    0.29166667    0.00000000          1/144
          ...
 143:     0.45833333    0.45833333    0.00000000          1/144

Wave functions: Plane wave expansion
  Cutoff energy: 600.000 eV
  Number of coefficients (min, max): 39797, 39902
  Pulay-stress correction: 0.000000 eV/Ang^3 (de/decut=0.000000)
  Using FFTW library
  ScaLapack parameters: grid=1x1, blocksize=None
  Wavefunction extrapolation:
    Improved wavefunction reuse through dual PAW basis 

Occupation numbers: Fermi-Dirac: width=0.0010 eV
 

Eigensolver
   Davidson(niter=2) 

Densities:
  Coarse grid: 42*42*160 grid
  Fine grid: 84*84*320 grid
  Total Charge: 0.000000 

Density mixing:
  Method: difference
  Backend: pulay
  Linear mixing parameter: 0.05
  Mixing with 5 old densities
  Damping of long wave oscillations: 50 

Hamiltonian:
  XC and Coulomb potentials evaluated on a 84*84*320 grid
  Using the LDA Exchange-Correlation functional
  External potential:
    <gpaw.external.NoExternalPotential object at 0x2b332cee3070>
 

Memory estimate:
  Process memory now: 40029.57 MiB
  Calculator: 580.26 MiB
    Density: 158.40 MiB
      Arrays: 75.37 MiB
      Localized functions: 52.88 MiB
      Mixer: 30.15 MiB
    Hamiltonian: 57.28 MiB
      Arrays: 55.99 MiB
      XC: 0.00 MiB
      Poisson: 0.00 MiB
      vbar: 1.29 MiB
    Wavefunctions: 364.58 MiB
      Arrays psit_nG: 281.29 MiB
      Eigensolver: 50.83 MiB
      Projections: 1.61 MiB
      Projectors: 18.26 MiB
      PW-descriptor: 12.59 MiB

Total number of cores used: 40
Parallelization over k-points: 40

Number of atoms: 16
Number of atomic orbitals: 84
Number of bands in calculation: 77
Number of valence electrons: 108
Bands to converge: occupied

... initialized

Initializing position-dependent things.

Density initialized from atomic densities
Creating initial wave functions:
  77 bands from LCAO basis set

                                       
                                       
                                       
                                       
                      I                
                            I          
                   I                   
                       Cr  I           
             Cr                        
                 I                     
                         I             
                     I                 
                             I         
               Cr                      
                   I   Cr              
          I                            
                 I                     
                        I              
                                       
                                       
                                       
                                       

Positions:
   0 Cr     0.889135    0.000185   -3.063135    ( 0.0000,  0.0000,  3.4336)
   1 Cr    -2.666158    2.052642   -3.080223    ( 0.0000,  0.0000,  3.4336)
   2 I      1.822012   -2.046247   -4.559876    ( 0.0000,  0.0000, -0.1299)
   3 I     -1.338662    0.216415   -4.560605    ( 0.0000,  0.0000, -0.1299)
   4 I     -4.915070    1.830062   -4.560598    ( 0.0000,  0.0000, -0.1299)
   5 I     -0.074828   -2.063434   -1.594960    ( 0.0000,  0.0000, -0.1299)
   6 I     -0.416551    1.865690   -1.594231    ( 0.0000,  0.0000, -0.1299)
   7 I      3.157525    0.197989   -1.594234    ( 0.0000,  0.0000, -0.1299)
   8 Cr    -2.666887   -2.052642    3.080226    ( 0.0000,  0.0000,  3.4336)
   9 Cr     0.888546   -0.000185    3.063139    ( 0.0000,  0.0000,  3.4336)
  10 I      1.852510    2.063434    1.594959    ( 0.0000,  0.0000, -0.1299)
  11 I      2.194233   -1.865690    1.594230    ( 0.0000,  0.0000, -0.1299)
  12 I     -1.379843   -0.197989    1.594233    ( 0.0000,  0.0000, -0.1299)
  13 I     -0.044330    2.046247    4.559875    ( 0.0000,  0.0000, -0.1299)
  14 I      3.126343   -0.216415    4.560604    ( 0.0000,  0.0000, -0.1299)
  15 I     -0.417976   -1.830062    4.560597    ( 0.0000,  0.0000, -0.1299)

Unit cell:
           periodic     x           y           z      points  spacing
  1. axis:    yes    7.110727   -0.000000    0.000000    42     0.1466
  2. axis:    yes   -3.555363    6.158070    0.000000    42     0.1466
  3. axis:    no     0.000000   -0.000000   27.269192   160     0.1704

  Lengths:   7.110727   7.110727  27.269192
  Angles:   90.000000  90.000000 120.000000

Effective grid spacing dv^(1/3) = 0.1617

                     log10-error:           total        iterations:
           time      wfs    density  force  energy       poisson  magmom
iter:   1  11:26:31                        -76.902988             +12.1076
iter:   2  11:27:23  -0.99  -0.91          -70.503128             +9.9598
iter:   3  11:28:15  -1.83  -1.33          -70.497020             +11.0138
iter:   4  11:29:07  -1.58  -1.38          -70.968126             +12.0928
iter:   5  11:29:59  -2.53  -1.51          -70.628836             +12.0160
iter:   6  11:30:51  -1.91  -1.83          -70.402201             +12.0005
iter:   7  11:31:43  -2.97  -2.20          -70.395255             +12.0039
iter:   8  11:32:35  -3.31  -2.32          -70.390032             +12.0056
iter:   9  11:33:27  -3.68  -2.67          -70.391190             +12.0017
iter:  10  11:34:19  -3.86  -2.86          -70.391875             +11.9998
iter:  11  11:35:11  -3.99  -2.94          -70.392448             +12.0000
iter:  12  11:36:03  -3.99  -3.03          -70.392762             +12.0000
iter:  13  11:36:55  -4.05  -3.10          -70.392972             +12.0000
iter:  14  11:37:47  -4.10  -3.15          -70.393076             +12.0000
iter:  15  11:38:38  -4.19  -3.27          -70.393237             +12.0000
iter:  16  11:39:31  -4.34  -3.32          -70.393358             +12.0000
iter:  17  11:40:22  -4.60  -3.37          -70.393416             +12.0000
iter:  18  11:41:14  -4.75  -3.56          -70.393486             +12.0000
iter:  19  11:42:06  -4.89  -3.65          -70.393534             +12.0000
iter:  20  11:42:58  -5.01  -3.74          -70.393575             +12.0000
iter:  21  11:43:50  -5.18  -4.24          -70.393602             +12.0000
iter:  22  11:44:42  -5.18  -4.26          -70.393622             +12.0000
iter:  23  11:45:34  -5.31  -4.25          -70.393641             +12.0000
iter:  24  11:46:26  -5.49  -4.09          -70.393650             +12.0000
iter:  25  11:47:18  -5.63  -4.21          -70.393657             +12.0000
iter:  26  11:48:10  -5.79  -4.28          -70.393664             +12.0000
iter:  27  11:49:02  -5.80  -4.30          -70.393668             +12.0000
iter:  28  11:49:54  -6.04  -4.30          -70.393671             +12.0000
iter:  29  11:50:46  -6.20  -4.33          -70.393673             +12.0000
iter:  30  11:51:38  -6.33  -4.39          -70.393674             +12.0000
iter:  31  11:52:29  -6.37  -4.44          -70.393676             +12.0000
iter:  32  11:53:21  -6.67  -4.67          -70.393676             +12.0000
iter:  33  11:54:13  -6.77  -4.98          -70.393677             +12.0000
iter:  34  11:55:05  -6.88  -5.09          -70.393677             +12.0000
iter:  35  11:55:57  -7.00  -5.11          -70.393678             +12.0000
iter:  36  11:56:49  -6.97  -5.13          -70.393678             +12.0000
iter:  37  11:57:41  -7.14  -5.23          -70.393678             +12.0000
iter:  38  11:58:33  -7.29  -5.34          -70.393678             +12.0000
iter:  39  11:59:34  -7.45  -5.44          -70.393678             +12.0000
iter:  40  12:00:37  -7.65  -5.53    -4.16 -70.393678             +12.0000

Converged after 40 iterations.

Dipole moment: (-31.474092, -0.000427, -0.000777) |e|*Ang

Total magnetic moment: (0.000000, 0.000000, 12.000000)
Local magnetic moments:
   0 Cr ( 0.000000,  0.000000,  2.909264)
   1 Cr ( 0.000000,  0.000000,  2.916755)
   2 I  ( 0.000000,  0.000000, -0.047029)
   3 I  ( 0.000000,  0.000000, -0.046781)
   4 I  ( 0.000000,  0.000000, -0.046880)
   5 I  ( 0.000000,  0.000000, -0.049788)
   6 I  ( 0.000000,  0.000000, -0.049690)
   7 I  ( 0.000000,  0.000000, -0.049334)
   8 Cr ( 0.000000,  0.000000,  2.915440)
   9 Cr ( 0.000000,  0.000000,  2.911306)
  10 I  ( 0.000000,  0.000000, -0.049672)
  11 I  ( 0.000000,  0.000000, -0.049642)
  12 I  ( 0.000000,  0.000000, -0.049697)
  13 I  ( 0.000000,  0.000000, -0.046974)
  14 I  ( 0.000000,  0.000000, -0.046930)
  15 I  ( 0.000000,  0.000000, -0.046953)

Energy contributions relative to reference atoms: (reference = -2434708.556191)

Kinetic:        +23.361537
Potential:      -37.319821
External:        +0.000000
XC:             -56.612800
Entropy (-ST):   -0.000000
Local:           +0.177406
--------------------------
Free energy:    -70.393678
Extrapolated:   -70.393678

Spin contamination: 1.119075 electrons
Showing only first 2 kpts
                      Up                     Down
 Kpt  Band  Eigenvalues  Occupancy  Eigenvalues  Occupancy
  0    52     -2.13795    1.00000     -0.01232    0.00000
  0    53     -2.10165    1.00000      0.00380    0.00000
  0    54     -2.01886    1.00000      0.18125    0.00000
  0    55     -2.01810    1.00000      0.21201    0.00000

  1    52     -2.11758    1.00000     -0.01923    0.00000
  1    53     -2.07305    1.00000      0.01949    0.00000
  1    54     -2.01991    1.00000      0.17091    0.00000
  1    55     -1.98904    1.00000      0.20964    0.00000


Fermi level: -1.20626

Gap: 0.971 eV
Transition (v -> c):
  (s=0, k=5, n=59, [-0.46, -0.04, 0.00]) -> (s=0, k=121, n=60, [0.38, -0.38, 0.00])
Writing to born-0.01-3x+.gpw (mode='all')

Timing:                              incl.     excl.
-----------------------------------------------------------
Hamiltonian:                         2.588     0.011   0.0% |
 Atomic:                             1.060     1.060   0.0% |
  XC Correction:                     0.000     0.000   0.0% |
 Calculate atomic Hamiltonians:      0.353     0.353   0.0% |
 Communicate:                        0.000     0.000   0.0% |
 Initialize Hamiltonian:             0.004     0.004   0.0% |
 Poisson:                            0.011     0.011   0.0% |
 XC 3D grid:                         1.149     1.149   0.0% |
LCAO initialization:                21.388     0.142   0.0% |
 LCAO eigensolver:                   3.323     0.001   0.0% |
  Calculate projections:             0.004     0.004   0.0% |
  DenseAtomicCorrection:             0.006     0.006   0.0% |
  Distribute overlap matrix:         0.000     0.000   0.0% |
  Orbital Layouts:                   0.016     0.016   0.0% |
  Potential matrix:                  3.285     3.285   0.1% |
  Sum over cells:                    0.012     0.012   0.0% |
 LCAO to grid:                      17.641    17.641   0.3% |
 Set positions (LCAO WFS):           0.281     0.050   0.0% |
  Basic WFS set positions:           0.001     0.001   0.0% |
  Basis functions set positions:     0.000     0.000   0.0% |
  P tci:                             0.123     0.123   0.0% |
  ST tci:                            0.064     0.064   0.0% |
  mktci:                             0.043     0.043   0.0% |
PWDescriptor:                        0.088     0.088   0.0% |
SCF-cycle:                        2098.437   471.802   8.1% |--|
 Davidson:                        1316.892   209.348   3.6% ||
  Apply H:                         229.742   223.119   3.8% |-|
   HMM T:                            6.623     6.623   0.1% |
  Subspace diag:                   277.575     0.059   0.0% |
   calc_h_matrix:                  246.029    17.720   0.3% |
    Apply H:                       228.309   221.613   3.8% |-|
     HMM T:                          6.696     6.696   0.1% |
   diagonalize:                      0.497     0.497   0.0% |
   rotate_psi:                      30.991    30.991   0.5% |
  calc. matrices:                  539.507   101.079   1.7% ||
   Apply H:                        438.428   426.221   7.3% |--|
    HMM T:                          12.207    12.207   0.2% |
  diagonalize:                       4.744     4.744   0.1% |
  rotate_psi:                       55.975    55.975   1.0% |
 Density:                          208.328     0.002   0.0% |
  Atomic density matrices:           0.290     0.290   0.0% |
  Mix:                              35.286    35.286   0.6% |
  Multipole moments:                 0.019     0.019   0.0% |
  Pseudo density:                  172.732   172.729   3.0% ||
   Symmetrize density:               0.003     0.003   0.0% |
 Forces:                            19.694    19.694   0.3% |
 Hamiltonian:                       80.012     0.487   0.0% |
  Atomic:                            6.372     6.372   0.1% |
   XC Correction:                    0.000     0.000   0.0% |
  Calculate atomic Hamiltonians:    25.631    25.631   0.4% |
  Communicate:                       0.006     0.006   0.0% |
  Poisson:                           0.448     0.448   0.0% |
  XC 3D grid:                       47.067    47.067   0.8% |
 Orthonormalize:                     1.710     0.002   0.0% |
  calc_s_matrix:                     0.229     0.229   0.0% |
  inverse-cholesky:                  0.004     0.004   0.0% |
  projections:                       1.035     1.035   0.0% |
  rotate_psi_s:                      0.439     0.439   0.0% |
Set symmetry:                        0.000     0.000   0.0% |
Other:                            3698.537  3698.537  63.5% |------------------------|
-----------------------------------------------------------
Total:                                      5821.038 100.0%

Memory usage: 39.09 GiB
Date: Sun Jun 26 13:02:11 2022
