
  ___ ___ ___ _ _ _  
 |   |   |_  | | | | 
 | | | | | . | | | | 
 |__ |  _|___|_____|  21.6.1b1
 |___|_|             

User:   madkru@c007.nifl.fysik.dtu.dk
Date:   Wed Jun 29 05:22:32 2022
Arch:   x86_64
Pid:    215850
Python: 3.8.6
gpaw:   /home/niflheim/madkru/new_venv/gpaw/gpaw (1f0dfc9eae)
_gpaw:  /home/niflheim/madkru/new_venv/gpaw/build/lib.linux-x86_64-skylake-3.8/
        _gpaw.cpython-38-x86_64-linux-gnu.so (c1e45bfab3)
ase:    /home/niflheim/madkru/new_venv/ase/ase (version 3.23.0b1-ca38c75a67)
numpy:  /home/modules/software/SciPy-bundle/2020.11-foss-2020b/lib/python3.8/site-packages/numpy (version 1.19.4)
scipy:  /home/modules/software/SciPy-bundle/2020.11-foss-2020b/lib/python3.8/site-packages/scipy (version 1.5.4)
libxc:  4.3.4
units:  Angstrom and eV
cores: 40
OpenMP: False
OMP_NUM_THREADS: 1

Input parameters:
  convergence: {bands: occupied,
                density: 0.0001,
                eigenstates: 4e-08,
                energy: 0.0005,
                forces: 0.0001}
  kpts: [12 12  1]
  mode: {ecut: 600.0,
         gammacentered: False,
         name: pw}
  occupations: {fixmagmom: False,
                name: fermi-dirac,
                width: 0.001}
  symmetry: {point_group: False,
             time_reversal: False}

System changes: positions, numbers, cell, pbc, initial_charges, initial_magmoms 

Initialize ...

Cr-setup:
  name: Chromium
  id: 444e8044bc0f91048286c984738d87f5
  Z: 24.0
  valence: 6
  core: 18
  charge: 0.0
  file: /home/modules/software/GPAW-setups/0.9.20000/Cr.LDA.gz
  compensation charges: gauss, rc=0.35, lmax=2
  cutoffs: 2.14(filt), 3.04(core),
  valence states:
                energy  radius
    4s(1.00)    -4.191   1.164
    4p(0.00)    -1.079   1.217
    3d(5.00)    -3.128   1.111
    *s          23.021   1.164
    *p          26.132   1.217
    *d          24.083   1.111

  Using partial waves for Cr as LCAO basis

I-setup:
  name: Iodine
  id: b559721c0c096a7b4c8fc0e0f4de5cf4
  Z: 53.0
  valence: 7
  core: 46
  charge: 0.0
  file: /home/modules/software/GPAW-setups/0.9.20000/I.LDA.gz
  compensation charges: gauss, rc=0.37, lmax=2
  cutoffs: 2.06(filt), 2.90(core),
  valence states:
                energy  radius
    5s(2.00)   -17.626   1.164
    5p(5.00)    -7.241   1.164
    *s           9.585   1.164
    *p          19.970   1.164
    *d           0.000   1.164

  Using partial waves for I as LCAO basis

Reference energy: -2434708.556191

Spin-polarized calculation.
Magnetic moment: 12.175341

Convergence criteria:
  Maximum total energy change: 0.0005 eV / electron
  Maximum integral of absolute density change: 0.0001 electrons
  Maximum integral of absolute eigenstate change: 4e-08 eV^2
  Maximum change in atomic force: 0.0001 eV / Ang
  Maximum number of iterations: 333

Symmetries present (total): 1

  ( 1  0  0)
  ( 0  1  0)
  ( 0  0  1)

144 k-points: 12 x 12 x 1 Monkhorst-Pack grid
144 k-points in the irreducible part of the Brillouin zone
       k-points in crystal coordinates                weights
   0:    -0.45833333   -0.45833333    0.00000000          1/144
   1:    -0.45833333   -0.37500000    0.00000000          1/144
   2:    -0.45833333   -0.29166667    0.00000000          1/144
   3:    -0.45833333   -0.20833333    0.00000000          1/144
   4:    -0.45833333   -0.12500000    0.00000000          1/144
   5:    -0.45833333   -0.04166667    0.00000000          1/144
   6:    -0.45833333    0.04166667    0.00000000          1/144
   7:    -0.45833333    0.12500000    0.00000000          1/144
   8:    -0.45833333    0.20833333    0.00000000          1/144
   9:    -0.45833333    0.29166667    0.00000000          1/144
          ...
 143:     0.45833333    0.45833333    0.00000000          1/144

Wave functions: Plane wave expansion
  Cutoff energy: 600.000 eV
  Number of coefficients (min, max): 39797, 39902
  Pulay-stress correction: 0.000000 eV/Ang^3 (de/decut=0.000000)
  Using FFTW library
  ScaLapack parameters: grid=1x1, blocksize=None
  Wavefunction extrapolation:
    Improved wavefunction reuse through dual PAW basis 

Occupation numbers: Fermi-Dirac: width=0.0010 eV
 

Eigensolver
   Davidson(niter=2) 

Densities:
  Coarse grid: 42*42*160 grid
  Fine grid: 84*84*320 grid
  Total Charge: 0.000000 

Density mixing:
  Method: difference
  Backend: pulay
  Linear mixing parameter: 0.05
  Mixing with 5 old densities
  Damping of long wave oscillations: 50 

Hamiltonian:
  XC and Coulomb potentials evaluated on a 84*84*320 grid
  Using the LDA Exchange-Correlation functional
  External potential:
    <gpaw.external.NoExternalPotential object at 0x2b896fe16d60>
 

Memory estimate:
  Process memory now: 40164.96 MiB
  Calculator: 580.26 MiB
    Density: 158.40 MiB
      Arrays: 75.37 MiB
      Localized functions: 52.88 MiB
      Mixer: 30.15 MiB
    Hamiltonian: 57.28 MiB
      Arrays: 55.99 MiB
      XC: 0.00 MiB
      Poisson: 0.00 MiB
      vbar: 1.29 MiB
    Wavefunctions: 364.58 MiB
      Arrays psit_nG: 281.29 MiB
      Eigensolver: 50.83 MiB
      Projections: 1.61 MiB
      Projectors: 18.26 MiB
      PW-descriptor: 12.59 MiB

Total number of cores used: 40
Parallelization over k-points: 40

Number of atoms: 16
Number of atomic orbitals: 84
Number of bands in calculation: 77
Number of valence electrons: 108
Bands to converge: occupied

... initialized

Initializing position-dependent things.

Density initialized from atomic densities
Creating initial wave functions:
  77 bands from LCAO basis set

                                       
                                       
                                       
                                       
                      I                
                            I          
                   I                   
                       Cr  I           
             Cr                        
                 I                     
                         I             
                     I                 
                             I         
               Cr                      
                   I   Cr              
          I                            
                 I                     
                        I              
                                       
                                       
                                       
                                       

Positions:
   0 Cr     0.889135    0.000185   -3.063135    ( 0.0000,  0.0000,  3.4336)
   1 Cr    -2.666158    2.052642   -3.080223    ( 0.0000,  0.0000,  3.4336)
   2 I      1.822012   -2.046247   -4.559876    ( 0.0000,  0.0000, -0.1299)
   3 I     -1.348662    0.216415   -4.560605    ( 0.0000,  0.0000, -0.1299)
   4 I     -4.915070    1.830062   -4.560598    ( 0.0000,  0.0000, -0.1299)
   5 I     -0.074828   -2.063434   -1.594960    ( 0.0000,  0.0000, -0.1299)
   6 I     -0.416551    1.865690   -1.594231    ( 0.0000,  0.0000, -0.1299)
   7 I      3.157525    0.197989   -1.594234    ( 0.0000,  0.0000, -0.1299)
   8 Cr    -2.666887   -2.052642    3.080226    ( 0.0000,  0.0000,  3.4336)
   9 Cr     0.888546   -0.000185    3.063139    ( 0.0000,  0.0000,  3.4336)
  10 I      1.852510    2.063434    1.594959    ( 0.0000,  0.0000, -0.1299)
  11 I      2.194233   -1.865690    1.594230    ( 0.0000,  0.0000, -0.1299)
  12 I     -1.379843   -0.207989    1.594233    ( 0.0000,  0.0000, -0.1299)
  13 I     -0.044330    2.046247    4.559875    ( 0.0000,  0.0000, -0.1299)
  14 I      3.126343   -0.216415    4.560604    ( 0.0000,  0.0000, -0.1299)
  15 I     -0.417976   -1.830062    4.560597    ( 0.0000,  0.0000, -0.1299)

Unit cell:
           periodic     x           y           z      points  spacing
  1. axis:    yes    7.110727   -0.000000    0.000000    42     0.1466
  2. axis:    yes   -3.555363    6.158070    0.000000    42     0.1466
  3. axis:    no     0.000000   -0.000000   27.269192   160     0.1704

  Lengths:   7.110727   7.110727  27.269192
  Angles:   90.000000  90.000000 120.000000

Effective grid spacing dv^(1/3) = 0.1617

                     log10-error:           total        iterations:
           time      wfs    density  force  energy       poisson  magmom
iter:   1  05:23:52                        -76.904705             +12.1076
iter:   2  05:24:44  -0.99  -0.91          -70.503234             +9.9584
iter:   3  05:25:36  -1.83  -1.33          -70.497052             +11.0132
iter:   4  05:26:28  -1.58  -1.38          -70.969555             +12.0928
iter:   5  05:27:19  -2.53  -1.51          -70.628862             +12.0160
iter:   6  05:28:11  -1.91  -1.83          -70.402380             +12.0006
iter:   7  05:29:03  -2.97  -2.20          -70.395402             +12.0039
iter:   8  05:29:55  -3.31  -2.31          -70.390077             +12.0056
iter:   9  05:30:47  -3.68  -2.67          -70.391236             +12.0017
iter:  10  05:31:38  -3.86  -2.86          -70.391917             +11.9998
iter:  11  05:32:30  -3.99  -2.94          -70.392489             +12.0000
iter:  12  05:33:22  -3.98  -3.04          -70.392799             +12.0000
iter:  13  05:34:13  -4.05  -3.11          -70.393012             +12.0000
iter:  14  05:35:05  -4.09  -3.15          -70.393123             +12.0000
iter:  15  05:35:57  -4.18  -3.26          -70.393287             +12.0000
iter:  16  05:36:49  -4.32  -3.32          -70.393405             +12.0000
iter:  17  05:37:41  -4.56  -3.37          -70.393460             +12.0000
iter:  18  05:38:32  -4.73  -3.56          -70.393530             +12.0000
iter:  19  05:39:24  -4.87  -3.65          -70.393576             +12.0000
iter:  20  05:40:16  -4.99  -3.75          -70.393619             +12.0000
iter:  21  05:41:08  -5.19  -4.20          -70.393649             +12.0000
iter:  22  05:41:59  -5.28  -4.18          -70.393671             +12.0000
iter:  23  05:42:51  -5.37  -4.20          -70.393685             +12.0000
iter:  24  05:43:43  -5.58  -4.27          -70.393696             +12.0000
iter:  25  05:44:35  -5.60  -4.29          -70.393704             +12.0000
iter:  26  05:45:26  -5.62  -4.27          -70.393709             +12.0000
iter:  27  05:46:18  -5.70  -4.22          -70.393713             +12.0000
iter:  28  05:47:10  -5.88  -4.28          -70.393716             +12.0000
iter:  29  05:48:02  -5.99  -4.35          -70.393719             +12.0000
iter:  30  05:48:53  -6.13  -4.40          -70.393720             +12.0000
iter:  31  05:49:45  -6.35  -4.42          -70.393721             +12.0000
iter:  32  05:50:37  -6.52  -4.53          -70.393722             +12.0000
iter:  33  05:51:29  -6.68  -4.67          -70.393723             +12.0000
iter:  34  05:52:20  -6.86  -4.71          -70.393724             +12.0000
iter:  35  05:53:12  -6.91  -4.86          -70.393724             +12.0000
iter:  36  05:54:04  -7.06  -5.01          -70.393724             +12.0000
iter:  37  05:54:56  -7.17  -5.06          -70.393724             +12.0000
iter:  38  05:55:47  -7.23  -5.18          -70.393724             +12.0000
iter:  39  05:56:49  -7.47  -5.21          -70.393725             +12.0000
iter:  40  05:57:51  -7.61  -5.27    -4.10 -70.393725             +12.0000

Converged after 40 iterations.

Dipole moment: (-31.789734, 0.332034, -0.004958) |e|*Ang

Total magnetic moment: (0.000000, 0.000000, 12.000000)
Local magnetic moments:
   0 Cr ( 0.000000,  0.000000,  2.911385)
   1 Cr ( 0.000000,  0.000000,  2.915564)
   2 I  ( 0.000000,  0.000000, -0.046977)
   3 I  ( 0.000000,  0.000000, -0.046915)
   4 I  ( 0.000000,  0.000000, -0.046951)
   5 I  ( 0.000000,  0.000000, -0.049663)
   6 I  ( 0.000000,  0.000000, -0.049628)
   7 I  ( 0.000000,  0.000000, -0.049637)
   8 Cr ( 0.000000,  0.000000,  2.913665)
   9 Cr ( 0.000000,  0.000000,  2.911608)
  10 I  ( 0.000000,  0.000000, -0.049632)
  11 I  ( 0.000000,  0.000000, -0.049669)
  12 I  ( 0.000000,  0.000000, -0.049410)
  13 I  ( 0.000000,  0.000000, -0.046686)
  14 I  ( 0.000000,  0.000000, -0.046861)
  15 I  ( 0.000000,  0.000000, -0.047038)

Energy contributions relative to reference atoms: (reference = -2434708.556191)

Kinetic:        +23.429382
Potential:      -37.372527
External:        +0.000000
XC:             -56.624457
Entropy (-ST):   -0.000000
Local:           +0.173878
--------------------------
Free energy:    -70.393725
Extrapolated:   -70.393725

Spin contamination: 1.118705 electrons
Showing only first 2 kpts
                      Up                     Down
 Kpt  Band  Eigenvalues  Occupancy  Eigenvalues  Occupancy
  0    52     -2.13774    1.00000     -0.01228    0.00000
  0    53     -2.10275    1.00000      0.00275    0.00000
  0    54     -2.01923    1.00000      0.18026    0.00000
  0    55     -2.01843    1.00000      0.21103    0.00000

  1    52     -2.11701    1.00000     -0.01891    0.00000
  1    53     -2.07420    1.00000      0.01852    0.00000
  1    54     -2.01997    1.00000      0.16996    0.00000
  1    55     -1.98932    1.00000      0.20893    0.00000


Fermi level: -1.17025

Gap: 0.970 eV
Transition (v -> c):
  (s=0, k=132, n=59, [0.46, -0.46, 0.00]) -> (s=0, k=17, n=60, [-0.38, -0.04, 0.00])
Writing to born-0.01-12y-.gpw (mode='all')

Timing:                              incl.     excl.
-----------------------------------------------------------
Hamiltonian:                         2.799     0.011   0.0% |
 Atomic:                             1.306     1.306   0.0% |
  XC Correction:                     0.000     0.000   0.0% |
 Calculate atomic Hamiltonians:      0.325     0.325   0.0% |
 Communicate:                        0.000     0.000   0.0% |
 Initialize Hamiltonian:             0.004     0.004   0.0% |
 Poisson:                            0.014     0.014   0.0% |
 XC 3D grid:                         1.139     1.139   0.0% |
LCAO initialization:                20.380     0.141   0.0% |
 LCAO eigensolver:                   3.063     0.001   0.0% |
  Calculate projections:             0.004     0.004   0.0% |
  DenseAtomicCorrection:             0.005     0.005   0.0% |
  Distribute overlap matrix:         0.000     0.000   0.0% |
  Orbital Layouts:                   0.016     0.016   0.0% |
  Potential matrix:                  3.026     3.026   0.1% |
  Sum over cells:                    0.011     0.011   0.0% |
 LCAO to grid:                      16.870    16.870   0.3% |
 Set positions (LCAO WFS):           0.306     0.050   0.0% |
  Basic WFS set positions:           0.001     0.001   0.0% |
  Basis functions set positions:     0.000     0.000   0.0% |
  P tci:                             0.147     0.147   0.0% |
  ST tci:                            0.065     0.065   0.0% |
  mktci:                             0.042     0.042   0.0% |
PWDescriptor:                        0.088     0.088   0.0% |
SCF-cycle:                        2091.809   463.860   8.1% |--|
 Davidson:                        1319.189   209.608   3.7% ||
  Apply H:                         230.667   223.394   3.9% |-|
   HMM T:                            7.273     7.273   0.1% |
  Subspace diag:                   277.678     0.058   0.0% |
   calc_h_matrix:                  247.539    17.390   0.3% |
    Apply H:                       230.149   222.372   3.9% |-|
     HMM T:                          7.777     7.777   0.1% |
   diagonalize:                      0.489     0.489   0.0% |
   rotate_psi:                      29.592    29.592   0.5% |
  calc. matrices:                  543.527    98.437   1.7% ||
   Apply H:                        445.090   431.336   7.5% |--|
    HMM T:                          13.754    13.754   0.2% |
  diagonalize:                       4.616     4.616   0.1% |
  rotate_psi:                       53.092    53.092   0.9% |
 Density:                          208.516     0.002   0.0% |
  Atomic density matrices:           0.278     0.278   0.0% |
  Mix:                              36.519    36.519   0.6% |
  Multipole moments:                 0.019     0.019   0.0% |
  Pseudo density:                  171.697   171.694   3.0% ||
   Symmetrize density:               0.003     0.003   0.0% |
 Forces:                            19.638    19.638   0.3% |
 Hamiltonian:                       78.978     0.686   0.0% |
  Atomic:                            4.072     4.072   0.1% |
   XC Correction:                    0.000     0.000   0.0% |
  Calculate atomic Hamiltonians:    25.884    25.884   0.5% |
  Communicate:                       0.009     0.009   0.0% |
  Poisson:                           0.588     0.588   0.0% |
  XC 3D grid:                       47.739    47.739   0.8% |
 Orthonormalize:                     1.628     0.002   0.0% |
  calc_s_matrix:                     0.218     0.218   0.0% |
  inverse-cholesky:                  0.004     0.004   0.0% |
  projections:                       1.011     1.011   0.0% |
  rotate_psi_s:                      0.393     0.393   0.0% |
Set symmetry:                        0.000     0.000   0.0% |
Other:                            3621.626  3621.626  63.1% |------------------------|
-----------------------------------------------------------
Total:                                      5736.702 100.0%

Memory usage: 39.22 GiB
Date: Wed Jun 29 06:58:09 2022
