
  ___ ___ ___ _ _ _  
 |   |   |_  | | | | 
 | | | | | . | | | | 
 |__ |  _|___|_____|  21.6.1b1
 |___|_|             

User:   madkru@c153.nifl.fysik.dtu.dk
Date:   Sun Jun 26 08:00:57 2022
Arch:   x86_64
Pid:    48887
Python: 3.8.6
gpaw:   /home/niflheim/madkru/new_venv/gpaw/gpaw (1f0dfc9eae)
_gpaw:  /home/niflheim/madkru/new_venv/gpaw/build/lib.linux-x86_64-skylake-3.8/
        _gpaw.cpython-38-x86_64-linux-gnu.so (c1e45bfab3)
ase:    /home/niflheim/madkru/new_venv/ase/ase (version 3.23.0b1-ca38c75a67)
numpy:  /home/modules/software/SciPy-bundle/2020.11-foss-2020b/lib/python3.8/site-packages/numpy (version 1.19.4)
scipy:  /home/modules/software/SciPy-bundle/2020.11-foss-2020b/lib/python3.8/site-packages/scipy (version 1.5.4)
libxc:  4.3.4
units:  Angstrom and eV
cores: 40
OpenMP: False
OMP_NUM_THREADS: 1

Input parameters:
  convergence: {bands: occupied,
                density: 0.0001,
                eigenstates: 4e-08,
                energy: 0.0005,
                forces: 0.0001}
  kpts: [12 12  1]
  mode: {ecut: 600.0,
         gammacentered: False,
         name: pw}
  occupations: {fixmagmom: False,
                name: fermi-dirac,
                width: 0.001}
  symmetry: {point_group: False,
             time_reversal: False}

System changes: positions, numbers, cell, pbc, initial_charges, initial_magmoms 

Initialize ...

Cr-setup:
  name: Chromium
  id: 444e8044bc0f91048286c984738d87f5
  Z: 24.0
  valence: 6
  core: 18
  charge: 0.0
  file: /home/modules/software/GPAW-setups/0.9.20000/Cr.LDA.gz
  compensation charges: gauss, rc=0.35, lmax=2
  cutoffs: 2.14(filt), 3.04(core),
  valence states:
                energy  radius
    4s(1.00)    -4.191   1.164
    4p(0.00)    -1.079   1.217
    3d(5.00)    -3.128   1.111
    *s          23.021   1.164
    *p          26.132   1.217
    *d          24.083   1.111

  Using partial waves for Cr as LCAO basis

I-setup:
  name: Iodine
  id: b559721c0c096a7b4c8fc0e0f4de5cf4
  Z: 53.0
  valence: 7
  core: 46
  charge: 0.0
  file: /home/modules/software/GPAW-setups/0.9.20000/I.LDA.gz
  compensation charges: gauss, rc=0.37, lmax=2
  cutoffs: 2.06(filt), 2.90(core),
  valence states:
                energy  radius
    5s(2.00)   -17.626   1.164
    5p(5.00)    -7.241   1.164
    *s           9.585   1.164
    *p          19.970   1.164
    *d           0.000   1.164

  Using partial waves for I as LCAO basis

Reference energy: -2434708.556191

Spin-polarized calculation.
Magnetic moment: 12.175341

Convergence criteria:
  Maximum total energy change: 0.0005 eV / electron
  Maximum integral of absolute density change: 0.0001 electrons
  Maximum integral of absolute eigenstate change: 4e-08 eV^2
  Maximum change in atomic force: 0.0001 eV / Ang
  Maximum number of iterations: 333

Symmetries present (total): 1

  ( 1  0  0)
  ( 0  1  0)
  ( 0  0  1)

144 k-points: 12 x 12 x 1 Monkhorst-Pack grid
144 k-points in the irreducible part of the Brillouin zone
       k-points in crystal coordinates                weights
   0:    -0.45833333   -0.45833333    0.00000000          1/144
   1:    -0.45833333   -0.37500000    0.00000000          1/144
   2:    -0.45833333   -0.29166667    0.00000000          1/144
   3:    -0.45833333   -0.20833333    0.00000000          1/144
   4:    -0.45833333   -0.12500000    0.00000000          1/144
   5:    -0.45833333   -0.04166667    0.00000000          1/144
   6:    -0.45833333    0.04166667    0.00000000          1/144
   7:    -0.45833333    0.12500000    0.00000000          1/144
   8:    -0.45833333    0.20833333    0.00000000          1/144
   9:    -0.45833333    0.29166667    0.00000000          1/144
          ...
 143:     0.45833333    0.45833333    0.00000000          1/144

Wave functions: Plane wave expansion
  Cutoff energy: 600.000 eV
  Number of coefficients (min, max): 39797, 39902
  Pulay-stress correction: 0.000000 eV/Ang^3 (de/decut=0.000000)
  Using FFTW library
  ScaLapack parameters: grid=1x1, blocksize=None
  Wavefunction extrapolation:
    Improved wavefunction reuse through dual PAW basis 

Occupation numbers: Fermi-Dirac: width=0.0010 eV
 

Eigensolver
   Davidson(niter=2) 

Densities:
  Coarse grid: 42*42*160 grid
  Fine grid: 84*84*320 grid
  Total Charge: 0.000000 

Density mixing:
  Method: difference
  Backend: pulay
  Linear mixing parameter: 0.05
  Mixing with 5 old densities
  Damping of long wave oscillations: 50 

Hamiltonian:
  XC and Coulomb potentials evaluated on a 84*84*320 grid
  Using the LDA Exchange-Correlation functional
  External potential:
    <gpaw.external.NoExternalPotential object at 0x2b332f481610>
 

Memory estimate:
  Process memory now: 39979.18 MiB
  Calculator: 580.26 MiB
    Density: 158.40 MiB
      Arrays: 75.37 MiB
      Localized functions: 52.88 MiB
      Mixer: 30.15 MiB
    Hamiltonian: 57.28 MiB
      Arrays: 55.99 MiB
      XC: 0.00 MiB
      Poisson: 0.00 MiB
      vbar: 1.29 MiB
    Wavefunctions: 364.58 MiB
      Arrays psit_nG: 281.29 MiB
      Eigensolver: 50.83 MiB
      Projections: 1.61 MiB
      Projectors: 18.26 MiB
      PW-descriptor: 12.59 MiB

Total number of cores used: 40
Parallelization over k-points: 40

Number of atoms: 16
Number of atomic orbitals: 84
Number of bands in calculation: 77
Number of valence electrons: 108
Bands to converge: occupied

... initialized

Initializing position-dependent things.

Density initialized from atomic densities
Creating initial wave functions:
  77 bands from LCAO basis set

                                       
                                       
                                       
                                       
                      I                
                            I          
                   I                   
                       Cr  I           
             Cr                        
                 I                     
                         I             
                     I                 
                             I         
               Cr                      
                   I   Cr              
          I                            
                 I                     
                        I              
                                       
                                       
                                       
                                       

Positions:
   0 Cr     0.889135    0.000185   -3.063135    ( 0.0000,  0.0000,  3.4336)
   1 Cr    -2.666158    2.052642   -3.080223    ( 0.0000,  0.0000,  3.4336)
   2 I      1.822012   -2.036247   -4.559876    ( 0.0000,  0.0000, -0.1299)
   3 I     -1.348662    0.216415   -4.560605    ( 0.0000,  0.0000, -0.1299)
   4 I     -4.915070    1.830062   -4.560598    ( 0.0000,  0.0000, -0.1299)
   5 I     -0.074828   -2.063434   -1.594960    ( 0.0000,  0.0000, -0.1299)
   6 I     -0.416551    1.865690   -1.594231    ( 0.0000,  0.0000, -0.1299)
   7 I      3.157525    0.197989   -1.594234    ( 0.0000,  0.0000, -0.1299)
   8 Cr    -2.666887   -2.052642    3.080226    ( 0.0000,  0.0000,  3.4336)
   9 Cr     0.888546   -0.000185    3.063139    ( 0.0000,  0.0000,  3.4336)
  10 I      1.852510    2.063434    1.594959    ( 0.0000,  0.0000, -0.1299)
  11 I      2.194233   -1.865690    1.594230    ( 0.0000,  0.0000, -0.1299)
  12 I     -1.379843   -0.197989    1.594233    ( 0.0000,  0.0000, -0.1299)
  13 I     -0.044330    2.046247    4.559875    ( 0.0000,  0.0000, -0.1299)
  14 I      3.126343   -0.216415    4.560604    ( 0.0000,  0.0000, -0.1299)
  15 I     -0.417976   -1.830062    4.560597    ( 0.0000,  0.0000, -0.1299)

Unit cell:
           periodic     x           y           z      points  spacing
  1. axis:    yes    7.110727   -0.000000    0.000000    42     0.1466
  2. axis:    yes   -3.555363    6.158070    0.000000    42     0.1466
  3. axis:    no     0.000000   -0.000000   27.269192   160     0.1704

  Lengths:   7.110727   7.110727  27.269192
  Angles:   90.000000  90.000000 120.000000

Effective grid spacing dv^(1/3) = 0.1617

                     log10-error:           total        iterations:
           time      wfs    density  force  energy       poisson  magmom
iter:   1  08:02:18                        -76.899393             +12.1076
iter:   2  08:03:10  -0.99  -0.91          -70.502953             +9.9603
iter:   3  08:04:02  -1.83  -1.33          -70.497013             +11.0141
iter:   4  08:04:54  -1.58  -1.38          -70.968191             +12.0928
iter:   5  08:05:46  -2.53  -1.51          -70.628552             +12.0159
iter:   6  08:06:38  -1.91  -1.83          -70.402253             +12.0005
iter:   7  08:07:30  -2.97  -2.20          -70.395221             +12.0039
iter:   8  08:08:22  -3.31  -2.32          -70.390006             +12.0055
iter:   9  08:09:14  -3.68  -2.67          -70.391165             +12.0017
iter:  10  08:10:06  -3.86  -2.86          -70.391850             +11.9998
iter:  11  08:10:58  -3.99  -2.94          -70.392423             +12.0000
iter:  12  08:11:50  -3.99  -3.04          -70.392736             +12.0000
iter:  13  08:12:42  -4.06  -3.11          -70.392946             +12.0000
iter:  14  08:13:34  -4.10  -3.15          -70.393052             +12.0000
iter:  15  08:14:25  -4.19  -3.27          -70.393213             +12.0000
iter:  16  08:15:17  -4.34  -3.32          -70.393334             +12.0000
iter:  17  08:16:09  -4.60  -3.37          -70.393392             +12.0000
iter:  18  08:17:01  -4.75  -3.57          -70.393462             +12.0000
iter:  19  08:17:53  -4.89  -3.65          -70.393509             +12.0000
iter:  20  08:18:45  -5.01  -3.74          -70.393550             +12.0000
iter:  21  08:19:37  -5.20  -4.22          -70.393579             +12.0000
iter:  22  08:20:29  -5.29  -4.22          -70.393601             +12.0000
iter:  23  08:21:21  -5.44  -4.25          -70.393616             +12.0000
iter:  24  08:22:13  -5.62  -4.31          -70.393626             +12.0000
iter:  25  08:23:05  -5.67  -4.36          -70.393633             +12.0000
iter:  26  08:23:57  -5.85  -4.50          -70.393639             +12.0000
iter:  27  08:24:49  -5.91  -4.46          -70.393644             +12.0000
iter:  28  08:25:41  -6.06  -4.35          -70.393647             +12.0000
iter:  29  08:26:33  -6.28  -4.45          -70.393649             +12.0000
iter:  30  08:27:25  -6.35  -4.43          -70.393651             +12.0000
iter:  31  08:28:17  -6.55  -4.33          -70.393652             +12.0000
iter:  32  08:29:09  -6.72  -4.41          -70.393653             +12.0000
iter:  33  08:30:00  -6.83  -4.56          -70.393653             +12.0000
iter:  34  08:30:52  -6.74  -4.49          -70.393654             +12.0000
iter:  35  08:31:44  -7.08  -4.62          -70.393654             +12.0000
iter:  36  08:32:35  -7.21  -4.66          -70.393654             +12.0000
iter:  37  08:33:27  -7.36  -5.08          -70.393654             +12.0000
iter:  38  08:34:28  -7.42  -5.21          -70.393654             +12.0000
iter:  39  08:35:31  -7.49  -5.34    -4.26 -70.393654             +12.0000

Converged after 39 iterations.

Dipole moment: (-31.475446, 0.003864, -0.000858) |e|*Ang

Total magnetic moment: (0.000000, 0.000000, 12.000000)
Local magnetic moments:
   0 Cr ( 0.000000,  0.000000,  2.909369)
   1 Cr ( 0.000000,  0.000000,  2.917358)
   2 I  ( 0.000000,  0.000000, -0.046949)
   3 I  ( 0.000000,  0.000000, -0.046868)
   4 I  ( 0.000000,  0.000000, -0.047038)
   5 I  ( 0.000000,  0.000000, -0.049664)
   6 I  ( 0.000000,  0.000000, -0.049399)
   7 I  ( 0.000000,  0.000000, -0.049922)
   8 Cr ( 0.000000,  0.000000,  2.915440)
   9 Cr ( 0.000000,  0.000000,  2.911305)
  10 I  ( 0.000000,  0.000000, -0.049672)
  11 I  ( 0.000000,  0.000000, -0.049705)
  12 I  ( 0.000000,  0.000000, -0.049657)
  13 I  ( 0.000000,  0.000000, -0.046975)
  14 I  ( 0.000000,  0.000000, -0.046936)
  15 I  ( 0.000000,  0.000000, -0.046954)

Energy contributions relative to reference atoms: (reference = -2434708.556191)

Kinetic:        +23.274583
Potential:      -37.244551
External:        +0.000000
XC:             -56.597859
Entropy (-ST):   -0.000000
Local:           +0.174173
--------------------------
Free energy:    -70.393654
Extrapolated:   -70.393654

Spin contamination: 1.119574 electrons
Showing only first 2 kpts
                      Up                     Down
 Kpt  Band  Eigenvalues  Occupancy  Eigenvalues  Occupancy
  0    52     -2.13832    1.00000     -0.01182    0.00000
  0    53     -2.10289    1.00000      0.00319    0.00000
  0    54     -2.01980    1.00000      0.18028    0.00000
  0    55     -2.01866    1.00000      0.21123    0.00000

  1    52     -2.11785    1.00000     -0.01850    0.00000
  1    53     -2.07415    1.00000      0.01861    0.00000
  1    54     -2.02004    1.00000      0.17010    0.00000
  1    55     -1.98986    1.00000      0.20911    0.00000


Fermi level: -1.19495

Gap: 0.971 eV
Transition (v -> c):
  (s=0, k=132, n=59, [0.46, -0.46, 0.00]) -> (s=0, k=72, n=60, [0.04, -0.46, 0.00])
Writing to born-0.01-2y+.gpw (mode='all')

Timing:                              incl.     excl.
-----------------------------------------------------------
Hamiltonian:                         2.713     0.011   0.0% |
 Atomic:                             1.216     1.216   0.0% |
  XC Correction:                     0.000     0.000   0.0% |
 Calculate atomic Hamiltonians:      0.325     0.325   0.0% |
 Communicate:                        0.000     0.000   0.0% |
 Initialize Hamiltonian:             0.004     0.004   0.0% |
 Poisson:                            0.012     0.012   0.0% |
 XC 3D grid:                         1.146     1.146   0.0% |
LCAO initialization:                21.086     0.141   0.0% |
 LCAO eigensolver:                   3.316     0.001   0.0% |
  Calculate projections:             0.004     0.004   0.0% |
  DenseAtomicCorrection:             0.006     0.006   0.0% |
  Distribute overlap matrix:         0.000     0.000   0.0% |
  Orbital Layouts:                   0.016     0.016   0.0% |
  Potential matrix:                  3.278     3.278   0.1% |
  Sum over cells:                    0.012     0.012   0.0% |
 LCAO to grid:                      17.348    17.348   0.3% |
 Set positions (LCAO WFS):           0.281     0.050   0.0% |
  Basic WFS set positions:           0.001     0.001   0.0% |
  Basis functions set positions:     0.000     0.000   0.0% |
  P tci:                             0.123     0.123   0.0% |
  ST tci:                            0.064     0.064   0.0% |
  mktci:                             0.043     0.043   0.0% |
PWDescriptor:                        0.087     0.087   0.0% |
SCF-cycle:                        2045.301   457.033   8.7% |--|
 Davidson:                        1286.157   203.042   3.9% |-|
  Apply H:                         224.344   218.006   4.2% |-|
   HMM T:                            6.338     6.338   0.1% |
  Subspace diag:                   271.877     0.060   0.0% |
   calc_h_matrix:                  241.209    17.861   0.3% |
    Apply H:                       223.348   216.807   4.1% |-|
     HMM T:                          6.541     6.541   0.1% |
   diagonalize:                      0.488     0.488   0.0% |
   rotate_psi:                      30.120    30.120   0.6% |
  calc. matrices:                  527.834   101.044   1.9% ||
   Apply H:                        426.790   415.084   7.9% |--|
    HMM T:                          11.705    11.705   0.2% |
  diagonalize:                       4.682     4.682   0.1% |
  rotate_psi:                       54.379    54.379   1.0% |
 Density:                          202.352     0.002   0.0% |
  Atomic density matrices:           0.283     0.283   0.0% |
  Mix:                              34.185    34.185   0.7% |
  Multipole moments:                 0.018     0.018   0.0% |
  Pseudo density:                  167.865   167.863   3.2% ||
   Symmetrize density:               0.003     0.003   0.0% |
 Forces:                            19.730    19.730   0.4% |
 Hamiltonian:                       78.341     0.462   0.0% |
  Atomic:                            6.077     6.077   0.1% |
   XC Correction:                    0.000     0.000   0.0% |
  Calculate atomic Hamiltonians:    25.273    25.273   0.5% |
  Communicate:                       0.006     0.006   0.0% |
  Poisson:                           0.447     0.447   0.0% |
  XC 3D grid:                       46.075    46.075   0.9% |
 Orthonormalize:                     1.688     0.002   0.0% |
  calc_s_matrix:                     0.227     0.227   0.0% |
  inverse-cholesky:                  0.004     0.004   0.0% |
  projections:                       1.021     1.021   0.0% |
  rotate_psi_s:                      0.435     0.435   0.0% |
Set symmetry:                        0.000     0.000   0.0% |
Other:                            3159.351  3159.351  60.4% |-----------------------|
-----------------------------------------------------------
Total:                                      5228.538 100.0%

Memory usage: 39.04 GiB
Date: Sun Jun 26 09:28:06 2022
