
  ___ ___ ___ _ _ _  
 |   |   |_  | | | | 
 | | | | | . | | | | 
 |__ |  _|___|_____|  21.6.1b1
 |___|_|             

User:   madkru@c153.nifl.fysik.dtu.dk
Date:   Sun Jun 26 12:15:27 2022
Arch:   x86_64
Pid:    48887
Python: 3.8.6
gpaw:   /home/niflheim/madkru/new_venv/gpaw/gpaw (1f0dfc9eae)
_gpaw:  /home/niflheim/madkru/new_venv/gpaw/build/lib.linux-x86_64-skylake-3.8/
        _gpaw.cpython-38-x86_64-linux-gnu.so (c1e45bfab3)
ase:    /home/niflheim/madkru/new_venv/ase/ase (version 3.23.0b1-ca38c75a67)
numpy:  /home/modules/software/SciPy-bundle/2020.11-foss-2020b/lib/python3.8/site-packages/numpy (version 1.19.4)
scipy:  /home/modules/software/SciPy-bundle/2020.11-foss-2020b/lib/python3.8/site-packages/scipy (version 1.5.4)
libxc:  4.3.4
units:  Angstrom and eV
cores: 40
OpenMP: False
OMP_NUM_THREADS: 1

Input parameters:
  convergence: {bands: occupied,
                density: 0.0001,
                eigenstates: 4e-08,
                energy: 0.0005,
                forces: 0.0001}
  kpts: [12 12  1]
  mode: {ecut: 600.0,
         gammacentered: False,
         name: pw}
  occupations: {fixmagmom: False,
                name: fermi-dirac,
                width: 0.001}
  symmetry: {point_group: False,
             time_reversal: False}

System changes: positions, numbers, cell, pbc, initial_charges, initial_magmoms 

Initialize ...

Cr-setup:
  name: Chromium
  id: 444e8044bc0f91048286c984738d87f5
  Z: 24.0
  valence: 6
  core: 18
  charge: 0.0
  file: /home/modules/software/GPAW-setups/0.9.20000/Cr.LDA.gz
  compensation charges: gauss, rc=0.35, lmax=2
  cutoffs: 2.14(filt), 3.04(core),
  valence states:
                energy  radius
    4s(1.00)    -4.191   1.164
    4p(0.00)    -1.079   1.217
    3d(5.00)    -3.128   1.111
    *s          23.021   1.164
    *p          26.132   1.217
    *d          24.083   1.111

  Using partial waves for Cr as LCAO basis

I-setup:
  name: Iodine
  id: b559721c0c096a7b4c8fc0e0f4de5cf4
  Z: 53.0
  valence: 7
  core: 46
  charge: 0.0
  file: /home/modules/software/GPAW-setups/0.9.20000/I.LDA.gz
  compensation charges: gauss, rc=0.37, lmax=2
  cutoffs: 2.06(filt), 2.90(core),
  valence states:
                energy  radius
    5s(2.00)   -17.626   1.164
    5p(5.00)    -7.241   1.164
    *s           9.585   1.164
    *p          19.970   1.164
    *d           0.000   1.164

  Using partial waves for I as LCAO basis

Reference energy: -2434708.556191

Spin-polarized calculation.
Magnetic moment: 12.175341

Convergence criteria:
  Maximum total energy change: 0.0005 eV / electron
  Maximum integral of absolute density change: 0.0001 electrons
  Maximum integral of absolute eigenstate change: 4e-08 eV^2
  Maximum change in atomic force: 0.0001 eV / Ang
  Maximum number of iterations: 333

Symmetries present (total): 1

  ( 1  0  0)
  ( 0  1  0)
  ( 0  0  1)

144 k-points: 12 x 12 x 1 Monkhorst-Pack grid
144 k-points in the irreducible part of the Brillouin zone
       k-points in crystal coordinates                weights
   0:    -0.45833333   -0.45833333    0.00000000          1/144
   1:    -0.45833333   -0.37500000    0.00000000          1/144
   2:    -0.45833333   -0.29166667    0.00000000          1/144
   3:    -0.45833333   -0.20833333    0.00000000          1/144
   4:    -0.45833333   -0.12500000    0.00000000          1/144
   5:    -0.45833333   -0.04166667    0.00000000          1/144
   6:    -0.45833333    0.04166667    0.00000000          1/144
   7:    -0.45833333    0.12500000    0.00000000          1/144
   8:    -0.45833333    0.20833333    0.00000000          1/144
   9:    -0.45833333    0.29166667    0.00000000          1/144
          ...
 143:     0.45833333    0.45833333    0.00000000          1/144

Wave functions: Plane wave expansion
  Cutoff energy: 600.000 eV
  Number of coefficients (min, max): 39797, 39902
  Pulay-stress correction: 0.000000 eV/Ang^3 (de/decut=0.000000)
  Using FFTW library
  ScaLapack parameters: grid=1x1, blocksize=None
  Wavefunction extrapolation:
    Improved wavefunction reuse through dual PAW basis 

Occupation numbers: Fermi-Dirac: width=0.0010 eV
 

Eigensolver
   Davidson(niter=2) 

Densities:
  Coarse grid: 42*42*160 grid
  Fine grid: 84*84*320 grid
  Total Charge: 0.000000 

Density mixing:
  Method: difference
  Backend: pulay
  Linear mixing parameter: 0.05
  Mixing with 5 old densities
  Damping of long wave oscillations: 50 

Hamiltonian:
  XC and Coulomb potentials evaluated on a 84*84*320 grid
  Using the LDA Exchange-Correlation functional
  External potential:
    <gpaw.external.NoExternalPotential object at 0x2b332666bee0>
 

Memory estimate:
  Process memory now: 40029.57 MiB
  Calculator: 580.26 MiB
    Density: 158.40 MiB
      Arrays: 75.37 MiB
      Localized functions: 52.88 MiB
      Mixer: 30.15 MiB
    Hamiltonian: 57.28 MiB
      Arrays: 55.99 MiB
      XC: 0.00 MiB
      Poisson: 0.00 MiB
      vbar: 1.29 MiB
    Wavefunctions: 364.58 MiB
      Arrays psit_nG: 281.29 MiB
      Eigensolver: 50.83 MiB
      Projections: 1.61 MiB
      Projectors: 18.26 MiB
      PW-descriptor: 12.59 MiB

Total number of cores used: 40
Parallelization over k-points: 40

Number of atoms: 16
Number of atomic orbitals: 84
Number of bands in calculation: 77
Number of valence electrons: 108
Bands to converge: occupied

... initialized

Initializing position-dependent things.

Density initialized from atomic densities
Creating initial wave functions:
  77 bands from LCAO basis set

                                       
                                       
                                       
                                       
                      I                
                            I          
                   I                   
                       Cr  I           
             Cr                        
                 I                     
                         I             
                     I                 
                             I         
               Cr                      
                   I   Cr              
          I                            
                 I                     
                        I              
                                       
                                       
                                       
                                       

Positions:
   0 Cr     0.889135    0.000185   -3.063135    ( 0.0000,  0.0000,  3.4336)
   1 Cr    -2.666158    2.052642   -3.080223    ( 0.0000,  0.0000,  3.4336)
   2 I      1.822012   -2.046247   -4.559876    ( 0.0000,  0.0000, -0.1299)
   3 I     -1.348662    0.206415   -4.560605    ( 0.0000,  0.0000, -0.1299)
   4 I     -4.915070    1.830062   -4.560598    ( 0.0000,  0.0000, -0.1299)
   5 I     -0.074828   -2.063434   -1.594960    ( 0.0000,  0.0000, -0.1299)
   6 I     -0.416551    1.865690   -1.594231    ( 0.0000,  0.0000, -0.1299)
   7 I      3.157525    0.197989   -1.594234    ( 0.0000,  0.0000, -0.1299)
   8 Cr    -2.666887   -2.052642    3.080226    ( 0.0000,  0.0000,  3.4336)
   9 Cr     0.888546   -0.000185    3.063139    ( 0.0000,  0.0000,  3.4336)
  10 I      1.852510    2.063434    1.594959    ( 0.0000,  0.0000, -0.1299)
  11 I      2.194233   -1.865690    1.594230    ( 0.0000,  0.0000, -0.1299)
  12 I     -1.379843   -0.197989    1.594233    ( 0.0000,  0.0000, -0.1299)
  13 I     -0.044330    2.046247    4.559875    ( 0.0000,  0.0000, -0.1299)
  14 I      3.126343   -0.216415    4.560604    ( 0.0000,  0.0000, -0.1299)
  15 I     -0.417976   -1.830062    4.560597    ( 0.0000,  0.0000, -0.1299)

Unit cell:
           periodic     x           y           z      points  spacing
  1. axis:    yes    7.110727   -0.000000    0.000000    42     0.1466
  2. axis:    yes   -3.555363    6.158070    0.000000    42     0.1466
  3. axis:    no     0.000000   -0.000000   27.269192   160     0.1704

  Lengths:   7.110727   7.110727  27.269192
  Angles:   90.000000  90.000000 120.000000

Effective grid spacing dv^(1/3) = 0.1617

                     log10-error:           total        iterations:
           time      wfs    density  force  energy       poisson  magmom
iter:   1  12:16:48                        -76.893341             +12.1076
iter:   2  12:17:40  -0.99  -0.91          -70.503437             +9.9635
iter:   3  12:18:32  -1.83  -1.33          -70.497264             +11.0158
iter:   4  12:19:24  -1.58  -1.38          -70.967933             +12.0927
iter:   5  12:20:16  -2.53  -1.51          -70.628365             +12.0159
iter:   6  12:21:09  -1.91  -1.83          -70.402424             +12.0005
iter:   7  12:22:01  -2.97  -2.20          -70.395273             +12.0039
iter:   8  12:22:53  -3.31  -2.32          -70.390087             +12.0055
iter:   9  12:23:45  -3.68  -2.67          -70.391253             +12.0017
iter:  10  12:24:37  -3.86  -2.86          -70.391935             +11.9998
iter:  11  12:25:29  -3.99  -2.94          -70.392507             +12.0000
iter:  12  12:26:21  -3.99  -3.04          -70.392821             +12.0000
iter:  13  12:27:13  -4.06  -3.11          -70.393030             +12.0000
iter:  14  12:28:05  -4.09  -3.15          -70.393137             +12.0000
iter:  15  12:28:57  -4.18  -3.27          -70.393298             +12.0000
iter:  16  12:29:49  -4.32  -3.32          -70.393419             +12.0000
iter:  17  12:30:42  -4.60  -3.37          -70.393477             +12.0000
iter:  18  12:31:34  -4.74  -3.57          -70.393548             +12.0000
iter:  19  12:32:26  -4.89  -3.65          -70.393595             +12.0000
iter:  20  12:33:18  -5.01  -3.75          -70.393637             +12.0000
iter:  21  12:34:10  -5.20  -4.15          -70.393666             +12.0000
iter:  22  12:35:02  -5.32  -4.15          -70.393688             +12.0000
iter:  23  12:35:54  -5.35  -4.19          -70.393701             +12.0000
iter:  24  12:36:46  -5.50  -4.38          -70.393711             +12.0000
iter:  25  12:37:38  -5.71  -4.49          -70.393720             +12.0000
iter:  26  12:38:30  -5.76  -4.47          -70.393725             +12.0000
iter:  27  12:39:22  -5.84  -4.41          -70.393730             +12.0000
iter:  28  12:40:14  -5.90  -4.44          -70.393733             +12.0000
iter:  29  12:41:07  -5.93  -4.43          -70.393735             +12.0000
iter:  30  12:41:59  -6.15  -4.36          -70.393737             +12.0000
iter:  31  12:42:51  -6.35  -4.37          -70.393739             +12.0000
iter:  32  12:43:43  -6.52  -4.35          -70.393740             +12.0000
iter:  33  12:44:35  -6.58  -4.33          -70.393741             +12.0000
iter:  34  12:45:27  -6.68  -4.40          -70.393741             +12.0000
iter:  35  12:46:19  -6.91  -4.37          -70.393741             +12.0000
iter:  36  12:47:11  -7.11  -4.41          -70.393742             +12.0000
iter:  37  12:48:03  -7.29  -4.36          -70.393741             +12.0000
iter:  38  12:49:05  -7.62  -4.36          -70.393741             +12.0000
iter:  39  12:50:08  -7.44  -4.41    -2.40 -70.393741             +12.0000
iter:  40  12:51:11  -7.81  -4.66    -2.91 -70.393741             +12.0000
iter:  41  12:52:14  -7.86  -4.82    -2.86 -70.393741             +12.0000
iter:  42  12:53:17  -8.13  -4.98    -3.87 -70.393741             +12.0000
iter:  43  12:54:19  -8.15  -5.01    -3.02 -70.393741             +12.0000
iter:  44  12:55:22  -8.39  -5.23    -3.95 -70.393741             +12.0000
iter:  45  12:56:25  -8.52  -5.27    -3.54 -70.393741             +12.0000
iter:  46  12:57:28  -8.64  -5.32    -3.42 -70.393741             +12.0000
iter:  47  12:58:31  -8.83  -5.49    -3.89 -70.393741             +12.0000
iter:  48  12:59:34  -9.00  -5.73    -4.23 -70.393741             +12.0000

Converged after 48 iterations.

Dipole moment: (-31.807780, 0.315727, -0.000380) |e|*Ang

Total magnetic moment: (0.000000, 0.000000, 12.000000)
Local magnetic moments:
   0 Cr ( 0.000000,  0.000000,  2.910941)
   1 Cr ( 0.000000,  0.000000,  2.917020)
   2 I  ( 0.000000,  0.000000, -0.047049)
   3 I  ( 0.000000,  0.000000, -0.047149)
   4 I  ( 0.000000,  0.000000, -0.046942)
   5 I  ( 0.000000,  0.000000, -0.049998)
   6 I  ( 0.000000,  0.000000, -0.049558)
   7 I  ( 0.000000,  0.000000, -0.049723)
   8 Cr ( 0.000000,  0.000000,  2.915450)
   9 Cr ( 0.000000,  0.000000,  2.911285)
  10 I  ( 0.000000,  0.000000, -0.049670)
  11 I  ( 0.000000,  0.000000, -0.049656)
  12 I  ( 0.000000,  0.000000, -0.049706)
  13 I  ( 0.000000,  0.000000, -0.046978)
  14 I  ( 0.000000,  0.000000, -0.046935)
  15 I  ( 0.000000,  0.000000, -0.046951)

Energy contributions relative to reference atoms: (reference = -2434708.556191)

Kinetic:        +23.106899
Potential:      -37.107252
External:        +0.000000
XC:             -56.569095
Entropy (-ST):   -0.000000
Local:           +0.175707
--------------------------
Free energy:    -70.393741
Extrapolated:   -70.393741

Spin contamination: 1.120339 electrons
Showing only first 2 kpts
                      Up                     Down
 Kpt  Band  Eigenvalues  Occupancy  Eigenvalues  Occupancy
  0    52     -2.14053    1.00000     -0.01261    0.00000
  0    53     -2.10500    1.00000      0.00321    0.00000
  0    54     -2.01998    1.00000      0.17912    0.00000
  0    55     -2.01898    1.00000      0.20965    0.00000

  1    52     -2.11943    1.00000     -0.01965    0.00000
  1    53     -2.07580    1.00000      0.01884    0.00000
  1    54     -2.02067    1.00000      0.16879    0.00000
  1    55     -1.99046    1.00000      0.20784    0.00000


Fermi level: -1.19449

Gap: 0.971 eV
Transition (v -> c):
  (s=0, k=5, n=59, [-0.46, -0.04, 0.00]) -> (s=0, k=121, n=60, [0.38, -0.38, 0.00])
Writing to born-0.01-3y-.gpw (mode='all')

Timing:                              incl.     excl.
-----------------------------------------------------------
Hamiltonian:                         2.612     0.010   0.0% |
 Atomic:                             1.108     1.108   0.0% |
  XC Correction:                     0.000     0.000   0.0% |
 Calculate atomic Hamiltonians:      0.335     0.335   0.0% |
 Communicate:                        0.000     0.000   0.0% |
 Initialize Hamiltonian:             0.004     0.004   0.0% |
 Poisson:                            0.013     0.013   0.0% |
 XC 3D grid:                         1.141     1.141   0.0% |
LCAO initialization:                21.231     0.141   0.0% |
 LCAO eigensolver:                   3.335     0.001   0.0% |
  Calculate projections:             0.004     0.004   0.0% |
  DenseAtomicCorrection:             0.005     0.005   0.0% |
  Distribute overlap matrix:         0.000     0.000   0.0% |
  Orbital Layouts:                   0.016     0.016   0.0% |
  Potential matrix:                  3.297     3.297   0.1% |
  Sum over cells:                    0.011     0.011   0.0% |
 LCAO to grid:                      17.467    17.467   0.3% |
 Set positions (LCAO WFS):           0.288     0.050   0.0% |
  Basic WFS set positions:           0.001     0.001   0.0% |
  Basis functions set positions:     0.000     0.000   0.0% |
  P tci:                             0.129     0.129   0.0% |
  ST tci:                            0.065     0.065   0.0% |
  mktci:                             0.043     0.043   0.0% |
PWDescriptor:                        0.087     0.087   0.0% |
SCF-cycle:                        2618.374   615.120   9.8% |---|
 Davidson:                        1537.430   258.920   4.1% |-|
  Apply H:                         252.359   245.011   3.9% |-|
   HMM T:                            7.347     7.347   0.1% |
  Subspace diag:                   314.760     0.066   0.0% |
   calc_h_matrix:                  277.416    23.709   0.4% |
    Apply H:                       253.707   246.011   3.9% |-|
     HMM T:                          7.696     7.696   0.1% |
   diagonalize:                      0.600     0.600   0.0% |
   rotate_psi:                      36.679    36.679   0.6% |
  calc. matrices:                  641.698   135.567   2.2% ||
   Apply H:                        506.132   491.321   7.8% |--|
    HMM T:                          14.811    14.811   0.2% |
  diagonalize:                       5.673     5.673   0.1% |
  rotate_psi:                       64.021    64.021   1.0% |
 Density:                          259.371     0.002   0.0% |
  Atomic density matrices:           0.341     0.341   0.0% |
  Mix:                              42.712    42.712   0.7% |
  Multipole moments:                 0.022     0.022   0.0% |
  Pseudo density:                  216.293   216.290   3.5% ||
   Symmetrize density:               0.003     0.003   0.0% |
 Forces:                           108.304   108.304   1.7% ||
 Hamiltonian:                       96.553     0.791   0.0% |
  Atomic:                            6.415     6.414   0.1% |
   XC Correction:                    0.000     0.000   0.0% |
  Calculate atomic Hamiltonians:    30.985    30.985   0.5% |
  Communicate:                       0.010     0.010   0.0% |
  Poisson:                           0.627     0.627   0.0% |
  XC 3D grid:                       57.726    57.726   0.9% |
 Orthonormalize:                     1.595     0.001   0.0% |
  calc_s_matrix:                     0.211     0.211   0.0% |
  inverse-cholesky:                  0.004     0.004   0.0% |
  projections:                       0.984     0.984   0.0% |
  rotate_psi_s:                      0.396     0.396   0.0% |
Set symmetry:                        0.000     0.000   0.0% |
Other:                            3624.145  3624.145  57.8% |----------------------|
-----------------------------------------------------------
Total:                                      6266.450 100.0%

Memory usage: 39.09 GiB
Date: Sun Jun 26 13:59:54 2022
