
  ___ ___ ___ _ _ _  
 |   |   |_  | | | | 
 | | | | | . | | | | 
 |__ |  _|___|_____|  21.6.1b1
 |___|_|             

User:   madkru@c153.nifl.fysik.dtu.dk
Date:   Mon Jun 27 01:56:20 2022
Arch:   x86_64
Pid:    48887
Python: 3.8.6
gpaw:   /home/niflheim/madkru/new_venv/gpaw/gpaw (1f0dfc9eae)
_gpaw:  /home/niflheim/madkru/new_venv/gpaw/build/lib.linux-x86_64-skylake-3.8/
        _gpaw.cpython-38-x86_64-linux-gnu.so (c1e45bfab3)
ase:    /home/niflheim/madkru/new_venv/ase/ase (version 3.23.0b1-ca38c75a67)
numpy:  /home/modules/software/SciPy-bundle/2020.11-foss-2020b/lib/python3.8/site-packages/numpy (version 1.19.4)
scipy:  /home/modules/software/SciPy-bundle/2020.11-foss-2020b/lib/python3.8/site-packages/scipy (version 1.5.4)
libxc:  4.3.4
units:  Angstrom and eV
cores: 40
OpenMP: False
OMP_NUM_THREADS: 1

Input parameters:
  convergence: {bands: occupied,
                density: 0.0001,
                eigenstates: 4e-08,
                energy: 0.0005,
                forces: 0.0001}
  kpts: [12 12  1]
  mode: {ecut: 600.0,
         gammacentered: False,
         name: pw}
  occupations: {fixmagmom: False,
                name: fermi-dirac,
                width: 0.001}
  symmetry: {point_group: False,
             time_reversal: False}

System changes: positions, numbers, cell, pbc, initial_charges, initial_magmoms 

Initialize ...

Cr-setup:
  name: Chromium
  id: 444e8044bc0f91048286c984738d87f5
  Z: 24.0
  valence: 6
  core: 18
  charge: 0.0
  file: /home/modules/software/GPAW-setups/0.9.20000/Cr.LDA.gz
  compensation charges: gauss, rc=0.35, lmax=2
  cutoffs: 2.14(filt), 3.04(core),
  valence states:
                energy  radius
    4s(1.00)    -4.191   1.164
    4p(0.00)    -1.079   1.217
    3d(5.00)    -3.128   1.111
    *s          23.021   1.164
    *p          26.132   1.217
    *d          24.083   1.111

  Using partial waves for Cr as LCAO basis

I-setup:
  name: Iodine
  id: b559721c0c096a7b4c8fc0e0f4de5cf4
  Z: 53.0
  valence: 7
  core: 46
  charge: 0.0
  file: /home/modules/software/GPAW-setups/0.9.20000/I.LDA.gz
  compensation charges: gauss, rc=0.37, lmax=2
  cutoffs: 2.06(filt), 2.90(core),
  valence states:
                energy  radius
    5s(2.00)   -17.626   1.164
    5p(5.00)    -7.241   1.164
    *s           9.585   1.164
    *p          19.970   1.164
    *d           0.000   1.164

  Using partial waves for I as LCAO basis

Reference energy: -2434708.556191

Spin-polarized calculation.
Magnetic moment: 12.175341

Convergence criteria:
  Maximum total energy change: 0.0005 eV / electron
  Maximum integral of absolute density change: 0.0001 electrons
  Maximum integral of absolute eigenstate change: 4e-08 eV^2
  Maximum change in atomic force: 0.0001 eV / Ang
  Maximum number of iterations: 333

Symmetries present (total): 1

  ( 1  0  0)
  ( 0  1  0)
  ( 0  0  1)

144 k-points: 12 x 12 x 1 Monkhorst-Pack grid
144 k-points in the irreducible part of the Brillouin zone
       k-points in crystal coordinates                weights
   0:    -0.45833333   -0.45833333    0.00000000          1/144
   1:    -0.45833333   -0.37500000    0.00000000          1/144
   2:    -0.45833333   -0.29166667    0.00000000          1/144
   3:    -0.45833333   -0.20833333    0.00000000          1/144
   4:    -0.45833333   -0.12500000    0.00000000          1/144
   5:    -0.45833333   -0.04166667    0.00000000          1/144
   6:    -0.45833333    0.04166667    0.00000000          1/144
   7:    -0.45833333    0.12500000    0.00000000          1/144
   8:    -0.45833333    0.20833333    0.00000000          1/144
   9:    -0.45833333    0.29166667    0.00000000          1/144
          ...
 143:     0.45833333    0.45833333    0.00000000          1/144

Wave functions: Plane wave expansion
  Cutoff energy: 600.000 eV
  Number of coefficients (min, max): 39797, 39902
  Pulay-stress correction: 0.000000 eV/Ang^3 (de/decut=0.000000)
  Using FFTW library
  ScaLapack parameters: grid=1x1, blocksize=None
  Wavefunction extrapolation:
    Improved wavefunction reuse through dual PAW basis 

Occupation numbers: Fermi-Dirac: width=0.0010 eV
 

Eigensolver
   Davidson(niter=2) 

Densities:
  Coarse grid: 42*42*160 grid
  Fine grid: 84*84*320 grid
  Total Charge: 0.000000 

Density mixing:
  Method: difference
  Backend: pulay
  Linear mixing parameter: 0.05
  Mixing with 5 old densities
  Damping of long wave oscillations: 50 

Hamiltonian:
  XC and Coulomb potentials evaluated on a 84*84*320 grid
  Using the LDA Exchange-Correlation functional
  External potential:
    <gpaw.external.NoExternalPotential object at 0x2b332666b580>
 

Memory estimate:
  Process memory now: 40075.95 MiB
  Calculator: 580.26 MiB
    Density: 158.40 MiB
      Arrays: 75.37 MiB
      Localized functions: 52.88 MiB
      Mixer: 30.15 MiB
    Hamiltonian: 57.28 MiB
      Arrays: 55.99 MiB
      XC: 0.00 MiB
      Poisson: 0.00 MiB
      vbar: 1.29 MiB
    Wavefunctions: 364.58 MiB
      Arrays psit_nG: 281.29 MiB
      Eigensolver: 50.83 MiB
      Projections: 1.61 MiB
      Projectors: 18.26 MiB
      PW-descriptor: 12.59 MiB

Total number of cores used: 40
Parallelization over k-points: 40

Number of atoms: 16
Number of atomic orbitals: 84
Number of bands in calculation: 77
Number of valence electrons: 108
Bands to converge: occupied

... initialized

Initializing position-dependent things.

Density initialized from atomic densities
Creating initial wave functions:
  77 bands from LCAO basis set

                                       
                                       
                                       
                                       
                      I                
                            I          
                   I                   
                       Cr  I           
             Cr                        
                 I                     
                         I             
                     I                 
                             I         
               Cr                      
                   I   Cr              
          I                            
                 I                     
                        I              
                                       
                                       
                                       
                                       

Positions:
   0 Cr     0.889135    0.000185   -3.063135    ( 0.0000,  0.0000,  3.4336)
   1 Cr    -2.666158    2.052642   -3.080223    ( 0.0000,  0.0000,  3.4336)
   2 I      1.822012   -2.046247   -4.559876    ( 0.0000,  0.0000, -0.1299)
   3 I     -1.348662    0.216415   -4.560605    ( 0.0000,  0.0000, -0.1299)
   4 I     -4.915070    1.830062   -4.560598    ( 0.0000,  0.0000, -0.1299)
   5 I     -0.074828   -2.063434   -1.584960    ( 0.0000,  0.0000, -0.1299)
   6 I     -0.416551    1.865690   -1.594231    ( 0.0000,  0.0000, -0.1299)
   7 I      3.157525    0.197989   -1.594234    ( 0.0000,  0.0000, -0.1299)
   8 Cr    -2.666887   -2.052642    3.080226    ( 0.0000,  0.0000,  3.4336)
   9 Cr     0.888546   -0.000185    3.063139    ( 0.0000,  0.0000,  3.4336)
  10 I      1.852510    2.063434    1.594959    ( 0.0000,  0.0000, -0.1299)
  11 I      2.194233   -1.865690    1.594230    ( 0.0000,  0.0000, -0.1299)
  12 I     -1.379843   -0.197989    1.594233    ( 0.0000,  0.0000, -0.1299)
  13 I     -0.044330    2.046247    4.559875    ( 0.0000,  0.0000, -0.1299)
  14 I      3.126343   -0.216415    4.560604    ( 0.0000,  0.0000, -0.1299)
  15 I     -0.417976   -1.830062    4.560597    ( 0.0000,  0.0000, -0.1299)

Unit cell:
           periodic     x           y           z      points  spacing
  1. axis:    yes    7.110727   -0.000000    0.000000    42     0.1466
  2. axis:    yes   -3.555363    6.158070    0.000000    42     0.1466
  3. axis:    no     0.000000   -0.000000   27.269192   160     0.1704

  Lengths:   7.110727   7.110727  27.269192
  Angles:   90.000000  90.000000 120.000000

Effective grid spacing dv^(1/3) = 0.1617

                     log10-error:           total        iterations:
           time      wfs    density  force  energy       poisson  magmom
iter:   1  01:57:41                        -76.892928             +12.1076
iter:   2  01:58:32  -0.99  -0.91          -70.504383             +9.9670
iter:   3  01:59:24  -1.83  -1.33          -70.497381             +11.0177
iter:   4  02:00:15  -1.59  -1.38          -70.965519             +12.0927
iter:   5  02:01:07  -2.54  -1.51          -70.628365             +12.0158
iter:   6  02:01:59  -1.91  -1.83          -70.402022             +12.0004
iter:   7  02:02:50  -2.97  -2.20          -70.395034             +12.0039
iter:   8  02:03:42  -3.30  -2.32          -70.390035             +12.0056
iter:   9  02:04:34  -3.68  -2.67          -70.391168             +12.0017
iter:  10  02:05:25  -3.86  -2.86          -70.391864             +11.9998
iter:  11  02:06:17  -3.99  -2.94          -70.392443             +12.0000
iter:  12  02:07:08  -4.01  -3.02          -70.392770             +12.0000
iter:  13  02:08:00  -4.08  -3.10          -70.392969             +12.0000
iter:  14  02:08:52  -4.11  -3.15          -70.393054             +12.0000
iter:  15  02:09:43  -4.23  -3.29          -70.393209             +12.0000
iter:  16  02:10:35  -4.36  -3.33          -70.393329             +12.0000
iter:  17  02:11:26  -4.65  -3.41          -70.393397             +12.0000
iter:  18  02:12:18  -4.80  -3.55          -70.393466             +12.0000
iter:  19  02:13:09  -4.92  -3.63          -70.393517             +12.0000
iter:  20  02:14:01  -4.99  -3.69          -70.393554             +12.0000
iter:  21  02:14:52  -5.16  -3.97          -70.393580             +12.0000
iter:  22  02:15:44  -5.23  -4.05          -70.393602             +12.0000
iter:  23  02:16:36  -5.35  -4.07          -70.393618             +12.0000
iter:  24  02:17:27  -5.34  -4.04          -70.393625             +12.0000
iter:  25  02:18:19  -5.52  -4.30          -70.393633             +12.0000
iter:  26  02:19:11  -5.64  -4.33          -70.393639             +12.0000
iter:  27  02:20:02  -5.72  -4.36          -70.393644             +12.0000
iter:  28  02:20:54  -5.90  -4.43          -70.393648             +12.0000
iter:  29  02:21:45  -6.06  -4.44          -70.393650             +12.0000
iter:  30  02:22:37  -6.19  -4.44          -70.393652             +12.0000
iter:  31  02:23:28  -6.31  -4.46          -70.393653             +12.0000
iter:  32  02:24:20  -6.55  -4.49          -70.393654             +12.0000
iter:  33  02:25:12  -6.66  -4.94          -70.393655             +12.0000
iter:  34  02:26:03  -6.76  -4.91          -70.393655             +12.0000
iter:  35  02:26:55  -7.03  -4.89          -70.393655             +12.0000
iter:  36  02:27:46  -7.14  -5.33          -70.393656             +12.0000
iter:  37  02:28:38  -7.24  -5.35          -70.393656             +12.0000
iter:  38  02:29:29  -7.39  -5.35          -70.393656             +12.0000
iter:  39  02:30:31  -7.50  -5.44          -70.393656             +12.0000
iter:  40  02:31:33  -7.66  -5.47    -4.32 -70.393656             +12.0000

Converged after 40 iterations.

Dipole moment: (-31.570371, -0.001038, 0.090560) |e|*Ang

Total magnetic moment: (0.000000, 0.000000, 12.000000)
Local magnetic moments:
   0 Cr ( 0.000000,  0.000000,  2.912385)
   1 Cr ( 0.000000,  0.000000,  2.916658)
   2 I  ( 0.000000,  0.000000, -0.046779)
   3 I  ( 0.000000,  0.000000, -0.047054)
   4 I  ( 0.000000,  0.000000, -0.047126)
   5 I  ( 0.000000,  0.000000, -0.050277)
   6 I  ( 0.000000,  0.000000, -0.049848)
   7 I  ( 0.000000,  0.000000, -0.049865)
   8 Cr ( 0.000000,  0.000000,  2.915439)
   9 Cr ( 0.000000,  0.000000,  2.911243)
  10 I  ( 0.000000,  0.000000, -0.049697)
  11 I  ( 0.000000,  0.000000, -0.049738)
  12 I  ( 0.000000,  0.000000, -0.049722)
  13 I  ( 0.000000,  0.000000, -0.046987)
  14 I  ( 0.000000,  0.000000, -0.046951)
  15 I  ( 0.000000,  0.000000, -0.046912)

Energy contributions relative to reference atoms: (reference = -2434708.556191)

Kinetic:        +23.023872
Potential:      -37.035974
External:        +0.000000
XC:             -56.556343
Entropy (-ST):   -0.000000
Local:           +0.174788
--------------------------
Free energy:    -70.393656
Extrapolated:   -70.393656

Spin contamination: 1.121311 electrons
Showing only first 2 kpts
                      Up                     Down
 Kpt  Band  Eigenvalues  Occupancy  Eigenvalues  Occupancy
  0    52     -2.13848    1.00000     -0.01120    0.00000
  0    53     -2.10306    1.00000      0.00421    0.00000
  0    54     -2.01929    1.00000      0.18131    0.00000
  0    55     -2.01826    1.00000      0.21223    0.00000

  1    52     -2.11810    1.00000     -0.01862    0.00000
  1    53     -2.07406    1.00000      0.01981    0.00000
  1    54     -2.02004    1.00000      0.17066    0.00000
  1    55     -1.98955    1.00000      0.20953    0.00000


Fermi level: -1.19450

Gap: 0.969 eV
Transition (v -> c):
  (s=0, k=138, n=59, [0.46, 0.04, 0.00]) -> (s=0, k=72, n=60, [0.04, -0.46, 0.00])
Writing to born-0.01-5z+.gpw (mode='all')

Timing:                              incl.     excl.
-----------------------------------------------------------
Hamiltonian:                         2.759     0.011   0.0% |
 Atomic:                             1.268     1.268   0.0% |
  XC Correction:                     0.000     0.000   0.0% |
 Calculate atomic Hamiltonians:      0.325     0.325   0.0% |
 Communicate:                        0.000     0.000   0.0% |
 Initialize Hamiltonian:             0.004     0.004   0.0% |
 Poisson:                            0.012     0.012   0.0% |
 XC 3D grid:                         1.139     1.139   0.0% |
LCAO initialization:                21.186     0.141   0.0% |
 LCAO eigensolver:                   3.318     0.001   0.0% |
  Calculate projections:             0.004     0.004   0.0% |
  DenseAtomicCorrection:             0.005     0.005   0.0% |
  Distribute overlap matrix:         0.000     0.000   0.0% |
  Orbital Layouts:                   0.016     0.016   0.0% |
  Potential matrix:                  3.281     3.281   0.1% |
  Sum over cells:                    0.012     0.012   0.0% |
 LCAO to grid:                      17.446    17.446   0.3% |
 Set positions (LCAO WFS):           0.281     0.050   0.0% |
  Basic WFS set positions:           0.001     0.001   0.0% |
  Basis functions set positions:     0.000     0.000   0.0% |
  P tci:                             0.123     0.123   0.0% |
  ST tci:                            0.064     0.064   0.0% |
  mktci:                             0.043     0.043   0.0% |
PWDescriptor:                        0.088     0.088   0.0% |
SCF-cycle:                        2085.083   501.558   9.4% |---|
 Davidson:                        1275.258   213.116   4.0% |-|
  Apply H:                         213.953   207.460   3.9% |-|
   HMM T:                            6.493     6.493   0.1% |
  Subspace diag:                   263.185     0.054   0.0% |
   calc_h_matrix:                  232.865    18.039   0.3% |
    Apply H:                       214.826   207.960   3.9% |-|
     HMM T:                          6.866     6.866   0.1% |
   diagonalize:                      0.496     0.496   0.0% |
   rotate_psi:                      29.770    29.770   0.6% |
  calc. matrices:                  526.947   103.146   1.9% ||
   Apply H:                        423.801   410.839   7.7% |--|
    HMM T:                          12.963    12.963   0.2% |
  diagonalize:                       4.671     4.671   0.1% |
  rotate_psi:                       53.386    53.386   1.0% |
 Density:                          206.341     0.002   0.0% |
  Atomic density matrices:           0.286     0.286   0.0% |
  Mix:                              35.216    35.216   0.7% |
  Multipole moments:                 0.018     0.018   0.0% |
  Pseudo density:                  170.819   170.816   3.2% ||
   Symmetrize density:               0.003     0.003   0.0% |
 Forces:                            19.820    19.820   0.4% |
 Hamiltonian:                       80.497     0.646   0.0% |
  Atomic:                            5.735     5.735   0.1% |
   XC Correction:                    0.000     0.000   0.0% |
  Calculate atomic Hamiltonians:    25.819    25.819   0.5% |
  Communicate:                       0.007     0.007   0.0% |
  Poisson:                           0.454     0.454   0.0% |
  XC 3D grid:                       47.837    47.837   0.9% |
 Orthonormalize:                     1.608     0.002   0.0% |
  calc_s_matrix:                     0.219     0.219   0.0% |
  inverse-cholesky:                  0.004     0.004   0.0% |
  projections:                       0.987     0.987   0.0% |
  rotate_psi_s:                      0.397     0.397   0.0% |
Set symmetry:                        0.000     0.000   0.0% |
Other:                            3224.541  3224.541  60.5% |-----------------------|
-----------------------------------------------------------
Total:                                      5333.657 100.0%

Memory usage: 39.14 GiB
Date: Mon Jun 27 03:25:14 2022
