
  ___ ___ ___ _ _ _  
 |   |   |_  | | | | 
 | | | | | . | | | | 
 |__ |  _|___|_____|  21.6.1b1
 |___|_|             

User:   madkru@c007.nifl.fysik.dtu.dk
Date:   Tue Jun 28 16:06:42 2022
Arch:   x86_64
Pid:    215850
Python: 3.8.6
gpaw:   /home/niflheim/madkru/new_venv/gpaw/gpaw (1f0dfc9eae)
_gpaw:  /home/niflheim/madkru/new_venv/gpaw/build/lib.linux-x86_64-skylake-3.8/
        _gpaw.cpython-38-x86_64-linux-gnu.so (c1e45bfab3)
ase:    /home/niflheim/madkru/new_venv/ase/ase (version 3.23.0b1-ca38c75a67)
numpy:  /home/modules/software/SciPy-bundle/2020.11-foss-2020b/lib/python3.8/site-packages/numpy (version 1.19.4)
scipy:  /home/modules/software/SciPy-bundle/2020.11-foss-2020b/lib/python3.8/site-packages/scipy (version 1.5.4)
libxc:  4.3.4
units:  Angstrom and eV
cores: 40
OpenMP: False
OMP_NUM_THREADS: 1

Input parameters:
  convergence: {bands: occupied,
                density: 0.0001,
                eigenstates: 4e-08,
                energy: 0.0005,
                forces: 0.0001}
  kpts: [12 12  1]
  mode: {ecut: 600.0,
         gammacentered: False,
         name: pw}
  occupations: {fixmagmom: False,
                name: fermi-dirac,
                width: 0.001}
  symmetry: {point_group: False,
             time_reversal: False}

System changes: positions, numbers, cell, pbc, initial_charges, initial_magmoms 

Initialize ...

Cr-setup:
  name: Chromium
  id: 444e8044bc0f91048286c984738d87f5
  Z: 24.0
  valence: 6
  core: 18
  charge: 0.0
  file: /home/modules/software/GPAW-setups/0.9.20000/Cr.LDA.gz
  compensation charges: gauss, rc=0.35, lmax=2
  cutoffs: 2.14(filt), 3.04(core),
  valence states:
                energy  radius
    4s(1.00)    -4.191   1.164
    4p(0.00)    -1.079   1.217
    3d(5.00)    -3.128   1.111
    *s          23.021   1.164
    *p          26.132   1.217
    *d          24.083   1.111

  Using partial waves for Cr as LCAO basis

I-setup:
  name: Iodine
  id: b559721c0c096a7b4c8fc0e0f4de5cf4
  Z: 53.0
  valence: 7
  core: 46
  charge: 0.0
  file: /home/modules/software/GPAW-setups/0.9.20000/I.LDA.gz
  compensation charges: gauss, rc=0.37, lmax=2
  cutoffs: 2.06(filt), 2.90(core),
  valence states:
                energy  radius
    5s(2.00)   -17.626   1.164
    5p(5.00)    -7.241   1.164
    *s           9.585   1.164
    *p          19.970   1.164
    *d           0.000   1.164

  Using partial waves for I as LCAO basis

Reference energy: -2434708.556191

Spin-polarized calculation.
Magnetic moment: 12.175341

Convergence criteria:
  Maximum total energy change: 0.0005 eV / electron
  Maximum integral of absolute density change: 0.0001 electrons
  Maximum integral of absolute eigenstate change: 4e-08 eV^2
  Maximum change in atomic force: 0.0001 eV / Ang
  Maximum number of iterations: 333

Symmetries present (total): 1

  ( 1  0  0)
  ( 0  1  0)
  ( 0  0  1)

144 k-points: 12 x 12 x 1 Monkhorst-Pack grid
144 k-points in the irreducible part of the Brillouin zone
       k-points in crystal coordinates                weights
   0:    -0.45833333   -0.45833333    0.00000000          1/144
   1:    -0.45833333   -0.37500000    0.00000000          1/144
   2:    -0.45833333   -0.29166667    0.00000000          1/144
   3:    -0.45833333   -0.20833333    0.00000000          1/144
   4:    -0.45833333   -0.12500000    0.00000000          1/144
   5:    -0.45833333   -0.04166667    0.00000000          1/144
   6:    -0.45833333    0.04166667    0.00000000          1/144
   7:    -0.45833333    0.12500000    0.00000000          1/144
   8:    -0.45833333    0.20833333    0.00000000          1/144
   9:    -0.45833333    0.29166667    0.00000000          1/144
          ...
 143:     0.45833333    0.45833333    0.00000000          1/144

Wave functions: Plane wave expansion
  Cutoff energy: 600.000 eV
  Number of coefficients (min, max): 39797, 39902
  Pulay-stress correction: 0.000000 eV/Ang^3 (de/decut=0.000000)
  Using FFTW library
  ScaLapack parameters: grid=1x1, blocksize=None
  Wavefunction extrapolation:
    Improved wavefunction reuse through dual PAW basis 

Occupation numbers: Fermi-Dirac: width=0.0010 eV
 

Eigensolver
   Davidson(niter=2) 

Densities:
  Coarse grid: 42*42*160 grid
  Fine grid: 84*84*320 grid
  Total Charge: 0.000000 

Density mixing:
  Method: difference
  Backend: pulay
  Linear mixing parameter: 0.05
  Mixing with 5 old densities
  Damping of long wave oscillations: 50 

Hamiltonian:
  XC and Coulomb potentials evaluated on a 84*84*320 grid
  Using the LDA Exchange-Correlation functional
  External potential:
    <gpaw.external.NoExternalPotential object at 0x2b89650d94c0>
 

Memory estimate:
  Process memory now: 39889.23 MiB
  Calculator: 580.26 MiB
    Density: 158.40 MiB
      Arrays: 75.37 MiB
      Localized functions: 52.88 MiB
      Mixer: 30.15 MiB
    Hamiltonian: 57.28 MiB
      Arrays: 55.99 MiB
      XC: 0.00 MiB
      Poisson: 0.00 MiB
      vbar: 1.29 MiB
    Wavefunctions: 364.58 MiB
      Arrays psit_nG: 281.29 MiB
      Eigensolver: 50.83 MiB
      Projections: 1.61 MiB
      Projectors: 18.26 MiB
      PW-descriptor: 12.59 MiB

Total number of cores used: 40
Parallelization over k-points: 40

Number of atoms: 16
Number of atomic orbitals: 84
Number of bands in calculation: 77
Number of valence electrons: 108
Bands to converge: occupied

... initialized

Initializing position-dependent things.

Density initialized from atomic densities
Creating initial wave functions:
  77 bands from LCAO basis set

                                       
                                       
                                       
                                       
                      I                
                            I          
                   I                   
                       Cr  I           
             Cr                        
                 I                     
                         I             
                     I                 
                             I         
               Cr                      
                   I   Cr              
          I                            
                 I                     
                        I              
                                       
                                       
                                       
                                       

Positions:
   0 Cr     0.889135    0.000185   -3.063135    ( 0.0000,  0.0000,  3.4336)
   1 Cr    -2.666158    2.052642   -3.080223    ( 0.0000,  0.0000,  3.4336)
   2 I      1.822012   -2.046247   -4.559876    ( 0.0000,  0.0000, -0.1299)
   3 I     -1.348662    0.216415   -4.560605    ( 0.0000,  0.0000, -0.1299)
   4 I     -4.915070    1.830062   -4.560598    ( 0.0000,  0.0000, -0.1299)
   5 I     -0.074828   -2.063434   -1.594960    ( 0.0000,  0.0000, -0.1299)
   6 I     -0.416551    1.865690   -1.594231    ( 0.0000,  0.0000, -0.1299)
   7 I      3.157525    0.197989   -1.594234    ( 0.0000,  0.0000, -0.1299)
   8 Cr    -2.666887   -2.052642    3.080226    ( 0.0000,  0.0000,  3.4336)
   9 Cr     0.888546   -0.000185    3.073139    ( 0.0000,  0.0000,  3.4336)
  10 I      1.852510    2.063434    1.594959    ( 0.0000,  0.0000, -0.1299)
  11 I      2.194233   -1.865690    1.594230    ( 0.0000,  0.0000, -0.1299)
  12 I     -1.379843   -0.197989    1.594233    ( 0.0000,  0.0000, -0.1299)
  13 I     -0.044330    2.046247    4.559875    ( 0.0000,  0.0000, -0.1299)
  14 I      3.126343   -0.216415    4.560604    ( 0.0000,  0.0000, -0.1299)
  15 I     -0.417976   -1.830062    4.560597    ( 0.0000,  0.0000, -0.1299)

Unit cell:
           periodic     x           y           z      points  spacing
  1. axis:    yes    7.110727   -0.000000    0.000000    42     0.1466
  2. axis:    yes   -3.555363    6.158070    0.000000    42     0.1466
  3. axis:    no     0.000000   -0.000000   27.269192   160     0.1704

  Lengths:   7.110727   7.110727  27.269192
  Angles:   90.000000  90.000000 120.000000

Effective grid spacing dv^(1/3) = 0.1617

                     log10-error:           total        iterations:
           time      wfs    density  force  energy       poisson  magmom
iter:   1  16:08:02                        -76.899255             +12.1076
iter:   2  16:08:54  -0.99  -0.91          -70.502526             +9.9678
iter:   3  16:09:45  -1.83  -1.33          -70.496993             +11.0179
iter:   4  16:10:36  -1.59  -1.38          -70.962527             +12.0929
iter:   5  16:11:28  -2.54  -1.51          -70.629437             +12.0161
iter:   6  16:12:19  -1.91  -1.83          -70.401177             +12.0004
iter:   7  16:13:10  -2.97  -2.20          -70.394618             +12.0039
iter:   8  16:14:02  -3.30  -2.32          -70.389928             +12.0056
iter:   9  16:14:53  -3.67  -2.66          -70.391003             +12.0018
iter:  10  16:15:44  -3.85  -2.86          -70.391718             +11.9998
iter:  11  16:16:36  -3.99  -2.94          -70.392305             +12.0000
iter:  12  16:17:27  -4.03  -2.99          -70.392654             +12.0000
iter:  13  16:18:18  -4.10  -3.08          -70.392836             +12.0000
iter:  14  16:19:10  -4.12  -3.13          -70.392888             +12.0000
iter:  15  16:20:01  -4.26  -3.30          -70.393026             +12.0000
iter:  16  16:20:52  -4.40  -3.44          -70.393150             +12.0000
iter:  17  16:21:44  -4.49  -3.68          -70.393243             +12.0000
iter:  18  16:22:35  -4.72  -3.79          -70.393301             +12.0000
iter:  19  16:23:27  -4.90  -3.94          -70.393353             +12.0000
iter:  20  16:24:18  -4.89  -3.93          -70.393391             +12.0000
iter:  21  16:25:09  -5.15  -3.87          -70.393416             +12.0000
iter:  22  16:26:01  -5.21  -4.02          -70.393435             +12.0000
iter:  23  16:26:52  -5.29  -4.05          -70.393449             +12.0000
iter:  24  16:27:43  -5.48  -4.06          -70.393462             +12.0000
iter:  25  16:28:35  -5.55  -4.03          -70.393470             +12.0000
iter:  26  16:29:26  -5.61  -4.02          -70.393480             +12.0000
iter:  27  16:30:17  -5.79  -4.00          -70.393483             +12.0000
iter:  28  16:31:09  -5.88  -4.02          -70.393486             +12.0000
iter:  29  16:32:00  -6.05  -4.06          -70.393488             +12.0000
iter:  30  16:32:51  -6.34  -4.14          -70.393489             +12.0000
iter:  31  16:33:43  -6.39  -4.16          -70.393490             +12.0000
iter:  32  16:34:34  -6.47  -4.26          -70.393490             +12.0000
iter:  33  16:35:25  -6.53  -4.38          -70.393491             +12.0000
iter:  34  16:36:17  -6.62  -4.36          -70.393491             +12.0000
iter:  35  16:37:08  -6.69  -4.39          -70.393491             +12.0000
iter:  36  16:37:59  -6.90  -4.68          -70.393491             +12.0000
iter:  37  16:38:50  -7.04  -4.81          -70.393491             +12.0000
iter:  38  16:39:41  -7.22  -5.01          -70.393492             +12.0000
iter:  39  16:40:32  -7.34  -5.11          -70.393492             +12.0000
iter:  40  16:41:33  -7.43  -5.21          -70.393492             +12.0000
iter:  41  16:42:35  -7.52  -5.26    -3.26 -70.393492             +12.0000
iter:  42  16:43:37  -7.71  -5.52    -3.97 -70.393492             +12.0000
iter:  43  16:44:39  -7.80  -5.60    -3.91 -70.393492             +12.0000
iter:  44  16:45:41  -7.92  -5.84    -4.21 -70.393492             +12.0000

Converged after 44 iterations.

Dipole moment: (-31.570721, -0.000071, 0.010291) |e|*Ang

Total magnetic moment: (0.000000, 0.000000, 12.000000)
Local magnetic moments:
   0 Cr ( 0.000000,  0.000000,  2.911201)
   1 Cr ( 0.000000,  0.000000,  2.915359)
   2 I  ( 0.000000,  0.000000, -0.046979)
   3 I  ( 0.000000,  0.000000, -0.046937)
   4 I  ( 0.000000,  0.000000, -0.046955)
   5 I  ( 0.000000,  0.000000, -0.049704)
   6 I  ( 0.000000,  0.000000, -0.049680)
   7 I  ( 0.000000,  0.000000, -0.049691)
   8 Cr ( 0.000000,  0.000000,  2.915313)
   9 Cr ( 0.000000,  0.000000,  2.911515)
  10 I  ( 0.000000,  0.000000, -0.050069)
  11 I  ( 0.000000,  0.000000, -0.050046)
  12 I  ( 0.000000,  0.000000, -0.050057)
  13 I  ( 0.000000,  0.000000, -0.046536)
  14 I  ( 0.000000,  0.000000, -0.046492)
  15 I  ( 0.000000,  0.000000, -0.046511)

Energy contributions relative to reference atoms: (reference = -2434708.556191)

Kinetic:        +23.285848
Potential:      -37.257099
External:        +0.000000
XC:             -56.599060
Entropy (-ST):   -0.000000
Local:           +0.176819
--------------------------
Free energy:    -70.393492
Extrapolated:   -70.393492

Spin contamination: 1.119584 electrons
Showing only first 2 kpts
                      Up                     Down
 Kpt  Band  Eigenvalues  Occupancy  Eigenvalues  Occupancy
  0    52     -2.13747    1.00000     -0.01123    0.00000
  0    53     -2.10178    1.00000      0.00531    0.00000
  0    54     -2.01738    1.00000      0.18131    0.00000
  0    55     -2.01632    1.00000      0.21255    0.00000

  1    52     -2.11725    1.00000     -0.01783    0.00000
  1    53     -2.07284    1.00000      0.02080    0.00000
  1    54     -2.01832    1.00000      0.17086    0.00000
  1    55     -1.98767    1.00000      0.21064    0.00000


Fermi level: -1.19441

Gap: 0.971 eV
Transition (v -> c):
  (s=0, k=11, n=59, [-0.46, 0.46, 0.00]) -> (s=0, k=17, n=60, [-0.38, -0.04, 0.00])
Writing to born-0.01-9z+.gpw (mode='all')

Timing:                              incl.     excl.
-----------------------------------------------------------
Hamiltonian:                         2.855     0.011   0.0% |
 Atomic:                             1.365     1.365   0.0% |
  XC Correction:                     0.000     0.000   0.0% |
 Calculate atomic Hamiltonians:      0.329     0.329   0.0% |
 Communicate:                        0.000     0.000   0.0% |
 Initialize Hamiltonian:             0.004     0.004   0.0% |
 Poisson:                            0.012     0.012   0.0% |
 XC 3D grid:                         1.135     1.135   0.0% |
LCAO initialization:                20.192     0.141   0.0% |
 LCAO eigensolver:                   3.055     0.001   0.0% |
  Calculate projections:             0.004     0.004   0.0% |
  DenseAtomicCorrection:             0.005     0.005   0.0% |
  Distribute overlap matrix:         0.000     0.000   0.0% |
  Orbital Layouts:                   0.016     0.016   0.0% |
  Potential matrix:                  3.018     3.018   0.1% |
  Sum over cells:                    0.011     0.011   0.0% |
 LCAO to grid:                      16.715    16.715   0.3% |
 Set positions (LCAO WFS):           0.281     0.050   0.0% |
  Basic WFS set positions:           0.001     0.001   0.0% |
  Basis functions set positions:     0.000     0.000   0.0% |
  P tci:                             0.123     0.123   0.0% |
  ST tci:                            0.064     0.064   0.0% |
  mktci:                             0.043     0.043   0.0% |
PWDescriptor:                        0.086     0.086   0.0% |
SCF-cycle:                        2311.282   485.258   8.8% |---|
 Davidson:                        1457.815   229.474   4.1% |-|
  Apply H:                         255.412   247.995   4.5% |-|
   HMM T:                            7.417     7.417   0.1% |
  Subspace diag:                   308.396     0.063   0.0% |
   calc_h_matrix:                  275.359    19.721   0.4% |
    Apply H:                       255.637   248.085   4.5% |-|
     HMM T:                          7.553     7.553   0.1% |
   diagonalize:                      0.549     0.549   0.0% |
   rotate_psi:                      32.425    32.425   0.6% |
  calc. matrices:                  598.701   111.359   2.0% ||
   Apply H:                        487.341   473.736   8.5% |--|
    HMM T:                          13.606    13.606   0.2% |
  diagonalize:                       5.202     5.202   0.1% |
  rotate_psi:                       60.630    60.630   1.1% |
 Density:                          230.645     0.002   0.0% |
  Atomic density matrices:           0.317     0.317   0.0% |
  Mix:                              40.227    40.227   0.7% |
  Multipole moments:                 0.020     0.020   0.0% |
  Pseudo density:                  190.079   190.076   3.4% ||
   Symmetrize density:               0.003     0.003   0.0% |
 Forces:                            49.282    49.282   0.9% |
 Hamiltonian:                       86.649     0.553   0.0% |
  Atomic:                            4.457     4.457   0.1% |
   XC Correction:                    0.000     0.000   0.0% |
  Calculate atomic Hamiltonians:    29.340    29.340   0.5% |
  Communicate:                       0.009     0.009   0.0% |
  Poisson:                           0.537     0.537   0.0% |
  XC 3D grid:                       51.753    51.753   0.9% |
 Orthonormalize:                     1.633     0.002   0.0% |
  calc_s_matrix:                     0.223     0.223   0.0% |
  inverse-cholesky:                  0.004     0.004   0.0% |
  projections:                       1.004     1.004   0.0% |
  rotate_psi_s:                      0.401     0.401   0.0% |
Set symmetry:                        0.000     0.000   0.0% |
Other:                            3206.886  3206.886  57.9% |----------------------|
-----------------------------------------------------------
Total:                                      5541.300 100.0%

Memory usage: 39.02 GiB
Date: Tue Jun 28 17:39:03 2022
