
  ___ ___ ___ _ _ _  
 |   |   |_  | | | | 
 | | | | | . | | | | 
 |__ |  _|___|_____|  21.6.1b1
 |___|_|             

User:   madkru@c007.nifl.fysik.dtu.dk
Date:   Tue Jun 28 18:42:58 2022
Arch:   x86_64
Pid:    215850
Python: 3.8.6
gpaw:   /home/niflheim/madkru/new_venv/gpaw/gpaw (1f0dfc9eae)
_gpaw:  /home/niflheim/madkru/new_venv/gpaw/build/lib.linux-x86_64-skylake-3.8/
        _gpaw.cpython-38-x86_64-linux-gnu.so (c1e45bfab3)
ase:    /home/niflheim/madkru/new_venv/ase/ase (version 3.23.0b1-ca38c75a67)
numpy:  /home/modules/software/SciPy-bundle/2020.11-foss-2020b/lib/python3.8/site-packages/numpy (version 1.19.4)
scipy:  /home/modules/software/SciPy-bundle/2020.11-foss-2020b/lib/python3.8/site-packages/scipy (version 1.5.4)
libxc:  4.3.4
units:  Angstrom and eV
cores: 40
OpenMP: False
OMP_NUM_THREADS: 1

Input parameters:
  convergence: {bands: occupied,
                density: 0.0001,
                eigenstates: 4e-08,
                energy: 0.0005,
                forces: 0.0001}
  kpts: [12 12  1]
  mode: {ecut: 600.0,
         gammacentered: False,
         name: pw}
  occupations: {fixmagmom: False,
                name: fermi-dirac,
                width: 0.001}
  symmetry: {point_group: False,
             time_reversal: False}

System changes: positions, numbers, cell, pbc, initial_charges, initial_magmoms 

Initialize ...

Cr-setup:
  name: Chromium
  id: 444e8044bc0f91048286c984738d87f5
  Z: 24.0
  valence: 6
  core: 18
  charge: 0.0
  file: /home/modules/software/GPAW-setups/0.9.20000/Cr.LDA.gz
  compensation charges: gauss, rc=0.35, lmax=2
  cutoffs: 2.14(filt), 3.04(core),
  valence states:
                energy  radius
    4s(1.00)    -4.191   1.164
    4p(0.00)    -1.079   1.217
    3d(5.00)    -3.128   1.111
    *s          23.021   1.164
    *p          26.132   1.217
    *d          24.083   1.111

  Using partial waves for Cr as LCAO basis

I-setup:
  name: Iodine
  id: b559721c0c096a7b4c8fc0e0f4de5cf4
  Z: 53.0
  valence: 7
  core: 46
  charge: 0.0
  file: /home/modules/software/GPAW-setups/0.9.20000/I.LDA.gz
  compensation charges: gauss, rc=0.37, lmax=2
  cutoffs: 2.06(filt), 2.90(core),
  valence states:
                energy  radius
    5s(2.00)   -17.626   1.164
    5p(5.00)    -7.241   1.164
    *s           9.585   1.164
    *p          19.970   1.164
    *d           0.000   1.164

  Using partial waves for I as LCAO basis

Reference energy: -2434708.556191

Spin-polarized calculation.
Magnetic moment: 12.175341

Convergence criteria:
  Maximum total energy change: 0.0005 eV / electron
  Maximum integral of absolute density change: 0.0001 electrons
  Maximum integral of absolute eigenstate change: 4e-08 eV^2
  Maximum change in atomic force: 0.0001 eV / Ang
  Maximum number of iterations: 333

Symmetries present (total): 1

  ( 1  0  0)
  ( 0  1  0)
  ( 0  0  1)

144 k-points: 12 x 12 x 1 Monkhorst-Pack grid
144 k-points in the irreducible part of the Brillouin zone
       k-points in crystal coordinates                weights
   0:    -0.45833333   -0.45833333    0.00000000          1/144
   1:    -0.45833333   -0.37500000    0.00000000          1/144
   2:    -0.45833333   -0.29166667    0.00000000          1/144
   3:    -0.45833333   -0.20833333    0.00000000          1/144
   4:    -0.45833333   -0.12500000    0.00000000          1/144
   5:    -0.45833333   -0.04166667    0.00000000          1/144
   6:    -0.45833333    0.04166667    0.00000000          1/144
   7:    -0.45833333    0.12500000    0.00000000          1/144
   8:    -0.45833333    0.20833333    0.00000000          1/144
   9:    -0.45833333    0.29166667    0.00000000          1/144
          ...
 143:     0.45833333    0.45833333    0.00000000          1/144

Wave functions: Plane wave expansion
  Cutoff energy: 600.000 eV
  Number of coefficients (min, max): 39797, 39902
  Pulay-stress correction: 0.000000 eV/Ang^3 (de/decut=0.000000)
  Using FFTW library
  ScaLapack parameters: grid=1x1, blocksize=None
  Wavefunction extrapolation:
    Improved wavefunction reuse through dual PAW basis 

Occupation numbers: Fermi-Dirac: width=0.0010 eV
 

Eigensolver
   Davidson(niter=2) 

Densities:
  Coarse grid: 42*42*160 grid
  Fine grid: 84*84*320 grid
  Total Charge: 0.000000 

Density mixing:
  Method: difference
  Backend: pulay
  Linear mixing parameter: 0.05
  Mixing with 5 old densities
  Damping of long wave oscillations: 50 

Hamiltonian:
  XC and Coulomb potentials evaluated on a 84*84*320 grid
  Using the LDA Exchange-Correlation functional
  External potential:
    <gpaw.external.NoExternalPotential object at 0x2b89651a48b0>
 

Memory estimate:
  Process memory now: 39976.20 MiB
  Calculator: 580.26 MiB
    Density: 158.40 MiB
      Arrays: 75.37 MiB
      Localized functions: 52.88 MiB
      Mixer: 30.15 MiB
    Hamiltonian: 57.28 MiB
      Arrays: 55.99 MiB
      XC: 0.00 MiB
      Poisson: 0.00 MiB
      vbar: 1.29 MiB
    Wavefunctions: 364.58 MiB
      Arrays psit_nG: 281.29 MiB
      Eigensolver: 50.83 MiB
      Projections: 1.61 MiB
      Projectors: 18.26 MiB
      PW-descriptor: 12.59 MiB

Total number of cores used: 40
Parallelization over k-points: 40

Number of atoms: 16
Number of atomic orbitals: 84
Number of bands in calculation: 77
Number of valence electrons: 108
Bands to converge: occupied

... initialized

Initializing position-dependent things.

Density initialized from atomic densities
Creating initial wave functions:
  77 bands from LCAO basis set

                                       
                                       
                                       
                                       
                      I                
                            I          
                   I                   
                       Cr  I           
             Cr                        
                 I                     
                         I             
                     I                 
                             I         
               Cr                      
                   I   Cr              
          I                            
                 I                     
                        I              
                                       
                                       
                                       
                                       

Positions:
   0 Cr     0.889135    0.000185   -3.063135    ( 0.0000,  0.0000,  3.4336)
   1 Cr    -2.666158    2.052642   -3.080223    ( 0.0000,  0.0000,  3.4336)
   2 I      1.822012   -2.046247   -4.559876    ( 0.0000,  0.0000, -0.1299)
   3 I     -1.348662    0.216415   -4.560605    ( 0.0000,  0.0000, -0.1299)
   4 I     -4.915070    1.830062   -4.560598    ( 0.0000,  0.0000, -0.1299)
   5 I     -0.074828   -2.063434   -1.594960    ( 0.0000,  0.0000, -0.1299)
   6 I     -0.416551    1.865690   -1.594231    ( 0.0000,  0.0000, -0.1299)
   7 I      3.157525    0.197989   -1.594234    ( 0.0000,  0.0000, -0.1299)
   8 Cr    -2.666887   -2.052642    3.080226    ( 0.0000,  0.0000,  3.4336)
   9 Cr     0.888546   -0.000185    3.063139    ( 0.0000,  0.0000,  3.4336)
  10 I      1.852510    2.053434    1.594959    ( 0.0000,  0.0000, -0.1299)
  11 I      2.194233   -1.865690    1.594230    ( 0.0000,  0.0000, -0.1299)
  12 I     -1.379843   -0.197989    1.594233    ( 0.0000,  0.0000, -0.1299)
  13 I     -0.044330    2.046247    4.559875    ( 0.0000,  0.0000, -0.1299)
  14 I      3.126343   -0.216415    4.560604    ( 0.0000,  0.0000, -0.1299)
  15 I     -0.417976   -1.830062    4.560597    ( 0.0000,  0.0000, -0.1299)

Unit cell:
           periodic     x           y           z      points  spacing
  1. axis:    yes    7.110727   -0.000000    0.000000    42     0.1466
  2. axis:    yes   -3.555363    6.158070    0.000000    42     0.1466
  3. axis:    no     0.000000   -0.000000   27.269192   160     0.1704

  Lengths:   7.110727   7.110727  27.269192
  Angles:   90.000000  90.000000 120.000000

Effective grid spacing dv^(1/3) = 0.1617

                     log10-error:           total        iterations:
           time      wfs    density  force  energy       poisson  magmom
iter:   1  18:44:18                        -76.901090             +12.1076
iter:   2  18:45:09  -0.99  -0.91          -70.502864             +9.9591
iter:   3  18:46:01  -1.83  -1.33          -70.496940             +11.0135
iter:   4  18:46:52  -1.58  -1.38          -70.967502             +12.0928
iter:   5  18:47:44  -2.53  -1.51          -70.628521             +12.0160
iter:   6  18:48:35  -1.91  -1.83          -70.402219             +12.0005
iter:   7  18:49:27  -2.97  -2.20          -70.395216             +12.0039
iter:   8  18:50:18  -3.31  -2.32          -70.390006             +12.0056
iter:   9  18:51:10  -3.68  -2.67          -70.391169             +12.0017
iter:  10  18:52:01  -3.86  -2.86          -70.391853             +11.9998
iter:  11  18:52:53  -3.99  -2.94          -70.392425             +12.0000
iter:  12  18:53:44  -3.99  -3.03          -70.392740             +12.0000
iter:  13  18:54:35  -4.05  -3.10          -70.392950             +12.0000
iter:  14  18:55:27  -4.10  -3.15          -70.393053             +12.0000
iter:  15  18:56:18  -4.19  -3.27          -70.393215             +12.0000
iter:  16  18:57:10  -4.34  -3.32          -70.393337             +12.0000
iter:  17  18:58:01  -4.60  -3.38          -70.393395             +12.0000
iter:  18  18:58:53  -4.76  -3.56          -70.393465             +12.0000
iter:  19  18:59:44  -4.90  -3.66          -70.393513             +12.0000
iter:  20  19:00:36  -5.01  -3.74          -70.393554             +12.0000
iter:  21  19:01:27  -5.18  -4.21          -70.393580             +12.0000
iter:  22  19:02:19  -5.17  -4.24          -70.393600             +12.0000
iter:  23  19:03:10  -5.30  -4.22          -70.393618             +12.0000
iter:  24  19:04:02  -5.51  -4.13          -70.393629             +12.0000
iter:  25  19:04:53  -5.64  -4.18          -70.393636             +12.0000
iter:  26  19:05:45  -5.78  -4.21          -70.393642             +12.0000
iter:  27  19:06:36  -5.87  -4.25          -70.393645             +12.0000
iter:  28  19:07:28  -6.03  -4.31          -70.393649             +12.0000
iter:  29  19:08:19  -6.19  -4.26          -70.393651             +12.0000
iter:  30  19:09:11  -6.33  -4.44          -70.393653             +12.0000
iter:  31  19:10:02  -6.47  -4.51          -70.393654             +12.0000
iter:  32  19:10:54  -6.71  -4.84          -70.393655             +12.0000
iter:  33  19:11:45  -6.75  -5.03          -70.393655             +12.0000
iter:  34  19:12:36  -6.80  -5.23          -70.393655             +12.0000
iter:  35  19:13:27  -7.02  -5.31          -70.393656             +12.0000
iter:  36  19:14:19  -7.22  -5.52          -70.393656             +12.0000
iter:  37  19:15:10  -7.32  -5.54          -70.393656             +12.0000
iter:  38  19:16:11  -7.43  -5.56          -70.393656             +12.0000
iter:  39  19:17:13  -7.53  -5.44    -4.17 -70.393656             +12.0000

Converged after 39 iterations.

Dipole moment: (-31.569038, -0.003984, 0.001965) |e|*Ang

Total magnetic moment: (0.000000, 0.000000, 12.000000)
Local magnetic moments:
   0 Cr ( 0.000000,  0.000000,  2.911236)
   1 Cr ( 0.000000,  0.000000,  2.915434)
   2 I  ( 0.000000,  0.000000, -0.046976)
   3 I  ( 0.000000,  0.000000, -0.046931)
   4 I  ( 0.000000,  0.000000, -0.046963)
   5 I  ( 0.000000,  0.000000, -0.049669)
   6 I  ( 0.000000,  0.000000, -0.049644)
   7 I  ( 0.000000,  0.000000, -0.049691)
   8 Cr ( 0.000000,  0.000000,  2.917509)
   9 Cr ( 0.000000,  0.000000,  2.909288)
  10 I  ( 0.000000,  0.000000, -0.049680)
  11 I  ( 0.000000,  0.000000, -0.049715)
  12 I  ( 0.000000,  0.000000, -0.049577)
  13 I  ( 0.000000,  0.000000, -0.046988)
  14 I  ( 0.000000,  0.000000, -0.047155)
  15 I  ( 0.000000,  0.000000, -0.046701)

Energy contributions relative to reference atoms: (reference = -2434708.556191)

Kinetic:        +23.267954
Potential:      -37.240666
External:        +0.000000
XC:             -56.597434
Entropy (-ST):   -0.000000
Local:           +0.176489
--------------------------
Free energy:    -70.393656
Extrapolated:   -70.393656

Spin contamination: 1.119656 electrons
Showing only first 2 kpts
                      Up                     Down
 Kpt  Band  Eigenvalues  Occupancy  Eigenvalues  Occupancy
  0    52     -2.13865    1.00000     -0.01256    0.00000
  0    53     -2.10274    1.00000      0.00358    0.00000
  0    54     -2.01972    1.00000      0.18049    0.00000
  0    55     -2.01861    1.00000      0.21134    0.00000

  1    52     -2.11803    1.00000     -0.01995    0.00000
  1    53     -2.07384    1.00000      0.01945    0.00000
  1    54     -2.02021    1.00000      0.17009    0.00000
  1    55     -1.98975    1.00000      0.20893    0.00000


Fermi level: -1.19483

Gap: 0.970 eV
Transition (v -> c):
  (s=0, k=138, n=59, [0.46, 0.04, 0.00]) -> (s=0, k=17, n=60, [-0.38, -0.04, 0.00])
Writing to born-0.01-10y-.gpw (mode='all')

Timing:                              incl.     excl.
-----------------------------------------------------------
Hamiltonian:                         2.972     0.011   0.0% |
 Atomic:                             1.480     1.480   0.0% |
  XC Correction:                     0.000     0.000   0.0% |
 Calculate atomic Hamiltonians:      0.327     0.327   0.0% |
 Communicate:                        0.000     0.000   0.0% |
 Initialize Hamiltonian:             0.004     0.004   0.0% |
 Poisson:                            0.013     0.013   0.0% |
 XC 3D grid:                         1.138     1.138   0.0% |
LCAO initialization:                20.181     0.145   0.0% |
 LCAO eigensolver:                   3.059     0.001   0.0% |
  Calculate projections:             0.004     0.004   0.0% |
  DenseAtomicCorrection:             0.005     0.005   0.0% |
  Distribute overlap matrix:         0.000     0.000   0.0% |
  Orbital Layouts:                   0.016     0.016   0.0% |
  Potential matrix:                  3.022     3.022   0.1% |
  Sum over cells:                    0.011     0.011   0.0% |
 LCAO to grid:                      16.698    16.698   0.3% |
 Set positions (LCAO WFS):           0.280     0.050   0.0% |
  Basic WFS set positions:           0.001     0.001   0.0% |
  Basis functions set positions:     0.000     0.000   0.0% |
  P tci:                             0.123     0.123   0.0% |
  ST tci:                            0.064     0.064   0.0% |
  mktci:                             0.043     0.043   0.0% |
PWDescriptor:                        0.087     0.087   0.0% |
SCF-cycle:                        2028.231   445.233   8.0% |--|
 Davidson:                        1283.545   200.190   3.6% ||
  Apply H:                         225.853   218.379   3.9% |-|
   HMM T:                            7.474     7.474   0.1% |
  Subspace diag:                   271.089     0.056   0.0% |
   calc_h_matrix:                  240.225    17.009   0.3% |
    Apply H:                       223.216   215.727   3.9% |-|
     HMM T:                          7.489     7.489   0.1% |
   diagonalize:                      0.485     0.485   0.0% |
   rotate_psi:                      30.323    30.323   0.5% |
  calc. matrices:                  528.809    94.989   1.7% ||
   Apply H:                        433.820   419.740   7.6% |--|
    HMM T:                          14.081    14.081   0.3% |
  diagonalize:                       4.602     4.602   0.1% |
  rotate_psi:                       53.001    53.001   1.0% |
 Density:                          201.571     0.002   0.0% |
  Atomic density matrices:           0.271     0.271   0.0% |
  Mix:                              35.494    35.494   0.6% |
  Multipole moments:                 0.018     0.018   0.0% |
  Pseudo density:                  165.786   165.784   3.0% ||
   Symmetrize density:               0.002     0.002   0.0% |
 Forces:                            19.743    19.743   0.4% |
 Hamiltonian:                       76.546     0.489   0.0% |
  Atomic:                            4.126     4.126   0.1% |
   XC Correction:                    0.000     0.000   0.0% |
  Calculate atomic Hamiltonians:    25.566    25.566   0.5% |
  Communicate:                       0.008     0.008   0.0% |
  Poisson:                           0.477     0.477   0.0% |
  XC 3D grid:                       45.879    45.879   0.8% |
 Orthonormalize:                     1.593     0.001   0.0% |
  calc_s_matrix:                     0.216     0.216   0.0% |
  inverse-cholesky:                  0.004     0.004   0.0% |
  projections:                       0.974     0.974   0.0% |
  rotate_psi_s:                      0.398     0.398   0.0% |
Set symmetry:                        0.000     0.000   0.0% |
Other:                            3505.408  3505.408  63.1% |------------------------|
-----------------------------------------------------------
Total:                                      5556.879 100.0%

Memory usage: 39.04 GiB
Date: Tue Jun 28 20:15:35 2022
