
  ___ ___ ___ _ _ _  
 |   |   |_  | | | | 
 | | | | | . | | | | 
 |__ |  _|___|_____|  21.6.1b1
 |___|_|             

User:   madkru@c007.nifl.fysik.dtu.dk
Date:   Tue Jun 28 19:31:03 2022
Arch:   x86_64
Pid:    215850
Python: 3.8.6
gpaw:   /home/niflheim/madkru/new_venv/gpaw/gpaw (1f0dfc9eae)
_gpaw:  /home/niflheim/madkru/new_venv/gpaw/build/lib.linux-x86_64-skylake-3.8/
        _gpaw.cpython-38-x86_64-linux-gnu.so (c1e45bfab3)
ase:    /home/niflheim/madkru/new_venv/ase/ase (version 3.23.0b1-ca38c75a67)
numpy:  /home/modules/software/SciPy-bundle/2020.11-foss-2020b/lib/python3.8/site-packages/numpy (version 1.19.4)
scipy:  /home/modules/software/SciPy-bundle/2020.11-foss-2020b/lib/python3.8/site-packages/scipy (version 1.5.4)
libxc:  4.3.4
units:  Angstrom and eV
cores: 40
OpenMP: False
OMP_NUM_THREADS: 1

Input parameters:
  convergence: {bands: occupied,
                density: 0.0001,
                eigenstates: 4e-08,
                energy: 0.0005,
                forces: 0.0001}
  kpts: [12 12  1]
  mode: {ecut: 600.0,
         gammacentered: False,
         name: pw}
  occupations: {fixmagmom: False,
                name: fermi-dirac,
                width: 0.001}
  symmetry: {point_group: False,
             time_reversal: False}

System changes: positions, numbers, cell, pbc, initial_charges, initial_magmoms 

Initialize ...

Cr-setup:
  name: Chromium
  id: 444e8044bc0f91048286c984738d87f5
  Z: 24.0
  valence: 6
  core: 18
  charge: 0.0
  file: /home/modules/software/GPAW-setups/0.9.20000/Cr.LDA.gz
  compensation charges: gauss, rc=0.35, lmax=2
  cutoffs: 2.14(filt), 3.04(core),
  valence states:
                energy  radius
    4s(1.00)    -4.191   1.164
    4p(0.00)    -1.079   1.217
    3d(5.00)    -3.128   1.111
    *s          23.021   1.164
    *p          26.132   1.217
    *d          24.083   1.111

  Using partial waves for Cr as LCAO basis

I-setup:
  name: Iodine
  id: b559721c0c096a7b4c8fc0e0f4de5cf4
  Z: 53.0
  valence: 7
  core: 46
  charge: 0.0
  file: /home/modules/software/GPAW-setups/0.9.20000/I.LDA.gz
  compensation charges: gauss, rc=0.37, lmax=2
  cutoffs: 2.06(filt), 2.90(core),
  valence states:
                energy  radius
    5s(2.00)   -17.626   1.164
    5p(5.00)    -7.241   1.164
    *s           9.585   1.164
    *p          19.970   1.164
    *d           0.000   1.164

  Using partial waves for I as LCAO basis

Reference energy: -2434708.556191

Spin-polarized calculation.
Magnetic moment: 12.175341

Convergence criteria:
  Maximum total energy change: 0.0005 eV / electron
  Maximum integral of absolute density change: 0.0001 electrons
  Maximum integral of absolute eigenstate change: 4e-08 eV^2
  Maximum change in atomic force: 0.0001 eV / Ang
  Maximum number of iterations: 333

Symmetries present (total): 1

  ( 1  0  0)
  ( 0  1  0)
  ( 0  0  1)

144 k-points: 12 x 12 x 1 Monkhorst-Pack grid
144 k-points in the irreducible part of the Brillouin zone
       k-points in crystal coordinates                weights
   0:    -0.45833333   -0.45833333    0.00000000          1/144
   1:    -0.45833333   -0.37500000    0.00000000          1/144
   2:    -0.45833333   -0.29166667    0.00000000          1/144
   3:    -0.45833333   -0.20833333    0.00000000          1/144
   4:    -0.45833333   -0.12500000    0.00000000          1/144
   5:    -0.45833333   -0.04166667    0.00000000          1/144
   6:    -0.45833333    0.04166667    0.00000000          1/144
   7:    -0.45833333    0.12500000    0.00000000          1/144
   8:    -0.45833333    0.20833333    0.00000000          1/144
   9:    -0.45833333    0.29166667    0.00000000          1/144
          ...
 143:     0.45833333    0.45833333    0.00000000          1/144

Wave functions: Plane wave expansion
  Cutoff energy: 600.000 eV
  Number of coefficients (min, max): 39797, 39902
  Pulay-stress correction: 0.000000 eV/Ang^3 (de/decut=0.000000)
  Using FFTW library
  ScaLapack parameters: grid=1x1, blocksize=None
  Wavefunction extrapolation:
    Improved wavefunction reuse through dual PAW basis 

Occupation numbers: Fermi-Dirac: width=0.0010 eV
 

Eigensolver
   Davidson(niter=2) 

Densities:
  Coarse grid: 42*42*160 grid
  Fine grid: 84*84*320 grid
  Total Charge: 0.000000 

Density mixing:
  Method: difference
  Backend: pulay
  Linear mixing parameter: 0.05
  Mixing with 5 old densities
  Damping of long wave oscillations: 50 

Hamiltonian:
  XC and Coulomb potentials evaluated on a 84*84*320 grid
  Using the LDA Exchange-Correlation functional
  External potential:
    <gpaw.external.NoExternalPotential object at 0x2b8966a0f610>
 

Memory estimate:
  Process memory now: 39976.20 MiB
  Calculator: 580.26 MiB
    Density: 158.40 MiB
      Arrays: 75.37 MiB
      Localized functions: 52.88 MiB
      Mixer: 30.15 MiB
    Hamiltonian: 57.28 MiB
      Arrays: 55.99 MiB
      XC: 0.00 MiB
      Poisson: 0.00 MiB
      vbar: 1.29 MiB
    Wavefunctions: 364.58 MiB
      Arrays psit_nG: 281.29 MiB
      Eigensolver: 50.83 MiB
      Projections: 1.61 MiB
      Projectors: 18.26 MiB
      PW-descriptor: 12.59 MiB

Total number of cores used: 40
Parallelization over k-points: 40

Number of atoms: 16
Number of atomic orbitals: 84
Number of bands in calculation: 77
Number of valence electrons: 108
Bands to converge: occupied

... initialized

Initializing position-dependent things.

Density initialized from atomic densities
Creating initial wave functions:
  77 bands from LCAO basis set

                                       
                                       
                                       
                                       
                      I                
                            I          
                   I                   
                       Cr  I           
             Cr                        
                 I                     
                         I             
                     I                 
                             I         
               Cr                      
                   I   Cr              
          I                            
                 I                     
                        I              
                                       
                                       
                                       
                                       

Positions:
   0 Cr     0.889135    0.000185   -3.063135    ( 0.0000,  0.0000,  3.4336)
   1 Cr    -2.666158    2.052642   -3.080223    ( 0.0000,  0.0000,  3.4336)
   2 I      1.822012   -2.046247   -4.559876    ( 0.0000,  0.0000, -0.1299)
   3 I     -1.348662    0.216415   -4.560605    ( 0.0000,  0.0000, -0.1299)
   4 I     -4.915070    1.830062   -4.560598    ( 0.0000,  0.0000, -0.1299)
   5 I     -0.074828   -2.063434   -1.594960    ( 0.0000,  0.0000, -0.1299)
   6 I     -0.416551    1.865690   -1.594231    ( 0.0000,  0.0000, -0.1299)
   7 I      3.157525    0.197989   -1.594234    ( 0.0000,  0.0000, -0.1299)
   8 Cr    -2.666887   -2.052642    3.080226    ( 0.0000,  0.0000,  3.4336)
   9 Cr     0.888546   -0.000185    3.063139    ( 0.0000,  0.0000,  3.4336)
  10 I      1.852510    2.073434    1.594959    ( 0.0000,  0.0000, -0.1299)
  11 I      2.194233   -1.865690    1.594230    ( 0.0000,  0.0000, -0.1299)
  12 I     -1.379843   -0.197989    1.594233    ( 0.0000,  0.0000, -0.1299)
  13 I     -0.044330    2.046247    4.559875    ( 0.0000,  0.0000, -0.1299)
  14 I      3.126343   -0.216415    4.560604    ( 0.0000,  0.0000, -0.1299)
  15 I     -0.417976   -1.830062    4.560597    ( 0.0000,  0.0000, -0.1299)

Unit cell:
           periodic     x           y           z      points  spacing
  1. axis:    yes    7.110727   -0.000000    0.000000    42     0.1466
  2. axis:    yes   -3.555363    6.158070    0.000000    42     0.1466
  3. axis:    no     0.000000   -0.000000   27.269192   160     0.1704

  Lengths:   7.110727   7.110727  27.269192
  Angles:   90.000000  90.000000 120.000000

Effective grid spacing dv^(1/3) = 0.1617

                     log10-error:           total        iterations:
           time      wfs    density  force  energy       poisson  magmom
iter:   1  19:32:24                        -76.898176             +12.1076
iter:   2  19:33:16  -0.99  -0.91          -70.503814             +9.9635
iter:   3  19:34:08  -1.83  -1.33          -70.497264             +11.0159
iter:   4  19:34:59  -1.58  -1.38          -70.968350             +12.0927
iter:   5  19:35:51  -2.53  -1.51          -70.628673             +12.0159
iter:   6  19:36:43  -1.91  -1.83          -70.402261             +12.0005
iter:   7  19:37:35  -2.97  -2.20          -70.395259             +12.0039
iter:   8  19:38:27  -3.31  -2.31          -70.390009             +12.0055
iter:   9  19:39:19  -3.68  -2.67          -70.391169             +12.0017
iter:  10  19:40:11  -3.86  -2.86          -70.391852             +11.9998
iter:  11  19:41:03  -3.99  -2.94          -70.392425             +12.0000
iter:  12  19:41:55  -3.99  -3.04          -70.392739             +12.0000
iter:  13  19:42:47  -4.06  -3.11          -70.392950             +12.0000
iter:  14  19:43:39  -4.10  -3.15          -70.393054             +12.0000
iter:  15  19:44:31  -4.19  -3.27          -70.393216             +12.0000
iter:  16  19:45:23  -4.33  -3.32          -70.393335             +12.0000
iter:  17  19:46:15  -4.60  -3.37          -70.393393             +12.0000
iter:  18  19:47:07  -4.74  -3.56          -70.393464             +12.0000
iter:  19  19:47:59  -4.88  -3.65          -70.393511             +12.0000
iter:  20  19:48:51  -5.00  -3.74          -70.393553             +12.0000
iter:  21  19:49:43  -5.18  -4.24          -70.393581             +12.0000
iter:  22  19:50:35  -5.18  -4.25          -70.393602             +12.0000
iter:  23  19:51:27  -5.18  -4.26          -70.393616             +12.0000
iter:  24  19:52:19  -5.39  -4.16          -70.393629             +12.0000
iter:  25  19:53:11  -5.53  -4.23          -70.393637             +12.0000
iter:  26  19:54:03  -5.64  -4.22          -70.393643             +12.0000
iter:  27  19:54:55  -5.78  -4.20          -70.393648             +12.0000
iter:  28  19:55:47  -5.93  -4.23          -70.393653             +12.0000
iter:  29  19:56:39  -6.28  -4.10          -70.393654             +12.0000
iter:  30  19:57:30  -6.44  -4.24          -70.393656             +12.0000
iter:  31  19:58:22  -6.43  -4.25          -70.393657             +12.0000
iter:  32  19:59:14  -6.66  -4.23          -70.393656             +12.0000
iter:  33  20:00:06  -6.75  -4.33          -70.393657             +12.0000
iter:  34  20:00:58  -6.95  -4.31          -70.393657             +12.0000
iter:  35  20:01:50  -7.07  -4.35          -70.393657             +12.0000
iter:  36  20:02:42  -7.19  -4.44          -70.393657             +12.0000
iter:  37  20:03:34  -7.16  -4.49          -70.393657             +12.0000
iter:  38  20:04:36  -7.44  -4.77          -70.393657             +12.0000
iter:  39  20:05:38  -7.61  -4.83    -3.31 -70.393657             +12.0000
iter:  40  20:06:41  -7.78  -4.87    -3.70 -70.393657             +12.0000
iter:  41  20:07:44  -7.94  -4.89    -3.35 -70.393657             +12.0000
iter:  42  20:08:47  -8.07  -5.00    -3.29 -70.393657             +12.0000
iter:  43  20:09:49  -8.23  -5.16    -3.65 -70.393657             +12.0000
iter:  44  20:10:52  -8.21  -5.23    -3.46 -70.393657             +12.0000
iter:  45  20:11:54  -8.33  -5.33    -3.42 -70.393657             +12.0000
iter:  46  20:12:57  -8.49  -5.42    -4.74 -70.393657             +12.0000

Converged after 46 iterations.

Dipole moment: (-31.572533, 0.003827, -0.002031) |e|*Ang

Total magnetic moment: (0.000000, 0.000000, 12.000000)
Local magnetic moments:
   0 Cr ( 0.000000,  0.000000,  2.911364)
   1 Cr ( 0.000000,  0.000000,  2.915468)
   2 I  ( 0.000000,  0.000000, -0.046979)
   3 I  ( 0.000000,  0.000000, -0.046940)
   4 I  ( 0.000000,  0.000000, -0.046944)
   5 I  ( 0.000000,  0.000000, -0.049682)
   6 I  ( 0.000000,  0.000000, -0.049658)
   7 I  ( 0.000000,  0.000000, -0.049632)
   8 Cr ( 0.000000,  0.000000,  2.913369)
   9 Cr ( 0.000000,  0.000000,  2.913289)
  10 I  ( 0.000000,  0.000000, -0.049655)
  11 I  ( 0.000000,  0.000000, -0.049591)
  12 I  ( 0.000000,  0.000000, -0.049750)
  13 I  ( 0.000000,  0.000000, -0.046963)
  14 I  ( 0.000000,  0.000000, -0.046715)
  15 I  ( 0.000000,  0.000000, -0.047205)

Energy contributions relative to reference atoms: (reference = -2434708.556191)

Kinetic:        +23.269001
Potential:      -37.241019
External:        +0.000000
XC:             -56.596212
Entropy (-ST):   -0.000000
Local:           +0.174572
--------------------------
Free energy:    -70.393657
Extrapolated:   -70.393657

Spin contamination: 1.119638 electrons
Showing only first 2 kpts
                      Up                     Down
 Kpt  Band  Eigenvalues  Occupancy  Eigenvalues  Occupancy
  0    52     -2.13850    1.00000     -0.01172    0.00000
  0    53     -2.10295    1.00000      0.00309    0.00000
  0    54     -2.01903    1.00000      0.18039    0.00000
  0    55     -2.01836    1.00000      0.21099    0.00000

  1    52     -2.11774    1.00000     -0.01819    0.00000
  1    53     -2.07405    1.00000      0.01842    0.00000
  1    54     -2.01997    1.00000      0.17012    0.00000
  1    55     -1.98958    1.00000      0.20905    0.00000


Fermi level: -1.19508

Gap: 0.968 eV
Transition (v -> c):
  (s=0, k=132, n=59, [0.46, -0.46, 0.00]) -> (s=0, k=71, n=60, [-0.04, 0.46, 0.00])
Writing to born-0.01-10y+.gpw (mode='all')

Timing:                              incl.     excl.
-----------------------------------------------------------
Hamiltonian:                         2.688     0.011   0.0% |
 Atomic:                             1.155     1.155   0.0% |
  XC Correction:                     0.000     0.000   0.0% |
 Calculate atomic Hamiltonians:      0.375     0.375   0.0% |
 Communicate:                        0.000     0.000   0.0% |
 Initialize Hamiltonian:             0.004     0.004   0.0% |
 Poisson:                            0.012     0.012   0.0% |
 XC 3D grid:                         1.132     1.132   0.0% |
LCAO initialization:                20.454     0.141   0.0% |
 LCAO eigensolver:                   3.063     0.001   0.0% |
  Calculate projections:             0.004     0.004   0.0% |
  DenseAtomicCorrection:             0.005     0.005   0.0% |
  Distribute overlap matrix:         0.000     0.000   0.0% |
  Orbital Layouts:                   0.016     0.016   0.0% |
  Potential matrix:                  3.026     3.026   0.1% |
  Sum over cells:                    0.011     0.011   0.0% |
 LCAO to grid:                      16.969    16.969   0.3% |
 Set positions (LCAO WFS):           0.281     0.050   0.0% |
  Basic WFS set positions:           0.001     0.001   0.0% |
  Basis functions set positions:     0.000     0.000   0.0% |
  P tci:                             0.124     0.124   0.0% |
  ST tci:                            0.064     0.064   0.0% |
  mktci:                             0.042     0.042   0.0% |
PWDescriptor:                        0.087     0.087   0.0% |
SCF-cycle:                        2486.289   515.131   9.0% |---|
 Davidson:                        1543.273   235.744   4.1% |-|
  Apply H:                         272.421   263.135   4.6% |-|
   HMM T:                            9.285     9.285   0.2% |
  Subspace diag:                   327.985     0.069   0.0% |
   calc_h_matrix:                  291.373    20.008   0.4% |
    Apply H:                       271.365   261.827   4.6% |-|
     HMM T:                          9.538     9.538   0.2% |
   diagonalize:                      0.570     0.570   0.0% |
   rotate_psi:                      35.973    35.973   0.6% |
  calc. matrices:                  638.802   112.611   2.0% ||
   Apply H:                        526.191   508.527   8.9% |---|
    HMM T:                          17.664    17.664   0.3% |
  diagonalize:                       5.420     5.420   0.1% |
  rotate_psi:                       62.901    62.901   1.1% |
 Density:                          246.023     0.002   0.0% |
  Atomic density matrices:           0.341     0.341   0.0% |
  Mix:                              41.558    41.558   0.7% |
  Multipole moments:                 0.021     0.021   0.0% |
  Pseudo density:                  204.101   204.098   3.6% ||
   Symmetrize density:               0.003     0.003   0.0% |
 Forces:                            88.946    88.946   1.6% ||
 Hamiltonian:                       91.267     0.583   0.0% |
  Atomic:                            6.251     6.251   0.1% |
   XC Correction:                    0.000     0.000   0.0% |
  Calculate atomic Hamiltonians:    29.913    29.913   0.5% |
  Communicate:                       0.009     0.009   0.0% |
  Poisson:                           0.558     0.558   0.0% |
  XC 3D grid:                       53.953    53.953   0.9% |
 Orthonormalize:                     1.650     0.002   0.0% |
  calc_s_matrix:                     0.227     0.227   0.0% |
  inverse-cholesky:                  0.004     0.004   0.0% |
  projections:                       0.974     0.974   0.0% |
  rotate_psi_s:                      0.443     0.443   0.0% |
Set symmetry:                        0.000     0.000   0.0% |
Other:                            3194.557  3194.557  56.0% |---------------------|
-----------------------------------------------------------
Total:                                      5704.076 100.0%

Memory usage: 39.10 GiB
Date: Tue Jun 28 21:06:07 2022
