
  ___ ___ ___ _ _ _  
 |   |   |_  | | | | 
 | | | | | . | | | | 
 |__ |  _|___|_____|  21.6.1b1
 |___|_|             

User:   madkru@c153.nifl.fysik.dtu.dk
Date:   Mon Jun 27 03:37:24 2022
Arch:   x86_64
Pid:    48887
Python: 3.8.6
gpaw:   /home/niflheim/madkru/new_venv/gpaw/gpaw (1f0dfc9eae)
_gpaw:  /home/niflheim/madkru/new_venv/gpaw/build/lib.linux-x86_64-skylake-3.8/
        _gpaw.cpython-38-x86_64-linux-gnu.so (c1e45bfab3)
ase:    /home/niflheim/madkru/new_venv/ase/ase (version 3.23.0b1-ca38c75a67)
numpy:  /home/modules/software/SciPy-bundle/2020.11-foss-2020b/lib/python3.8/site-packages/numpy (version 1.19.4)
scipy:  /home/modules/software/SciPy-bundle/2020.11-foss-2020b/lib/python3.8/site-packages/scipy (version 1.5.4)
libxc:  4.3.4
units:  Angstrom and eV
cores: 40
OpenMP: False
OMP_NUM_THREADS: 1

Input parameters:
  convergence: {bands: occupied,
                density: 0.0001,
                eigenstates: 4e-08,
                energy: 0.0005,
                forces: 0.0001}
  kpts: [12 12  1]
  mode: {ecut: 600.0,
         gammacentered: False,
         name: pw}
  occupations: {fixmagmom: False,
                name: fermi-dirac,
                width: 0.001}
  symmetry: {point_group: False,
             time_reversal: False}

System changes: positions, numbers, cell, pbc, initial_charges, initial_magmoms 

Initialize ...

Cr-setup:
  name: Chromium
  id: 444e8044bc0f91048286c984738d87f5
  Z: 24.0
  valence: 6
  core: 18
  charge: 0.0
  file: /home/modules/software/GPAW-setups/0.9.20000/Cr.LDA.gz
  compensation charges: gauss, rc=0.35, lmax=2
  cutoffs: 2.14(filt), 3.04(core),
  valence states:
                energy  radius
    4s(1.00)    -4.191   1.164
    4p(0.00)    -1.079   1.217
    3d(5.00)    -3.128   1.111
    *s          23.021   1.164
    *p          26.132   1.217
    *d          24.083   1.111

  Using partial waves for Cr as LCAO basis

I-setup:
  name: Iodine
  id: b559721c0c096a7b4c8fc0e0f4de5cf4
  Z: 53.0
  valence: 7
  core: 46
  charge: 0.0
  file: /home/modules/software/GPAW-setups/0.9.20000/I.LDA.gz
  compensation charges: gauss, rc=0.37, lmax=2
  cutoffs: 2.06(filt), 2.90(core),
  valence states:
                energy  radius
    5s(2.00)   -17.626   1.164
    5p(5.00)    -7.241   1.164
    *s           9.585   1.164
    *p          19.970   1.164
    *d           0.000   1.164

  Using partial waves for I as LCAO basis

Reference energy: -2434708.556191

Spin-polarized calculation.
Magnetic moment: 12.175341

Convergence criteria:
  Maximum total energy change: 0.0005 eV / electron
  Maximum integral of absolute density change: 0.0001 electrons
  Maximum integral of absolute eigenstate change: 4e-08 eV^2
  Maximum change in atomic force: 0.0001 eV / Ang
  Maximum number of iterations: 333

Symmetries present (total): 1

  ( 1  0  0)
  ( 0  1  0)
  ( 0  0  1)

144 k-points: 12 x 12 x 1 Monkhorst-Pack grid
144 k-points in the irreducible part of the Brillouin zone
       k-points in crystal coordinates                weights
   0:    -0.45833333   -0.45833333    0.00000000          1/144
   1:    -0.45833333   -0.37500000    0.00000000          1/144
   2:    -0.45833333   -0.29166667    0.00000000          1/144
   3:    -0.45833333   -0.20833333    0.00000000          1/144
   4:    -0.45833333   -0.12500000    0.00000000          1/144
   5:    -0.45833333   -0.04166667    0.00000000          1/144
   6:    -0.45833333    0.04166667    0.00000000          1/144
   7:    -0.45833333    0.12500000    0.00000000          1/144
   8:    -0.45833333    0.20833333    0.00000000          1/144
   9:    -0.45833333    0.29166667    0.00000000          1/144
          ...
 143:     0.45833333    0.45833333    0.00000000          1/144

Wave functions: Plane wave expansion
  Cutoff energy: 600.000 eV
  Number of coefficients (min, max): 39797, 39902
  Pulay-stress correction: 0.000000 eV/Ang^3 (de/decut=0.000000)
  Using FFTW library
  ScaLapack parameters: grid=1x1, blocksize=None
  Wavefunction extrapolation:
    Improved wavefunction reuse through dual PAW basis 

Occupation numbers: Fermi-Dirac: width=0.0010 eV
 

Eigensolver
   Davidson(niter=2) 

Densities:
  Coarse grid: 42*42*160 grid
  Fine grid: 84*84*320 grid
  Total Charge: 0.000000 

Density mixing:
  Method: difference
  Backend: pulay
  Linear mixing parameter: 0.05
  Mixing with 5 old densities
  Damping of long wave oscillations: 50 

Hamiltonian:
  XC and Coulomb potentials evaluated on a 84*84*320 grid
  Using the LDA Exchange-Correlation functional
  External potential:
    <gpaw.external.NoExternalPotential object at 0x2b3332051a30>
 

Memory estimate:
  Process memory now: 40075.95 MiB
  Calculator: 580.26 MiB
    Density: 158.40 MiB
      Arrays: 75.37 MiB
      Localized functions: 52.88 MiB
      Mixer: 30.15 MiB
    Hamiltonian: 57.28 MiB
      Arrays: 55.99 MiB
      XC: 0.00 MiB
      Poisson: 0.00 MiB
      vbar: 1.29 MiB
    Wavefunctions: 364.58 MiB
      Arrays psit_nG: 281.29 MiB
      Eigensolver: 50.83 MiB
      Projections: 1.61 MiB
      Projectors: 18.26 MiB
      PW-descriptor: 12.59 MiB

Total number of cores used: 40
Parallelization over k-points: 40

Number of atoms: 16
Number of atomic orbitals: 84
Number of bands in calculation: 77
Number of valence electrons: 108
Bands to converge: occupied

... initialized

Initializing position-dependent things.

Density initialized from atomic densities
Creating initial wave functions:
  77 bands from LCAO basis set

                                       
                                       
                                       
                                       
                      I                
                            I          
                   I                   
                       Cr  I           
             Cr                        
                 I                     
                         I             
                     I                 
                             I         
               Cr                      
                   I   Cr              
          I                            
                 I                     
                        I              
                                       
                                       
                                       
                                       

Positions:
   0 Cr     0.889135    0.000185   -3.063135    ( 0.0000,  0.0000,  3.4336)
   1 Cr    -2.666158    2.052642   -3.080223    ( 0.0000,  0.0000,  3.4336)
   2 I      1.822012   -2.046247   -4.559876    ( 0.0000,  0.0000, -0.1299)
   3 I     -1.348662    0.216415   -4.560605    ( 0.0000,  0.0000, -0.1299)
   4 I     -4.915070    1.830062   -4.560598    ( 0.0000,  0.0000, -0.1299)
   5 I     -0.074828   -2.063434   -1.594960    ( 0.0000,  0.0000, -0.1299)
   6 I     -0.406551    1.865690   -1.594231    ( 0.0000,  0.0000, -0.1299)
   7 I      3.157525    0.197989   -1.594234    ( 0.0000,  0.0000, -0.1299)
   8 Cr    -2.666887   -2.052642    3.080226    ( 0.0000,  0.0000,  3.4336)
   9 Cr     0.888546   -0.000185    3.063139    ( 0.0000,  0.0000,  3.4336)
  10 I      1.852510    2.063434    1.594959    ( 0.0000,  0.0000, -0.1299)
  11 I      2.194233   -1.865690    1.594230    ( 0.0000,  0.0000, -0.1299)
  12 I     -1.379843   -0.197989    1.594233    ( 0.0000,  0.0000, -0.1299)
  13 I     -0.044330    2.046247    4.559875    ( 0.0000,  0.0000, -0.1299)
  14 I      3.126343   -0.216415    4.560604    ( 0.0000,  0.0000, -0.1299)
  15 I     -0.417976   -1.830062    4.560597    ( 0.0000,  0.0000, -0.1299)

Unit cell:
           periodic     x           y           z      points  spacing
  1. axis:    yes    7.110727   -0.000000    0.000000    42     0.1466
  2. axis:    yes   -3.555363    6.158070    0.000000    42     0.1466
  3. axis:    no     0.000000   -0.000000   27.269192   160     0.1704

  Lengths:   7.110727   7.110727  27.269192
  Angles:   90.000000  90.000000 120.000000

Effective grid spacing dv^(1/3) = 0.1617

                     log10-error:           total        iterations:
           time      wfs    density  force  energy       poisson  magmom
iter:   1  03:38:45                        -76.897579             +12.1076
iter:   2  03:39:37  -0.99  -0.91          -70.502684             +9.9606
iter:   3  03:40:28  -1.83  -1.33          -70.496974             +11.0142
iter:   4  03:41:20  -1.58  -1.38          -70.966599             +12.0928
iter:   5  03:42:12  -2.54  -1.51          -70.628470             +12.0160
iter:   6  03:43:04  -1.91  -1.83          -70.402197             +12.0005
iter:   7  03:43:56  -2.97  -2.20          -70.395188             +12.0039
iter:   8  03:44:47  -3.31  -2.32          -70.390030             +12.0056
iter:   9  03:45:39  -3.68  -2.67          -70.391195             +12.0017
iter:  10  03:46:31  -3.86  -2.86          -70.391880             +11.9998
iter:  11  03:47:23  -3.99  -2.94          -70.392453             +12.0000
iter:  12  03:48:15  -3.99  -3.03          -70.392770             +12.0000
iter:  13  03:49:07  -4.06  -3.10          -70.392978             +12.0000
iter:  14  03:49:58  -4.10  -3.15          -70.393078             +12.0000
iter:  15  03:50:50  -4.19  -3.27          -70.393238             +12.0000
iter:  16  03:51:42  -4.35  -3.32          -70.393360             +12.0000
iter:  17  03:52:34  -4.62  -3.38          -70.393421             +12.0000
iter:  18  03:53:26  -4.77  -3.55          -70.393491             +12.0000
iter:  19  03:54:18  -4.90  -3.65          -70.393539             +12.0000
iter:  20  03:55:09  -5.01  -3.72          -70.393580             +12.0000
iter:  21  03:56:01  -5.19  -4.15          -70.393606             +12.0000
iter:  22  03:56:53  -5.16  -4.19          -70.393626             +12.0000
iter:  23  03:57:45  -5.24  -4.18          -70.393642             +12.0000
iter:  24  03:58:36  -5.46  -4.14          -70.393652             +12.0000
iter:  25  03:59:28  -5.64  -4.14          -70.393662             +12.0000
iter:  26  04:00:20  -5.72  -4.13          -70.393669             +12.0000
iter:  27  04:01:12  -5.87  -4.12          -70.393672             +12.0000
iter:  28  04:02:04  -5.95  -4.17          -70.393675             +12.0000
iter:  29  04:02:56  -6.18  -4.14          -70.393678             +12.0000
iter:  30  04:03:48  -6.22  -4.08          -70.393681             +12.0000
iter:  31  04:04:39  -6.46  -4.02          -70.393683             +12.0000
iter:  32  04:05:31  -6.45  -4.05          -70.393682             +12.0000
iter:  33  04:06:23  -6.61  -4.04          -70.393683             +12.0000
iter:  34  04:07:15  -6.76  -4.06          -70.393684             +12.0000
iter:  35  04:08:07  -6.65  -4.08          -70.393682             +12.0000
iter:  36  04:08:59  -7.09  -4.21          -70.393682             +12.0000
iter:  37  04:09:50  -7.30  -4.24          -70.393682             +12.0000
iter:  38  04:10:42  -7.20  -4.27          -70.393682             +12.0000
iter:  39  04:11:44  -7.63  -4.60          -70.393682             +12.0000
iter:  40  04:12:47  -7.67  -4.69    -3.11 -70.393682             +12.0000
iter:  41  04:13:49  -7.83  -4.76    -2.75 -70.393682             +12.0000
iter:  42  04:14:52  -8.11  -5.14    -3.19 -70.393682             +12.0000
iter:  43  04:15:55  -8.22  -5.38    -3.73 -70.393682             +12.0000
iter:  44  04:16:57  -8.31  -5.55    -4.06 -70.393682             +12.0000

Converged after 44 iterations.

Dipole moment: (-31.398423, 0.000867, -0.004030) |e|*Ang

Total magnetic moment: (0.000000, 0.000000, 12.000000)
Local magnetic moments:
   0 Cr ( 0.000000,  0.000000,  2.909936)
   1 Cr ( 0.000000,  0.000000,  2.917620)
   2 I  ( 0.000000,  0.000000, -0.046870)
   3 I  ( 0.000000,  0.000000, -0.046889)
   4 I  ( 0.000000,  0.000000, -0.047244)
   5 I  ( 0.000000,  0.000000, -0.049612)
   6 I  ( 0.000000,  0.000000, -0.049794)
   7 I  ( 0.000000,  0.000000, -0.049723)
   8 Cr ( 0.000000,  0.000000,  2.915340)
   9 Cr ( 0.000000,  0.000000,  2.911178)
  10 I  ( 0.000000,  0.000000, -0.049702)
  11 I  ( 0.000000,  0.000000, -0.049658)
  12 I  ( 0.000000,  0.000000, -0.049661)
  13 I  ( 0.000000,  0.000000, -0.046990)
  14 I  ( 0.000000,  0.000000, -0.046932)
  15 I  ( 0.000000,  0.000000, -0.046946)

Energy contributions relative to reference atoms: (reference = -2434708.556191)

Kinetic:        +23.181976
Potential:      -37.168833
External:        +0.000000
XC:             -56.581856
Entropy (-ST):   -0.000000
Local:           +0.175031
--------------------------
Free energy:    -70.393682
Extrapolated:   -70.393682

Spin contamination: 1.120066 electrons
Showing only first 2 kpts
                      Up                     Down
 Kpt  Band  Eigenvalues  Occupancy  Eigenvalues  Occupancy
  0    52     -2.13908    1.00000     -0.01172    0.00000
  0    53     -2.10362    1.00000      0.00344    0.00000
  0    54     -2.01950    1.00000      0.17997    0.00000
  0    55     -2.01859    1.00000      0.21080    0.00000

  1    52     -2.11821    1.00000     -0.01873    0.00000
  1    53     -2.07471    1.00000      0.01895    0.00000
  1    54     -2.01969    1.00000      0.16964    0.00000
  1    55     -1.98991    1.00000      0.20885    0.00000


Fermi level: -1.19455

Gap: 0.971 eV
Transition (v -> c):
  (s=0, k=11, n=59, [-0.46, 0.46, 0.00]) -> (s=0, k=126, n=60, [0.38, 0.04, 0.00])
Writing to born-0.01-6x+.gpw (mode='all')

Timing:                              incl.     excl.
-----------------------------------------------------------
Hamiltonian:                         2.681     0.011   0.0% |
 Atomic:                             1.183     1.183   0.0% |
  XC Correction:                     0.000     0.000   0.0% |
 Calculate atomic Hamiltonians:      0.330     0.330   0.0% |
 Communicate:                        0.000     0.000   0.0% |
 Initialize Hamiltonian:             0.004     0.004   0.0% |
 Poisson:                            0.011     0.011   0.0% |
 XC 3D grid:                         1.142     1.142   0.0% |
LCAO initialization:                21.244     0.142   0.0% |
 LCAO eigensolver:                   3.326     0.001   0.0% |
  Calculate projections:             0.004     0.004   0.0% |
  DenseAtomicCorrection:             0.006     0.006   0.0% |
  Distribute overlap matrix:         0.000     0.000   0.0% |
  Orbital Layouts:                   0.016     0.016   0.0% |
  Potential matrix:                  3.288     3.288   0.1% |
  Sum over cells:                    0.012     0.012   0.0% |
 LCAO to grid:                      17.493    17.493   0.3% |
 Set positions (LCAO WFS):           0.284     0.050   0.0% |
  Basic WFS set positions:           0.001     0.001   0.0% |
  Basis functions set positions:     0.000     0.000   0.0% |
  P tci:                             0.126     0.126   0.0% |
  ST tci:                            0.064     0.064   0.0% |
  mktci:                             0.043     0.043   0.0% |
PWDescriptor:                        0.088     0.088   0.0% |
SCF-cycle:                        2345.108   518.785   8.9% |---|
 Davidson:                        1445.231   231.686   4.0% |-|
  Apply H:                         251.484   244.137   4.2% |-|
   HMM T:                            7.347     7.347   0.1% |
  Subspace diag:                   304.420     0.064   0.0% |
   calc_h_matrix:                  270.989    19.812   0.3% |
    Apply H:                       251.177   243.667   4.2% |-|
     HMM T:                          7.510     7.510   0.1% |
   diagonalize:                      0.545     0.545   0.0% |
   rotate_psi:                      32.822    32.822   0.6% |
  calc. matrices:                  591.038   112.485   1.9% ||
   Apply H:                        478.553   465.109   8.0% |--|
    HMM T:                          13.445    13.445   0.2% |
  diagonalize:                       5.258     5.258   0.1% |
  rotate_psi:                       61.344    61.344   1.1% |
 Density:                          231.902     0.002   0.0% |
  Atomic density matrices:           0.316     0.316   0.0% |
  Mix:                              39.347    39.347   0.7% |
  Multipole moments:                 0.020     0.020   0.0% |
  Pseudo density:                  192.217   192.213   3.3% ||
   Symmetrize density:               0.003     0.003   0.0% |
 Forces:                            59.053    59.053   1.0% |
 Hamiltonian:                       88.498     0.735   0.0% |
  Atomic:                            5.744     5.744   0.1% |
   XC Correction:                    0.000     0.000   0.0% |
  Calculate atomic Hamiltonians:    28.378    28.378   0.5% |
  Communicate:                       0.119     0.119   0.0% |
  Poisson:                           0.502     0.502   0.0% |
  XC 3D grid:                       53.020    53.020   0.9% |
 Orthonormalize:                     1.640     0.002   0.0% |
  calc_s_matrix:                     0.220     0.220   0.0% |
  inverse-cholesky:                  0.004     0.004   0.0% |
  projections:                       1.014     1.014   0.0% |
  rotate_psi_s:                      0.400     0.400   0.0% |
Set symmetry:                        0.000     0.000   0.0% |
Other:                            3457.621  3457.621  59.3% |-----------------------|
-----------------------------------------------------------
Total:                                      5826.742 100.0%

Memory usage: 39.14 GiB
Date: Mon Jun 27 05:14:31 2022
