
  ___ ___ ___ _ _ _  
 |   |   |_  | | | | 
 | | | | | . | | | | 
 |__ |  _|___|_____|  21.6.1b1
 |___|_|             

User:   madkru@c153.nifl.fysik.dtu.dk
Date:   Mon Jun 27 08:03:40 2022
Arch:   x86_64
Pid:    48887
Python: 3.8.6
gpaw:   /home/niflheim/madkru/new_venv/gpaw/gpaw (1f0dfc9eae)
_gpaw:  /home/niflheim/madkru/new_venv/gpaw/build/lib.linux-x86_64-skylake-3.8/
        _gpaw.cpython-38-x86_64-linux-gnu.so (c1e45bfab3)
ase:    /home/niflheim/madkru/new_venv/ase/ase (version 3.23.0b1-ca38c75a67)
numpy:  /home/modules/software/SciPy-bundle/2020.11-foss-2020b/lib/python3.8/site-packages/numpy (version 1.19.4)
scipy:  /home/modules/software/SciPy-bundle/2020.11-foss-2020b/lib/python3.8/site-packages/scipy (version 1.5.4)
libxc:  4.3.4
units:  Angstrom and eV
cores: 40
OpenMP: False
OMP_NUM_THREADS: 1

Input parameters:
  convergence: {bands: occupied,
                density: 0.0001,
                eigenstates: 4e-08,
                energy: 0.0005,
                forces: 0.0001}
  kpts: [12 12  1]
  mode: {ecut: 600.0,
         gammacentered: False,
         name: pw}
  occupations: {fixmagmom: False,
                name: fermi-dirac,
                width: 0.001}
  symmetry: {point_group: False,
             time_reversal: False}

System changes: positions, numbers, cell, pbc, initial_charges, initial_magmoms 

Initialize ...

Cr-setup:
  name: Chromium
  id: 444e8044bc0f91048286c984738d87f5
  Z: 24.0
  valence: 6
  core: 18
  charge: 0.0
  file: /home/modules/software/GPAW-setups/0.9.20000/Cr.LDA.gz
  compensation charges: gauss, rc=0.35, lmax=2
  cutoffs: 2.14(filt), 3.04(core),
  valence states:
                energy  radius
    4s(1.00)    -4.191   1.164
    4p(0.00)    -1.079   1.217
    3d(5.00)    -3.128   1.111
    *s          23.021   1.164
    *p          26.132   1.217
    *d          24.083   1.111

  Using partial waves for Cr as LCAO basis

I-setup:
  name: Iodine
  id: b559721c0c096a7b4c8fc0e0f4de5cf4
  Z: 53.0
  valence: 7
  core: 46
  charge: 0.0
  file: /home/modules/software/GPAW-setups/0.9.20000/I.LDA.gz
  compensation charges: gauss, rc=0.37, lmax=2
  cutoffs: 2.06(filt), 2.90(core),
  valence states:
                energy  radius
    5s(2.00)   -17.626   1.164
    5p(5.00)    -7.241   1.164
    *s           9.585   1.164
    *p          19.970   1.164
    *d           0.000   1.164

  Using partial waves for I as LCAO basis

Reference energy: -2434708.556191

Spin-polarized calculation.
Magnetic moment: 12.175341

Convergence criteria:
  Maximum total energy change: 0.0005 eV / electron
  Maximum integral of absolute density change: 0.0001 electrons
  Maximum integral of absolute eigenstate change: 4e-08 eV^2
  Maximum change in atomic force: 0.0001 eV / Ang
  Maximum number of iterations: 333

Symmetries present (total): 1

  ( 1  0  0)
  ( 0  1  0)
  ( 0  0  1)

144 k-points: 12 x 12 x 1 Monkhorst-Pack grid
144 k-points in the irreducible part of the Brillouin zone
       k-points in crystal coordinates                weights
   0:    -0.45833333   -0.45833333    0.00000000          1/144
   1:    -0.45833333   -0.37500000    0.00000000          1/144
   2:    -0.45833333   -0.29166667    0.00000000          1/144
   3:    -0.45833333   -0.20833333    0.00000000          1/144
   4:    -0.45833333   -0.12500000    0.00000000          1/144
   5:    -0.45833333   -0.04166667    0.00000000          1/144
   6:    -0.45833333    0.04166667    0.00000000          1/144
   7:    -0.45833333    0.12500000    0.00000000          1/144
   8:    -0.45833333    0.20833333    0.00000000          1/144
   9:    -0.45833333    0.29166667    0.00000000          1/144
          ...
 143:     0.45833333    0.45833333    0.00000000          1/144

Wave functions: Plane wave expansion
  Cutoff energy: 600.000 eV
  Number of coefficients (min, max): 39797, 39902
  Pulay-stress correction: 0.000000 eV/Ang^3 (de/decut=0.000000)
  Using FFTW library
  ScaLapack parameters: grid=1x1, blocksize=None
  Wavefunction extrapolation:
    Improved wavefunction reuse through dual PAW basis 

Occupation numbers: Fermi-Dirac: width=0.0010 eV
 

Eigensolver
   Davidson(niter=2) 

Densities:
  Coarse grid: 42*42*160 grid
  Fine grid: 84*84*320 grid
  Total Charge: 0.000000 

Density mixing:
  Method: difference
  Backend: pulay
  Linear mixing parameter: 0.05
  Mixing with 5 old densities
  Damping of long wave oscillations: 50 

Hamiltonian:
  XC and Coulomb potentials evaluated on a 84*84*320 grid
  Using the LDA Exchange-Correlation functional
  External potential:
    <gpaw.external.NoExternalPotential object at 0x2b33313bd1f0>
 

Memory estimate:
  Process memory now: 40104.37 MiB
  Calculator: 580.26 MiB
    Density: 158.40 MiB
      Arrays: 75.37 MiB
      Localized functions: 52.88 MiB
      Mixer: 30.15 MiB
    Hamiltonian: 57.28 MiB
      Arrays: 55.99 MiB
      XC: 0.00 MiB
      Poisson: 0.00 MiB
      vbar: 1.29 MiB
    Wavefunctions: 364.58 MiB
      Arrays psit_nG: 281.29 MiB
      Eigensolver: 50.83 MiB
      Projections: 1.61 MiB
      Projectors: 18.26 MiB
      PW-descriptor: 12.59 MiB

Total number of cores used: 40
Parallelization over k-points: 40

Number of atoms: 16
Number of atomic orbitals: 84
Number of bands in calculation: 77
Number of valence electrons: 108
Bands to converge: occupied

... initialized

Initializing position-dependent things.

Density initialized from atomic densities
Creating initial wave functions:
  77 bands from LCAO basis set

                                       
                                       
                                       
                                       
                      I                
                            I          
                   I                   
                       Cr  I           
             Cr                        
                 I                     
                         I             
                     I                 
                             I         
               Cr                      
                   I   Cr              
          I                            
                 I                     
                        I              
                                       
                                       
                                       
                                       

Positions:
   0 Cr     0.889135    0.000185   -3.063135    ( 0.0000,  0.0000,  3.4336)
   1 Cr    -2.666158    2.052642   -3.080223    ( 0.0000,  0.0000,  3.4336)
   2 I      1.822012   -2.046247   -4.559876    ( 0.0000,  0.0000, -0.1299)
   3 I     -1.348662    0.216415   -4.560605    ( 0.0000,  0.0000, -0.1299)
   4 I     -4.915070    1.830062   -4.560598    ( 0.0000,  0.0000, -0.1299)
   5 I     -0.074828   -2.063434   -1.594960    ( 0.0000,  0.0000, -0.1299)
   6 I     -0.416551    1.865690   -1.594231    ( 0.0000,  0.0000, -0.1299)
   7 I      3.147525    0.197989   -1.594234    ( 0.0000,  0.0000, -0.1299)
   8 Cr    -2.666887   -2.052642    3.080226    ( 0.0000,  0.0000,  3.4336)
   9 Cr     0.888546   -0.000185    3.063139    ( 0.0000,  0.0000,  3.4336)
  10 I      1.852510    2.063434    1.594959    ( 0.0000,  0.0000, -0.1299)
  11 I      2.194233   -1.865690    1.594230    ( 0.0000,  0.0000, -0.1299)
  12 I     -1.379843   -0.197989    1.594233    ( 0.0000,  0.0000, -0.1299)
  13 I     -0.044330    2.046247    4.559875    ( 0.0000,  0.0000, -0.1299)
  14 I      3.126343   -0.216415    4.560604    ( 0.0000,  0.0000, -0.1299)
  15 I     -0.417976   -1.830062    4.560597    ( 0.0000,  0.0000, -0.1299)

Unit cell:
           periodic     x           y           z      points  spacing
  1. axis:    yes    7.110727   -0.000000    0.000000    42     0.1466
  2. axis:    yes   -3.555363    6.158070    0.000000    42     0.1466
  3. axis:    no     0.000000   -0.000000   27.269192   160     0.1704

  Lengths:   7.110727   7.110727  27.269192
  Angles:   90.000000  90.000000 120.000000

Effective grid spacing dv^(1/3) = 0.1617

                     log10-error:           total        iterations:
           time      wfs    density  force  energy       poisson  magmom
iter:   1  08:05:01                        -76.904255             +12.1076
iter:   2  08:05:53  -0.99  -0.91          -70.502895             +9.9574
iter:   3  08:06:45  -1.83  -1.33          -70.496916             +11.0126
iter:   4  08:07:37  -1.58  -1.38          -70.967967             +12.0928
iter:   5  08:08:29  -2.53  -1.51          -70.628741             +12.0160
iter:   6  08:09:21  -1.91  -1.83          -70.402257             +12.0006
iter:   7  08:10:13  -2.97  -2.20          -70.395272             +12.0039
iter:   8  08:11:05  -3.31  -2.31          -70.390028             +12.0056
iter:   9  08:11:57  -3.68  -2.67          -70.391194             +12.0017
iter:  10  08:12:49  -3.86  -2.86          -70.391876             +11.9998
iter:  11  08:13:41  -3.99  -2.94          -70.392448             +12.0000
iter:  12  08:14:33  -3.99  -3.04          -70.392761             +12.0000
iter:  13  08:15:25  -4.05  -3.10          -70.392973             +12.0000
iter:  14  08:16:17  -4.09  -3.14          -70.393079             +12.0000
iter:  15  08:17:09  -4.18  -3.26          -70.393241             +12.0000
iter:  16  08:18:01  -4.34  -3.32          -70.393362             +12.0000
iter:  17  08:18:53  -4.58  -3.38          -70.393420             +12.0000
iter:  18  08:19:45  -4.75  -3.56          -70.393490             +12.0000
iter:  19  08:20:37  -4.89  -3.66          -70.393537             +12.0000
iter:  20  08:21:29  -5.00  -3.75          -70.393579             +12.0000
iter:  21  08:22:21  -5.17  -4.22          -70.393605             +12.0000
iter:  22  08:23:13  -5.16  -4.24          -70.393626             +12.0000
iter:  23  08:24:05  -5.31  -4.22          -70.393644             +12.0000
iter:  24  08:24:57  -5.51  -4.12          -70.393654             +12.0000
iter:  25  08:25:49  -5.60  -4.19          -70.393661             +12.0000
iter:  26  08:26:41  -5.75  -4.26          -70.393666             +12.0000
iter:  27  08:27:33  -5.91  -4.31          -70.393670             +12.0000
iter:  28  08:28:26  -6.04  -4.42          -70.393674             +12.0000
iter:  29  08:29:18  -6.15  -4.42          -70.393676             +12.0000
iter:  30  08:30:10  -6.14  -4.39          -70.393678             +12.0000
iter:  31  08:31:02  -6.43  -4.38          -70.393679             +12.0000
iter:  32  08:31:54  -6.43  -4.39          -70.393680             +12.0000
iter:  33  08:32:46  -6.54  -4.38          -70.393680             +12.0000
iter:  34  08:33:38  -6.63  -4.41          -70.393681             +12.0000
iter:  35  08:34:30  -6.68  -4.41          -70.393682             +12.0000
iter:  36  08:35:22  -6.98  -4.24          -70.393682             +12.0000
iter:  37  08:36:14  -7.27  -4.50          -70.393682             +12.0000
iter:  38  08:37:06  -7.26  -4.53          -70.393682             +12.0000
iter:  39  08:38:08  -7.53  -4.71          -70.393682             +12.0000
iter:  40  08:39:11  -7.70  -4.84    -3.12 -70.393682             +12.0000
iter:  41  08:40:14  -7.85  -5.03    -3.99 -70.393682             +12.0000
iter:  42  08:41:16  -7.98  -5.06    -3.17 -70.393682             +12.0000
iter:  43  08:42:19  -8.08  -5.32    -3.52 -70.393682             +12.0000
iter:  44  08:43:22  -8.14  -5.49    -4.20 -70.393682             +12.0000

Converged after 44 iterations.

Dipole moment: (-31.571881, -0.000232, 0.000538) |e|*Ang

Total magnetic moment: (0.000000, 0.000000, 12.000000)
Local magnetic moments:
   0 Cr ( 0.000000,  0.000000,  2.909148)
   1 Cr ( 0.000000,  0.000000,  2.916825)
   2 I  ( 0.000000,  0.000000, -0.047063)
   3 I  ( 0.000000,  0.000000, -0.046603)
   4 I  ( 0.000000,  0.000000, -0.047015)
   5 I  ( 0.000000,  0.000000, -0.049720)
   6 I  ( 0.000000,  0.000000, -0.049563)
   7 I  ( 0.000000,  0.000000, -0.049525)
   8 Cr ( 0.000000,  0.000000,  2.915504)
   9 Cr ( 0.000000,  0.000000,  2.911279)
  10 I  ( 0.000000,  0.000000, -0.049659)
  11 I  ( 0.000000,  0.000000, -0.049671)
  12 I  ( 0.000000,  0.000000, -0.049640)
  13 I  ( 0.000000,  0.000000, -0.046971)
  14 I  ( 0.000000,  0.000000, -0.046934)
  15 I  ( 0.000000,  0.000000, -0.046950)

Energy contributions relative to reference atoms: (reference = -2434708.556191)

Kinetic:        +23.368270
Potential:      -37.324482
External:        +0.000000
XC:             -56.613972
Entropy (-ST):   -0.000000
Local:           +0.176502
--------------------------
Free energy:    -70.393682
Extrapolated:   -70.393682

Spin contamination: 1.119086 electrons
Showing only first 2 kpts
                      Up                     Down
 Kpt  Band  Eigenvalues  Occupancy  Eigenvalues  Occupancy
  0    52     -2.13824    1.00000     -0.01210    0.00000
  0    53     -2.10253    1.00000      0.00299    0.00000
  0    54     -2.01950    1.00000      0.18032    0.00000
  0    55     -2.01795    1.00000      0.21107    0.00000

  1    52     -2.11754    1.00000     -0.01879    0.00000
  1    53     -2.07411    1.00000      0.01875    0.00000
  1    54     -2.01959    1.00000      0.17016    0.00000
  1    55     -1.98924    1.00000      0.20888    0.00000


Fermi level: -1.11632

Gap: 0.970 eV
Transition (v -> c):
  (s=0, k=132, n=59, [0.46, -0.46, 0.00]) -> (s=0, k=10, n=60, [-0.46, 0.38, 0.00])
Writing to born-0.01-7x-.gpw (mode='all')

Timing:                              incl.     excl.
-----------------------------------------------------------
Hamiltonian:                         2.917     0.010   0.0% |
 Atomic:                             1.429     1.429   0.0% |
  XC Correction:                     0.000     0.000   0.0% |
 Calculate atomic Hamiltonians:      0.322     0.322   0.0% |
 Communicate:                        0.000     0.000   0.0% |
 Initialize Hamiltonian:             0.003     0.003   0.0% |
 Poisson:                            0.010     0.010   0.0% |
 XC 3D grid:                         1.142     1.142   0.0% |
LCAO initialization:                21.091     0.142   0.0% |
 LCAO eigensolver:                   3.325     0.001   0.0% |
  Calculate projections:             0.004     0.004   0.0% |
  DenseAtomicCorrection:             0.006     0.006   0.0% |
  Distribute overlap matrix:         0.000     0.000   0.0% |
  Orbital Layouts:                   0.016     0.016   0.0% |
  Potential matrix:                  3.287     3.287   0.1% |
  Sum over cells:                    0.012     0.012   0.0% |
 LCAO to grid:                      17.344    17.344   0.3% |
 Set positions (LCAO WFS):           0.281     0.050   0.0% |
  Basic WFS set positions:           0.001     0.001   0.0% |
  Basis functions set positions:     0.000     0.000   0.0% |
  P tci:                             0.123     0.123   0.0% |
  ST tci:                            0.065     0.065   0.0% |
  mktci:                             0.043     0.043   0.0% |
PWDescriptor:                        0.088     0.088   0.0% |
SCF-cycle:                        2354.363   564.440   9.8% |---|
 Davidson:                        1407.041   240.354   4.2% |-|
  Apply H:                         231.958   225.110   3.9% |-|
   HMM T:                            6.848     6.848   0.1% |
  Subspace diag:                   287.618     0.060   0.0% |
   calc_h_matrix:                  253.427    20.351   0.4% |
    Apply H:                       233.076   225.618   3.9% |-|
     HMM T:                          7.458     7.458   0.1% |
   diagonalize:                      0.547     0.547   0.0% |
   rotate_psi:                      33.583    33.583   0.6% |
  calc. matrices:                  582.740   116.844   2.0% ||
   Apply H:                        465.896   451.886   7.9% |--|
    HMM T:                          14.010    14.010   0.2% |
  diagonalize:                       5.136     5.136   0.1% |
  rotate_psi:                       59.235    59.235   1.0% |
 Density:                          233.179     0.002   0.0% |
  Atomic density matrices:           0.319     0.319   0.0% |
  Mix:                              38.799    38.799   0.7% |
  Multipole moments:                 0.020     0.020   0.0% |
  Pseudo density:                  194.040   194.037   3.4% ||
   Symmetrize density:               0.003     0.003   0.0% |
 Forces:                            59.258    59.258   1.0% |
 Hamiltonian:                       88.817     0.557   0.0% |
  Atomic:                            7.473     7.472   0.1% |
   XC Correction:                    0.000     0.000   0.0% |
  Calculate atomic Hamiltonians:    28.241    28.241   0.5% |
  Communicate:                       0.007     0.007   0.0% |
  Poisson:                           0.529     0.529   0.0% |
  XC 3D grid:                       52.010    52.010   0.9% |
 Orthonormalize:                     1.628     0.002   0.0% |
  calc_s_matrix:                     0.215     0.215   0.0% |
  inverse-cholesky:                  0.004     0.004   0.0% |
  projections:                       0.986     0.986   0.0% |
  rotate_psi_s:                      0.421     0.421   0.0% |
Set symmetry:                        0.000     0.000   0.0% |
Other:                            3360.723  3360.723  58.6% |----------------------|
-----------------------------------------------------------
Total:                                      5739.183 100.0%

Memory usage: 39.17 GiB
Date: Mon Jun 27 09:39:19 2022
