
  ___ ___ ___ _ _ _  
 |   |   |_  | | | | 
 | | | | | . | | | | 
 |__ |  _|___|_____|  21.6.1b1
 |___|_|             

User:   madkru@c153.nifl.fysik.dtu.dk
Date:   Sun Jun 26 10:33:48 2022
Arch:   x86_64
Pid:    48887
Python: 3.8.6
gpaw:   /home/niflheim/madkru/new_venv/gpaw/gpaw (1f0dfc9eae)
_gpaw:  /home/niflheim/madkru/new_venv/gpaw/build/lib.linux-x86_64-skylake-3.8/
        _gpaw.cpython-38-x86_64-linux-gnu.so (c1e45bfab3)
ase:    /home/niflheim/madkru/new_venv/ase/ase (version 3.23.0b1-ca38c75a67)
numpy:  /home/modules/software/SciPy-bundle/2020.11-foss-2020b/lib/python3.8/site-packages/numpy (version 1.19.4)
scipy:  /home/modules/software/SciPy-bundle/2020.11-foss-2020b/lib/python3.8/site-packages/scipy (version 1.5.4)
libxc:  4.3.4
units:  Angstrom and eV
cores: 40
OpenMP: False
OMP_NUM_THREADS: 1

Input parameters:
  convergence: {bands: occupied,
                density: 0.0001,
                eigenstates: 4e-08,
                energy: 0.0005,
                forces: 0.0001}
  kpts: [12 12  1]
  mode: {ecut: 600.0,
         gammacentered: False,
         name: pw}
  occupations: {fixmagmom: False,
                name: fermi-dirac,
                width: 0.001}
  symmetry: {point_group: False,
             time_reversal: False}

System changes: positions, numbers, cell, pbc, initial_charges, initial_magmoms 

Initialize ...

Cr-setup:
  name: Chromium
  id: 444e8044bc0f91048286c984738d87f5
  Z: 24.0
  valence: 6
  core: 18
  charge: 0.0
  file: /home/modules/software/GPAW-setups/0.9.20000/Cr.LDA.gz
  compensation charges: gauss, rc=0.35, lmax=2
  cutoffs: 2.14(filt), 3.04(core),
  valence states:
                energy  radius
    4s(1.00)    -4.191   1.164
    4p(0.00)    -1.079   1.217
    3d(5.00)    -3.128   1.111
    *s          23.021   1.164
    *p          26.132   1.217
    *d          24.083   1.111

  Using partial waves for Cr as LCAO basis

I-setup:
  name: Iodine
  id: b559721c0c096a7b4c8fc0e0f4de5cf4
  Z: 53.0
  valence: 7
  core: 46
  charge: 0.0
  file: /home/modules/software/GPAW-setups/0.9.20000/I.LDA.gz
  compensation charges: gauss, rc=0.37, lmax=2
  cutoffs: 2.06(filt), 2.90(core),
  valence states:
                energy  radius
    5s(2.00)   -17.626   1.164
    5p(5.00)    -7.241   1.164
    *s           9.585   1.164
    *p          19.970   1.164
    *d           0.000   1.164

  Using partial waves for I as LCAO basis

Reference energy: -2434708.556191

Spin-polarized calculation.
Magnetic moment: 12.175341

Convergence criteria:
  Maximum total energy change: 0.0005 eV / electron
  Maximum integral of absolute density change: 0.0001 electrons
  Maximum integral of absolute eigenstate change: 4e-08 eV^2
  Maximum change in atomic force: 0.0001 eV / Ang
  Maximum number of iterations: 333

Symmetries present (total): 1

  ( 1  0  0)
  ( 0  1  0)
  ( 0  0  1)

144 k-points: 12 x 12 x 1 Monkhorst-Pack grid
144 k-points in the irreducible part of the Brillouin zone
       k-points in crystal coordinates                weights
   0:    -0.45833333   -0.45833333    0.00000000          1/144
   1:    -0.45833333   -0.37500000    0.00000000          1/144
   2:    -0.45833333   -0.29166667    0.00000000          1/144
   3:    -0.45833333   -0.20833333    0.00000000          1/144
   4:    -0.45833333   -0.12500000    0.00000000          1/144
   5:    -0.45833333   -0.04166667    0.00000000          1/144
   6:    -0.45833333    0.04166667    0.00000000          1/144
   7:    -0.45833333    0.12500000    0.00000000          1/144
   8:    -0.45833333    0.20833333    0.00000000          1/144
   9:    -0.45833333    0.29166667    0.00000000          1/144
          ...
 143:     0.45833333    0.45833333    0.00000000          1/144

Wave functions: Plane wave expansion
  Cutoff energy: 600.000 eV
  Number of coefficients (min, max): 39797, 39902
  Pulay-stress correction: 0.000000 eV/Ang^3 (de/decut=0.000000)
  Using FFTW library
  ScaLapack parameters: grid=1x1, blocksize=None
  Wavefunction extrapolation:
    Improved wavefunction reuse through dual PAW basis 

Occupation numbers: Fermi-Dirac: width=0.0010 eV
 

Eigensolver
   Davidson(niter=2) 

Densities:
  Coarse grid: 42*42*160 grid
  Fine grid: 84*84*320 grid
  Total Charge: 0.000000 

Density mixing:
  Method: difference
  Backend: pulay
  Linear mixing parameter: 0.05
  Mixing with 5 old densities
  Damping of long wave oscillations: 50 

Hamiltonian:
  XC and Coulomb potentials evaluated on a 84*84*320 grid
  Using the LDA Exchange-Correlation functional
  External potential:
    <gpaw.external.NoExternalPotential object at 0x2b332d8f9d00>
 

Memory estimate:
  Process memory now: 40020.99 MiB
  Calculator: 580.26 MiB
    Density: 158.40 MiB
      Arrays: 75.37 MiB
      Localized functions: 52.88 MiB
      Mixer: 30.15 MiB
    Hamiltonian: 57.28 MiB
      Arrays: 55.99 MiB
      XC: 0.00 MiB
      Poisson: 0.00 MiB
      vbar: 1.29 MiB
    Wavefunctions: 364.58 MiB
      Arrays psit_nG: 281.29 MiB
      Eigensolver: 50.83 MiB
      Projections: 1.61 MiB
      Projectors: 18.26 MiB
      PW-descriptor: 12.59 MiB

Total number of cores used: 40
Parallelization over k-points: 40

Number of atoms: 16
Number of atomic orbitals: 84
Number of bands in calculation: 77
Number of valence electrons: 108
Bands to converge: occupied

... initialized

Initializing position-dependent things.

Density initialized from atomic densities
Creating initial wave functions:
  77 bands from LCAO basis set

                                       
                                       
                                       
                                       
                      I                
                            I          
                   I                   
                       Cr  I           
             Cr                        
                 I                     
                         I             
                     I                 
                             I         
               Cr                      
                   I   Cr              
          I                            
                 I                     
                        I              
                                       
                                       
                                       
                                       

Positions:
   0 Cr     0.889135    0.000185   -3.063135    ( 0.0000,  0.0000,  3.4336)
   1 Cr    -2.666158    2.052642   -3.080223    ( 0.0000,  0.0000,  3.4336)
   2 I      1.822012   -2.046247   -4.559876    ( 0.0000,  0.0000, -0.1299)
   3 I     -1.358662    0.216415   -4.560605    ( 0.0000,  0.0000, -0.1299)
   4 I     -4.915070    1.830062   -4.560598    ( 0.0000,  0.0000, -0.1299)
   5 I     -0.074828   -2.063434   -1.594960    ( 0.0000,  0.0000, -0.1299)
   6 I     -0.416551    1.865690   -1.594231    ( 0.0000,  0.0000, -0.1299)
   7 I      3.157525    0.197989   -1.594234    ( 0.0000,  0.0000, -0.1299)
   8 Cr    -2.666887   -2.052642    3.080226    ( 0.0000,  0.0000,  3.4336)
   9 Cr     0.888546   -0.000185    3.063139    ( 0.0000,  0.0000,  3.4336)
  10 I      1.852510    2.063434    1.594959    ( 0.0000,  0.0000, -0.1299)
  11 I      2.194233   -1.865690    1.594230    ( 0.0000,  0.0000, -0.1299)
  12 I     -1.379843   -0.197989    1.594233    ( 0.0000,  0.0000, -0.1299)
  13 I     -0.044330    2.046247    4.559875    ( 0.0000,  0.0000, -0.1299)
  14 I      3.126343   -0.216415    4.560604    ( 0.0000,  0.0000, -0.1299)
  15 I     -0.417976   -1.830062    4.560597    ( 0.0000,  0.0000, -0.1299)

Unit cell:
           periodic     x           y           z      points  spacing
  1. axis:    yes    7.110727   -0.000000    0.000000    42     0.1466
  2. axis:    yes   -3.555363    6.158070    0.000000    42     0.1466
  3. axis:    no     0.000000   -0.000000   27.269192   160     0.1704

  Lengths:   7.110727   7.110727  27.269192
  Angles:   90.000000  90.000000 120.000000

Effective grid spacing dv^(1/3) = 0.1617

                     log10-error:           total        iterations:
           time      wfs    density  force  energy       poisson  magmom
iter:   1  10:35:09                        -76.896269             +12.1076
iter:   2  10:36:01  -0.99  -0.91          -70.503545             +9.9628
iter:   3  10:36:52  -1.83  -1.33          -70.497221             +11.0155
iter:   4  10:37:44  -1.58  -1.38          -70.967960             +12.0927
iter:   5  10:38:36  -2.53  -1.51          -70.628386             +12.0159
iter:   6  10:39:28  -1.91  -1.83          -70.402336             +12.0005
iter:   7  10:40:20  -2.97  -2.20          -70.395282             +12.0039
iter:   8  10:41:11  -3.31  -2.32          -70.390031             +12.0055
iter:   9  10:42:03  -3.68  -2.67          -70.391195             +12.0017
iter:  10  10:42:55  -3.86  -2.86          -70.391877             +11.9998
iter:  11  10:43:47  -3.99  -2.94          -70.392450             +12.0000
iter:  12  10:44:39  -3.99  -3.04          -70.392763             +12.0000
iter:  13  10:45:30  -4.06  -3.11          -70.392974             +12.0000
iter:  14  10:46:22  -4.09  -3.15          -70.393079             +12.0000
iter:  15  10:47:14  -4.19  -3.27          -70.393241             +12.0000
iter:  16  10:48:06  -4.33  -3.32          -70.393360             +12.0000
iter:  17  10:48:58  -4.59  -3.37          -70.393418             +12.0000
iter:  18  10:49:49  -4.74  -3.56          -70.393490             +12.0000
iter:  19  10:50:41  -4.88  -3.66          -70.393537             +12.0000
iter:  20  10:51:33  -5.00  -3.74          -70.393579             +12.0000
iter:  21  10:52:25  -5.18  -4.24          -70.393606             +12.0000
iter:  22  10:53:17  -5.17  -4.25          -70.393628             +12.0000
iter:  23  10:54:09  -5.23  -4.25          -70.393643             +12.0000
iter:  24  10:55:01  -5.33  -4.13          -70.393653             +12.0000
iter:  25  10:55:52  -5.45  -4.24          -70.393660             +12.0000
iter:  26  10:56:44  -5.65  -4.25          -70.393668             +12.0000
iter:  27  10:57:36  -5.79  -4.23          -70.393673             +12.0000
iter:  28  10:58:28  -6.01  -4.27          -70.393678             +12.0000
iter:  29  10:59:19  -6.31  -4.14          -70.393679             +12.0000
iter:  30  11:00:11  -6.45  -4.27          -70.393680             +12.0000
iter:  31  11:01:03  -6.61  -4.30          -70.393681             +12.0000
iter:  32  11:01:55  -6.70  -4.36          -70.393681             +12.0000
iter:  33  11:02:47  -6.75  -4.48          -70.393681             +12.0000
iter:  34  11:03:38  -6.79  -4.62          -70.393682             +12.0000
iter:  35  11:04:30  -7.10  -4.75          -70.393682             +12.0000
iter:  36  11:05:22  -7.13  -4.83          -70.393682             +12.0000
iter:  37  11:06:14  -7.15  -4.94          -70.393682             +12.0000
iter:  38  11:07:16  -7.43  -5.06          -70.393683             +12.0000
iter:  39  11:08:18  -7.61  -5.20    -3.67 -70.393683             +12.0000
iter:  40  11:09:21  -7.75  -5.32    -3.97 -70.393683             +12.0000
iter:  41  11:10:24  -7.81  -5.44    -4.16 -70.393683             +12.0000

Converged after 41 iterations.

Dipole moment: (-31.665506, 0.000418, 0.000716) |e|*Ang

Total magnetic moment: (0.000000, 0.000000, 12.000000)
Local magnetic moments:
   0 Cr ( 0.000000,  0.000000,  2.913278)
   1 Cr ( 0.000000,  0.000000,  2.914122)
   2 I  ( 0.000000,  0.000000, -0.046924)
   3 I  ( 0.000000,  0.000000, -0.047077)
   4 I  ( 0.000000,  0.000000, -0.047031)
   5 I  ( 0.000000,  0.000000, -0.049561)
   6 I  ( 0.000000,  0.000000, -0.049608)
   7 I  ( 0.000000,  0.000000, -0.049989)
   8 Cr ( 0.000000,  0.000000,  2.915438)
   9 Cr ( 0.000000,  0.000000,  2.911267)
  10 I  ( 0.000000,  0.000000, -0.049678)
  11 I  ( 0.000000,  0.000000, -0.049659)
  12 I  ( 0.000000,  0.000000, -0.049626)
  13 I  ( 0.000000,  0.000000, -0.046978)
  14 I  ( 0.000000,  0.000000, -0.046939)
  15 I  ( 0.000000,  0.000000, -0.046952)

Energy contributions relative to reference atoms: (reference = -2434708.556191)

Kinetic:        +23.166290
Potential:      -37.156071
External:        +0.000000
XC:             -56.579867
Entropy (-ST):   -0.000000
Local:           +0.175966
--------------------------
Free energy:    -70.393683
Extrapolated:   -70.393683

Spin contamination: 1.120024 electrons
Showing only first 2 kpts
                      Up                     Down
 Kpt  Band  Eigenvalues  Occupancy  Eigenvalues  Occupancy
  0    52     -2.13922    1.00000     -0.01201    0.00000
  0    53     -2.10404    1.00000      0.00282    0.00000
  0    54     -2.01995    1.00000      0.17958    0.00000
  0    55     -2.01892    1.00000      0.21026    0.00000

  1    52     -2.11820    1.00000     -0.01895    0.00000
  1    53     -2.07484    1.00000      0.01833    0.00000
  1    54     -2.02033    1.00000      0.16925    0.00000
  1    55     -1.99034    1.00000      0.20829    0.00000


Fermi level: -1.19476

Gap: 0.970 eV
Transition (v -> c):
  (s=0, k=11, n=59, [-0.46, 0.46, 0.00]) -> (s=0, k=126, n=60, [0.38, 0.04, 0.00])
Writing to born-0.01-3x-.gpw (mode='all')

Timing:                              incl.     excl.
-----------------------------------------------------------
Hamiltonian:                         2.559     0.011   0.0% |
 Atomic:                             1.070     1.070   0.0% |
  XC Correction:                     0.000     0.000   0.0% |
 Calculate atomic Hamiltonians:      0.323     0.323   0.0% |
 Communicate:                        0.000     0.000   0.0% |
 Initialize Hamiltonian:             0.004     0.004   0.0% |
 Poisson:                            0.014     0.014   0.0% |
 XC 3D grid:                         1.138     1.138   0.0% |
LCAO initialization:                21.190     0.141   0.0% |
 LCAO eigensolver:                   3.320     0.001   0.0% |
  Calculate projections:             0.004     0.004   0.0% |
  DenseAtomicCorrection:             0.006     0.006   0.0% |
  Distribute overlap matrix:         0.000     0.000   0.0% |
  Orbital Layouts:                   0.016     0.016   0.0% |
  Potential matrix:                  3.281     3.281   0.1% |
  Sum over cells:                    0.012     0.012   0.0% |
 LCAO to grid:                      17.445    17.445   0.3% |
 Set positions (LCAO WFS):           0.284     0.051   0.0% |
  Basic WFS set positions:           0.001     0.001   0.0% |
  Basis functions set positions:     0.000     0.000   0.0% |
  P tci:                             0.125     0.125   0.0% |
  ST tci:                            0.065     0.065   0.0% |
  mktci:                             0.044     0.044   0.0% |
PWDescriptor:                        0.087     0.087   0.0% |
SCF-cycle:                        2167.565   520.187   9.7% |---|
 Davidson:                        1309.266   222.071   4.1% |-|
  Apply H:                         215.364   209.022   3.9% |-|
   HMM T:                            6.341     6.341   0.1% |
  Subspace diag:                   267.336     0.057   0.0% |
   calc_h_matrix:                  235.549    19.078   0.4% |
    Apply H:                       216.471   209.919   3.9% |-|
     HMM T:                          6.552     6.552   0.1% |
   diagonalize:                      0.516     0.516   0.0% |
   rotate_psi:                      31.214    31.214   0.6% |
  calc. matrices:                  544.111   110.411   2.1% ||
   Apply H:                        433.700   420.836   7.8% |--|
    HMM T:                          12.864    12.864   0.2% |
  diagonalize:                       4.901     4.901   0.1% |
  rotate_psi:                       55.483    55.483   1.0% |
 Density:                          214.852     0.002   0.0% |
  Atomic density matrices:           0.316     0.316   0.0% |
  Mix:                              36.221    36.221   0.7% |
  Multipole moments:                 0.019     0.019   0.0% |
  Pseudo density:                  178.293   178.291   3.3% ||
   Symmetrize density:               0.003     0.003   0.0% |
 Forces:                            39.322    39.322   0.7% |
 Hamiltonian:                       82.360     0.499   0.0% |
  Atomic:                            6.723     6.723   0.1% |
   XC Correction:                    0.000     0.000   0.0% |
  Calculate atomic Hamiltonians:    26.361    26.361   0.5% |
  Communicate:                       0.007     0.007   0.0% |
  Poisson:                           0.540     0.540   0.0% |
  XC 3D grid:                       48.231    48.231   0.9% |
 Orthonormalize:                     1.578     0.002   0.0% |
  calc_s_matrix:                     0.212     0.212   0.0% |
  inverse-cholesky:                  0.004     0.004   0.0% |
  projections:                       0.964     0.964   0.0% |
  rotate_psi_s:                      0.397     0.397   0.0% |
Set symmetry:                        0.000     0.000   0.0% |
Other:                            3177.462  3177.462  59.2% |-----------------------|
-----------------------------------------------------------
Total:                                      5368.863 100.0%

Memory usage: 39.09 GiB
Date: Sun Jun 26 12:03:17 2022
