
  ___ ___ ___ _ _ _  
 |   |   |_  | | | | 
 | | | | | . | | | | 
 |__ |  _|___|_____|  21.6.1b1
 |___|_|             

User:   madkru@c153.nifl.fysik.dtu.dk
Date:   Sat Jun 25 23:56:38 2022
Arch:   x86_64
Pid:    48887
Python: 3.8.6
gpaw:   /home/niflheim/madkru/new_venv/gpaw/gpaw (1f0dfc9eae)
_gpaw:  /home/niflheim/madkru/new_venv/gpaw/build/lib.linux-x86_64-skylake-3.8/
        _gpaw.cpython-38-x86_64-linux-gnu.so (c1e45bfab3)
ase:    /home/niflheim/madkru/new_venv/ase/ase (version 3.23.0b1-ca38c75a67)
numpy:  /home/modules/software/SciPy-bundle/2020.11-foss-2020b/lib/python3.8/site-packages/numpy (version 1.19.4)
scipy:  /home/modules/software/SciPy-bundle/2020.11-foss-2020b/lib/python3.8/site-packages/scipy (version 1.5.4)
libxc:  4.3.4
units:  Angstrom and eV
cores: 40
OpenMP: False
OMP_NUM_THREADS: 1

Input parameters:
  convergence: {bands: occupied,
                density: 0.0001,
                eigenstates: 4e-08,
                energy: 0.0005,
                forces: 0.0001}
  kpts: [12 12  1]
  mode: {ecut: 600.0,
         gammacentered: False,
         name: pw}
  occupations: {fixmagmom: False,
                name: fermi-dirac,
                width: 0.001}
  symmetry: {point_group: False,
             time_reversal: False}

System changes: positions, numbers, cell, pbc, initial_charges, initial_magmoms 

Initialize ...

Cr-setup:
  name: Chromium
  id: 444e8044bc0f91048286c984738d87f5
  Z: 24.0
  valence: 6
  core: 18
  charge: 0.0
  file: /home/modules/software/GPAW-setups/0.9.20000/Cr.LDA.gz
  compensation charges: gauss, rc=0.35, lmax=2
  cutoffs: 2.14(filt), 3.04(core),
  valence states:
                energy  radius
    4s(1.00)    -4.191   1.164
    4p(0.00)    -1.079   1.217
    3d(5.00)    -3.128   1.111
    *s          23.021   1.164
    *p          26.132   1.217
    *d          24.083   1.111

  Using partial waves for Cr as LCAO basis

I-setup:
  name: Iodine
  id: b559721c0c096a7b4c8fc0e0f4de5cf4
  Z: 53.0
  valence: 7
  core: 46
  charge: 0.0
  file: /home/modules/software/GPAW-setups/0.9.20000/I.LDA.gz
  compensation charges: gauss, rc=0.37, lmax=2
  cutoffs: 2.06(filt), 2.90(core),
  valence states:
                energy  radius
    5s(2.00)   -17.626   1.164
    5p(5.00)    -7.241   1.164
    *s           9.585   1.164
    *p          19.970   1.164
    *d           0.000   1.164

  Using partial waves for I as LCAO basis

Reference energy: -2434708.556191

Spin-polarized calculation.
Magnetic moment: 12.175341

Convergence criteria:
  Maximum total energy change: 0.0005 eV / electron
  Maximum integral of absolute density change: 0.0001 electrons
  Maximum integral of absolute eigenstate change: 4e-08 eV^2
  Maximum change in atomic force: 0.0001 eV / Ang
  Maximum number of iterations: 333

Symmetries present (total): 1

  ( 1  0  0)
  ( 0  1  0)
  ( 0  0  1)

144 k-points: 12 x 12 x 1 Monkhorst-Pack grid
144 k-points in the irreducible part of the Brillouin zone
       k-points in crystal coordinates                weights
   0:    -0.45833333   -0.45833333    0.00000000          1/144
   1:    -0.45833333   -0.37500000    0.00000000          1/144
   2:    -0.45833333   -0.29166667    0.00000000          1/144
   3:    -0.45833333   -0.20833333    0.00000000          1/144
   4:    -0.45833333   -0.12500000    0.00000000          1/144
   5:    -0.45833333   -0.04166667    0.00000000          1/144
   6:    -0.45833333    0.04166667    0.00000000          1/144
   7:    -0.45833333    0.12500000    0.00000000          1/144
   8:    -0.45833333    0.20833333    0.00000000          1/144
   9:    -0.45833333    0.29166667    0.00000000          1/144
          ...
 143:     0.45833333    0.45833333    0.00000000          1/144

Wave functions: Plane wave expansion
  Cutoff energy: 600.000 eV
  Number of coefficients (min, max): 39797, 39902
  Pulay-stress correction: 0.000000 eV/Ang^3 (de/decut=0.000000)
  Using FFTW library
  ScaLapack parameters: grid=1x1, blocksize=None
  Wavefunction extrapolation:
    Improved wavefunction reuse through dual PAW basis 

Occupation numbers: Fermi-Dirac: width=0.0010 eV
 

Eigensolver
   Davidson(niter=2) 

Densities:
  Coarse grid: 42*42*160 grid
  Fine grid: 84*84*320 grid
  Total Charge: 0.000000 

Density mixing:
  Method: difference
  Backend: pulay
  Linear mixing parameter: 0.05
  Mixing with 5 old densities
  Damping of long wave oscillations: 50 

Hamiltonian:
  XC and Coulomb potentials evaluated on a 84*84*320 grid
  Using the LDA Exchange-Correlation functional
  External potential:
    <gpaw.external.NoExternalPotential object at 0x2b33341d6850>
 

Memory estimate:
  Process memory now: 39865.43 MiB
  Calculator: 580.26 MiB
    Density: 158.40 MiB
      Arrays: 75.37 MiB
      Localized functions: 52.88 MiB
      Mixer: 30.15 MiB
    Hamiltonian: 57.28 MiB
      Arrays: 55.99 MiB
      XC: 0.00 MiB
      Poisson: 0.00 MiB
      vbar: 1.29 MiB
    Wavefunctions: 364.58 MiB
      Arrays psit_nG: 281.29 MiB
      Eigensolver: 50.83 MiB
      Projections: 1.61 MiB
      Projectors: 18.26 MiB
      PW-descriptor: 12.59 MiB

Total number of cores used: 40
Parallelization over k-points: 40

Number of atoms: 16
Number of atomic orbitals: 84
Number of bands in calculation: 77
Number of valence electrons: 108
Bands to converge: occupied

... initialized

Initializing position-dependent things.

Density initialized from atomic densities
Creating initial wave functions:
  77 bands from LCAO basis set

                                       
                                       
                                       
                                       
                      I                
                            I          
                   I                   
                       Cr  I           
             Cr                        
                 I                     
                         I             
                     I                 
                             I         
               Cr                      
                   I   Cr              
          I                            
                 I                     
                        I              
                                       
                                       
                                       
                                       

Positions:
   0 Cr     0.889135    0.000185   -3.063135    ( 0.0000,  0.0000,  3.4336)
   1 Cr    -2.676158    2.052642   -3.080223    ( 0.0000,  0.0000,  3.4336)
   2 I      1.822012   -2.046247   -4.559876    ( 0.0000,  0.0000, -0.1299)
   3 I     -1.348662    0.216415   -4.560605    ( 0.0000,  0.0000, -0.1299)
   4 I     -4.915070    1.830062   -4.560598    ( 0.0000,  0.0000, -0.1299)
   5 I     -0.074828   -2.063434   -1.594960    ( 0.0000,  0.0000, -0.1299)
   6 I     -0.416551    1.865690   -1.594231    ( 0.0000,  0.0000, -0.1299)
   7 I      3.157525    0.197989   -1.594234    ( 0.0000,  0.0000, -0.1299)
   8 Cr    -2.666887   -2.052642    3.080226    ( 0.0000,  0.0000,  3.4336)
   9 Cr     0.888546   -0.000185    3.063139    ( 0.0000,  0.0000,  3.4336)
  10 I      1.852510    2.063434    1.594959    ( 0.0000,  0.0000, -0.1299)
  11 I      2.194233   -1.865690    1.594230    ( 0.0000,  0.0000, -0.1299)
  12 I     -1.379843   -0.197989    1.594233    ( 0.0000,  0.0000, -0.1299)
  13 I     -0.044330    2.046247    4.559875    ( 0.0000,  0.0000, -0.1299)
  14 I      3.126343   -0.216415    4.560604    ( 0.0000,  0.0000, -0.1299)
  15 I     -0.417976   -1.830062    4.560597    ( 0.0000,  0.0000, -0.1299)

Unit cell:
           periodic     x           y           z      points  spacing
  1. axis:    yes    7.110727   -0.000000    0.000000    42     0.1466
  2. axis:    yes   -3.555363    6.158070    0.000000    42     0.1466
  3. axis:    no     0.000000   -0.000000   27.269192   160     0.1704

  Lengths:   7.110727   7.110727  27.269192
  Angles:   90.000000  90.000000 120.000000

Effective grid spacing dv^(1/3) = 0.1617

                     log10-error:           total        iterations:
           time      wfs    density  force  energy       poisson  magmom
iter:   1  23:57:59                        -76.899581             +12.1076
iter:   2  23:58:50  -0.99  -0.91          -70.502202             +9.9598
iter:   3  23:59:42  -1.83  -1.33          -70.496715             +11.0138
iter:   4  00:00:33  -1.58  -1.38          -70.967800             +12.0928
iter:   5  00:01:25  -2.53  -1.51          -70.628361             +12.0160
iter:   6  00:02:16  -1.91  -1.83          -70.402057             +12.0005
iter:   7  00:03:08  -2.97  -2.20          -70.395083             +12.0039
iter:   8  00:03:59  -3.31  -2.32          -70.389848             +12.0056
iter:   9  00:04:51  -3.68  -2.67          -70.391008             +12.0017
iter:  10  00:05:42  -3.86  -2.86          -70.391692             +11.9998
iter:  11  00:06:34  -3.99  -2.94          -70.392265             +12.0000
iter:  12  00:07:26  -3.99  -3.04          -70.392577             +12.0000
iter:  13  00:08:17  -4.06  -3.11          -70.392788             +12.0000
iter:  14  00:09:09  -4.09  -3.15          -70.392894             +12.0000
iter:  15  00:10:00  -4.19  -3.27          -70.393056             +12.0000
iter:  16  00:10:52  -4.33  -3.32          -70.393175             +12.0000
iter:  17  00:11:43  -4.60  -3.37          -70.393233             +12.0000
iter:  18  00:12:35  -4.75  -3.56          -70.393304             +12.0000
iter:  19  00:13:26  -4.89  -3.65          -70.393351             +12.0000
iter:  20  00:14:18  -5.00  -3.74          -70.393393             +12.0000
iter:  21  00:15:09  -5.18  -4.25          -70.393420             +12.0000
iter:  22  00:16:01  -5.17  -4.26          -70.393441             +12.0000
iter:  23  00:16:52  -5.22  -4.26          -70.393457             +12.0000
iter:  24  00:17:44  -5.33  -4.12          -70.393467             +12.0000
iter:  25  00:18:35  -5.46  -4.23          -70.393474             +12.0000
iter:  26  00:19:27  -5.56  -4.24          -70.393480             +12.0000
iter:  27  00:20:18  -5.62  -4.22          -70.393484             +12.0000
iter:  28  00:21:10  -5.86  -4.27          -70.393491             +12.0000
iter:  29  00:22:02  -6.26  -4.15          -70.393492             +12.0000
iter:  30  00:22:53  -6.44  -4.27          -70.393495             +12.0000
iter:  31  00:23:45  -6.58  -4.22          -70.393494             +12.0000
iter:  32  00:24:36  -6.77  -4.44          -70.393495             +12.0000
iter:  33  00:25:28  -6.91  -4.47          -70.393496             +12.0000
iter:  34  00:26:19  -7.08  -4.49          -70.393496             +12.0000
iter:  35  00:27:10  -7.15  -4.48          -70.393496             +12.0000
iter:  36  00:28:02  -7.23  -4.50          -70.393496             +12.0000
iter:  37  00:29:03  -7.44  -4.71          -70.393496             +12.0000
iter:  38  00:30:05  -7.47  -4.88    -2.99 -70.393496             +12.0000
iter:  39  00:31:07  -7.72  -5.12    -3.54 -70.393497             +12.0000
iter:  40  00:32:10  -7.79  -5.43    -3.87 -70.393497             +12.0000
iter:  41  00:33:12  -7.98  -5.45    -4.10 -70.393497             +12.0000

Converged after 41 iterations.

Dipole moment: (-31.595698, -0.000717, -0.000010) |e|*Ang

Total magnetic moment: (0.000000, 0.000000, 12.000000)
Local magnetic moments:
   0 Cr ( 0.000000,  0.000000,  2.911299)
   1 Cr ( 0.000000,  0.000000,  2.915378)
   2 I  ( 0.000000,  0.000000, -0.047101)
   3 I  ( 0.000000,  0.000000, -0.047283)
   4 I  ( 0.000000,  0.000000, -0.046467)
   5 I  ( 0.000000,  0.000000, -0.049548)
   6 I  ( 0.000000,  0.000000, -0.050123)
   7 I  ( 0.000000,  0.000000, -0.049303)
   8 Cr ( 0.000000,  0.000000,  2.915437)
   9 Cr ( 0.000000,  0.000000,  2.911293)
  10 I  ( 0.000000,  0.000000, -0.049644)
  11 I  ( 0.000000,  0.000000, -0.049645)
  12 I  ( 0.000000,  0.000000, -0.049700)
  13 I  ( 0.000000,  0.000000, -0.046973)
  14 I  ( 0.000000,  0.000000, -0.046931)
  15 I  ( 0.000000,  0.000000, -0.046959)

Energy contributions relative to reference atoms: (reference = -2434708.556191)

Kinetic:        +23.262830
Potential:      -37.234911
External:        +0.000000
XC:             -56.596659
Entropy (-ST):   -0.000000
Local:           +0.175243
--------------------------
Free energy:    -70.393497
Extrapolated:   -70.393497

Spin contamination: 1.119603 electrons
Showing only first 2 kpts
                      Up                     Down
 Kpt  Band  Eigenvalues  Occupancy  Eigenvalues  Occupancy
  0    52     -2.13832    1.00000     -0.01126    0.00000
  0    53     -2.10354    1.00000      0.00468    0.00000
  0    54     -2.01889    1.00000      0.17969    0.00000
  0    55     -2.01814    1.00000      0.21039    0.00000

  1    52     -2.11825    1.00000     -0.01787    0.00000
  1    53     -2.07500    1.00000      0.02017    0.00000
  1    54     -2.01938    1.00000      0.16918    0.00000
  1    55     -1.98906    1.00000      0.20858    0.00000


Fermi level: -1.19460

Gap: 0.969 eV
Transition (v -> c):
  (s=0, k=138, n=59, [0.46, 0.04, 0.00]) -> (s=0, k=71, n=60, [-0.04, 0.46, 0.00])
Writing to born-0.01-1x-.gpw (mode='all')

Timing:                              incl.     excl.
-----------------------------------------------------------
Hamiltonian:                         2.738     0.011   0.0% |
 Atomic:                             1.240     1.240   0.0% |
  XC Correction:                     0.000     0.000   0.0% |
 Calculate atomic Hamiltonians:      0.325     0.325   0.0% |
 Communicate:                        0.000     0.000   0.0% |
 Initialize Hamiltonian:             0.003     0.003   0.0% |
 Poisson:                            0.013     0.013   0.0% |
 XC 3D grid:                         1.146     1.146   0.0% |
LCAO initialization:                21.057     0.141   0.0% |
 LCAO eigensolver:                   3.313     0.001   0.0% |
  Calculate projections:             0.004     0.004   0.0% |
  DenseAtomicCorrection:             0.005     0.005   0.0% |
  Distribute overlap matrix:         0.000     0.000   0.0% |
  Orbital Layouts:                   0.016     0.016   0.0% |
  Potential matrix:                  3.276     3.276   0.1% |
  Sum over cells:                    0.012     0.012   0.0% |
 LCAO to grid:                      17.309    17.309   0.3% |
 Set positions (LCAO WFS):           0.294     0.050   0.0% |
  Basic WFS set positions:           0.001     0.001   0.0% |
  Basis functions set positions:     0.000     0.000   0.0% |
  P tci:                             0.137     0.137   0.0% |
  ST tci:                            0.064     0.064   0.0% |
  mktci:                             0.043     0.043   0.0% |
PWDescriptor:                        0.086     0.086   0.0% |
SCF-cycle:                        2165.670   476.109   8.9% |---|
 Davidson:                        1342.497   212.527   4.0% |-|
  Apply H:                         233.413   226.256   4.2% |-|
   HMM T:                            7.157     7.157   0.1% |
  Subspace diag:                   283.104     0.057   0.0% |
   calc_h_matrix:                  251.348    18.376   0.3% |
    Apply H:                       232.972   225.508   4.2% |-|
     HMM T:                          7.464     7.464   0.1% |
   diagonalize:                      0.499     0.499   0.0% |
   rotate_psi:                      31.200    31.200   0.6% |
  calc. matrices:                  553.529   101.794   1.9% ||
   Apply H:                        451.736   438.122   8.2% |--|
    HMM T:                          13.613    13.613   0.3% |
  diagonalize:                       4.847     4.847   0.1% |
  rotate_psi:                       55.076    55.076   1.0% |
 Density:                          214.384     0.002   0.0% |
  Atomic density matrices:           0.294     0.294   0.0% |
  Mix:                              35.892    35.892   0.7% |
  Multipole moments:                 0.019     0.019   0.0% |
  Pseudo density:                  178.178   178.176   3.3% ||
   Symmetrize density:               0.003     0.003   0.0% |
 Forces:                            49.300    49.300   0.9% |
 Hamiltonian:                       81.809     0.516   0.0% |
  Atomic:                            5.538     5.538   0.1% |
   XC Correction:                    0.000     0.000   0.0% |
  Calculate atomic Hamiltonians:    26.630    26.630   0.5% |
  Communicate:                       0.008     0.008   0.0% |
  Poisson:                           0.580     0.580   0.0% |
  XC 3D grid:                       48.537    48.537   0.9% |
 Orthonormalize:                     1.571     0.001   0.0% |
  calc_s_matrix:                     0.212     0.212   0.0% |
  inverse-cholesky:                  0.004     0.004   0.0% |
  projections:                       0.961     0.961   0.0% |
  rotate_psi_s:                      0.393     0.393   0.0% |
Set symmetry:                        0.000     0.000   0.0% |
Other:                            3157.836  3157.836  59.1% |-----------------------|
-----------------------------------------------------------
Total:                                      5347.386 100.0%

Memory usage: 38.93 GiB
Date: Sun Jun 26 01:25:45 2022
