
  ___ ___ ___ _ _ _  
 |   |   |_  | | | | 
 | | | | | . | | | | 
 |__ |  _|___|_____|  21.6.1b1
 |___|_|             

User:   madkru@c007.nifl.fysik.dtu.dk
Date:   Wed Jun 29 08:03:17 2022
Arch:   x86_64
Pid:    215850
Python: 3.8.6
gpaw:   /home/niflheim/madkru/new_venv/gpaw/gpaw (1f0dfc9eae)
_gpaw:  /home/niflheim/madkru/new_venv/gpaw/build/lib.linux-x86_64-skylake-3.8/
        _gpaw.cpython-38-x86_64-linux-gnu.so (c1e45bfab3)
ase:    /home/niflheim/madkru/new_venv/ase/ase (version 3.23.0b1-ca38c75a67)
numpy:  /home/modules/software/SciPy-bundle/2020.11-foss-2020b/lib/python3.8/site-packages/numpy (version 1.19.4)
scipy:  /home/modules/software/SciPy-bundle/2020.11-foss-2020b/lib/python3.8/site-packages/scipy (version 1.5.4)
libxc:  4.3.4
units:  Angstrom and eV
cores: 40
OpenMP: False
OMP_NUM_THREADS: 1

Input parameters:
  convergence: {bands: occupied,
                density: 0.0001,
                eigenstates: 4e-08,
                energy: 0.0005,
                forces: 0.0001}
  kpts: [12 12  1]
  mode: {ecut: 600.0,
         gammacentered: False,
         name: pw}
  occupations: {fixmagmom: False,
                name: fermi-dirac,
                width: 0.001}
  symmetry: {point_group: False,
             time_reversal: False}

System changes: positions, numbers, cell, pbc, initial_charges, initial_magmoms 

Initialize ...

Cr-setup:
  name: Chromium
  id: 444e8044bc0f91048286c984738d87f5
  Z: 24.0
  valence: 6
  core: 18
  charge: 0.0
  file: /home/modules/software/GPAW-setups/0.9.20000/Cr.LDA.gz
  compensation charges: gauss, rc=0.35, lmax=2
  cutoffs: 2.14(filt), 3.04(core),
  valence states:
                energy  radius
    4s(1.00)    -4.191   1.164
    4p(0.00)    -1.079   1.217
    3d(5.00)    -3.128   1.111
    *s          23.021   1.164
    *p          26.132   1.217
    *d          24.083   1.111

  Using partial waves for Cr as LCAO basis

I-setup:
  name: Iodine
  id: b559721c0c096a7b4c8fc0e0f4de5cf4
  Z: 53.0
  valence: 7
  core: 46
  charge: 0.0
  file: /home/modules/software/GPAW-setups/0.9.20000/I.LDA.gz
  compensation charges: gauss, rc=0.37, lmax=2
  cutoffs: 2.06(filt), 2.90(core),
  valence states:
                energy  radius
    5s(2.00)   -17.626   1.164
    5p(5.00)    -7.241   1.164
    *s           9.585   1.164
    *p          19.970   1.164
    *d           0.000   1.164

  Using partial waves for I as LCAO basis

Reference energy: -2434708.556191

Spin-polarized calculation.
Magnetic moment: 12.175341

Convergence criteria:
  Maximum total energy change: 0.0005 eV / electron
  Maximum integral of absolute density change: 0.0001 electrons
  Maximum integral of absolute eigenstate change: 4e-08 eV^2
  Maximum change in atomic force: 0.0001 eV / Ang
  Maximum number of iterations: 333

Symmetries present (total): 1

  ( 1  0  0)
  ( 0  1  0)
  ( 0  0  1)

144 k-points: 12 x 12 x 1 Monkhorst-Pack grid
144 k-points in the irreducible part of the Brillouin zone
       k-points in crystal coordinates                weights
   0:    -0.45833333   -0.45833333    0.00000000          1/144
   1:    -0.45833333   -0.37500000    0.00000000          1/144
   2:    -0.45833333   -0.29166667    0.00000000          1/144
   3:    -0.45833333   -0.20833333    0.00000000          1/144
   4:    -0.45833333   -0.12500000    0.00000000          1/144
   5:    -0.45833333   -0.04166667    0.00000000          1/144
   6:    -0.45833333    0.04166667    0.00000000          1/144
   7:    -0.45833333    0.12500000    0.00000000          1/144
   8:    -0.45833333    0.20833333    0.00000000          1/144
   9:    -0.45833333    0.29166667    0.00000000          1/144
          ...
 143:     0.45833333    0.45833333    0.00000000          1/144

Wave functions: Plane wave expansion
  Cutoff energy: 600.000 eV
  Number of coefficients (min, max): 39797, 39902
  Pulay-stress correction: 0.000000 eV/Ang^3 (de/decut=0.000000)
  Using FFTW library
  ScaLapack parameters: grid=1x1, blocksize=None
  Wavefunction extrapolation:
    Improved wavefunction reuse through dual PAW basis 

Occupation numbers: Fermi-Dirac: width=0.0010 eV
 

Eigensolver
   Davidson(niter=2) 

Densities:
  Coarse grid: 42*42*160 grid
  Fine grid: 84*84*320 grid
  Total Charge: 0.000000 

Density mixing:
  Method: difference
  Backend: pulay
  Linear mixing parameter: 0.05
  Mixing with 5 old densities
  Damping of long wave oscillations: 50 

Hamiltonian:
  XC and Coulomb potentials evaluated on a 84*84*320 grid
  Using the LDA Exchange-Correlation functional
  External potential:
    <gpaw.external.NoExternalPotential object at 0x2b89692a2250>
 

Memory estimate:
  Process memory now: 40164.96 MiB
  Calculator: 580.26 MiB
    Density: 158.40 MiB
      Arrays: 75.37 MiB
      Localized functions: 52.88 MiB
      Mixer: 30.15 MiB
    Hamiltonian: 57.28 MiB
      Arrays: 55.99 MiB
      XC: 0.00 MiB
      Poisson: 0.00 MiB
      vbar: 1.29 MiB
    Wavefunctions: 364.58 MiB
      Arrays psit_nG: 281.29 MiB
      Eigensolver: 50.83 MiB
      Projections: 1.61 MiB
      Projectors: 18.26 MiB
      PW-descriptor: 12.59 MiB

Total number of cores used: 40
Parallelization over k-points: 40

Number of atoms: 16
Number of atomic orbitals: 84
Number of bands in calculation: 77
Number of valence electrons: 108
Bands to converge: occupied

... initialized

Initializing position-dependent things.

Density initialized from atomic densities
Creating initial wave functions:
  77 bands from LCAO basis set

                                       
                                       
                                       
                                       
                      I                
                            I          
                   I                   
                       Cr  I           
             Cr                        
                 I                     
                         I             
                     I                 
                             I         
               Cr                      
                   I   Cr              
          I                            
                 I                     
                        I              
                                       
                                       
                                       
                                       

Positions:
   0 Cr     0.889135    0.000185   -3.063135    ( 0.0000,  0.0000,  3.4336)
   1 Cr    -2.666158    2.052642   -3.080223    ( 0.0000,  0.0000,  3.4336)
   2 I      1.822012   -2.046247   -4.559876    ( 0.0000,  0.0000, -0.1299)
   3 I     -1.348662    0.216415   -4.560605    ( 0.0000,  0.0000, -0.1299)
   4 I     -4.915070    1.830062   -4.560598    ( 0.0000,  0.0000, -0.1299)
   5 I     -0.074828   -2.063434   -1.594960    ( 0.0000,  0.0000, -0.1299)
   6 I     -0.416551    1.865690   -1.594231    ( 0.0000,  0.0000, -0.1299)
   7 I      3.157525    0.197989   -1.594234    ( 0.0000,  0.0000, -0.1299)
   8 Cr    -2.666887   -2.052642    3.080226    ( 0.0000,  0.0000,  3.4336)
   9 Cr     0.888546   -0.000185    3.063139    ( 0.0000,  0.0000,  3.4336)
  10 I      1.852510    2.063434    1.594959    ( 0.0000,  0.0000, -0.1299)
  11 I      2.194233   -1.865690    1.594230    ( 0.0000,  0.0000, -0.1299)
  12 I     -1.379843   -0.197989    1.604233    ( 0.0000,  0.0000, -0.1299)
  13 I     -0.044330    2.046247    4.559875    ( 0.0000,  0.0000, -0.1299)
  14 I      3.126343   -0.216415    4.560604    ( 0.0000,  0.0000, -0.1299)
  15 I     -0.417976   -1.830062    4.560597    ( 0.0000,  0.0000, -0.1299)

Unit cell:
           periodic     x           y           z      points  spacing
  1. axis:    yes    7.110727   -0.000000    0.000000    42     0.1466
  2. axis:    yes   -3.555363    6.158070    0.000000    42     0.1466
  3. axis:    no     0.000000   -0.000000   27.269192   160     0.1704

  Lengths:   7.110727   7.110727  27.269192
  Angles:   90.000000  90.000000 120.000000

Effective grid spacing dv^(1/3) = 0.1617

                     log10-error:           total        iterations:
           time      wfs    density  force  energy       poisson  magmom
iter:   1  08:04:38                        -76.906359             +12.1076
iter:   2  08:05:30  -0.99  -0.91          -70.501654             +9.9544
iter:   3  08:06:22  -1.83  -1.33          -70.496667             +11.0109
iter:   4  08:07:14  -1.58  -1.38          -70.970400             +12.0928
iter:   5  08:08:06  -2.53  -1.51          -70.628758             +12.0161
iter:   6  08:08:57  -1.90  -1.83          -70.402457             +12.0006
iter:   7  08:09:49  -2.97  -2.20          -70.395431             +12.0040
iter:   8  08:10:41  -3.31  -2.31          -70.389991             +12.0055
iter:   9  08:11:33  -3.68  -2.67          -70.391171             +12.0017
iter:  10  08:12:25  -3.86  -2.86          -70.391844             +11.9998
iter:  11  08:13:17  -3.99  -2.94          -70.392409             +12.0000
iter:  12  08:14:09  -3.98  -3.06          -70.392713             +12.0000
iter:  13  08:15:01  -4.07  -3.11          -70.392935             +12.0000
iter:  14  08:15:53  -4.08  -3.15          -70.393061             +12.0000
iter:  15  08:16:45  -4.15  -3.25          -70.393229             +12.0000
iter:  16  08:17:37  -4.31  -3.32          -70.393343             +12.0000
iter:  17  08:18:29  -4.49  -3.38          -70.393394             +12.0000
iter:  18  08:19:21  -4.59  -3.58          -70.393457             +12.0000
iter:  19  08:20:12  -4.78  -3.62          -70.393500             +12.0000
iter:  20  08:21:04  -4.79  -3.76          -70.393543             +12.0000
iter:  21  08:21:56  -4.95  -4.05          -70.393577             +12.0000
iter:  22  08:22:48  -5.10  -4.03          -70.393599             +12.0000
iter:  23  08:23:40  -5.17  -4.03          -70.393617             +12.0000
iter:  24  08:24:32  -5.23  -3.94          -70.393624             +12.0000
iter:  25  08:25:24  -5.41  -4.17          -70.393635             +12.0000
iter:  26  08:26:16  -5.55  -4.24          -70.393641             +12.0000
iter:  27  08:27:08  -5.70  -4.30          -70.393646             +12.0000
iter:  28  08:28:00  -5.81  -4.36          -70.393649             +12.0000
iter:  29  08:28:51  -5.99  -4.36          -70.393653             +12.0000
iter:  30  08:29:43  -6.07  -4.34          -70.393655             +12.0000
iter:  31  08:30:35  -6.43  -4.35          -70.393657             +12.0000
iter:  32  08:31:27  -6.50  -4.35          -70.393658             +12.0000
iter:  33  08:32:19  -6.54  -4.34          -70.393658             +12.0000
iter:  34  08:33:11  -6.88  -4.33          -70.393659             +12.0000
iter:  35  08:34:02  -7.02  -4.34          -70.393660             +12.0000
iter:  36  08:34:54  -7.01  -4.36          -70.393659             +12.0000
iter:  37  08:35:46  -7.21  -4.67          -70.393659             +12.0000
iter:  38  08:36:38  -7.31  -4.85          -70.393660             +12.0000
iter:  39  08:37:30  -7.36  -4.93          -70.393660             +12.0000
iter:  40  08:38:31  -7.54  -5.18          -70.393660             +12.0000
iter:  41  08:39:34  -7.62  -5.26    -3.33 -70.393660             +12.0000
iter:  42  08:40:36  -7.78  -5.42    -3.60 -70.393660             +12.0000
iter:  43  08:41:39  -7.94  -5.54    -4.05 -70.393660             +12.0000

Converged after 43 iterations.

Dipole moment: (-31.568776, -0.000109, 0.088175) |e|*Ang

Total magnetic moment: (0.000000, 0.000000, 12.000000)
Local magnetic moments:
   0 Cr ( 0.000000,  0.000000,  2.911345)
   1 Cr ( 0.000000,  0.000000,  2.915454)
   2 I  ( 0.000000,  0.000000, -0.046960)
   3 I  ( 0.000000,  0.000000, -0.046975)
   4 I  ( 0.000000,  0.000000, -0.046943)
   5 I  ( 0.000000,  0.000000, -0.049589)
   6 I  ( 0.000000,  0.000000, -0.049592)
   7 I  ( 0.000000,  0.000000, -0.049640)
   8 Cr ( 0.000000,  0.000000,  2.914236)
   9 Cr ( 0.000000,  0.000000,  2.910209)
  10 I  ( 0.000000,  0.000000, -0.049477)
  11 I  ( 0.000000,  0.000000, -0.049446)
  12 I  ( 0.000000,  0.000000, -0.049060)
  13 I  ( 0.000000,  0.000000, -0.046856)
  14 I  ( 0.000000,  0.000000, -0.046763)
  15 I  ( 0.000000,  0.000000, -0.047155)

Energy contributions relative to reference atoms: (reference = -2434708.556191)

Kinetic:        +23.519623
Potential:      -37.452428
External:        +0.000000
XC:             -56.637823
Entropy (-ST):   -0.000000
Local:           +0.176968
--------------------------
Free energy:    -70.393660
Extrapolated:   -70.393660

Spin contamination: 1.118097 electrons
Showing only first 2 kpts
                      Up                     Down
 Kpt  Band  Eigenvalues  Occupancy  Eigenvalues  Occupancy
  0    52     -2.13782    1.00000     -0.01297    0.00000
  0    53     -2.10312    1.00000      0.00227    0.00000
  0    54     -2.01950    1.00000      0.17944    0.00000
  0    55     -2.01851    1.00000      0.21031    0.00000

  1    52     -2.11775    1.00000     -0.01986    0.00000
  1    53     -2.07386    1.00000      0.01831    0.00000
  1    54     -2.02019    1.00000      0.16930    0.00000
  1    55     -1.98973    1.00000      0.20834    0.00000


Fermi level: -1.16254

Gap: 0.971 eV
Transition (v -> c):
  (s=0, k=138, n=59, [0.46, 0.04, 0.00]) -> (s=0, k=10, n=60, [-0.46, 0.38, 0.00])
Writing to born-0.01-12z+.gpw (mode='all')

Timing:                              incl.     excl.
-----------------------------------------------------------
Hamiltonian:                         2.881     0.011   0.0% |
 Atomic:                             1.392     1.392   0.0% |
  XC Correction:                     0.000     0.000   0.0% |
 Calculate atomic Hamiltonians:      0.325     0.325   0.0% |
 Communicate:                        0.000     0.000   0.0% |
 Initialize Hamiltonian:             0.004     0.004   0.0% |
 Poisson:                            0.014     0.014   0.0% |
 XC 3D grid:                         1.135     1.135   0.0% |
LCAO initialization:                20.509     0.142   0.0% |
 LCAO eigensolver:                   3.063     0.001   0.0% |
  Calculate projections:             0.004     0.004   0.0% |
  DenseAtomicCorrection:             0.006     0.006   0.0% |
  Distribute overlap matrix:         0.001     0.001   0.0% |
  Orbital Layouts:                   0.016     0.016   0.0% |
  Potential matrix:                  3.025     3.025   0.1% |
  Sum over cells:                    0.011     0.011   0.0% |
 LCAO to grid:                      17.009    17.009   0.3% |
 Set positions (LCAO WFS):           0.296     0.050   0.0% |
  Basic WFS set positions:           0.001     0.001   0.0% |
  Basis functions set positions:     0.000     0.000   0.0% |
  P tci:                             0.139     0.139   0.0% |
  ST tci:                            0.064     0.064   0.0% |
  mktci:                             0.042     0.042   0.0% |
PWDescriptor:                        0.087     0.087   0.0% |
SCF-cycle:                        2273.559   483.087   8.2% |--|
 Davidson:                        1435.626   220.844   3.8% |-|
  Apply H:                         253.325   244.490   4.2% |-|
   HMM T:                            8.835     8.835   0.2% |
  Subspace diag:                   303.891     0.064   0.0% |
   calc_h_matrix:                  270.095    18.494   0.3% |
    Apply H:                       251.602   242.428   4.1% |-|
     HMM T:                          9.173     9.173   0.2% |
   diagonalize:                      0.530     0.530   0.0% |
   rotate_psi:                      33.201    33.201   0.6% |
  calc. matrices:                  594.225   103.596   1.8% ||
   Apply H:                        490.629   473.329   8.0% |--|
    HMM T:                          17.299    17.299   0.3% |
  diagonalize:                       5.005     5.005   0.1% |
  rotate_psi:                       58.336    58.336   1.0% |
 Density:                          227.880     0.001   0.0% |
  Atomic density matrices:           0.301     0.301   0.0% |
  Mix:                              38.826    38.826   0.7% |
  Multipole moments:                 0.020     0.020   0.0% |
  Pseudo density:                  188.731   188.728   3.2% ||
   Symmetrize density:               0.003     0.003   0.0% |
 Forces:                            39.412    39.412   0.7% |
 Hamiltonian:                       85.875     0.728   0.0% |
  Atomic:                            5.270     5.269   0.1% |
   XC Correction:                    0.000     0.000   0.0% |
  Calculate atomic Hamiltonians:    28.254    28.254   0.5% |
  Communicate:                       0.009     0.009   0.0% |
  Poisson:                           0.602     0.602   0.0% |
  XC 3D grid:                       51.013    51.013   0.9% |
 Orthonormalize:                     1.680     0.002   0.0% |
  calc_s_matrix:                     0.223     0.223   0.0% |
  inverse-cholesky:                  0.004     0.004   0.0% |
  projections:                       1.015     1.015   0.0% |
  rotate_psi_s:                      0.436     0.436   0.0% |
Set symmetry:                        0.000     0.000   0.0% |
Other:                            3587.857  3587.857  61.0% |-----------------------|
-----------------------------------------------------------
Total:                                      5884.894 100.0%

Memory usage: 39.22 GiB
Date: Wed Jun 29 09:41:22 2022
