
  ___ ___ ___ _ _ _  
 |   |   |_  | | | | 
 | | | | | . | | | | 
 |__ |  _|___|_____|  21.6.1b1
 |___|_|             

User:   madkru@c153.nifl.fysik.dtu.dk
Date:   Sun Jun 26 19:39:16 2022
Arch:   x86_64
Pid:    48887
Python: 3.8.6
gpaw:   /home/niflheim/madkru/new_venv/gpaw/gpaw (1f0dfc9eae)
_gpaw:  /home/niflheim/madkru/new_venv/gpaw/build/lib.linux-x86_64-skylake-3.8/
        _gpaw.cpython-38-x86_64-linux-gnu.so (c1e45bfab3)
ase:    /home/niflheim/madkru/new_venv/ase/ase (version 3.23.0b1-ca38c75a67)
numpy:  /home/modules/software/SciPy-bundle/2020.11-foss-2020b/lib/python3.8/site-packages/numpy (version 1.19.4)
scipy:  /home/modules/software/SciPy-bundle/2020.11-foss-2020b/lib/python3.8/site-packages/scipy (version 1.5.4)
libxc:  4.3.4
units:  Angstrom and eV
cores: 40
OpenMP: False
OMP_NUM_THREADS: 1

Input parameters:
  convergence: {bands: occupied,
                density: 0.0001,
                eigenstates: 4e-08,
                energy: 0.0005,
                forces: 0.0001}
  kpts: [12 12  1]
  mode: {ecut: 600.0,
         gammacentered: False,
         name: pw}
  occupations: {fixmagmom: False,
                name: fermi-dirac,
                width: 0.001}
  symmetry: {point_group: False,
             time_reversal: False}

System changes: positions, numbers, cell, pbc, initial_charges, initial_magmoms 

Initialize ...

Cr-setup:
  name: Chromium
  id: 444e8044bc0f91048286c984738d87f5
  Z: 24.0
  valence: 6
  core: 18
  charge: 0.0
  file: /home/modules/software/GPAW-setups/0.9.20000/Cr.LDA.gz
  compensation charges: gauss, rc=0.35, lmax=2
  cutoffs: 2.14(filt), 3.04(core),
  valence states:
                energy  radius
    4s(1.00)    -4.191   1.164
    4p(0.00)    -1.079   1.217
    3d(5.00)    -3.128   1.111
    *s          23.021   1.164
    *p          26.132   1.217
    *d          24.083   1.111

  Using partial waves for Cr as LCAO basis

I-setup:
  name: Iodine
  id: b559721c0c096a7b4c8fc0e0f4de5cf4
  Z: 53.0
  valence: 7
  core: 46
  charge: 0.0
  file: /home/modules/software/GPAW-setups/0.9.20000/I.LDA.gz
  compensation charges: gauss, rc=0.37, lmax=2
  cutoffs: 2.06(filt), 2.90(core),
  valence states:
                energy  radius
    5s(2.00)   -17.626   1.164
    5p(5.00)    -7.241   1.164
    *s           9.585   1.164
    *p          19.970   1.164
    *d           0.000   1.164

  Using partial waves for I as LCAO basis

Reference energy: -2434708.556191

Spin-polarized calculation.
Magnetic moment: 12.175341

Convergence criteria:
  Maximum total energy change: 0.0005 eV / electron
  Maximum integral of absolute density change: 0.0001 electrons
  Maximum integral of absolute eigenstate change: 4e-08 eV^2
  Maximum change in atomic force: 0.0001 eV / Ang
  Maximum number of iterations: 333

Symmetries present (total): 1

  ( 1  0  0)
  ( 0  1  0)
  ( 0  0  1)

144 k-points: 12 x 12 x 1 Monkhorst-Pack grid
144 k-points in the irreducible part of the Brillouin zone
       k-points in crystal coordinates                weights
   0:    -0.45833333   -0.45833333    0.00000000          1/144
   1:    -0.45833333   -0.37500000    0.00000000          1/144
   2:    -0.45833333   -0.29166667    0.00000000          1/144
   3:    -0.45833333   -0.20833333    0.00000000          1/144
   4:    -0.45833333   -0.12500000    0.00000000          1/144
   5:    -0.45833333   -0.04166667    0.00000000          1/144
   6:    -0.45833333    0.04166667    0.00000000          1/144
   7:    -0.45833333    0.12500000    0.00000000          1/144
   8:    -0.45833333    0.20833333    0.00000000          1/144
   9:    -0.45833333    0.29166667    0.00000000          1/144
          ...
 143:     0.45833333    0.45833333    0.00000000          1/144

Wave functions: Plane wave expansion
  Cutoff energy: 600.000 eV
  Number of coefficients (min, max): 39797, 39902
  Pulay-stress correction: 0.000000 eV/Ang^3 (de/decut=0.000000)
  Using FFTW library
  ScaLapack parameters: grid=1x1, blocksize=None
  Wavefunction extrapolation:
    Improved wavefunction reuse through dual PAW basis 

Occupation numbers: Fermi-Dirac: width=0.0010 eV
 

Eigensolver
   Davidson(niter=2) 

Densities:
  Coarse grid: 42*42*160 grid
  Fine grid: 84*84*320 grid
  Total Charge: 0.000000 

Density mixing:
  Method: difference
  Backend: pulay
  Linear mixing parameter: 0.05
  Mixing with 5 old densities
  Damping of long wave oscillations: 50 

Hamiltonian:
  XC and Coulomb potentials evaluated on a 84*84*320 grid
  Using the LDA Exchange-Correlation functional
  External potential:
    <gpaw.external.NoExternalPotential object at 0x2b33280d4d00>
 

Memory estimate:
  Process memory now: 40075.95 MiB
  Calculator: 580.26 MiB
    Density: 158.40 MiB
      Arrays: 75.37 MiB
      Localized functions: 52.88 MiB
      Mixer: 30.15 MiB
    Hamiltonian: 57.28 MiB
      Arrays: 55.99 MiB
      XC: 0.00 MiB
      Poisson: 0.00 MiB
      vbar: 1.29 MiB
    Wavefunctions: 364.58 MiB
      Arrays psit_nG: 281.29 MiB
      Eigensolver: 50.83 MiB
      Projections: 1.61 MiB
      Projectors: 18.26 MiB
      PW-descriptor: 12.59 MiB

Total number of cores used: 40
Parallelization over k-points: 40

Number of atoms: 16
Number of atomic orbitals: 84
Number of bands in calculation: 77
Number of valence electrons: 108
Bands to converge: occupied

... initialized

Initializing position-dependent things.

Density initialized from atomic densities
Creating initial wave functions:
  77 bands from LCAO basis set

                                       
                                       
                                       
                                       
                      I                
                            I          
                   I                   
                       Cr  I           
             Cr                        
                 I                     
                         I             
                     I                 
                             I         
               Cr                      
                   I   Cr              
          I                            
                 I                     
                        I              
                                       
                                       
                                       
                                       

Positions:
   0 Cr     0.889135    0.000185   -3.063135    ( 0.0000,  0.0000,  3.4336)
   1 Cr    -2.666158    2.052642   -3.080223    ( 0.0000,  0.0000,  3.4336)
   2 I      1.822012   -2.046247   -4.559876    ( 0.0000,  0.0000, -0.1299)
   3 I     -1.348662    0.216415   -4.560605    ( 0.0000,  0.0000, -0.1299)
   4 I     -4.915070    1.830062   -4.570598    ( 0.0000,  0.0000, -0.1299)
   5 I     -0.074828   -2.063434   -1.594960    ( 0.0000,  0.0000, -0.1299)
   6 I     -0.416551    1.865690   -1.594231    ( 0.0000,  0.0000, -0.1299)
   7 I      3.157525    0.197989   -1.594234    ( 0.0000,  0.0000, -0.1299)
   8 Cr    -2.666887   -2.052642    3.080226    ( 0.0000,  0.0000,  3.4336)
   9 Cr     0.888546   -0.000185    3.063139    ( 0.0000,  0.0000,  3.4336)
  10 I      1.852510    2.063434    1.594959    ( 0.0000,  0.0000, -0.1299)
  11 I      2.194233   -1.865690    1.594230    ( 0.0000,  0.0000, -0.1299)
  12 I     -1.379843   -0.197989    1.594233    ( 0.0000,  0.0000, -0.1299)
  13 I     -0.044330    2.046247    4.559875    ( 0.0000,  0.0000, -0.1299)
  14 I      3.126343   -0.216415    4.560604    ( 0.0000,  0.0000, -0.1299)
  15 I     -0.417976   -1.830062    4.560597    ( 0.0000,  0.0000, -0.1299)

Unit cell:
           periodic     x           y           z      points  spacing
  1. axis:    yes    7.110727   -0.000000    0.000000    42     0.1466
  2. axis:    yes   -3.555363    6.158070    0.000000    42     0.1466
  3. axis:    no     0.000000   -0.000000   27.269192   160     0.1704

  Lengths:   7.110727   7.110727  27.269192
  Angles:   90.000000  90.000000 120.000000

Effective grid spacing dv^(1/3) = 0.1617

                     log10-error:           total        iterations:
           time      wfs    density  force  energy       poisson  magmom
iter:   1  19:40:37                        -76.888679             +12.1076
iter:   2  19:41:29  -0.99  -0.91          -70.506168             +9.9688
iter:   3  19:42:20  -1.83  -1.33          -70.497783             +11.0189
iter:   4  19:43:12  -1.58  -1.38          -70.969054             +12.0925
iter:   5  19:44:04  -2.53  -1.51          -70.628029             +12.0157
iter:   6  19:44:56  -1.91  -1.83          -70.402579             +12.0005
iter:   7  19:45:48  -2.97  -2.20          -70.395246             +12.0039
iter:   8  19:46:39  -3.31  -2.32          -70.390010             +12.0055
iter:   9  19:47:31  -3.68  -2.68          -70.391188             +12.0017
iter:  10  19:48:23  -3.86  -2.86          -70.391862             +11.9998
iter:  11  19:49:15  -3.99  -2.95          -70.392429             +12.0000
iter:  12  19:50:07  -3.98  -3.05          -70.392738             +12.0000
iter:  13  19:50:59  -4.07  -3.12          -70.392952             +12.0000
iter:  14  19:51:50  -4.08  -3.16          -70.393072             +12.0000
iter:  15  19:52:42  -4.16  -3.27          -70.393235             +12.0000
iter:  16  19:53:34  -4.31  -3.32          -70.393353             +12.0000
iter:  17  19:54:26  -4.55  -3.37          -70.393409             +12.0000
iter:  18  19:55:18  -4.67  -3.58          -70.393477             +12.0000
iter:  19  19:56:09  -4.83  -3.63          -70.393522             +12.0000
iter:  20  19:57:01  -4.87  -3.76          -70.393566             +12.0000
iter:  21  19:57:53  -5.03  -4.01          -70.393598             +12.0000
iter:  22  19:58:45  -5.21  -3.99          -70.393620             +12.0000
iter:  23  19:59:37  -5.31  -4.00          -70.393636             +12.0000
iter:  24  20:00:29  -5.33  -3.95          -70.393644             +12.0000
iter:  25  20:01:20  -5.45  -4.25          -70.393651             +12.0000
iter:  26  20:02:12  -5.56  -4.31          -70.393657             +12.0000
iter:  27  20:03:04  -5.65  -4.33          -70.393661             +12.0000
iter:  28  20:03:56  -5.83  -4.33          -70.393665             +12.0000
iter:  29  20:04:48  -5.96  -4.34          -70.393669             +12.0000
iter:  30  20:05:39  -6.08  -4.36          -70.393670             +12.0000
iter:  31  20:06:31  -6.23  -4.56          -70.393672             +12.0000
iter:  32  20:07:23  -6.28  -4.66          -70.393672             +12.0000
iter:  33  20:08:15  -6.43  -4.85          -70.393674             +12.0000
iter:  34  20:09:07  -6.66  -4.99          -70.393674             +12.0000
iter:  35  20:09:58  -6.73  -5.03          -70.393674             +12.0000
iter:  36  20:10:50  -6.92  -5.06          -70.393675             +12.0000
iter:  37  20:11:42  -7.17  -5.19          -70.393675             +12.0000
iter:  38  20:12:34  -7.26  -5.48          -70.393675             +12.0000
iter:  39  20:13:26  -7.39  -5.58          -70.393675             +12.0000
iter:  40  20:14:27  -7.51  -5.61          -70.393675             +12.0000
iter:  41  20:15:30  -7.59  -5.61    -4.70 -70.393676             +12.0000

Converged after 41 iterations.

Dipole moment: (-31.571275, 0.000928, -0.000536) |e|*Ang

Total magnetic moment: (0.000000, 0.000000, 12.000000)
Local magnetic moments:
   0 Cr ( 0.000000,  0.000000,  2.912373)
   1 Cr ( 0.000000,  0.000000,  2.916523)
   2 I  ( 0.000000,  0.000000, -0.047223)
   3 I  ( 0.000000,  0.000000, -0.047181)
   4 I  ( 0.000000,  0.000000, -0.047443)
   5 I  ( 0.000000,  0.000000, -0.049850)
   6 I  ( 0.000000,  0.000000, -0.049836)
   7 I  ( 0.000000,  0.000000, -0.049427)
   8 Cr ( 0.000000,  0.000000,  2.915480)
   9 Cr ( 0.000000,  0.000000,  2.911319)
  10 I  ( 0.000000,  0.000000, -0.049719)
  11 I  ( 0.000000,  0.000000, -0.049632)
  12 I  ( 0.000000,  0.000000, -0.049663)
  13 I  ( 0.000000,  0.000000, -0.046977)
  14 I  ( 0.000000,  0.000000, -0.046935)
  15 I  ( 0.000000,  0.000000, -0.046959)

Energy contributions relative to reference atoms: (reference = -2434708.556191)

Kinetic:        +22.965591
Potential:      -36.993074
External:        +0.000000
XC:             -56.542369
Entropy (-ST):   -0.000000
Local:           +0.176176
--------------------------
Free energy:    -70.393676
Extrapolated:   -70.393676

Spin contamination: 1.121138 electrons
Showing only first 2 kpts
                      Up                     Down
 Kpt  Band  Eigenvalues  Occupancy  Eigenvalues  Occupancy
  0    52     -2.13943    1.00000     -0.01261    0.00000
  0    53     -2.10338    1.00000      0.00328    0.00000
  0    54     -2.02144    1.00000      0.18052    0.00000
  0    55     -2.01981    1.00000      0.21122    0.00000

  1    52     -2.11859    1.00000     -0.01943    0.00000
  1    53     -2.07441    1.00000      0.01843    0.00000
  1    54     -2.02114    1.00000      0.17024    0.00000
  1    55     -1.99146    1.00000      0.20815    0.00000


Fermi level: -1.19471

Gap: 0.969 eV
Transition (v -> c):
  (s=0, k=11, n=59, [-0.46, 0.46, 0.00]) -> (s=0, k=72, n=60, [0.04, -0.46, 0.00])
Writing to born-0.01-4z-.gpw (mode='all')

Timing:                              incl.     excl.
-----------------------------------------------------------
Hamiltonian:                         2.638     0.010   0.0% |
 Atomic:                             1.128     1.128   0.0% |
  XC Correction:                     0.000     0.000   0.0% |
 Calculate atomic Hamiltonians:      0.337     0.337   0.0% |
 Communicate:                        0.000     0.000   0.0% |
 Initialize Hamiltonian:             0.004     0.004   0.0% |
 Poisson:                            0.011     0.011   0.0% |
 XC 3D grid:                         1.147     1.147   0.0% |
LCAO initialization:                21.148     0.140   0.0% |
 LCAO eigensolver:                   3.316     0.001   0.0% |
  Calculate projections:             0.004     0.004   0.0% |
  DenseAtomicCorrection:             0.005     0.005   0.0% |
  Distribute overlap matrix:         0.000     0.000   0.0% |
  Orbital Layouts:                   0.016     0.016   0.0% |
  Potential matrix:                  3.279     3.279   0.1% |
  Sum over cells:                    0.012     0.012   0.0% |
 LCAO to grid:                      17.411    17.411   0.3% |
 Set positions (LCAO WFS):           0.281     0.050   0.0% |
  Basic WFS set positions:           0.001     0.001   0.0% |
  Basis functions set positions:     0.000     0.000   0.0% |
  P tci:                             0.123     0.123   0.0% |
  ST tci:                            0.064     0.064   0.0% |
  mktci:                             0.043     0.043   0.0% |
PWDescriptor:                        0.087     0.087   0.0% |
SCF-cycle:                        2145.391   531.046   9.2% |---|
 Davidson:                        1297.249   222.509   3.8% |-|
  Apply H:                         212.160   205.771   3.5% ||
   HMM T:                            6.389     6.389   0.1% |
  Subspace diag:                   263.042     0.055   0.0% |
   calc_h_matrix:                  231.330    18.977   0.3% |
    Apply H:                       212.353   205.745   3.5% ||
     HMM T:                          6.608     6.608   0.1% |
   diagonalize:                      0.516     0.516   0.0% |
   rotate_psi:                      31.140    31.140   0.5% |
  calc. matrices:                  538.823   110.837   1.9% ||
   Apply H:                        427.986   414.732   7.2% |--|
    HMM T:                          13.254    13.254   0.2% |
  diagonalize:                       4.988     4.988   0.1% |
  rotate_psi:                       55.727    55.727   1.0% |
 Density:                          213.536     0.002   0.0% |
  Atomic density matrices:           0.293     0.293   0.0% |
  Mix:                              36.379    36.379   0.6% |
  Multipole moments:                 0.019     0.019   0.0% |
  Pseudo density:                  176.844   176.841   3.0% ||
   Symmetrize density:               0.003     0.003   0.0% |
 Forces:                            19.837    19.837   0.3% |
 Hamiltonian:                       82.098     0.681   0.0% |
  Atomic:                            5.319     5.319   0.1% |
   XC Correction:                    0.000     0.000   0.0% |
  Calculate atomic Hamiltonians:    26.482    26.482   0.5% |
  Communicate:                       0.007     0.007   0.0% |
  Poisson:                           0.464     0.464   0.0% |
  XC 3D grid:                       49.146    49.146   0.8% |
 Orthonormalize:                     1.625     0.001   0.0% |
  calc_s_matrix:                     0.217     0.217   0.0% |
  inverse-cholesky:                  0.004     0.004   0.0% |
  projections:                       0.991     0.991   0.0% |
  rotate_psi_s:                      0.412     0.412   0.0% |
Set symmetry:                        0.000     0.000   0.0% |
Other:                            3628.985  3628.985  62.6% |------------------------|
-----------------------------------------------------------
Total:                                      5798.249 100.0%

Memory usage: 39.14 GiB
Date: Sun Jun 26 21:15:54 2022
