
  ___ ___ ___ _ _ _  
 |   |   |_  | | | | 
 | | | | | . | | | | 
 |__ |  _|___|_____|  21.6.1b1
 |___|_|             

User:   madkru@c153.nifl.fysik.dtu.dk
Date:   Sat Jun 25 19:38:26 2022
Arch:   x86_64
Pid:    48887
Python: 3.8.6
gpaw:   /home/niflheim/madkru/new_venv/gpaw/gpaw (1f0dfc9eae)
_gpaw:  /home/niflheim/madkru/new_venv/gpaw/build/lib.linux-x86_64-skylake-3.8/
        _gpaw.cpython-38-x86_64-linux-gnu.so (c1e45bfab3)
ase:    /home/niflheim/madkru/new_venv/ase/ase (version 3.23.0b1-ca38c75a67)
numpy:  /home/modules/software/SciPy-bundle/2020.11-foss-2020b/lib/python3.8/site-packages/numpy (version 1.19.4)
scipy:  /home/modules/software/SciPy-bundle/2020.11-foss-2020b/lib/python3.8/site-packages/scipy (version 1.5.4)
libxc:  4.3.4
units:  Angstrom and eV
cores: 40
OpenMP: False
OMP_NUM_THREADS: 1

Input parameters:
  convergence: {bands: occupied,
                density: 0.0001,
                eigenstates: 4e-08,
                energy: 0.0005,
                forces: 0.0001}
  kpts: [12 12  1]
  mode: {ecut: 600.0,
         gammacentered: False,
         name: pw}
  occupations: {fixmagmom: False,
                name: fermi-dirac,
                width: 0.001}
  symmetry: {point_group: False,
             time_reversal: False}

System changes: positions, numbers, cell, pbc, initial_charges, initial_magmoms 

Initialize ...

Cr-setup:
  name: Chromium
  id: 444e8044bc0f91048286c984738d87f5
  Z: 24.0
  valence: 6
  core: 18
  charge: 0.0
  file: /home/modules/software/GPAW-setups/0.9.20000/Cr.LDA.gz
  compensation charges: gauss, rc=0.35, lmax=2
  cutoffs: 2.14(filt), 3.04(core),
  valence states:
                energy  radius
    4s(1.00)    -4.191   1.164
    4p(0.00)    -1.079   1.217
    3d(5.00)    -3.128   1.111
    *s          23.021   1.164
    *p          26.132   1.217
    *d          24.083   1.111

  Using partial waves for Cr as LCAO basis

I-setup:
  name: Iodine
  id: b559721c0c096a7b4c8fc0e0f4de5cf4
  Z: 53.0
  valence: 7
  core: 46
  charge: 0.0
  file: /home/modules/software/GPAW-setups/0.9.20000/I.LDA.gz
  compensation charges: gauss, rc=0.37, lmax=2
  cutoffs: 2.06(filt), 2.90(core),
  valence states:
                energy  radius
    5s(2.00)   -17.626   1.164
    5p(5.00)    -7.241   1.164
    *s           9.585   1.164
    *p          19.970   1.164
    *d           0.000   1.164

  Using partial waves for I as LCAO basis

Reference energy: -2434708.556191

Spin-polarized calculation.
Magnetic moment: 12.175341

Convergence criteria:
  Maximum total energy change: 0.0005 eV / electron
  Maximum integral of absolute density change: 0.0001 electrons
  Maximum integral of absolute eigenstate change: 4e-08 eV^2
  Maximum change in atomic force: 0.0001 eV / Ang
  Maximum number of iterations: 333

Symmetries present (total): 1

  ( 1  0  0)
  ( 0  1  0)
  ( 0  0  1)

144 k-points: 12 x 12 x 1 Monkhorst-Pack grid
144 k-points in the irreducible part of the Brillouin zone
       k-points in crystal coordinates                weights
   0:    -0.45833333   -0.45833333    0.00000000          1/144
   1:    -0.45833333   -0.37500000    0.00000000          1/144
   2:    -0.45833333   -0.29166667    0.00000000          1/144
   3:    -0.45833333   -0.20833333    0.00000000          1/144
   4:    -0.45833333   -0.12500000    0.00000000          1/144
   5:    -0.45833333   -0.04166667    0.00000000          1/144
   6:    -0.45833333    0.04166667    0.00000000          1/144
   7:    -0.45833333    0.12500000    0.00000000          1/144
   8:    -0.45833333    0.20833333    0.00000000          1/144
   9:    -0.45833333    0.29166667    0.00000000          1/144
          ...
 143:     0.45833333    0.45833333    0.00000000          1/144

Wave functions: Plane wave expansion
  Cutoff energy: 600.000 eV
  Number of coefficients (min, max): 39797, 39902
  Pulay-stress correction: 0.000000 eV/Ang^3 (de/decut=0.000000)
  Using FFTW library
  ScaLapack parameters: grid=1x1, blocksize=None
  Wavefunction extrapolation:
    Improved wavefunction reuse through dual PAW basis 

Occupation numbers: Fermi-Dirac: width=0.0010 eV
 

Eigensolver
   Davidson(niter=2) 

Densities:
  Coarse grid: 42*42*160 grid
  Fine grid: 84*84*320 grid
  Total Charge: 0.000000 

Density mixing:
  Method: difference
  Backend: pulay
  Linear mixing parameter: 0.05
  Mixing with 5 old densities
  Damping of long wave oscillations: 50 

Hamiltonian:
  XC and Coulomb potentials evaluated on a 84*84*320 grid
  Using the LDA Exchange-Correlation functional
  External potential:
    <gpaw.external.NoExternalPotential object at 0x2b33280d4580>
 

Memory estimate:
  Process memory now: 39265.36 MiB
  Calculator: 580.26 MiB
    Density: 158.40 MiB
      Arrays: 75.37 MiB
      Localized functions: 52.88 MiB
      Mixer: 30.15 MiB
    Hamiltonian: 57.28 MiB
      Arrays: 55.99 MiB
      XC: 0.00 MiB
      Poisson: 0.00 MiB
      vbar: 1.29 MiB
    Wavefunctions: 364.58 MiB
      Arrays psit_nG: 281.29 MiB
      Eigensolver: 50.83 MiB
      Projections: 1.61 MiB
      Projectors: 18.26 MiB
      PW-descriptor: 12.59 MiB

Total number of cores used: 40
Parallelization over k-points: 40

Number of atoms: 16
Number of atomic orbitals: 84
Number of bands in calculation: 77
Number of valence electrons: 108
Bands to converge: occupied

... initialized

Initializing position-dependent things.

Density initialized from atomic densities
Creating initial wave functions:
  77 bands from LCAO basis set

                                       
                                       
                                       
                                       
                      I                
                            I          
                   I                   
                       Cr  I           
             Cr                        
                 I                     
                         I             
                     I                 
                             I         
               Cr                      
                   I   Cr              
          I                            
                 I                     
                        I              
                                       
                                       
                                       
                                       

Positions:
   0 Cr     0.899135    0.000185   -3.063135    ( 0.0000,  0.0000,  3.4336)
   1 Cr    -2.666158    2.052642   -3.080223    ( 0.0000,  0.0000,  3.4336)
   2 I      1.822012   -2.046247   -4.559876    ( 0.0000,  0.0000, -0.1299)
   3 I     -1.348662    0.216415   -4.560605    ( 0.0000,  0.0000, -0.1299)
   4 I     -4.915070    1.830062   -4.560598    ( 0.0000,  0.0000, -0.1299)
   5 I     -0.074828   -2.063434   -1.594960    ( 0.0000,  0.0000, -0.1299)
   6 I     -0.416551    1.865690   -1.594231    ( 0.0000,  0.0000, -0.1299)
   7 I      3.157525    0.197989   -1.594234    ( 0.0000,  0.0000, -0.1299)
   8 Cr    -2.666887   -2.052642    3.080226    ( 0.0000,  0.0000,  3.4336)
   9 Cr     0.888546   -0.000185    3.063139    ( 0.0000,  0.0000,  3.4336)
  10 I      1.852510    2.063434    1.594959    ( 0.0000,  0.0000, -0.1299)
  11 I      2.194233   -1.865690    1.594230    ( 0.0000,  0.0000, -0.1299)
  12 I     -1.379843   -0.197989    1.594233    ( 0.0000,  0.0000, -0.1299)
  13 I     -0.044330    2.046247    4.559875    ( 0.0000,  0.0000, -0.1299)
  14 I      3.126343   -0.216415    4.560604    ( 0.0000,  0.0000, -0.1299)
  15 I     -0.417976   -1.830062    4.560597    ( 0.0000,  0.0000, -0.1299)

Unit cell:
           periodic     x           y           z      points  spacing
  1. axis:    yes    7.110727   -0.000000    0.000000    42     0.1466
  2. axis:    yes   -3.555363    6.158070    0.000000    42     0.1466
  3. axis:    no     0.000000   -0.000000   27.269192   160     0.1704

  Lengths:   7.110727   7.110727  27.269192
  Angles:   90.000000  90.000000 120.000000

Effective grid spacing dv^(1/3) = 0.1617

                     log10-error:           total        iterations:
           time      wfs    density  force  energy       poisson  magmom
iter:   1  19:39:47                        -76.899595             +12.1076
iter:   2  19:40:38  -0.99  -0.91          -70.502457             +9.9587
iter:   3  19:41:30  -1.83  -1.33          -70.496782             +11.0132
iter:   4  19:42:21  -1.58  -1.38          -70.967848             +12.0928
iter:   5  19:43:13  -2.53  -1.51          -70.628346             +12.0160
iter:   6  19:44:04  -1.91  -1.83          -70.402066             +12.0006
iter:   7  19:44:56  -2.97  -2.20          -70.395092             +12.0039
iter:   8  19:45:47  -3.31  -2.32          -70.389858             +12.0056
iter:   9  19:46:39  -3.68  -2.67          -70.391017             +12.0017
iter:  10  19:47:30  -3.86  -2.86          -70.391701             +11.9998
iter:  11  19:48:22  -3.99  -2.94          -70.392274             +12.0000
iter:  12  19:49:13  -3.99  -3.04          -70.392587             +12.0000
iter:  13  19:50:05  -4.06  -3.11          -70.392797             +12.0000
iter:  14  19:50:56  -4.09  -3.15          -70.392903             +12.0000
iter:  15  19:51:48  -4.19  -3.27          -70.393065             +12.0000
iter:  16  19:52:39  -4.33  -3.32          -70.393184             +12.0000
iter:  17  19:53:31  -4.60  -3.37          -70.393242             +12.0000
iter:  18  19:54:22  -4.75  -3.56          -70.393313             +12.0000
iter:  19  19:55:14  -4.89  -3.65          -70.393360             +12.0000
iter:  20  19:56:05  -5.00  -3.74          -70.393402             +12.0000
iter:  21  19:56:57  -5.18  -4.25          -70.393429             +12.0000
iter:  22  19:57:48  -5.17  -4.26          -70.393451             +12.0000
iter:  23  19:58:40  -5.17  -4.27          -70.393465             +12.0000
iter:  24  19:59:31  -5.37  -4.14          -70.393477             +12.0000
iter:  25  20:00:23  -5.50  -4.23          -70.393485             +12.0000
iter:  26  20:01:14  -5.61  -4.22          -70.393491             +12.0000
iter:  27  20:02:06  -5.71  -4.20          -70.393495             +12.0000
iter:  28  20:02:58  -5.90  -4.25          -70.393501             +12.0000
iter:  29  20:03:49  -6.30  -4.13          -70.393502             +12.0000
iter:  30  20:04:41  -6.39  -4.25          -70.393504             +12.0000
iter:  31  20:05:32  -6.51  -4.25          -70.393506             +12.0000
iter:  32  20:06:24  -6.70  -4.22          -70.393505             +12.0000
iter:  33  20:07:15  -6.89  -4.39          -70.393505             +12.0000
iter:  34  20:08:07  -7.00  -4.40          -70.393505             +12.0000
iter:  35  20:08:58  -7.21  -4.48          -70.393505             +12.0000
iter:  36  20:09:50  -7.21  -4.55          -70.393505             +12.0000
iter:  37  20:10:51  -7.44  -4.79          -70.393506             +12.0000
iter:  38  20:11:54  -7.54  -4.99    -3.61 -70.393506             +12.0000
iter:  39  20:12:56  -7.70  -5.04    -3.09 -70.393506             +12.0000
iter:  40  20:13:58  -7.88  -5.31    -3.52 -70.393506             +12.0000
iter:  41  20:15:01  -7.95  -5.37    -4.16 -70.393506             +12.0000

Converged after 41 iterations.

Dipole moment: (-31.486886, -0.000037, -0.000007) |e|*Ang

Total magnetic moment: (0.000000, 0.000000, 12.000000)
Local magnetic moments:
   0 Cr ( 0.000000,  0.000000,  2.911229)
   1 Cr ( 0.000000,  0.000000,  2.915445)
   2 I  ( 0.000000,  0.000000, -0.046835)
   3 I  ( 0.000000,  0.000000, -0.047426)
   4 I  ( 0.000000,  0.000000, -0.046589)
   5 I  ( 0.000000,  0.000000, -0.049805)
   6 I  ( 0.000000,  0.000000, -0.050002)
   7 I  ( 0.000000,  0.000000, -0.049168)
   8 Cr ( 0.000000,  0.000000,  2.915440)
   9 Cr ( 0.000000,  0.000000,  2.911287)
  10 I  ( 0.000000,  0.000000, -0.049673)
  11 I  ( 0.000000,  0.000000, -0.049677)
  12 I  ( 0.000000,  0.000000, -0.049637)
  13 I  ( 0.000000,  0.000000, -0.046961)
  14 I  ( 0.000000,  0.000000, -0.046959)
  15 I  ( 0.000000,  0.000000, -0.046943)

Energy contributions relative to reference atoms: (reference = -2434708.556191)

Kinetic:        +23.271873
Potential:      -37.243768
External:        +0.000000
XC:             -56.596967
Entropy (-ST):   -0.000000
Local:           +0.175356
--------------------------
Free energy:    -70.393506
Extrapolated:   -70.393506

Spin contamination: 1.119597 electrons
Showing only first 2 kpts
                      Up                     Down
 Kpt  Band  Eigenvalues  Occupancy  Eigenvalues  Occupancy
  0    52     -2.13744    1.00000     -0.01101    0.00000
  0    53     -2.10381    1.00000      0.00455    0.00000
  0    54     -2.01911    1.00000      0.17979    0.00000
  0    55     -2.01736    1.00000      0.21034    0.00000

  1    52     -2.11719    1.00000     -0.01778    0.00000
  1    53     -2.07547    1.00000      0.01983    0.00000
  1    54     -2.01911    1.00000      0.16950    0.00000
  1    55     -1.98844    1.00000      0.20789    0.00000


Fermi level: -1.18806

Gap: 0.969 eV
Transition (v -> c):
  (s=0, k=138, n=59, [0.46, 0.04, 0.00]) -> (s=0, k=133, n=60, [0.46, -0.38, 0.00])
Writing to born-0.01-0x+.gpw (mode='all')

Timing:                              incl.     excl.
-----------------------------------------------------------
Hamiltonian:                         2.867     0.012   0.0% |
 Atomic:                             1.359     1.359   0.0% |
  XC Correction:                     0.000     0.000   0.0% |
 Calculate atomic Hamiltonians:      0.331     0.331   0.0% |
 Communicate:                        0.000     0.000   0.0% |
 Initialize Hamiltonian:             0.008     0.008   0.0% |
 Poisson:                            0.011     0.011   0.0% |
 XC 3D grid:                         1.146     1.146   0.0% |
LCAO initialization:                21.206     0.142   0.0% |
 LCAO eigensolver:                   3.326     0.001   0.0% |
  Calculate projections:             0.004     0.004   0.0% |
  DenseAtomicCorrection:             0.006     0.006   0.0% |
  Distribute overlap matrix:         0.000     0.000   0.0% |
  Orbital Layouts:                   0.016     0.016   0.0% |
  Potential matrix:                  3.288     3.288   0.1% |
  Sum over cells:                    0.012     0.012   0.0% |
 LCAO to grid:                      17.445    17.445   0.3% |
 Set positions (LCAO WFS):           0.293     0.051   0.0% |
  Basic WFS set positions:           0.001     0.001   0.0% |
  Basis functions set positions:     0.000     0.000   0.0% |
  P tci:                             0.134     0.134   0.0% |
  ST tci:                            0.064     0.064   0.0% |
  mktci:                             0.044     0.044   0.0% |
PWDescriptor:                        0.087     0.087   0.0% |
SCF-cycle:                        2166.438   470.721   8.7% |--|
 Davidson:                        1347.311   216.889   4.0% |-|
  Apply H:                         233.888   227.037   4.2% |-|
   HMM T:                            6.851     6.851   0.1% |
  Subspace diag:                   283.419     0.062   0.0% |
   calc_h_matrix:                  251.886    18.498   0.3% |
    Apply H:                       233.387   226.502   4.2% |-|
     HMM T:                          6.886     6.886   0.1% |
   diagonalize:                      0.523     0.523   0.0% |
   rotate_psi:                      30.948    30.948   0.6% |
  calc. matrices:                  550.350   106.180   2.0% ||
   Apply H:                        444.170   431.718   8.0% |--|
    HMM T:                          12.452    12.452   0.2% |
  diagonalize:                       4.964     4.964   0.1% |
  rotate_psi:                       57.800    57.800   1.1% |
 Density:                          216.545     0.002   0.0% |
  Atomic density matrices:           0.292     0.292   0.0% |
  Mix:                              37.987    37.987   0.7% |
  Multipole moments:                 0.019     0.019   0.0% |
  Pseudo density:                  178.246   178.242   3.3% ||
   Symmetrize density:               0.003     0.003   0.0% |
 Forces:                            49.950    49.950   0.9% |
 Hamiltonian:                       80.189     0.502   0.0% |
  Atomic:                            3.449     3.449   0.1% |
   XC Correction:                    0.000     0.000   0.0% |
  Calculate atomic Hamiltonians:    26.068    26.068   0.5% |
  Communicate:                       0.009     0.009   0.0% |
  Poisson:                           0.562     0.562   0.0% |
  XC 3D grid:                       49.599    49.599   0.9% |
 Orthonormalize:                     1.722     0.002   0.0% |
  calc_s_matrix:                     0.232     0.232   0.0% |
  inverse-cholesky:                  0.005     0.005   0.0% |
  projections:                       1.059     1.059   0.0% |
  rotate_psi_s:                      0.424     0.424   0.0% |
Set symmetry:                        0.000     0.000   0.0% |
Other:                            3239.104  3239.104  59.7% |-----------------------|
-----------------------------------------------------------
Total:                                      5429.702 100.0%

Memory usage: 38.64 GiB
Date: Sat Jun 25 21:08:55 2022
