
  ___ ___ ___ _ _ _  
 |   |   |_  | | | | 
 | | | | | . | | | | 
 |__ |  _|___|_____|  21.6.1b1
 |___|_|             

User:   madkru@c007.nifl.fysik.dtu.dk
Date:   Wed Jun 29 16:55:07 2022
Arch:   x86_64
Pid:    215850
Python: 3.8.6
gpaw:   /home/niflheim/madkru/new_venv/gpaw/gpaw (1f0dfc9eae)
_gpaw:  /home/niflheim/madkru/new_venv/gpaw/build/lib.linux-x86_64-skylake-3.8/
        _gpaw.cpython-38-x86_64-linux-gnu.so (c1e45bfab3)
ase:    /home/niflheim/madkru/new_venv/ase/ase (version 3.23.0b1-ca38c75a67)
numpy:  /home/modules/software/SciPy-bundle/2020.11-foss-2020b/lib/python3.8/site-packages/numpy (version 1.19.4)
scipy:  /home/modules/software/SciPy-bundle/2020.11-foss-2020b/lib/python3.8/site-packages/scipy (version 1.5.4)
libxc:  4.3.4
units:  Angstrom and eV
cores: 40
OpenMP: False
OMP_NUM_THREADS: 1

Input parameters:
  convergence: {bands: occupied,
                density: 0.0001,
                eigenstates: 4e-08,
                energy: 0.0005,
                forces: 0.0001}
  kpts: [12 12  1]
  mode: {ecut: 600.0,
         gammacentered: False,
         name: pw}
  occupations: {fixmagmom: False,
                name: fermi-dirac,
                width: 0.001}
  symmetry: {point_group: False,
             time_reversal: False}

System changes: positions, numbers, cell, pbc, initial_charges, initial_magmoms 

Initialize ...

Cr-setup:
  name: Chromium
  id: 444e8044bc0f91048286c984738d87f5
  Z: 24.0
  valence: 6
  core: 18
  charge: 0.0
  file: /home/modules/software/GPAW-setups/0.9.20000/Cr.LDA.gz
  compensation charges: gauss, rc=0.35, lmax=2
  cutoffs: 2.14(filt), 3.04(core),
  valence states:
                energy  radius
    4s(1.00)    -4.191   1.164
    4p(0.00)    -1.079   1.217
    3d(5.00)    -3.128   1.111
    *s          23.021   1.164
    *p          26.132   1.217
    *d          24.083   1.111

  Using partial waves for Cr as LCAO basis

I-setup:
  name: Iodine
  id: b559721c0c096a7b4c8fc0e0f4de5cf4
  Z: 53.0
  valence: 7
  core: 46
  charge: 0.0
  file: /home/modules/software/GPAW-setups/0.9.20000/I.LDA.gz
  compensation charges: gauss, rc=0.37, lmax=2
  cutoffs: 2.06(filt), 2.90(core),
  valence states:
                energy  radius
    5s(2.00)   -17.626   1.164
    5p(5.00)    -7.241   1.164
    *s           9.585   1.164
    *p          19.970   1.164
    *d           0.000   1.164

  Using partial waves for I as LCAO basis

Reference energy: -2434708.556191

Spin-polarized calculation.
Magnetic moment: 12.175341

Convergence criteria:
  Maximum total energy change: 0.0005 eV / electron
  Maximum integral of absolute density change: 0.0001 electrons
  Maximum integral of absolute eigenstate change: 4e-08 eV^2
  Maximum change in atomic force: 0.0001 eV / Ang
  Maximum number of iterations: 333

Symmetries present (total): 1

  ( 1  0  0)
  ( 0  1  0)
  ( 0  0  1)

144 k-points: 12 x 12 x 1 Monkhorst-Pack grid
144 k-points in the irreducible part of the Brillouin zone
       k-points in crystal coordinates                weights
   0:    -0.45833333   -0.45833333    0.00000000          1/144
   1:    -0.45833333   -0.37500000    0.00000000          1/144
   2:    -0.45833333   -0.29166667    0.00000000          1/144
   3:    -0.45833333   -0.20833333    0.00000000          1/144
   4:    -0.45833333   -0.12500000    0.00000000          1/144
   5:    -0.45833333   -0.04166667    0.00000000          1/144
   6:    -0.45833333    0.04166667    0.00000000          1/144
   7:    -0.45833333    0.12500000    0.00000000          1/144
   8:    -0.45833333    0.20833333    0.00000000          1/144
   9:    -0.45833333    0.29166667    0.00000000          1/144
          ...
 143:     0.45833333    0.45833333    0.00000000          1/144

Wave functions: Plane wave expansion
  Cutoff energy: 600.000 eV
  Number of coefficients (min, max): 39797, 39902
  Pulay-stress correction: 0.000000 eV/Ang^3 (de/decut=0.000000)
  Using FFTW library
  ScaLapack parameters: grid=1x1, blocksize=None
  Wavefunction extrapolation:
    Improved wavefunction reuse through dual PAW basis 

Occupation numbers: Fermi-Dirac: width=0.0010 eV
 

Eigensolver
   Davidson(niter=2) 

Densities:
  Coarse grid: 42*42*160 grid
  Fine grid: 84*84*320 grid
  Total Charge: 0.000000 

Density mixing:
  Method: difference
  Backend: pulay
  Linear mixing parameter: 0.05
  Mixing with 5 old densities
  Damping of long wave oscillations: 50 

Hamiltonian:
  XC and Coulomb potentials evaluated on a 84*84*320 grid
  Using the LDA Exchange-Correlation functional
  External potential:
    <gpaw.external.NoExternalPotential object at 0x2b89733ee550>
 

Memory estimate:
  Process memory now: 40223.27 MiB
  Calculator: 580.26 MiB
    Density: 158.40 MiB
      Arrays: 75.37 MiB
      Localized functions: 52.88 MiB
      Mixer: 30.15 MiB
    Hamiltonian: 57.28 MiB
      Arrays: 55.99 MiB
      XC: 0.00 MiB
      Poisson: 0.00 MiB
      vbar: 1.29 MiB
    Wavefunctions: 364.58 MiB
      Arrays psit_nG: 281.29 MiB
      Eigensolver: 50.83 MiB
      Projections: 1.61 MiB
      Projectors: 18.26 MiB
      PW-descriptor: 12.59 MiB

Total number of cores used: 40
Parallelization over k-points: 40

Number of atoms: 16
Number of atomic orbitals: 84
Number of bands in calculation: 77
Number of valence electrons: 108
Bands to converge: occupied

... initialized

Initializing position-dependent things.

Density initialized from atomic densities
Creating initial wave functions:
  77 bands from LCAO basis set

                                       
                                       
                                       
                                       
                      I                
                            I          
                   I                   
                       Cr  I           
             Cr                        
                 I                     
                         I             
                     I                 
                             I         
               Cr                      
                   I   Cr              
          I                            
                 I                     
                        I              
                                       
                                       
                                       
                                       

Positions:
   0 Cr     0.889135    0.000185   -3.063135    ( 0.0000,  0.0000,  3.4336)
   1 Cr    -2.666158    2.052642   -3.080223    ( 0.0000,  0.0000,  3.4336)
   2 I      1.822012   -2.046247   -4.559876    ( 0.0000,  0.0000, -0.1299)
   3 I     -1.348662    0.216415   -4.560605    ( 0.0000,  0.0000, -0.1299)
   4 I     -4.915070    1.830062   -4.560598    ( 0.0000,  0.0000, -0.1299)
   5 I     -0.074828   -2.063434   -1.594960    ( 0.0000,  0.0000, -0.1299)
   6 I     -0.416551    1.865690   -1.594231    ( 0.0000,  0.0000, -0.1299)
   7 I      3.157525    0.197989   -1.594234    ( 0.0000,  0.0000, -0.1299)
   8 Cr    -2.666887   -2.052642    3.080226    ( 0.0000,  0.0000,  3.4336)
   9 Cr     0.888546   -0.000185    3.063139    ( 0.0000,  0.0000,  3.4336)
  10 I      1.852510    2.063434    1.594959    ( 0.0000,  0.0000, -0.1299)
  11 I      2.194233   -1.865690    1.594230    ( 0.0000,  0.0000, -0.1299)
  12 I     -1.379843   -0.197989    1.594233    ( 0.0000,  0.0000, -0.1299)
  13 I     -0.044330    2.046247    4.559875    ( 0.0000,  0.0000, -0.1299)
  14 I      3.126343   -0.206415    4.560604    ( 0.0000,  0.0000, -0.1299)
  15 I     -0.417976   -1.830062    4.560597    ( 0.0000,  0.0000, -0.1299)

Unit cell:
           periodic     x           y           z      points  spacing
  1. axis:    yes    7.110727   -0.000000    0.000000    42     0.1466
  2. axis:    yes   -3.555363    6.158070    0.000000    42     0.1466
  3. axis:    no     0.000000   -0.000000   27.269192   160     0.1704

  Lengths:   7.110727   7.110727  27.269192
  Angles:   90.000000  90.000000 120.000000

Effective grid spacing dv^(1/3) = 0.1617

                     log10-error:           total        iterations:
           time      wfs    density  force  energy       poisson  magmom
iter:   1  16:56:28                        -76.893341             +12.1076
iter:   2  16:57:20  -0.99  -0.91          -70.503436             +9.9635
iter:   3  16:58:13  -1.83  -1.33          -70.497264             +11.0158
iter:   4  16:59:05  -1.58  -1.38          -70.967933             +12.0927
iter:   5  16:59:58  -2.53  -1.51          -70.628364             +12.0159
iter:   6  17:00:50  -1.91  -1.83          -70.402424             +12.0005
iter:   7  17:01:42  -2.97  -2.20          -70.395273             +12.0039
iter:   8  17:02:35  -3.31  -2.32          -70.390087             +12.0055
iter:   9  17:03:27  -3.68  -2.67          -70.391253             +12.0017
iter:  10  17:04:20  -3.86  -2.86          -70.391935             +11.9998
iter:  11  17:05:12  -3.99  -2.94          -70.392507             +12.0000
iter:  12  17:06:04  -3.99  -3.04          -70.392821             +12.0000
iter:  13  17:06:57  -4.06  -3.11          -70.393030             +12.0000
iter:  14  17:07:49  -4.09  -3.15          -70.393137             +12.0000
iter:  15  17:08:42  -4.18  -3.27          -70.393298             +12.0000
iter:  16  17:09:34  -4.32  -3.32          -70.393419             +12.0000
iter:  17  17:10:27  -4.60  -3.37          -70.393477             +12.0000
iter:  18  17:11:19  -4.74  -3.57          -70.393548             +12.0000
iter:  19  17:12:12  -4.89  -3.65          -70.393595             +12.0000
iter:  20  17:13:04  -5.01  -3.75          -70.393637             +12.0000
iter:  21  17:13:57  -5.20  -4.15          -70.393666             +12.0000
iter:  22  17:14:49  -5.32  -4.15          -70.393688             +12.0000
iter:  23  17:15:42  -5.35  -4.19          -70.393701             +12.0000
iter:  24  17:16:34  -5.50  -4.38          -70.393711             +12.0000
iter:  25  17:17:27  -5.71  -4.49          -70.393720             +12.0000
iter:  26  17:18:19  -5.76  -4.47          -70.393726             +12.0000
iter:  27  17:19:11  -5.84  -4.41          -70.393730             +12.0000
iter:  28  17:20:04  -5.90  -4.44          -70.393733             +12.0000
iter:  29  17:20:56  -5.93  -4.43          -70.393735             +12.0000
iter:  30  17:21:48  -6.15  -4.36          -70.393737             +12.0000
iter:  31  17:22:41  -6.35  -4.37          -70.393739             +12.0000
iter:  32  17:23:33  -6.52  -4.35          -70.393740             +12.0000
iter:  33  17:24:26  -6.58  -4.33          -70.393741             +12.0000
iter:  34  17:25:18  -6.67  -4.42          -70.393741             +12.0000
iter:  35  17:26:10  -6.87  -4.37          -70.393741             +12.0000
iter:  36  17:27:02  -7.07  -4.41          -70.393742             +12.0000
iter:  37  17:27:55  -7.28  -4.36          -70.393741             +12.0000
iter:  38  17:28:57  -7.64  -4.36          -70.393741             +12.0000
iter:  39  17:30:00  -7.55  -4.40    -2.57 -70.393741             +12.0000
iter:  40  17:31:03  -7.84  -4.61    -2.83 -70.393741             +12.0000
iter:  41  17:32:06  -7.95  -4.75    -2.97 -70.393741             +12.0000
iter:  42  17:33:08  -8.12  -4.90    -3.57 -70.393741             +12.0000
iter:  43  17:34:11  -8.26  -4.97    -3.18 -70.393741             +12.0000
iter:  44  17:35:14  -8.36  -5.15    -3.61 -70.393741             +12.0000
iter:  45  17:36:17  -8.35  -5.32    -3.30 -70.393741             +12.0000
iter:  46  17:37:20  -8.47  -5.47    -3.60 -70.393741             +12.0000
iter:  47  17:38:23  -8.60  -5.71    -4.17 -70.393741             +12.0000

Converged after 47 iterations.

Dipole moment: (-31.387606, -0.315733, 0.000331) |e|*Ang

Total magnetic moment: (0.000000, 0.000000, 12.000000)
Local magnetic moments:
   0 Cr ( 0.000000,  0.000000,  2.911289)
   1 Cr ( 0.000000,  0.000000,  2.915455)
   2 I  ( 0.000000,  0.000000, -0.046979)
   3 I  ( 0.000000,  0.000000, -0.046936)
   4 I  ( 0.000000,  0.000000, -0.046952)
   5 I  ( 0.000000,  0.000000, -0.049671)
   6 I  ( 0.000000,  0.000000, -0.049656)
   7 I  ( 0.000000,  0.000000, -0.049707)
   8 Cr ( 0.000000,  0.000000,  2.917026)
   9 Cr ( 0.000000,  0.000000,  2.910946)
  10 I  ( 0.000000,  0.000000, -0.049999)
  11 I  ( 0.000000,  0.000000, -0.049559)
  12 I  ( 0.000000,  0.000000, -0.049724)
  13 I  ( 0.000000,  0.000000, -0.047049)
  14 I  ( 0.000000,  0.000000, -0.047149)
  15 I  ( 0.000000,  0.000000, -0.046942)

Energy contributions relative to reference atoms: (reference = -2434708.556191)

Kinetic:        +23.097709
Potential:      -37.099170
External:        +0.000000
XC:             -56.568470
Entropy (-ST):   -0.000000
Local:           +0.176190
--------------------------
Free energy:    -70.393741
Extrapolated:   -70.393741

Spin contamination: 1.120350 electrons
Showing only first 2 kpts
                      Up                     Down
 Kpt  Band  Eigenvalues  Occupancy  Eigenvalues  Occupancy
  0    52     -2.14054    1.00000     -0.01262    0.00000
  0    53     -2.10501    1.00000      0.00321    0.00000
  0    54     -2.01999    1.00000      0.17911    0.00000
  0    55     -2.01898    1.00000      0.20965    0.00000

  1    52     -2.11943    1.00000     -0.01965    0.00000
  1    53     -2.07581    1.00000      0.01883    0.00000
  1    54     -2.02068    1.00000      0.16878    0.00000
  1    55     -1.99046    1.00000      0.20783    0.00000


Fermi level: -1.19449

Gap: 0.971 eV
Transition (v -> c):
  (s=0, k=5, n=59, [-0.46, -0.04, 0.00]) -> (s=0, k=22, n=60, [-0.38, 0.38, 0.00])
Writing to born-0.01-14y+.gpw (mode='all')

Timing:                              incl.     excl.
-----------------------------------------------------------
Hamiltonian:                         2.838     0.010   0.0% |
 Atomic:                             1.343     1.343   0.0% |
  XC Correction:                     0.000     0.000   0.0% |
 Calculate atomic Hamiltonians:      0.327     0.327   0.0% |
 Communicate:                        0.000     0.000   0.0% |
 Initialize Hamiltonian:             0.004     0.004   0.0% |
 Poisson:                            0.013     0.013   0.0% |
 XC 3D grid:                         1.140     1.140   0.0% |
LCAO initialization:                20.410     0.141   0.0% |
 LCAO eigensolver:                   3.062     0.001   0.0% |
  Calculate projections:             0.004     0.004   0.0% |
  DenseAtomicCorrection:             0.005     0.005   0.0% |
  Distribute overlap matrix:         0.000     0.000   0.0% |
  Orbital Layouts:                   0.016     0.016   0.0% |
  Potential matrix:                  3.026     3.026   0.0% |
  Sum over cells:                    0.011     0.011   0.0% |
 LCAO to grid:                      16.927    16.927   0.3% |
 Set positions (LCAO WFS):           0.280     0.050   0.0% |
  Basic WFS set positions:           0.001     0.001   0.0% |
  Basis functions set positions:     0.000     0.000   0.0% |
  P tci:                             0.123     0.123   0.0% |
  ST tci:                            0.064     0.064   0.0% |
  mktci:                             0.043     0.043   0.0% |
PWDescriptor:                        0.088     0.088   0.0% |
SCF-cycle:                        2569.077   555.906   8.6% |--|
 Davidson:                        1563.891   244.028   3.8% |-|
  Apply H:                         274.807   265.156   4.1% |-|
   HMM T:                            9.651     9.651   0.2% |
  Subspace diag:                   329.750     0.069   0.0% |
   calc_h_matrix:                  293.975    20.128   0.3% |
    Apply H:                       273.847   263.946   4.1% |-|
     HMM T:                          9.900     9.900   0.2% |
   diagonalize:                      0.575     0.575   0.0% |
   rotate_psi:                      35.132    35.132   0.5% |
  calc. matrices:                  646.704   113.570   1.8% ||
   Apply H:                        533.134   514.641   8.0% |--|
    HMM T:                          18.492    18.492   0.3% |
  diagonalize:                       5.458     5.458   0.1% |
  rotate_psi:                       63.144    63.144   1.0% |
 Density:                          255.565     0.002   0.0% |
  Atomic density matrices:           0.362     0.362   0.0% |
  Mix:                              43.063    43.063   0.7% |
  Multipole moments:                 0.022     0.022   0.0% |
  Pseudo density:                  212.116   212.112   3.3% ||
   Symmetrize density:               0.004     0.004   0.0% |
 Forces:                            98.621    98.621   1.5% ||
 Hamiltonian:                       93.407     0.561   0.0% |
  Atomic:                            5.975     5.975   0.1% |
   XC Correction:                    0.000     0.000   0.0% |
  Calculate atomic Hamiltonians:    31.215    31.215   0.5% |
  Communicate:                       0.009     0.009   0.0% |
  Poisson:                           0.609     0.609   0.0% |
  XC 3D grid:                       55.037    55.037   0.9% |
 Orthonormalize:                     1.687     0.002   0.0% |
  calc_s_matrix:                     0.224     0.224   0.0% |
  inverse-cholesky:                  0.004     0.004   0.0% |
  projections:                       1.035     1.035   0.0% |
  rotate_psi_s:                      0.421     0.421   0.0% |
Set symmetry:                        0.000     0.000   0.0% |
Other:                            3837.279  3837.279  59.7% |-----------------------|
-----------------------------------------------------------
Total:                                      6429.691 100.0%

Memory usage: 39.29 GiB
Date: Wed Jun 29 18:42:16 2022
