
  ___ ___ ___ _ _ _  
 |   |   |_  | | | | 
 | | | | | . | | | | 
 |__ |  _|___|_____|  21.6.1b1
 |___|_|             

User:   madkru@c007.nifl.fysik.dtu.dk
Date:   Tue Jun 28 13:22:39 2022
Arch:   x86_64
Pid:    215850
Python: 3.8.6
gpaw:   /home/niflheim/madkru/new_venv/gpaw/gpaw (1f0dfc9eae)
_gpaw:  /home/niflheim/madkru/new_venv/gpaw/build/lib.linux-x86_64-skylake-3.8/
        _gpaw.cpython-38-x86_64-linux-gnu.so (c1e45bfab3)
ase:    /home/niflheim/madkru/new_venv/ase/ase (version 3.23.0b1-ca38c75a67)
numpy:  /home/modules/software/SciPy-bundle/2020.11-foss-2020b/lib/python3.8/site-packages/numpy (version 1.19.4)
scipy:  /home/modules/software/SciPy-bundle/2020.11-foss-2020b/lib/python3.8/site-packages/scipy (version 1.5.4)
libxc:  4.3.4
units:  Angstrom and eV
cores: 40
OpenMP: False
OMP_NUM_THREADS: 1

Input parameters:
  convergence: {bands: occupied,
                density: 0.0001,
                eigenstates: 4e-08,
                energy: 0.0005,
                forces: 0.0001}
  kpts: [12 12  1]
  mode: {ecut: 600.0,
         gammacentered: False,
         name: pw}
  occupations: {fixmagmom: False,
                name: fermi-dirac,
                width: 0.001}
  symmetry: {point_group: False,
             time_reversal: False}

System changes: positions, numbers, cell, pbc, initial_charges, initial_magmoms 

Initialize ...

Cr-setup:
  name: Chromium
  id: 444e8044bc0f91048286c984738d87f5
  Z: 24.0
  valence: 6
  core: 18
  charge: 0.0
  file: /home/modules/software/GPAW-setups/0.9.20000/Cr.LDA.gz
  compensation charges: gauss, rc=0.35, lmax=2
  cutoffs: 2.14(filt), 3.04(core),
  valence states:
                energy  radius
    4s(1.00)    -4.191   1.164
    4p(0.00)    -1.079   1.217
    3d(5.00)    -3.128   1.111
    *s          23.021   1.164
    *p          26.132   1.217
    *d          24.083   1.111

  Using partial waves for Cr as LCAO basis

I-setup:
  name: Iodine
  id: b559721c0c096a7b4c8fc0e0f4de5cf4
  Z: 53.0
  valence: 7
  core: 46
  charge: 0.0
  file: /home/modules/software/GPAW-setups/0.9.20000/I.LDA.gz
  compensation charges: gauss, rc=0.37, lmax=2
  cutoffs: 2.06(filt), 2.90(core),
  valence states:
                energy  radius
    5s(2.00)   -17.626   1.164
    5p(5.00)    -7.241   1.164
    *s           9.585   1.164
    *p          19.970   1.164
    *d           0.000   1.164

  Using partial waves for I as LCAO basis

Reference energy: -2434708.556191

Spin-polarized calculation.
Magnetic moment: 12.175341

Convergence criteria:
  Maximum total energy change: 0.0005 eV / electron
  Maximum integral of absolute density change: 0.0001 electrons
  Maximum integral of absolute eigenstate change: 4e-08 eV^2
  Maximum change in atomic force: 0.0001 eV / Ang
  Maximum number of iterations: 333

Symmetries present (total): 1

  ( 1  0  0)
  ( 0  1  0)
  ( 0  0  1)

144 k-points: 12 x 12 x 1 Monkhorst-Pack grid
144 k-points in the irreducible part of the Brillouin zone
       k-points in crystal coordinates                weights
   0:    -0.45833333   -0.45833333    0.00000000          1/144
   1:    -0.45833333   -0.37500000    0.00000000          1/144
   2:    -0.45833333   -0.29166667    0.00000000          1/144
   3:    -0.45833333   -0.20833333    0.00000000          1/144
   4:    -0.45833333   -0.12500000    0.00000000          1/144
   5:    -0.45833333   -0.04166667    0.00000000          1/144
   6:    -0.45833333    0.04166667    0.00000000          1/144
   7:    -0.45833333    0.12500000    0.00000000          1/144
   8:    -0.45833333    0.20833333    0.00000000          1/144
   9:    -0.45833333    0.29166667    0.00000000          1/144
          ...
 143:     0.45833333    0.45833333    0.00000000          1/144

Wave functions: Plane wave expansion
  Cutoff energy: 600.000 eV
  Number of coefficients (min, max): 39797, 39902
  Pulay-stress correction: 0.000000 eV/Ang^3 (de/decut=0.000000)
  Using FFTW library
  ScaLapack parameters: grid=1x1, blocksize=None
  Wavefunction extrapolation:
    Improved wavefunction reuse through dual PAW basis 

Occupation numbers: Fermi-Dirac: width=0.0010 eV
 

Eigensolver
   Davidson(niter=2) 

Densities:
  Coarse grid: 42*42*160 grid
  Fine grid: 84*84*320 grid
  Total Charge: 0.000000 

Density mixing:
  Method: difference
  Backend: pulay
  Linear mixing parameter: 0.05
  Mixing with 5 old densities
  Damping of long wave oscillations: 50 

Hamiltonian:
  XC and Coulomb potentials evaluated on a 84*84*320 grid
  Using the LDA Exchange-Correlation functional
  External potential:
    <gpaw.external.NoExternalPotential object at 0x2b896518b7f0>
 

Memory estimate:
  Process memory now: 39559.77 MiB
  Calculator: 580.26 MiB
    Density: 158.40 MiB
      Arrays: 75.37 MiB
      Localized functions: 52.88 MiB
      Mixer: 30.15 MiB
    Hamiltonian: 57.28 MiB
      Arrays: 55.99 MiB
      XC: 0.00 MiB
      Poisson: 0.00 MiB
      vbar: 1.29 MiB
    Wavefunctions: 364.58 MiB
      Arrays psit_nG: 281.29 MiB
      Eigensolver: 50.83 MiB
      Projections: 1.61 MiB
      Projectors: 18.26 MiB
      PW-descriptor: 12.59 MiB

Total number of cores used: 40
Parallelization over k-points: 40

Number of atoms: 16
Number of atomic orbitals: 84
Number of bands in calculation: 77
Number of valence electrons: 108
Bands to converge: occupied

... initialized

Initializing position-dependent things.

Density initialized from atomic densities
Creating initial wave functions:
  77 bands from LCAO basis set

                                       
                                       
                                       
                                       
                      I                
                            I          
                   I                   
                       Cr  I           
             Cr                        
                 I                     
                         I             
                     I                 
                             I         
               Cr                      
                   I   Cr              
          I                            
                 I                     
                        I              
                                       
                                       
                                       
                                       

Positions:
   0 Cr     0.889135    0.000185   -3.063135    ( 0.0000,  0.0000,  3.4336)
   1 Cr    -2.666158    2.052642   -3.080223    ( 0.0000,  0.0000,  3.4336)
   2 I      1.822012   -2.046247   -4.559876    ( 0.0000,  0.0000, -0.1299)
   3 I     -1.348662    0.216415   -4.560605    ( 0.0000,  0.0000, -0.1299)
   4 I     -4.915070    1.830062   -4.560598    ( 0.0000,  0.0000, -0.1299)
   5 I     -0.074828   -2.063434   -1.594960    ( 0.0000,  0.0000, -0.1299)
   6 I     -0.416551    1.865690   -1.594231    ( 0.0000,  0.0000, -0.1299)
   7 I      3.157525    0.197989   -1.594234    ( 0.0000,  0.0000, -0.1299)
   8 Cr    -2.666887   -2.052642    3.080226    ( 0.0000,  0.0000,  3.4336)
   9 Cr     0.888546   -0.010185    3.063139    ( 0.0000,  0.0000,  3.4336)
  10 I      1.852510    2.063434    1.594959    ( 0.0000,  0.0000, -0.1299)
  11 I      2.194233   -1.865690    1.594230    ( 0.0000,  0.0000, -0.1299)
  12 I     -1.379843   -0.197989    1.594233    ( 0.0000,  0.0000, -0.1299)
  13 I     -0.044330    2.046247    4.559875    ( 0.0000,  0.0000, -0.1299)
  14 I      3.126343   -0.216415    4.560604    ( 0.0000,  0.0000, -0.1299)
  15 I     -0.417976   -1.830062    4.560597    ( 0.0000,  0.0000, -0.1299)

Unit cell:
           periodic     x           y           z      points  spacing
  1. axis:    yes    7.110727   -0.000000    0.000000    42     0.1466
  2. axis:    yes   -3.555363    6.158070    0.000000    42     0.1466
  3. axis:    no     0.000000   -0.000000   27.269192   160     0.1704

  Lengths:   7.110727   7.110727  27.269192
  Angles:   90.000000  90.000000 120.000000

Effective grid spacing dv^(1/3) = 0.1617

                     log10-error:           total        iterations:
           time      wfs    density  force  energy       poisson  magmom
iter:   1  13:23:59                        -76.899592             +12.1076
iter:   2  13:24:51  -0.99  -0.91          -70.503705             +9.9636
iter:   3  13:25:43  -1.83  -1.33          -70.497086             +11.0160
iter:   4  13:26:35  -1.58  -1.38          -70.967952             +12.0928
iter:   5  13:27:27  -2.53  -1.51          -70.628431             +12.0159
iter:   6  13:28:19  -1.91  -1.83          -70.402043             +12.0005
iter:   7  13:29:11  -2.97  -2.20          -70.395072             +12.0039
iter:   8  13:30:03  -3.31  -2.32          -70.389854             +12.0056
iter:   9  13:30:55  -3.68  -2.67          -70.391013             +12.0017
iter:  10  13:31:47  -3.86  -2.86          -70.391696             +11.9998
iter:  11  13:32:39  -3.99  -2.94          -70.392269             +12.0000
iter:  12  13:33:31  -3.99  -3.04          -70.392581             +12.0000
iter:  13  13:34:23  -4.06  -3.11          -70.392792             +12.0000
iter:  14  13:35:15  -4.09  -3.15          -70.392898             +12.0000
iter:  15  13:36:07  -4.19  -3.27          -70.393059             +12.0000
iter:  16  13:36:59  -4.33  -3.32          -70.393179             +12.0000
iter:  17  13:37:51  -4.60  -3.37          -70.393236             +12.0000
iter:  18  13:38:43  -4.75  -3.57          -70.393308             +12.0000
iter:  19  13:39:35  -4.89  -3.65          -70.393355             +12.0000
iter:  20  13:40:27  -5.00  -3.74          -70.393397             +12.0000
iter:  21  13:41:19  -5.19  -4.25          -70.393425             +12.0000
iter:  22  13:42:11  -5.19  -4.26          -70.393446             +12.0000
iter:  23  13:43:03  -5.24  -4.27          -70.393460             +12.0000
iter:  24  13:43:55  -5.44  -4.17          -70.393474             +12.0000
iter:  25  13:44:47  -5.58  -4.22          -70.393482             +12.0000
iter:  26  13:45:39  -5.68  -4.21          -70.393488             +12.0000
iter:  27  13:46:31  -5.83  -4.19          -70.393492             +12.0000
iter:  28  13:47:23  -5.95  -4.20          -70.393497             +12.0000
iter:  29  13:48:15  -6.19  -4.11          -70.393498             +12.0000
iter:  30  13:49:06  -6.39  -4.24          -70.393499             +12.0000
iter:  31  13:49:58  -6.52  -4.28          -70.393500             +12.0000
iter:  32  13:50:50  -6.58  -4.25          -70.393500             +12.0000
iter:  33  13:51:41  -6.82  -4.32          -70.393500             +12.0000
iter:  34  13:52:33  -6.97  -4.35          -70.393501             +12.0000
iter:  35  13:53:24  -7.10  -4.37          -70.393501             +12.0000
iter:  36  13:54:16  -7.17  -4.43          -70.393501             +12.0000
iter:  37  13:55:07  -7.28  -4.49          -70.393501             +12.0000
iter:  38  13:56:09  -7.48  -4.61          -70.393501             +12.0000
iter:  39  13:57:11  -7.58  -5.05    -3.60 -70.393501             +12.0000
iter:  40  13:58:13  -7.57  -5.09    -3.37 -70.393501             +12.0000
iter:  41  13:59:15  -7.72  -5.21    -3.45 -70.393501             +12.0000
iter:  42  14:00:18  -7.83  -5.49    -3.62 -70.393501             +12.0000
iter:  43  14:01:20  -7.99  -5.67    -4.06 -70.393501             +12.0000

Converged after 43 iterations.

Dipole moment: (-31.798972, 0.313042, -0.000040) |e|*Ang

Total magnetic moment: (0.000000, 0.000000, 12.000000)
Local magnetic moments:
   0 Cr ( 0.000000,  0.000000,  2.911298)
   1 Cr ( 0.000000,  0.000000,  2.915457)
   2 I  ( 0.000000,  0.000000, -0.046996)
   3 I  ( 0.000000,  0.000000, -0.046937)
   4 I  ( 0.000000,  0.000000, -0.046929)
   5 I  ( 0.000000,  0.000000, -0.049705)
   6 I  ( 0.000000,  0.000000, -0.049638)
   7 I  ( 0.000000,  0.000000, -0.049645)
   8 Cr ( 0.000000,  0.000000,  2.915462)
   9 Cr ( 0.000000,  0.000000,  2.911236)
  10 I  ( 0.000000,  0.000000, -0.050153)
  11 I  ( 0.000000,  0.000000, -0.049292)
  12 I  ( 0.000000,  0.000000, -0.049528)
  13 I  ( 0.000000,  0.000000, -0.047461)
  14 I  ( 0.000000,  0.000000, -0.046806)
  15 I  ( 0.000000,  0.000000, -0.046579)

Energy contributions relative to reference atoms: (reference = -2434708.556191)

Kinetic:        +23.267719
Potential:      -37.239975
External:        +0.000000
XC:             -56.596882
Entropy (-ST):   -0.000000
Local:           +0.175637
--------------------------
Free energy:    -70.393501
Extrapolated:   -70.393501

Spin contamination: 1.119594 electrons
Showing only first 2 kpts
                      Up                     Down
 Kpt  Band  Eigenvalues  Occupancy  Eigenvalues  Occupancy
  0    52     -2.13709    1.00000     -0.01320    0.00000
  0    53     -2.10363    1.00000      0.00348    0.00000
  0    54     -2.01894    1.00000      0.18135    0.00000
  0    55     -2.01787    1.00000      0.21121    0.00000

  1    52     -2.11691    1.00000     -0.01980    0.00000
  1    53     -2.07438    1.00000      0.01939    0.00000
  1    54     -2.02054    1.00000      0.17094    0.00000
  1    55     -1.98889    1.00000      0.20872    0.00000


Fermi level: -1.19477

Gap: 0.967 eV
Transition (v -> c):
  (s=0, k=138, n=59, [0.46, 0.04, 0.00]) -> (s=0, k=72, n=60, [0.04, -0.46, 0.00])
Writing to born-0.01-9y-.gpw (mode='all')

Timing:                              incl.     excl.
-----------------------------------------------------------
Hamiltonian:                         2.780     0.011   0.0% |
 Atomic:                             1.285     1.285   0.0% |
  XC Correction:                     0.000     0.000   0.0% |
 Calculate atomic Hamiltonians:      0.330     0.330   0.0% |
 Communicate:                        0.000     0.000   0.0% |
 Initialize Hamiltonian:             0.004     0.004   0.0% |
 Poisson:                            0.012     0.012   0.0% |
 XC 3D grid:                         1.137     1.137   0.0% |
LCAO initialization:                20.288     0.142   0.0% |
 LCAO eigensolver:                   3.060     0.001   0.0% |
  Calculate projections:             0.004     0.004   0.0% |
  DenseAtomicCorrection:             0.005     0.005   0.0% |
  Distribute overlap matrix:         0.000     0.000   0.0% |
  Orbital Layouts:                   0.016     0.016   0.0% |
  Potential matrix:                  3.023     3.023   0.1% |
  Sum over cells:                    0.011     0.011   0.0% |
 LCAO to grid:                      16.785    16.785   0.3% |
 Set positions (LCAO WFS):           0.301     0.050   0.0% |
  Basic WFS set positions:           0.001     0.001   0.0% |
  Basis functions set positions:     0.000     0.000   0.0% |
  P tci:                             0.143     0.143   0.0% |
  ST tci:                            0.064     0.064   0.0% |
  mktci:                             0.043     0.043   0.0% |
PWDescriptor:                        0.087     0.087   0.0% |
SCF-cycle:                        2293.641   519.758   9.4% |---|
 Davidson:                        1401.048   226.015   4.1% |-|
  Apply H:                         240.916   233.836   4.2% |-|
   HMM T:                            7.080     7.080   0.1% |
  Subspace diag:                   293.091     0.057   0.0% |
   calc_h_matrix:                  261.148    19.513   0.4% |
    Apply H:                       241.635   234.011   4.2% |-|
     HMM T:                          7.624     7.624   0.1% |
   diagonalize:                      0.538     0.538   0.0% |
   rotate_psi:                      31.348    31.348   0.6% |
  calc. matrices:                  580.026   110.578   2.0% ||
   Apply H:                        469.448   455.926   8.2% |--|
    HMM T:                          13.522    13.522   0.2% |
  diagonalize:                       5.056     5.056   0.1% |
  rotate_psi:                       55.944    55.944   1.0% |
 Density:                          227.899     0.002   0.0% |
  Atomic density matrices:           0.310     0.310   0.0% |
  Mix:                              40.166    40.166   0.7% |
  Multipole moments:                 0.021     0.021   0.0% |
  Pseudo density:                  187.400   187.397   3.4% ||
   Symmetrize density:               0.003     0.003   0.0% |
 Forces:                            59.471    59.471   1.1% |
 Hamiltonian:                       83.833     0.558   0.0% |
  Atomic:                            3.291     3.291   0.1% |
   XC Correction:                    0.000     0.000   0.0% |
  Calculate atomic Hamiltonians:    28.120    28.120   0.5% |
  Communicate:                       0.009     0.009   0.0% |
  Poisson:                           0.596     0.596   0.0% |
  XC 3D grid:                       51.258    51.258   0.9% |
 Orthonormalize:                     1.632     0.001   0.0% |
  calc_s_matrix:                     0.227     0.227   0.0% |
  inverse-cholesky:                  0.004     0.004   0.0% |
  projections:                       1.010     1.010   0.0% |
  rotate_psi_s:                      0.391     0.391   0.0% |
Set symmetry:                        0.000     0.000   0.0% |
Other:                            3235.526  3235.526  58.3% |----------------------|
-----------------------------------------------------------
Total:                                      5552.321 100.0%

Memory usage: 38.72 GiB
Date: Tue Jun 28 14:55:11 2022
