
  ___ ___ ___ _ _ _  
 |   |   |_  | | | | 
 | | | | | . | | | | 
 |__ |  _|___|_____|  21.6.1b1
 |___|_|             

User:   madkru@c153.nifl.fysik.dtu.dk
Date:   Sat Jun 25 22:08:06 2022
Arch:   x86_64
Pid:    48887
Python: 3.8.6
gpaw:   /home/niflheim/madkru/new_venv/gpaw/gpaw (1f0dfc9eae)
_gpaw:  /home/niflheim/madkru/new_venv/gpaw/build/lib.linux-x86_64-skylake-3.8/
        _gpaw.cpython-38-x86_64-linux-gnu.so (c1e45bfab3)
ase:    /home/niflheim/madkru/new_venv/ase/ase (version 3.23.0b1-ca38c75a67)
numpy:  /home/modules/software/SciPy-bundle/2020.11-foss-2020b/lib/python3.8/site-packages/numpy (version 1.19.4)
scipy:  /home/modules/software/SciPy-bundle/2020.11-foss-2020b/lib/python3.8/site-packages/scipy (version 1.5.4)
libxc:  4.3.4
units:  Angstrom and eV
cores: 40
OpenMP: False
OMP_NUM_THREADS: 1

Input parameters:
  convergence: {bands: occupied,
                density: 0.0001,
                eigenstates: 4e-08,
                energy: 0.0005,
                forces: 0.0001}
  kpts: [12 12  1]
  mode: {ecut: 600.0,
         gammacentered: False,
         name: pw}
  occupations: {fixmagmom: False,
                name: fermi-dirac,
                width: 0.001}
  symmetry: {point_group: False,
             time_reversal: False}

System changes: positions, numbers, cell, pbc, initial_charges, initial_magmoms 

Initialize ...

Cr-setup:
  name: Chromium
  id: 444e8044bc0f91048286c984738d87f5
  Z: 24.0
  valence: 6
  core: 18
  charge: 0.0
  file: /home/modules/software/GPAW-setups/0.9.20000/Cr.LDA.gz
  compensation charges: gauss, rc=0.35, lmax=2
  cutoffs: 2.14(filt), 3.04(core),
  valence states:
                energy  radius
    4s(1.00)    -4.191   1.164
    4p(0.00)    -1.079   1.217
    3d(5.00)    -3.128   1.111
    *s          23.021   1.164
    *p          26.132   1.217
    *d          24.083   1.111

  Using partial waves for Cr as LCAO basis

I-setup:
  name: Iodine
  id: b559721c0c096a7b4c8fc0e0f4de5cf4
  Z: 53.0
  valence: 7
  core: 46
  charge: 0.0
  file: /home/modules/software/GPAW-setups/0.9.20000/I.LDA.gz
  compensation charges: gauss, rc=0.37, lmax=2
  cutoffs: 2.06(filt), 2.90(core),
  valence states:
                energy  radius
    5s(2.00)   -17.626   1.164
    5p(5.00)    -7.241   1.164
    *s           9.585   1.164
    *p          19.970   1.164
    *d           0.000   1.164

  Using partial waves for I as LCAO basis

Reference energy: -2434708.556191

Spin-polarized calculation.
Magnetic moment: 12.175341

Convergence criteria:
  Maximum total energy change: 0.0005 eV / electron
  Maximum integral of absolute density change: 0.0001 electrons
  Maximum integral of absolute eigenstate change: 4e-08 eV^2
  Maximum change in atomic force: 0.0001 eV / Ang
  Maximum number of iterations: 333

Symmetries present (total): 1

  ( 1  0  0)
  ( 0  1  0)
  ( 0  0  1)

144 k-points: 12 x 12 x 1 Monkhorst-Pack grid
144 k-points in the irreducible part of the Brillouin zone
       k-points in crystal coordinates                weights
   0:    -0.45833333   -0.45833333    0.00000000          1/144
   1:    -0.45833333   -0.37500000    0.00000000          1/144
   2:    -0.45833333   -0.29166667    0.00000000          1/144
   3:    -0.45833333   -0.20833333    0.00000000          1/144
   4:    -0.45833333   -0.12500000    0.00000000          1/144
   5:    -0.45833333   -0.04166667    0.00000000          1/144
   6:    -0.45833333    0.04166667    0.00000000          1/144
   7:    -0.45833333    0.12500000    0.00000000          1/144
   8:    -0.45833333    0.20833333    0.00000000          1/144
   9:    -0.45833333    0.29166667    0.00000000          1/144
          ...
 143:     0.45833333    0.45833333    0.00000000          1/144

Wave functions: Plane wave expansion
  Cutoff energy: 600.000 eV
  Number of coefficients (min, max): 39797, 39902
  Pulay-stress correction: 0.000000 eV/Ang^3 (de/decut=0.000000)
  Using FFTW library
  ScaLapack parameters: grid=1x1, blocksize=None
  Wavefunction extrapolation:
    Improved wavefunction reuse through dual PAW basis 

Occupation numbers: Fermi-Dirac: width=0.0010 eV
 

Eigensolver
   Davidson(niter=2) 

Densities:
  Coarse grid: 42*42*160 grid
  Fine grid: 84*84*320 grid
  Total Charge: 0.000000 

Density mixing:
  Method: difference
  Backend: pulay
  Linear mixing parameter: 0.05
  Mixing with 5 old densities
  Damping of long wave oscillations: 50 

Hamiltonian:
  XC and Coulomb potentials evaluated on a 84*84*320 grid
  Using the LDA Exchange-Correlation functional
  External potential:
    <gpaw.external.NoExternalPotential object at 0x2b332904bf40>
 

Memory estimate:
  Process memory now: 39810.93 MiB
  Calculator: 580.26 MiB
    Density: 158.40 MiB
      Arrays: 75.37 MiB
      Localized functions: 52.88 MiB
      Mixer: 30.15 MiB
    Hamiltonian: 57.28 MiB
      Arrays: 55.99 MiB
      XC: 0.00 MiB
      Poisson: 0.00 MiB
      vbar: 1.29 MiB
    Wavefunctions: 364.58 MiB
      Arrays psit_nG: 281.29 MiB
      Eigensolver: 50.83 MiB
      Projections: 1.61 MiB
      Projectors: 18.26 MiB
      PW-descriptor: 12.59 MiB

Total number of cores used: 40
Parallelization over k-points: 40

Number of atoms: 16
Number of atomic orbitals: 84
Number of bands in calculation: 77
Number of valence electrons: 108
Bands to converge: occupied

... initialized

Initializing position-dependent things.

Density initialized from atomic densities
Creating initial wave functions:
  77 bands from LCAO basis set

                                       
                                       
                                       
                                       
                      I                
                            I          
                   I                   
                       Cr  I           
             Cr                        
                 I                     
                         I             
                     I                 
                             I         
               Cr                      
                   I   Cr              
          I                            
                 I                     
                        I              
                                       
                                       
                                       
                                       

Positions:
   0 Cr     0.889135    0.000185   -3.073135    ( 0.0000,  0.0000,  3.4336)
   1 Cr    -2.666158    2.052642   -3.080223    ( 0.0000,  0.0000,  3.4336)
   2 I      1.822012   -2.046247   -4.559876    ( 0.0000,  0.0000, -0.1299)
   3 I     -1.348662    0.216415   -4.560605    ( 0.0000,  0.0000, -0.1299)
   4 I     -4.915070    1.830062   -4.560598    ( 0.0000,  0.0000, -0.1299)
   5 I     -0.074828   -2.063434   -1.594960    ( 0.0000,  0.0000, -0.1299)
   6 I     -0.416551    1.865690   -1.594231    ( 0.0000,  0.0000, -0.1299)
   7 I      3.157525    0.197989   -1.594234    ( 0.0000,  0.0000, -0.1299)
   8 Cr    -2.666887   -2.052642    3.080226    ( 0.0000,  0.0000,  3.4336)
   9 Cr     0.888546   -0.000185    3.063139    ( 0.0000,  0.0000,  3.4336)
  10 I      1.852510    2.063434    1.594959    ( 0.0000,  0.0000, -0.1299)
  11 I      2.194233   -1.865690    1.594230    ( 0.0000,  0.0000, -0.1299)
  12 I     -1.379843   -0.197989    1.594233    ( 0.0000,  0.0000, -0.1299)
  13 I     -0.044330    2.046247    4.559875    ( 0.0000,  0.0000, -0.1299)
  14 I      3.126343   -0.216415    4.560604    ( 0.0000,  0.0000, -0.1299)
  15 I     -0.417976   -1.830062    4.560597    ( 0.0000,  0.0000, -0.1299)

Unit cell:
           periodic     x           y           z      points  spacing
  1. axis:    yes    7.110727   -0.000000    0.000000    42     0.1466
  2. axis:    yes   -3.555363    6.158070    0.000000    42     0.1466
  3. axis:    no     0.000000   -0.000000   27.269192   160     0.1704

  Lengths:   7.110727   7.110727  27.269192
  Angles:   90.000000  90.000000 120.000000

Effective grid spacing dv^(1/3) = 0.1617

                     log10-error:           total        iterations:
           time      wfs    density  force  energy       poisson  magmom
iter:   1  22:09:27                        -76.899256             +12.1076
iter:   2  22:10:19  -0.99  -0.91          -70.502527             +9.9678
iter:   3  22:11:11  -1.83  -1.33          -70.496994             +11.0179
iter:   4  22:12:03  -1.59  -1.38          -70.962528             +12.0929
iter:   5  22:12:55  -2.54  -1.51          -70.629438             +12.0161
iter:   6  22:13:47  -1.91  -1.83          -70.401178             +12.0004
iter:   7  22:14:39  -2.97  -2.20          -70.394619             +12.0039
iter:   8  22:15:31  -3.30  -2.32          -70.389928             +12.0056
iter:   9  22:16:23  -3.67  -2.66          -70.391003             +12.0018
iter:  10  22:17:15  -3.85  -2.86          -70.391718             +11.9998
iter:  11  22:18:07  -3.99  -2.94          -70.392305             +12.0000
iter:  12  22:18:59  -4.03  -2.99          -70.392654             +12.0000
iter:  13  22:19:51  -4.10  -3.08          -70.392836             +12.0000
iter:  14  22:20:44  -4.12  -3.13          -70.392888             +12.0000
iter:  15  22:21:36  -4.26  -3.30          -70.393026             +12.0000
iter:  16  22:22:28  -4.40  -3.44          -70.393151             +12.0000
iter:  17  22:23:20  -4.49  -3.68          -70.393243             +12.0000
iter:  18  22:24:12  -4.72  -3.79          -70.393302             +12.0000
iter:  19  22:25:04  -4.90  -3.94          -70.393353             +12.0000
iter:  20  22:25:56  -4.89  -3.93          -70.393391             +12.0000
iter:  21  22:26:48  -5.15  -3.87          -70.393416             +12.0000
iter:  22  22:27:40  -5.21  -4.02          -70.393435             +12.0000
iter:  23  22:28:32  -5.29  -4.05          -70.393450             +12.0000
iter:  24  22:29:24  -5.48  -4.06          -70.393462             +12.0000
iter:  25  22:30:16  -5.55  -4.03          -70.393471             +12.0000
iter:  26  22:31:08  -5.61  -4.03          -70.393481             +12.0000
iter:  27  22:32:01  -5.79  -4.00          -70.393483             +12.0000
iter:  28  22:32:53  -5.91  -4.01          -70.393486             +12.0000
iter:  29  22:33:45  -6.06  -4.07          -70.393488             +12.0000
iter:  30  22:34:37  -6.34  -4.17          -70.393490             +12.0000
iter:  31  22:35:29  -6.41  -4.18          -70.393490             +12.0000
iter:  32  22:36:22  -6.42  -4.28          -70.393490             +12.0000
iter:  33  22:37:14  -6.55  -4.40          -70.393491             +12.0000
iter:  34  22:38:06  -6.65  -4.38          -70.393492             +12.0000
iter:  35  22:38:58  -6.67  -4.41          -70.393491             +12.0000
iter:  36  22:39:51  -6.82  -4.68          -70.393492             +12.0000
iter:  37  22:40:43  -7.03  -4.79          -70.393492             +12.0000
iter:  38  22:41:35  -7.15  -4.89          -70.393492             +12.0000
iter:  39  22:42:27  -7.26  -4.95          -70.393492             +12.0000
iter:  40  22:43:29  -7.48  -5.26          -70.393492             +12.0000
iter:  41  22:44:32  -7.71  -5.31    -3.77 -70.393492             +12.0000
iter:  42  22:45:35  -7.86  -5.46    -3.96 -70.393492             +12.0000
iter:  43  22:46:37  -8.01  -5.54    -3.71 -70.393492             +12.0000
iter:  44  22:47:40  -8.14  -5.96    -4.29 -70.393492             +12.0000

Converged after 44 iterations.

Dipole moment: (-31.570839, 0.000064, -0.010338) |e|*Ang

Total magnetic moment: (0.000000, 0.000000, 12.000000)
Local magnetic moments:
   0 Cr ( 0.000000,  0.000000,  2.911511)
   1 Cr ( 0.000000,  0.000000,  2.915308)
   2 I  ( 0.000000,  0.000000, -0.046536)
   3 I  ( 0.000000,  0.000000, -0.046492)
   4 I  ( 0.000000,  0.000000, -0.046511)
   5 I  ( 0.000000,  0.000000, -0.050069)
   6 I  ( 0.000000,  0.000000, -0.050045)
   7 I  ( 0.000000,  0.000000, -0.050057)
   8 Cr ( 0.000000,  0.000000,  2.915355)
   9 Cr ( 0.000000,  0.000000,  2.911199)
  10 I  ( 0.000000,  0.000000, -0.049705)
  11 I  ( 0.000000,  0.000000, -0.049680)
  12 I  ( 0.000000,  0.000000, -0.049691)
  13 I  ( 0.000000,  0.000000, -0.046979)
  14 I  ( 0.000000,  0.000000, -0.046937)
  15 I  ( 0.000000,  0.000000, -0.046955)

Energy contributions relative to reference atoms: (reference = -2434708.556191)

Kinetic:        +23.292440
Potential:      -37.262597
External:        +0.000000
XC:             -56.599578
Entropy (-ST):   -0.000000
Local:           +0.176243
--------------------------
Free energy:    -70.393492
Extrapolated:   -70.393492

Spin contamination: 1.119586 electrons
Showing only first 2 kpts
                      Up                     Down
 Kpt  Band  Eigenvalues  Occupancy  Eigenvalues  Occupancy
  0    52     -2.13747    1.00000     -0.01123    0.00000
  0    53     -2.10178    1.00000      0.00531    0.00000
  0    54     -2.01738    1.00000      0.18131    0.00000
  0    55     -2.01632    1.00000      0.21255    0.00000

  1    52     -2.11725    1.00000     -0.01784    0.00000
  1    53     -2.07284    1.00000      0.02079    0.00000
  1    54     -2.01832    1.00000      0.17085    0.00000
  1    55     -1.98767    1.00000      0.21063    0.00000


Fermi level: -1.19441

Gap: 0.971 eV
Transition (v -> c):
  (s=0, k=132, n=59, [0.46, -0.46, 0.00]) -> (s=0, k=17, n=60, [-0.38, -0.04, 0.00])
Writing to born-0.01-0z-.gpw (mode='all')

Timing:                              incl.     excl.
-----------------------------------------------------------
Hamiltonian:                         3.024     0.012   0.0% |
 Atomic:                             1.525     1.525   0.0% |
  XC Correction:                     0.000     0.000   0.0% |
 Calculate atomic Hamiltonians:      0.324     0.324   0.0% |
 Communicate:                        0.000     0.000   0.0% |
 Initialize Hamiltonian:             0.005     0.005   0.0% |
 Poisson:                            0.015     0.015   0.0% |
 XC 3D grid:                         1.143     1.143   0.0% |
LCAO initialization:                21.225     0.141   0.0% |
 LCAO eigensolver:                   3.319     0.001   0.0% |
  Calculate projections:             0.004     0.004   0.0% |
  DenseAtomicCorrection:             0.005     0.005   0.0% |
  Distribute overlap matrix:         0.000     0.000   0.0% |
  Orbital Layouts:                   0.016     0.016   0.0% |
  Potential matrix:                  3.282     3.282   0.1% |
  Sum over cells:                    0.012     0.012   0.0% |
 LCAO to grid:                      17.484    17.484   0.3% |
 Set positions (LCAO WFS):           0.281     0.050   0.0% |
  Basic WFS set positions:           0.001     0.001   0.0% |
  Basis functions set positions:     0.000     0.000   0.0% |
  P tci:                             0.124     0.124   0.0% |
  ST tci:                            0.064     0.064   0.0% |
  mktci:                             0.043     0.043   0.0% |
PWDescriptor:                        0.087     0.087   0.0% |
SCF-cycle:                        2345.417   547.942   9.2% |---|
 Davidson:                        1427.703   230.525   3.9% |-|
  Apply H:                         246.426   238.612   4.0% |-|
   HMM T:                            7.814     7.814   0.1% |
  Subspace diag:                   299.468     0.060   0.0% |
   calc_h_matrix:                  265.958    19.652   0.3% |
    Apply H:                       246.306   238.214   4.0% |-|
     HMM T:                          8.093     8.093   0.1% |
   diagonalize:                      0.551     0.551   0.0% |
   rotate_psi:                      32.899    32.899   0.6% |
  calc. matrices:                  587.026   111.054   1.9% ||
   Apply H:                        475.972   461.231   7.7% |--|
    HMM T:                          14.741    14.741   0.2% |
  diagonalize:                       5.187     5.187   0.1% |
  rotate_psi:                       59.071    59.071   1.0% |
 Density:                          230.800     0.002   0.0% |
  Atomic density matrices:           0.316     0.316   0.0% |
  Mix:                              38.778    38.778   0.6% |
  Multipole moments:                 0.020     0.020   0.0% |
  Pseudo density:                  191.685   191.682   3.2% ||
   Symmetrize density:               0.003     0.003   0.0% |
 Forces:                            49.202    49.202   0.8% |
 Hamiltonian:                       88.103     0.534   0.0% |
  Atomic:                            6.293     6.293   0.1% |
   XC Correction:                    0.000     0.000   0.0% |
  Calculate atomic Hamiltonians:    28.490    28.490   0.5% |
  Communicate:                       0.041     0.041   0.0% |
  Poisson:                           0.526     0.526   0.0% |
  XC 3D grid:                       52.219    52.219   0.9% |
 Orthonormalize:                     1.667     0.002   0.0% |
  calc_s_matrix:                     0.224     0.224   0.0% |
  inverse-cholesky:                  0.004     0.004   0.0% |
  projections:                       1.029     1.029   0.0% |
  rotate_psi_s:                      0.408     0.408   0.0% |
Set symmetry:                        0.000     0.000   0.0% |
Other:                            3598.275  3598.275  60.3% |-----------------------|
-----------------------------------------------------------
Total:                                      5968.027 100.0%

Memory usage: 38.88 GiB
Date: Sat Jun 25 23:47:34 2022
