
  ___ ___ ___ _ _ _  
 |   |   |_  | | | | 
 | | | | | . | | | | 
 |__ |  _|___|_____|  21.6.1b1
 |___|_|             

User:   madkru@c007.nifl.fysik.dtu.dk
Date:   Wed Jun 29 15:59:42 2022
Arch:   x86_64
Pid:    215850
Python: 3.8.6
gpaw:   /home/niflheim/madkru/new_venv/gpaw/gpaw (1f0dfc9eae)
_gpaw:  /home/niflheim/madkru/new_venv/gpaw/build/lib.linux-x86_64-skylake-3.8/
        _gpaw.cpython-38-x86_64-linux-gnu.so (c1e45bfab3)
ase:    /home/niflheim/madkru/new_venv/ase/ase (version 3.23.0b1-ca38c75a67)
numpy:  /home/modules/software/SciPy-bundle/2020.11-foss-2020b/lib/python3.8/site-packages/numpy (version 1.19.4)
scipy:  /home/modules/software/SciPy-bundle/2020.11-foss-2020b/lib/python3.8/site-packages/scipy (version 1.5.4)
libxc:  4.3.4
units:  Angstrom and eV
cores: 40
OpenMP: False
OMP_NUM_THREADS: 1

Input parameters:
  convergence: {bands: occupied,
                density: 0.0001,
                eigenstates: 4e-08,
                energy: 0.0005,
                forces: 0.0001}
  kpts: [12 12  1]
  mode: {ecut: 600.0,
         gammacentered: False,
         name: pw}
  occupations: {fixmagmom: False,
                name: fermi-dirac,
                width: 0.001}
  symmetry: {point_group: False,
             time_reversal: False}

System changes: positions, numbers, cell, pbc, initial_charges, initial_magmoms 

Initialize ...

Cr-setup:
  name: Chromium
  id: 444e8044bc0f91048286c984738d87f5
  Z: 24.0
  valence: 6
  core: 18
  charge: 0.0
  file: /home/modules/software/GPAW-setups/0.9.20000/Cr.LDA.gz
  compensation charges: gauss, rc=0.35, lmax=2
  cutoffs: 2.14(filt), 3.04(core),
  valence states:
                energy  radius
    4s(1.00)    -4.191   1.164
    4p(0.00)    -1.079   1.217
    3d(5.00)    -3.128   1.111
    *s          23.021   1.164
    *p          26.132   1.217
    *d          24.083   1.111

  Using partial waves for Cr as LCAO basis

I-setup:
  name: Iodine
  id: b559721c0c096a7b4c8fc0e0f4de5cf4
  Z: 53.0
  valence: 7
  core: 46
  charge: 0.0
  file: /home/modules/software/GPAW-setups/0.9.20000/I.LDA.gz
  compensation charges: gauss, rc=0.37, lmax=2
  cutoffs: 2.06(filt), 2.90(core),
  valence states:
                energy  radius
    5s(2.00)   -17.626   1.164
    5p(5.00)    -7.241   1.164
    *s           9.585   1.164
    *p          19.970   1.164
    *d           0.000   1.164

  Using partial waves for I as LCAO basis

Reference energy: -2434708.556191

Spin-polarized calculation.
Magnetic moment: 12.175341

Convergence criteria:
  Maximum total energy change: 0.0005 eV / electron
  Maximum integral of absolute density change: 0.0001 electrons
  Maximum integral of absolute eigenstate change: 4e-08 eV^2
  Maximum change in atomic force: 0.0001 eV / Ang
  Maximum number of iterations: 333

Symmetries present (total): 1

  ( 1  0  0)
  ( 0  1  0)
  ( 0  0  1)

144 k-points: 12 x 12 x 1 Monkhorst-Pack grid
144 k-points in the irreducible part of the Brillouin zone
       k-points in crystal coordinates                weights
   0:    -0.45833333   -0.45833333    0.00000000          1/144
   1:    -0.45833333   -0.37500000    0.00000000          1/144
   2:    -0.45833333   -0.29166667    0.00000000          1/144
   3:    -0.45833333   -0.20833333    0.00000000          1/144
   4:    -0.45833333   -0.12500000    0.00000000          1/144
   5:    -0.45833333   -0.04166667    0.00000000          1/144
   6:    -0.45833333    0.04166667    0.00000000          1/144
   7:    -0.45833333    0.12500000    0.00000000          1/144
   8:    -0.45833333    0.20833333    0.00000000          1/144
   9:    -0.45833333    0.29166667    0.00000000          1/144
          ...
 143:     0.45833333    0.45833333    0.00000000          1/144

Wave functions: Plane wave expansion
  Cutoff energy: 600.000 eV
  Number of coefficients (min, max): 39797, 39902
  Pulay-stress correction: 0.000000 eV/Ang^3 (de/decut=0.000000)
  Using FFTW library
  ScaLapack parameters: grid=1x1, blocksize=None
  Wavefunction extrapolation:
    Improved wavefunction reuse through dual PAW basis 

Occupation numbers: Fermi-Dirac: width=0.0010 eV
 

Eigensolver
   Davidson(niter=2) 

Densities:
  Coarse grid: 42*42*160 grid
  Fine grid: 84*84*320 grid
  Total Charge: 0.000000 

Density mixing:
  Method: difference
  Backend: pulay
  Linear mixing parameter: 0.05
  Mixing with 5 old densities
  Damping of long wave oscillations: 50 

Hamiltonian:
  XC and Coulomb potentials evaluated on a 84*84*320 grid
  Using the LDA Exchange-Correlation functional
  External potential:
    <gpaw.external.NoExternalPotential object at 0x2b896f71f040>
 

Memory estimate:
  Process memory now: 40223.27 MiB
  Calculator: 580.26 MiB
    Density: 158.40 MiB
      Arrays: 75.37 MiB
      Localized functions: 52.88 MiB
      Mixer: 30.15 MiB
    Hamiltonian: 57.28 MiB
      Arrays: 55.99 MiB
      XC: 0.00 MiB
      Poisson: 0.00 MiB
      vbar: 1.29 MiB
    Wavefunctions: 364.58 MiB
      Arrays psit_nG: 281.29 MiB
      Eigensolver: 50.83 MiB
      Projections: 1.61 MiB
      Projectors: 18.26 MiB
      PW-descriptor: 12.59 MiB

Total number of cores used: 40
Parallelization over k-points: 40

Number of atoms: 16
Number of atomic orbitals: 84
Number of bands in calculation: 77
Number of valence electrons: 108
Bands to converge: occupied

... initialized

Initializing position-dependent things.

Density initialized from atomic densities
Creating initial wave functions:
  77 bands from LCAO basis set

                                       
                                       
                                       
                                       
                      I                
                            I          
                   I                   
                       Cr  I           
             Cr                        
                 I                     
                         I             
                     I                 
                             I         
               Cr                      
                   I   Cr              
          I                            
                 I                     
                        I              
                                       
                                       
                                       
                                       

Positions:
   0 Cr     0.889135    0.000185   -3.063135    ( 0.0000,  0.0000,  3.4336)
   1 Cr    -2.666158    2.052642   -3.080223    ( 0.0000,  0.0000,  3.4336)
   2 I      1.822012   -2.046247   -4.559876    ( 0.0000,  0.0000, -0.1299)
   3 I     -1.348662    0.216415   -4.560605    ( 0.0000,  0.0000, -0.1299)
   4 I     -4.915070    1.830062   -4.560598    ( 0.0000,  0.0000, -0.1299)
   5 I     -0.074828   -2.063434   -1.594960    ( 0.0000,  0.0000, -0.1299)
   6 I     -0.416551    1.865690   -1.594231    ( 0.0000,  0.0000, -0.1299)
   7 I      3.157525    0.197989   -1.594234    ( 0.0000,  0.0000, -0.1299)
   8 Cr    -2.666887   -2.052642    3.080226    ( 0.0000,  0.0000,  3.4336)
   9 Cr     0.888546   -0.000185    3.063139    ( 0.0000,  0.0000,  3.4336)
  10 I      1.852510    2.063434    1.594959    ( 0.0000,  0.0000, -0.1299)
  11 I      2.194233   -1.865690    1.594230    ( 0.0000,  0.0000, -0.1299)
  12 I     -1.379843   -0.197989    1.594233    ( 0.0000,  0.0000, -0.1299)
  13 I     -0.044330    2.046247    4.559875    ( 0.0000,  0.0000, -0.1299)
  14 I      3.126343   -0.226415    4.560604    ( 0.0000,  0.0000, -0.1299)
  15 I     -0.417976   -1.830062    4.560597    ( 0.0000,  0.0000, -0.1299)

Unit cell:
           periodic     x           y           z      points  spacing
  1. axis:    yes    7.110727   -0.000000    0.000000    42     0.1466
  2. axis:    yes   -3.555363    6.158070    0.000000    42     0.1466
  3. axis:    no     0.000000   -0.000000   27.269192   160     0.1704

  Lengths:   7.110727   7.110727  27.269192
  Angles:   90.000000  90.000000 120.000000

Effective grid spacing dv^(1/3) = 0.1617

                     log10-error:           total        iterations:
           time      wfs    density  force  energy       poisson  magmom
iter:   1  16:01:02                        -76.905937             +12.1076
iter:   2  16:01:54  -0.99  -0.91          -70.503260             +9.9591
iter:   3  16:02:45  -1.83  -1.33          -70.497067             +11.0136
iter:   4  16:03:37  -1.58  -1.38          -70.968300             +12.0928
iter:   5  16:04:28  -2.53  -1.51          -70.628956             +12.0160
iter:   6  16:05:20  -1.91  -1.83          -70.402222             +12.0006
iter:   7  16:06:11  -2.97  -2.20          -70.395369             +12.0039
iter:   8  16:07:03  -3.31  -2.31          -70.390093             +12.0056
iter:   9  16:07:54  -3.68  -2.67          -70.391247             +12.0017
iter:  10  16:08:46  -3.86  -2.86          -70.391931             +11.9998
iter:  11  16:09:37  -3.99  -2.94          -70.392505             +12.0000
iter:  12  16:10:29  -3.99  -3.03          -70.392819             +12.0000
iter:  13  16:11:20  -4.05  -3.10          -70.393031             +12.0000
iter:  14  16:12:12  -4.10  -3.14          -70.393132             +12.0000
iter:  15  16:13:03  -4.19  -3.26          -70.393295             +12.0000
iter:  16  16:13:55  -4.34  -3.32          -70.393413             +12.0000
iter:  17  16:14:46  -4.59  -3.39          -70.393472             +12.0000
iter:  18  16:15:38  -4.75  -3.55          -70.393542             +12.0000
iter:  19  16:16:30  -4.88  -3.67          -70.393589             +12.0000
iter:  20  16:17:21  -4.99  -3.73          -70.393631             +12.0000
iter:  21  16:18:13  -5.16  -4.09          -70.393659             +12.0000
iter:  22  16:19:04  -5.18  -4.15          -70.393679             +12.0000
iter:  23  16:19:56  -5.29  -4.13          -70.393695             +12.0000
iter:  24  16:20:47  -5.51  -4.11          -70.393706             +12.0000
iter:  25  16:21:38  -5.63  -4.09          -70.393714             +12.0000
iter:  26  16:22:30  -5.81  -4.13          -70.393721             +12.0000
iter:  27  16:23:21  -5.94  -4.10          -70.393727             +12.0000
iter:  28  16:24:13  -6.19  -4.10          -70.393730             +12.0000
iter:  29  16:25:04  -6.33  -4.06          -70.393731             +12.0000
iter:  30  16:25:56  -6.29  -4.13          -70.393733             +12.0000
iter:  31  16:26:47  -6.50  -4.09          -70.393733             +12.0000
iter:  32  16:27:39  -6.71  -4.21          -70.393734             +12.0000
iter:  33  16:28:30  -6.91  -4.16          -70.393734             +12.0000
iter:  34  16:29:21  -7.09  -4.17          -70.393735             +12.0000
iter:  35  16:30:13  -7.13  -4.19          -70.393734             +12.0000
iter:  36  16:31:04  -7.36  -4.49          -70.393734             +12.0000
iter:  37  16:32:05  -7.49  -4.60          -70.393734             +12.0000
iter:  38  16:33:07  -7.56  -4.63    -2.96 -70.393734             +12.0000
iter:  39  16:34:09  -7.71  -4.77    -3.26 -70.393734             +12.0000
iter:  40  16:35:11  -7.75  -4.96    -3.87 -70.393734             +12.0000
iter:  41  16:36:13  -7.97  -5.01    -3.76 -70.393734             +12.0000
iter:  42  16:37:15  -8.18  -5.07    -3.76 -70.393734             +12.0000
iter:  43  16:38:17  -8.32  -5.18    -3.75 -70.393734             +12.0000
iter:  44  16:39:19  -8.50  -5.26    -3.47 -70.393734             +12.0000
iter:  45  16:40:21  -8.58  -5.40    -4.04 -70.393734             +12.0000

Converged after 45 iterations.

Dipole moment: (-31.742948, 0.296495, -0.000386) |e|*Ang

Total magnetic moment: (0.000000, 0.000000, 12.000000)
Local magnetic moments:
   0 Cr ( 0.000000,  0.000000,  2.911279)
   1 Cr ( 0.000000,  0.000000,  2.915424)
   2 I  ( 0.000000,  0.000000, -0.046974)
   3 I  ( 0.000000,  0.000000, -0.046933)
   4 I  ( 0.000000,  0.000000, -0.046953)
   5 I  ( 0.000000,  0.000000, -0.049678)
   6 I  ( 0.000000,  0.000000, -0.049643)
   7 I  ( 0.000000,  0.000000, -0.049614)
   8 Cr ( 0.000000,  0.000000,  2.913835)
   9 Cr ( 0.000000,  0.000000,  2.911637)
  10 I  ( 0.000000,  0.000000, -0.049350)
  11 I  ( 0.000000,  0.000000, -0.049741)
  12 I  ( 0.000000,  0.000000, -0.049597)
  13 I  ( 0.000000,  0.000000, -0.046906)
  14 I  ( 0.000000,  0.000000, -0.046718)
  15 I  ( 0.000000,  0.000000, -0.046961)

Energy contributions relative to reference atoms: (reference = -2434708.556191)

Kinetic:        +23.442077
Potential:      -37.385712
External:        +0.000000
XC:             -56.625225
Entropy (-ST):   -0.000000
Local:           +0.175125
--------------------------
Free energy:    -70.393734
Extrapolated:   -70.393734

Spin contamination: 1.118744 electrons
Showing only first 2 kpts
                      Up                     Down
 Kpt  Band  Eigenvalues  Occupancy  Eigenvalues  Occupancy
  0    52     -2.13663    1.00000     -0.01164    0.00000
  0    53     -2.10058    1.00000      0.00348    0.00000
  0    54     -2.01890    1.00000      0.18178    0.00000
  0    55     -2.01782    1.00000      0.21270    0.00000

  1    52     -2.11634    1.00000     -0.01848    0.00000
  1    53     -2.07203    1.00000      0.01905    0.00000
  1    54     -2.01949    1.00000      0.17143    0.00000
  1    55     -1.98884    1.00000      0.21014    0.00000


Fermi level: -1.16389

Gap: 0.970 eV
Transition (v -> c):
  (s=0, k=132, n=59, [0.46, -0.46, 0.00]) -> (s=0, k=126, n=60, [0.38, 0.04, 0.00])
Writing to born-0.01-14y-.gpw (mode='all')

Timing:                              incl.     excl.
-----------------------------------------------------------
Hamiltonian:                         2.890     0.012   0.0% |
 Atomic:                             1.390     1.390   0.0% |
  XC Correction:                     0.000     0.000   0.0% |
 Calculate atomic Hamiltonians:      0.330     0.330   0.0% |
 Communicate:                        0.000     0.000   0.0% |
 Initialize Hamiltonian:             0.004     0.004   0.0% |
 Poisson:                            0.012     0.012   0.0% |
 XC 3D grid:                         1.143     1.143   0.0% |
LCAO initialization:                20.284     0.141   0.0% |
 LCAO eigensolver:                   3.058     0.001   0.0% |
  Calculate projections:             0.004     0.004   0.0% |
  DenseAtomicCorrection:             0.005     0.005   0.0% |
  Distribute overlap matrix:         0.000     0.000   0.0% |
  Orbital Layouts:                   0.016     0.016   0.0% |
  Potential matrix:                  3.022     3.022   0.0% |
  Sum over cells:                    0.011     0.011   0.0% |
 LCAO to grid:                      16.804    16.804   0.3% |
 Set positions (LCAO WFS):           0.282     0.050   0.0% |
  Basic WFS set positions:           0.001     0.001   0.0% |
  Basis functions set positions:     0.000     0.000   0.0% |
  P tci:                             0.123     0.123   0.0% |
  ST tci:                            0.066     0.066   0.0% |
  mktci:                             0.043     0.043   0.0% |
PWDescriptor:                        0.087     0.087   0.0% |
SCF-cycle:                        2411.785   505.330   8.3% |--|
 Davidson:                        1486.630   231.453   3.8% |-|
  Apply H:                         261.182   253.254   4.2% |-|
   HMM T:                            7.928     7.928   0.1% |
  Subspace diag:                   314.352     0.066   0.0% |
   calc_h_matrix:                  278.914    19.848   0.3% |
    Apply H:                       259.065   250.764   4.1% |-|
     HMM T:                          8.301     8.301   0.1% |
   diagonalize:                      0.565     0.565   0.0% |
   rotate_psi:                      34.807    34.807   0.6% |
  calc. matrices:                  612.989   110.890   1.8% ||
   Apply H:                        502.099   487.031   8.0% |--|
    HMM T:                          15.068    15.068   0.2% |
  diagonalize:                       5.306     5.306   0.1% |
  rotate_psi:                       61.347    61.347   1.0% |
 Density:                          241.485     0.002   0.0% |
  Atomic density matrices:           0.311     0.311   0.0% |
  Mix:                              41.315    41.315   0.7% |
  Multipole moments:                 0.021     0.021   0.0% |
  Pseudo density:                  199.835   199.832   3.3% ||
   Symmetrize density:               0.003     0.003   0.0% |
 Forces:                            87.598    87.598   1.4% ||
 Hamiltonian:                       89.095     0.570   0.0% |
  Atomic:                            5.005     5.004   0.1% |
   XC Correction:                    0.000     0.000   0.0% |
  Calculate atomic Hamiltonians:    30.268    30.268   0.5% |
  Communicate:                       0.008     0.008   0.0% |
  Poisson:                           0.534     0.534   0.0% |
  XC 3D grid:                       52.710    52.710   0.9% |
 Orthonormalize:                     1.647     0.002   0.0% |
  calc_s_matrix:                     0.218     0.218   0.0% |
  inverse-cholesky:                  0.004     0.004   0.0% |
  projections:                       0.981     0.981   0.0% |
  rotate_psi_s:                      0.442     0.442   0.0% |
Set symmetry:                        0.000     0.000   0.0% |
Other:                            3643.065  3643.065  59.9% |-----------------------|
-----------------------------------------------------------
Total:                                      6078.112 100.0%

Memory usage: 39.28 GiB
Date: Wed Jun 29 17:41:00 2022
