
  ___ ___ ___ _ _ _  
 |   |   |_  | | | | 
 | | | | | . | | | | 
 |__ |  _|___|_____|  21.6.1b1
 |___|_|             

User:   madkru@c007.nifl.fysik.dtu.dk
Date:   Tue Jun 28 20:26:55 2022
Arch:   x86_64
Pid:    215850
Python: 3.8.6
gpaw:   /home/niflheim/madkru/new_venv/gpaw/gpaw (1f0dfc9eae)
_gpaw:  /home/niflheim/madkru/new_venv/gpaw/build/lib.linux-x86_64-skylake-3.8/
        _gpaw.cpython-38-x86_64-linux-gnu.so (c1e45bfab3)
ase:    /home/niflheim/madkru/new_venv/ase/ase (version 3.23.0b1-ca38c75a67)
numpy:  /home/modules/software/SciPy-bundle/2020.11-foss-2020b/lib/python3.8/site-packages/numpy (version 1.19.4)
scipy:  /home/modules/software/SciPy-bundle/2020.11-foss-2020b/lib/python3.8/site-packages/scipy (version 1.5.4)
libxc:  4.3.4
units:  Angstrom and eV
cores: 40
OpenMP: False
OMP_NUM_THREADS: 1

Input parameters:
  convergence: {bands: occupied,
                density: 0.0001,
                eigenstates: 4e-08,
                energy: 0.0005,
                forces: 0.0001}
  kpts: [12 12  1]
  mode: {ecut: 600.0,
         gammacentered: False,
         name: pw}
  occupations: {fixmagmom: False,
                name: fermi-dirac,
                width: 0.001}
  symmetry: {point_group: False,
             time_reversal: False}

System changes: positions, numbers, cell, pbc, initial_charges, initial_magmoms 

Initialize ...

Cr-setup:
  name: Chromium
  id: 444e8044bc0f91048286c984738d87f5
  Z: 24.0
  valence: 6
  core: 18
  charge: 0.0
  file: /home/modules/software/GPAW-setups/0.9.20000/Cr.LDA.gz
  compensation charges: gauss, rc=0.35, lmax=2
  cutoffs: 2.14(filt), 3.04(core),
  valence states:
                energy  radius
    4s(1.00)    -4.191   1.164
    4p(0.00)    -1.079   1.217
    3d(5.00)    -3.128   1.111
    *s          23.021   1.164
    *p          26.132   1.217
    *d          24.083   1.111

  Using partial waves for Cr as LCAO basis

I-setup:
  name: Iodine
  id: b559721c0c096a7b4c8fc0e0f4de5cf4
  Z: 53.0
  valence: 7
  core: 46
  charge: 0.0
  file: /home/modules/software/GPAW-setups/0.9.20000/I.LDA.gz
  compensation charges: gauss, rc=0.37, lmax=2
  cutoffs: 2.06(filt), 2.90(core),
  valence states:
                energy  radius
    5s(2.00)   -17.626   1.164
    5p(5.00)    -7.241   1.164
    *s           9.585   1.164
    *p          19.970   1.164
    *d           0.000   1.164

  Using partial waves for I as LCAO basis

Reference energy: -2434708.556191

Spin-polarized calculation.
Magnetic moment: 12.175341

Convergence criteria:
  Maximum total energy change: 0.0005 eV / electron
  Maximum integral of absolute density change: 0.0001 electrons
  Maximum integral of absolute eigenstate change: 4e-08 eV^2
  Maximum change in atomic force: 0.0001 eV / Ang
  Maximum number of iterations: 333

Symmetries present (total): 1

  ( 1  0  0)
  ( 0  1  0)
  ( 0  0  1)

144 k-points: 12 x 12 x 1 Monkhorst-Pack grid
144 k-points in the irreducible part of the Brillouin zone
       k-points in crystal coordinates                weights
   0:    -0.45833333   -0.45833333    0.00000000          1/144
   1:    -0.45833333   -0.37500000    0.00000000          1/144
   2:    -0.45833333   -0.29166667    0.00000000          1/144
   3:    -0.45833333   -0.20833333    0.00000000          1/144
   4:    -0.45833333   -0.12500000    0.00000000          1/144
   5:    -0.45833333   -0.04166667    0.00000000          1/144
   6:    -0.45833333    0.04166667    0.00000000          1/144
   7:    -0.45833333    0.12500000    0.00000000          1/144
   8:    -0.45833333    0.20833333    0.00000000          1/144
   9:    -0.45833333    0.29166667    0.00000000          1/144
          ...
 143:     0.45833333    0.45833333    0.00000000          1/144

Wave functions: Plane wave expansion
  Cutoff energy: 600.000 eV
  Number of coefficients (min, max): 39797, 39902
  Pulay-stress correction: 0.000000 eV/Ang^3 (de/decut=0.000000)
  Using FFTW library
  ScaLapack parameters: grid=1x1, blocksize=None
  Wavefunction extrapolation:
    Improved wavefunction reuse through dual PAW basis 

Occupation numbers: Fermi-Dirac: width=0.0010 eV
 

Eigensolver
   Davidson(niter=2) 

Densities:
  Coarse grid: 42*42*160 grid
  Fine grid: 84*84*320 grid
  Total Charge: 0.000000 

Density mixing:
  Method: difference
  Backend: pulay
  Linear mixing parameter: 0.05
  Mixing with 5 old densities
  Damping of long wave oscillations: 50 

Hamiltonian:
  XC and Coulomb potentials evaluated on a 84*84*320 grid
  Using the LDA Exchange-Correlation functional
  External potential:
    <gpaw.external.NoExternalPotential object at 0x2b89693013d0>
 

Memory estimate:
  Process memory now: 40038.94 MiB
  Calculator: 580.26 MiB
    Density: 158.40 MiB
      Arrays: 75.37 MiB
      Localized functions: 52.88 MiB
      Mixer: 30.15 MiB
    Hamiltonian: 57.28 MiB
      Arrays: 55.99 MiB
      XC: 0.00 MiB
      Poisson: 0.00 MiB
      vbar: 1.29 MiB
    Wavefunctions: 364.58 MiB
      Arrays psit_nG: 281.29 MiB
      Eigensolver: 50.83 MiB
      Projections: 1.61 MiB
      Projectors: 18.26 MiB
      PW-descriptor: 12.59 MiB

Total number of cores used: 40
Parallelization over k-points: 40

Number of atoms: 16
Number of atomic orbitals: 84
Number of bands in calculation: 77
Number of valence electrons: 108
Bands to converge: occupied

... initialized

Initializing position-dependent things.

Density initialized from atomic densities
Creating initial wave functions:
  77 bands from LCAO basis set

                                       
                                       
                                       
                                       
                      I                
                            I          
                   I                   
                       Cr  I           
             Cr                        
                 I                     
                         I             
                     I                 
                             I         
               Cr                      
                   I   Cr              
          I                            
                 I                     
                        I              
                                       
                                       
                                       
                                       

Positions:
   0 Cr     0.889135    0.000185   -3.063135    ( 0.0000,  0.0000,  3.4336)
   1 Cr    -2.666158    2.052642   -3.080223    ( 0.0000,  0.0000,  3.4336)
   2 I      1.822012   -2.046247   -4.559876    ( 0.0000,  0.0000, -0.1299)
   3 I     -1.348662    0.216415   -4.560605    ( 0.0000,  0.0000, -0.1299)
   4 I     -4.915070    1.830062   -4.560598    ( 0.0000,  0.0000, -0.1299)
   5 I     -0.074828   -2.063434   -1.594960    ( 0.0000,  0.0000, -0.1299)
   6 I     -0.416551    1.865690   -1.594231    ( 0.0000,  0.0000, -0.1299)
   7 I      3.157525    0.197989   -1.594234    ( 0.0000,  0.0000, -0.1299)
   8 Cr    -2.666887   -2.052642    3.080226    ( 0.0000,  0.0000,  3.4336)
   9 Cr     0.888546   -0.000185    3.063139    ( 0.0000,  0.0000,  3.4336)
  10 I      1.852510    2.063434    1.584959    ( 0.0000,  0.0000, -0.1299)
  11 I      2.194233   -1.865690    1.594230    ( 0.0000,  0.0000, -0.1299)
  12 I     -1.379843   -0.197989    1.594233    ( 0.0000,  0.0000, -0.1299)
  13 I     -0.044330    2.046247    4.559875    ( 0.0000,  0.0000, -0.1299)
  14 I      3.126343   -0.216415    4.560604    ( 0.0000,  0.0000, -0.1299)
  15 I     -0.417976   -1.830062    4.560597    ( 0.0000,  0.0000, -0.1299)

Unit cell:
           periodic     x           y           z      points  spacing
  1. axis:    yes    7.110727   -0.000000    0.000000    42     0.1466
  2. axis:    yes   -3.555363    6.158070    0.000000    42     0.1466
  3. axis:    no     0.000000   -0.000000   27.269192   160     0.1704

  Lengths:   7.110727   7.110727  27.269192
  Angles:   90.000000  90.000000 120.000000

Effective grid spacing dv^(1/3) = 0.1617

                     log10-error:           total        iterations:
           time      wfs    density  force  energy       poisson  magmom
iter:   1  20:28:15                        -76.892928             +12.1076
iter:   2  20:29:07  -0.99  -0.91          -70.504383             +9.9670
iter:   3  20:29:59  -1.83  -1.33          -70.497381             +11.0177
iter:   4  20:30:51  -1.59  -1.38          -70.965519             +12.0927
iter:   5  20:31:43  -2.54  -1.51          -70.628365             +12.0158
iter:   6  20:32:35  -1.91  -1.83          -70.402022             +12.0004
iter:   7  20:33:27  -2.97  -2.20          -70.395034             +12.0039
iter:   8  20:34:19  -3.30  -2.32          -70.390035             +12.0056
iter:   9  20:35:12  -3.68  -2.67          -70.391168             +12.0017
iter:  10  20:36:04  -3.86  -2.86          -70.391864             +11.9998
iter:  11  20:36:56  -3.99  -2.94          -70.392443             +12.0000
iter:  12  20:37:48  -4.01  -3.02          -70.392770             +12.0000
iter:  13  20:38:40  -4.08  -3.10          -70.392969             +12.0000
iter:  14  20:39:32  -4.11  -3.15          -70.393054             +12.0000
iter:  15  20:40:24  -4.23  -3.29          -70.393209             +12.0000
iter:  16  20:41:16  -4.36  -3.33          -70.393329             +12.0000
iter:  17  20:42:08  -4.65  -3.41          -70.393397             +12.0000
iter:  18  20:43:00  -4.80  -3.55          -70.393466             +12.0000
iter:  19  20:43:52  -4.92  -3.63          -70.393517             +12.0000
iter:  20  20:44:44  -4.99  -3.69          -70.393554             +12.0000
iter:  21  20:45:36  -5.16  -3.97          -70.393580             +12.0000
iter:  22  20:46:29  -5.23  -4.05          -70.393601             +12.0000
iter:  23  20:47:21  -5.35  -4.07          -70.393618             +12.0000
iter:  24  20:48:13  -5.34  -4.04          -70.393625             +12.0000
iter:  25  20:49:05  -5.52  -4.30          -70.393633             +12.0000
iter:  26  20:49:57  -5.64  -4.33          -70.393639             +12.0000
iter:  27  20:50:49  -5.72  -4.36          -70.393644             +12.0000
iter:  28  20:51:41  -5.90  -4.43          -70.393648             +12.0000
iter:  29  20:52:33  -6.06  -4.44          -70.393650             +12.0000
iter:  30  20:53:25  -6.22  -4.44          -70.393652             +12.0000
iter:  31  20:54:17  -6.33  -4.47          -70.393653             +12.0000
iter:  32  20:55:09  -6.42  -4.49          -70.393654             +12.0000
iter:  33  20:56:02  -6.58  -4.49          -70.393657             +12.0000
iter:  34  20:56:54  -6.63  -4.48          -70.393656             +12.0000
iter:  35  20:57:46  -7.03  -4.53          -70.393656             +12.0000
iter:  36  20:58:38  -7.16  -4.59          -70.393655             +12.0000
iter:  37  20:59:30  -7.26  -4.72          -70.393656             +12.0000
iter:  38  21:00:22  -7.37  -5.14          -70.393656             +12.0000
iter:  39  21:01:24  -7.45  -5.41          -70.393655             +12.0000
iter:  40  21:02:26  -7.62  -5.50    -3.95 -70.393656             +12.0000
iter:  41  21:03:29  -7.73  -5.63    -4.41 -70.393656             +12.0000

Converged after 41 iterations.

Dipole moment: (-31.571068, 0.001031, -0.090609) |e|*Ang

Total magnetic moment: (0.000000, 0.000000, 12.000000)
Local magnetic moments:
   0 Cr ( 0.000000,  0.000000,  2.911247)
   1 Cr ( 0.000000,  0.000000,  2.915442)
   2 I  ( 0.000000,  0.000000, -0.046986)
   3 I  ( 0.000000,  0.000000, -0.046951)
   4 I  ( 0.000000,  0.000000, -0.046912)
   5 I  ( 0.000000,  0.000000, -0.049698)
   6 I  ( 0.000000,  0.000000, -0.049739)
   7 I  ( 0.000000,  0.000000, -0.049723)
   8 Cr ( 0.000000,  0.000000,  2.916662)
   9 Cr ( 0.000000,  0.000000,  2.912391)
  10 I  ( 0.000000,  0.000000, -0.050278)
  11 I  ( 0.000000,  0.000000, -0.049849)
  12 I  ( 0.000000,  0.000000, -0.049866)
  13 I  ( 0.000000,  0.000000, -0.046778)
  14 I  ( 0.000000,  0.000000, -0.047054)
  15 I  ( 0.000000,  0.000000, -0.047126)

Energy contributions relative to reference atoms: (reference = -2434708.556191)

Kinetic:        +23.017321
Potential:      -37.030576
External:        +0.000000
XC:             -56.555741
Entropy (-ST):   -0.000000
Local:           +0.175339
--------------------------
Free energy:    -70.393656
Extrapolated:   -70.393656

Spin contamination: 1.121318 electrons
Showing only first 2 kpts
                      Up                     Down
 Kpt  Band  Eigenvalues  Occupancy  Eigenvalues  Occupancy
  0    52     -2.13849    1.00000     -0.01121    0.00000
  0    53     -2.10307    1.00000      0.00420    0.00000
  0    54     -2.01930    1.00000      0.18130    0.00000
  0    55     -2.01827    1.00000      0.21222    0.00000

  1    52     -2.11811    1.00000     -0.01863    0.00000
  1    53     -2.07407    1.00000      0.01980    0.00000
  1    54     -2.02006    1.00000      0.17065    0.00000
  1    55     -1.98956    1.00000      0.20952    0.00000


Fermi level: -1.19450

Gap: 0.969 eV
Transition (v -> c):
  (s=0, k=5, n=59, [-0.46, -0.04, 0.00]) -> (s=0, k=72, n=60, [0.04, -0.46, 0.00])
Writing to born-0.01-10z-.gpw (mode='all')

Timing:                              incl.     excl.
-----------------------------------------------------------
Hamiltonian:                         2.726     0.011   0.0% |
 Atomic:                             1.237     1.237   0.0% |
  XC Correction:                     0.000     0.000   0.0% |
 Calculate atomic Hamiltonians:      0.330     0.330   0.0% |
 Communicate:                        0.000     0.000   0.0% |
 Initialize Hamiltonian:             0.004     0.004   0.0% |
 Poisson:                            0.012     0.012   0.0% |
 XC 3D grid:                         1.132     1.132   0.0% |
LCAO initialization:                20.383     0.140   0.0% |
 LCAO eigensolver:                   3.058     0.001   0.0% |
  Calculate projections:             0.004     0.004   0.0% |
  DenseAtomicCorrection:             0.005     0.005   0.0% |
  Distribute overlap matrix:         0.000     0.000   0.0% |
  Orbital Layouts:                   0.016     0.016   0.0% |
  Potential matrix:                  3.022     3.022   0.1% |
  Sum over cells:                    0.011     0.011   0.0% |
 LCAO to grid:                      16.891    16.891   0.3% |
 Set positions (LCAO WFS):           0.294     0.050   0.0% |
  Basic WFS set positions:           0.001     0.001   0.0% |
  Basis functions set positions:     0.000     0.000   0.0% |
  P tci:                             0.135     0.135   0.0% |
  ST tci:                            0.065     0.065   0.0% |
  mktci:                             0.043     0.043   0.0% |
PWDescriptor:                        0.086     0.086   0.0% |
SCF-cycle:                        2167.316   480.286   8.4% |--|
 Davidson:                        1359.854   215.039   3.8% |-|
  Apply H:                         238.349   230.803   4.1% |-|
   HMM T:                            7.546     7.546   0.1% |
  Subspace diag:                   286.438     0.058   0.0% |
   calc_h_matrix:                  255.860    17.929   0.3% |
    Apply H:                       237.931   230.207   4.0% |-|
     HMM T:                          7.724     7.724   0.1% |
   diagonalize:                      0.506     0.506   0.0% |
   rotate_psi:                      30.014    30.014   0.5% |
  calc. matrices:                  561.206   100.116   1.8% ||
   Apply H:                        461.090   446.521   7.8% |--|
    HMM T:                          14.569    14.569   0.3% |
  diagonalize:                       4.719     4.719   0.1% |
  rotate_psi:                       54.103    54.103   1.0% |
 Density:                          215.531     0.002   0.0% |
  Atomic density matrices:           0.298     0.298   0.0% |
  Mix:                              37.777    37.777   0.7% |
  Multipole moments:                 0.019     0.019   0.0% |
  Pseudo density:                  177.435   177.433   3.1% ||
   Symmetrize density:               0.003     0.003   0.0% |
 Forces:                            29.479    29.479   0.5% |
 Hamiltonian:                       80.528     0.492   0.0% |
  Atomic:                            4.367     4.367   0.1% |
   XC Correction:                    0.000     0.000   0.0% |
  Calculate atomic Hamiltonians:    26.678    26.678   0.5% |
  Communicate:                       0.009     0.009   0.0% |
  Poisson:                           0.421     0.421   0.0% |
  XC 3D grid:                       48.560    48.560   0.9% |
 Orthonormalize:                     1.638     0.001   0.0% |
  calc_s_matrix:                     0.218     0.218   0.0% |
  inverse-cholesky:                  0.004     0.004   0.0% |
  projections:                       1.016     1.016   0.0% |
  rotate_psi_s:                      0.399     0.399   0.0% |
Set symmetry:                        0.000     0.000   0.0% |
Other:                            3503.599  3503.599  61.5% |------------------------|
-----------------------------------------------------------
Total:                                      5694.110 100.0%

Memory usage: 39.10 GiB
Date: Tue Jun 28 22:01:49 2022
