
  ___ ___ ___ _ _ _  
 |   |   |_  | | | | 
 | | | | | . | | | | 
 |__ |  _|___|_____|  21.6.1b1
 |___|_|             

User:   madkru@c007.nifl.fysik.dtu.dk
Date:   Tue Jun 28 16:57:15 2022
Arch:   x86_64
Pid:    215850
Python: 3.8.6
gpaw:   /home/niflheim/madkru/new_venv/gpaw/gpaw (1f0dfc9eae)
_gpaw:  /home/niflheim/madkru/new_venv/gpaw/build/lib.linux-x86_64-skylake-3.8/
        _gpaw.cpython-38-x86_64-linux-gnu.so (c1e45bfab3)
ase:    /home/niflheim/madkru/new_venv/ase/ase (version 3.23.0b1-ca38c75a67)
numpy:  /home/modules/software/SciPy-bundle/2020.11-foss-2020b/lib/python3.8/site-packages/numpy (version 1.19.4)
scipy:  /home/modules/software/SciPy-bundle/2020.11-foss-2020b/lib/python3.8/site-packages/scipy (version 1.5.4)
libxc:  4.3.4
units:  Angstrom and eV
cores: 40
OpenMP: False
OMP_NUM_THREADS: 1

Input parameters:
  convergence: {bands: occupied,
                density: 0.0001,
                eigenstates: 4e-08,
                energy: 0.0005,
                forces: 0.0001}
  kpts: [12 12  1]
  mode: {ecut: 600.0,
         gammacentered: False,
         name: pw}
  occupations: {fixmagmom: False,
                name: fermi-dirac,
                width: 0.001}
  symmetry: {point_group: False,
             time_reversal: False}

System changes: positions, numbers, cell, pbc, initial_charges, initial_magmoms 

Initialize ...

Cr-setup:
  name: Chromium
  id: 444e8044bc0f91048286c984738d87f5
  Z: 24.0
  valence: 6
  core: 18
  charge: 0.0
  file: /home/modules/software/GPAW-setups/0.9.20000/Cr.LDA.gz
  compensation charges: gauss, rc=0.35, lmax=2
  cutoffs: 2.14(filt), 3.04(core),
  valence states:
                energy  radius
    4s(1.00)    -4.191   1.164
    4p(0.00)    -1.079   1.217
    3d(5.00)    -3.128   1.111
    *s          23.021   1.164
    *p          26.132   1.217
    *d          24.083   1.111

  Using partial waves for Cr as LCAO basis

I-setup:
  name: Iodine
  id: b559721c0c096a7b4c8fc0e0f4de5cf4
  Z: 53.0
  valence: 7
  core: 46
  charge: 0.0
  file: /home/modules/software/GPAW-setups/0.9.20000/I.LDA.gz
  compensation charges: gauss, rc=0.37, lmax=2
  cutoffs: 2.06(filt), 2.90(core),
  valence states:
                energy  radius
    5s(2.00)   -17.626   1.164
    5p(5.00)    -7.241   1.164
    *s           9.585   1.164
    *p          19.970   1.164
    *d           0.000   1.164

  Using partial waves for I as LCAO basis

Reference energy: -2434708.556191

Spin-polarized calculation.
Magnetic moment: 12.175341

Convergence criteria:
  Maximum total energy change: 0.0005 eV / electron
  Maximum integral of absolute density change: 0.0001 electrons
  Maximum integral of absolute eigenstate change: 4e-08 eV^2
  Maximum change in atomic force: 0.0001 eV / Ang
  Maximum number of iterations: 333

Symmetries present (total): 1

  ( 1  0  0)
  ( 0  1  0)
  ( 0  0  1)

144 k-points: 12 x 12 x 1 Monkhorst-Pack grid
144 k-points in the irreducible part of the Brillouin zone
       k-points in crystal coordinates                weights
   0:    -0.45833333   -0.45833333    0.00000000          1/144
   1:    -0.45833333   -0.37500000    0.00000000          1/144
   2:    -0.45833333   -0.29166667    0.00000000          1/144
   3:    -0.45833333   -0.20833333    0.00000000          1/144
   4:    -0.45833333   -0.12500000    0.00000000          1/144
   5:    -0.45833333   -0.04166667    0.00000000          1/144
   6:    -0.45833333    0.04166667    0.00000000          1/144
   7:    -0.45833333    0.12500000    0.00000000          1/144
   8:    -0.45833333    0.20833333    0.00000000          1/144
   9:    -0.45833333    0.29166667    0.00000000          1/144
          ...
 143:     0.45833333    0.45833333    0.00000000          1/144

Wave functions: Plane wave expansion
  Cutoff energy: 600.000 eV
  Number of coefficients (min, max): 39797, 39902
  Pulay-stress correction: 0.000000 eV/Ang^3 (de/decut=0.000000)
  Using FFTW library
  ScaLapack parameters: grid=1x1, blocksize=None
  Wavefunction extrapolation:
    Improved wavefunction reuse through dual PAW basis 

Occupation numbers: Fermi-Dirac: width=0.0010 eV
 

Eigensolver
   Davidson(niter=2) 

Densities:
  Coarse grid: 42*42*160 grid
  Fine grid: 84*84*320 grid
  Total Charge: 0.000000 

Density mixing:
  Method: difference
  Backend: pulay
  Linear mixing parameter: 0.05
  Mixing with 5 old densities
  Damping of long wave oscillations: 50 

Hamiltonian:
  XC and Coulomb potentials evaluated on a 84*84*320 grid
  Using the LDA Exchange-Correlation functional
  External potential:
    <gpaw.external.NoExternalPotential object at 0x2b8966a0fa30>
 

Memory estimate:
  Process memory now: 39956.39 MiB
  Calculator: 580.26 MiB
    Density: 158.40 MiB
      Arrays: 75.37 MiB
      Localized functions: 52.88 MiB
      Mixer: 30.15 MiB
    Hamiltonian: 57.28 MiB
      Arrays: 55.99 MiB
      XC: 0.00 MiB
      Poisson: 0.00 MiB
      vbar: 1.29 MiB
    Wavefunctions: 364.58 MiB
      Arrays psit_nG: 281.29 MiB
      Eigensolver: 50.83 MiB
      Projections: 1.61 MiB
      Projectors: 18.26 MiB
      PW-descriptor: 12.59 MiB

Total number of cores used: 40
Parallelization over k-points: 40

Number of atoms: 16
Number of atomic orbitals: 84
Number of bands in calculation: 77
Number of valence electrons: 108
Bands to converge: occupied

... initialized

Initializing position-dependent things.

Density initialized from atomic densities
Creating initial wave functions:
  77 bands from LCAO basis set

                                       
                                       
                                       
                                       
                      I                
                            I          
                   I                   
                       Cr  I           
             Cr                        
                 I                     
                         I             
                     I                 
                             I         
               Cr                      
                   I   Cr              
          I                            
                 I                     
                        I              
                                       
                                       
                                       
                                       

Positions:
   0 Cr     0.889135    0.000185   -3.063135    ( 0.0000,  0.0000,  3.4336)
   1 Cr    -2.666158    2.052642   -3.080223    ( 0.0000,  0.0000,  3.4336)
   2 I      1.822012   -2.046247   -4.559876    ( 0.0000,  0.0000, -0.1299)
   3 I     -1.348662    0.216415   -4.560605    ( 0.0000,  0.0000, -0.1299)
   4 I     -4.915070    1.830062   -4.560598    ( 0.0000,  0.0000, -0.1299)
   5 I     -0.074828   -2.063434   -1.594960    ( 0.0000,  0.0000, -0.1299)
   6 I     -0.416551    1.865690   -1.594231    ( 0.0000,  0.0000, -0.1299)
   7 I      3.157525    0.197989   -1.594234    ( 0.0000,  0.0000, -0.1299)
   8 Cr    -2.666887   -2.052642    3.080226    ( 0.0000,  0.0000,  3.4336)
   9 Cr     0.888546   -0.000185    3.063139    ( 0.0000,  0.0000,  3.4336)
  10 I      1.842510    2.063434    1.594959    ( 0.0000,  0.0000, -0.1299)
  11 I      2.194233   -1.865690    1.594230    ( 0.0000,  0.0000, -0.1299)
  12 I     -1.379843   -0.197989    1.594233    ( 0.0000,  0.0000, -0.1299)
  13 I     -0.044330    2.046247    4.559875    ( 0.0000,  0.0000, -0.1299)
  14 I      3.126343   -0.216415    4.560604    ( 0.0000,  0.0000, -0.1299)
  15 I     -0.417976   -1.830062    4.560597    ( 0.0000,  0.0000, -0.1299)

Unit cell:
           periodic     x           y           z      points  spacing
  1. axis:    yes    7.110727   -0.000000    0.000000    42     0.1466
  2. axis:    yes   -3.555363    6.158070    0.000000    42     0.1466
  3. axis:    no     0.000000   -0.000000   27.269192   160     0.1704

  Lengths:   7.110727   7.110727  27.269192
  Angles:   90.000000  90.000000 120.000000

Effective grid spacing dv^(1/3) = 0.1617

                     log10-error:           total        iterations:
           time      wfs    density  force  energy       poisson  magmom
iter:   1  16:58:35                        -76.906324             +12.1076
iter:   2  16:59:26  -0.99  -0.91          -70.503198             +9.9579
iter:   3  17:00:18  -1.83  -1.33          -70.497041             +11.0129
iter:   4  17:01:09  -1.58  -1.38          -70.969536             +12.0928
iter:   5  17:02:00  -2.53  -1.51          -70.628929             +12.0160
iter:   6  17:02:52  -1.91  -1.83          -70.402408             +12.0006
iter:   7  17:03:43  -2.97  -2.20          -70.395431             +12.0039
iter:   8  17:04:34  -3.31  -2.31          -70.390111             +12.0056
iter:   9  17:05:26  -3.68  -2.67          -70.391271             +12.0017
iter:  10  17:06:17  -3.86  -2.86          -70.391951             +11.9998
iter:  11  17:07:09  -3.99  -2.94          -70.392523             +12.0000
iter:  12  17:08:00  -3.98  -3.04          -70.392833             +12.0000
iter:  13  17:08:52  -4.05  -3.10          -70.393046             +12.0000
iter:  14  17:09:43  -4.09  -3.14          -70.393157             +12.0000
iter:  15  17:10:34  -4.17  -3.26          -70.393321             +12.0000
iter:  16  17:11:26  -4.32  -3.32          -70.393440             +12.0000
iter:  17  17:12:17  -4.55  -3.37          -70.393495             +12.0000
iter:  18  17:13:09  -4.73  -3.56          -70.393565             +12.0000
iter:  19  17:14:00  -4.87  -3.66          -70.393611             +12.0000
iter:  20  17:14:51  -4.99  -3.76          -70.393654             +12.0000
iter:  21  17:15:43  -5.18  -4.22          -70.393684             +12.0000
iter:  22  17:16:34  -5.28  -4.20          -70.393705             +12.0000
iter:  23  17:17:26  -5.38  -4.21          -70.393720             +12.0000
iter:  24  17:18:17  -5.59  -4.26          -70.393731             +12.0000
iter:  25  17:19:08  -5.68  -4.26          -70.393740             +12.0000
iter:  26  17:20:00  -5.77  -4.22          -70.393745             +12.0000
iter:  27  17:20:51  -5.95  -4.23          -70.393749             +12.0000
iter:  28  17:21:42  -6.07  -4.22          -70.393752             +12.0000
iter:  29  17:22:34  -6.06  -4.26          -70.393754             +12.0000
iter:  30  17:23:25  -6.25  -4.34          -70.393756             +12.0000
iter:  31  17:24:16  -6.54  -4.34          -70.393757             +12.0000
iter:  32  17:25:07  -6.51  -4.28          -70.393758             +12.0000
iter:  33  17:25:59  -6.65  -4.32          -70.393759             +12.0000
iter:  34  17:26:50  -6.82  -4.33          -70.393759             +12.0000
iter:  35  17:27:41  -7.02  -4.50          -70.393759             +12.0000
iter:  36  17:28:33  -7.09  -4.57          -70.393759             +12.0000
iter:  37  17:29:24  -7.24  -4.59          -70.393759             +12.0000
iter:  38  17:30:15  -7.39  -4.72          -70.393759             +12.0000
iter:  39  17:31:17  -7.52  -4.89          -70.393760             +12.0000
iter:  40  17:32:18  -7.63  -4.98    -3.26 -70.393760             +12.0000
iter:  41  17:33:20  -7.79  -5.18    -3.92 -70.393760             +12.0000
iter:  42  17:34:22  -7.99  -5.20    -3.57 -70.393760             +12.0000
iter:  43  17:35:24  -8.16  -5.31    -3.42 -70.393760             +12.0000
iter:  44  17:36:26  -8.35  -5.35    -4.02 -70.393760             +12.0000

Converged after 44 iterations.

Dipole moment: (-31.571717, -0.000611, -0.004581) |e|*Ang

Total magnetic moment: (0.000000, 0.000000, 12.000000)
Local magnetic moments:
   0 Cr ( 0.000000,  0.000000,  2.911383)
   1 Cr ( 0.000000,  0.000000,  2.915591)
   2 I  ( 0.000000,  0.000000, -0.046977)
   3 I  ( 0.000000,  0.000000, -0.046937)
   4 I  ( 0.000000,  0.000000, -0.046939)
   5 I  ( 0.000000,  0.000000, -0.049645)
   6 I  ( 0.000000,  0.000000, -0.049633)
   7 I  ( 0.000000,  0.000000, -0.049652)
   8 Cr ( 0.000000,  0.000000,  2.914622)
   9 Cr ( 0.000000,  0.000000,  2.910518)
  10 I  ( 0.000000,  0.000000, -0.049397)
  11 I  ( 0.000000,  0.000000, -0.049636)
  12 I  ( 0.000000,  0.000000, -0.049635)
  13 I  ( 0.000000,  0.000000, -0.047086)
  14 I  ( 0.000000,  0.000000, -0.046732)
  15 I  ( 0.000000,  0.000000, -0.046727)

Energy contributions relative to reference atoms: (reference = -2434708.556191)

Kinetic:        +23.472476
Potential:      -37.409780
External:        +0.000000
XC:             -56.630335
Entropy (-ST):   -0.000000
Local:           +0.173879
--------------------------
Free energy:    -70.393760
Extrapolated:   -70.393760

Spin contamination: 1.118654 electrons
Showing only first 2 kpts
                      Up                     Down
 Kpt  Band  Eigenvalues  Occupancy  Eigenvalues  Occupancy
  0    52     -2.13853    1.00000     -0.01246    0.00000
  0    53     -2.10194    1.00000      0.00302    0.00000
  0    54     -2.01918    1.00000      0.18020    0.00000
  0    55     -2.01813    1.00000      0.21112    0.00000

  1    52     -2.11783    1.00000     -0.01880    0.00000
  1    53     -2.07321    1.00000      0.01902    0.00000
  1    54     -2.01964    1.00000      0.16996    0.00000
  1    55     -1.98938    1.00000      0.20951    0.00000


Fermi level: -1.19024

Gap: 0.971 eV
Transition (v -> c):
  (s=0, k=132, n=59, [0.46, -0.46, 0.00]) -> (s=0, k=126, n=60, [0.38, 0.04, 0.00])
Writing to born-0.01-10x-.gpw (mode='all')

Timing:                              incl.     excl.
-----------------------------------------------------------
Hamiltonian:                         2.883     0.010   0.0% |
 Atomic:                             1.390     1.390   0.0% |
  XC Correction:                     0.000     0.000   0.0% |
 Calculate atomic Hamiltonians:      0.331     0.331   0.0% |
 Communicate:                        0.000     0.000   0.0% |
 Initialize Hamiltonian:             0.004     0.004   0.0% |
 Poisson:                            0.012     0.012   0.0% |
 XC 3D grid:                         1.136     1.136   0.0% |
LCAO initialization:                20.106     0.141   0.0% |
 LCAO eigensolver:                   3.057     0.001   0.0% |
  Calculate projections:             0.004     0.004   0.0% |
  DenseAtomicCorrection:             0.005     0.005   0.0% |
  Distribute overlap matrix:         0.000     0.000   0.0% |
  Orbital Layouts:                   0.016     0.016   0.0% |
  Potential matrix:                  3.021     3.021   0.1% |
  Sum over cells:                    0.011     0.011   0.0% |
 LCAO to grid:                      16.626    16.626   0.3% |
 Set positions (LCAO WFS):           0.281     0.050   0.0% |
  Basic WFS set positions:           0.001     0.001   0.0% |
  Basis functions set positions:     0.000     0.000   0.0% |
  P tci:                             0.123     0.123   0.0% |
  ST tci:                            0.065     0.065   0.0% |
  mktci:                             0.043     0.043   0.0% |
PWDescriptor:                        0.086     0.086   0.0% |
SCF-cycle:                        2324.655   494.644   8.7% |--|
 Davidson:                        1450.338   226.155   4.0% |-|
  Apply H:                         253.928   245.755   4.3% |-|
   HMM T:                            8.172     8.172   0.1% |
  Subspace diag:                   305.977     0.064   0.0% |
   calc_h_matrix:                  272.034    19.163   0.3% |
    Apply H:                       252.871   244.375   4.3% |-|
     HMM T:                          8.495     8.495   0.1% |
   diagonalize:                      0.543     0.543   0.0% |
   rotate_psi:                      33.336    33.336   0.6% |
  calc. matrices:                  599.017   108.302   1.9% ||
   Apply H:                        490.715   475.030   8.4% |--|
    HMM T:                          15.685    15.685   0.3% |
  diagonalize:                       5.183     5.183   0.1% |
  rotate_psi:                       60.079    60.079   1.1% |
 Density:                          231.743     0.002   0.0% |
  Atomic density matrices:           0.311     0.311   0.0% |
  Mix:                              40.115    40.115   0.7% |
  Multipole moments:                 0.021     0.021   0.0% |
  Pseudo density:                  191.294   191.291   3.4% ||
   Symmetrize density:               0.003     0.003   0.0% |
 Forces:                            59.464    59.464   1.0% |
 Hamiltonian:                       86.888     0.536   0.0% |
  Atomic:                            4.820     4.820   0.1% |
   XC Correction:                    0.000     0.000   0.0% |
  Calculate atomic Hamiltonians:    29.066    29.066   0.5% |
  Communicate:                       0.008     0.008   0.0% |
  Poisson:                           0.498     0.498   0.0% |
  XC 3D grid:                       51.959    51.959   0.9% |
 Orthonormalize:                     1.578     0.001   0.0% |
  calc_s_matrix:                     0.216     0.216   0.0% |
  inverse-cholesky:                  0.004     0.004   0.0% |
  projections:                       0.978     0.978   0.0% |
  rotate_psi_s:                      0.378     0.378   0.0% |
Set symmetry:                        0.000     0.000   0.0% |
Other:                            3340.996  3340.996  58.7% |----------------------|
-----------------------------------------------------------
Total:                                      5688.726 100.0%

Memory usage: 39.02 GiB
Date: Tue Jun 28 18:32:03 2022
