
  ___ ___ ___ _ _ _  
 |   |   |_  | | | | 
 | | | | | . | | | | 
 |__ |  _|___|_____|  21.6.1b1
 |___|_|             

User:   madkru@c153.nifl.fysik.dtu.dk
Date:   Sun Jun 26 02:31:00 2022
Arch:   x86_64
Pid:    48887
Python: 3.8.6
gpaw:   /home/niflheim/madkru/new_venv/gpaw/gpaw (1f0dfc9eae)
_gpaw:  /home/niflheim/madkru/new_venv/gpaw/build/lib.linux-x86_64-skylake-3.8/
        _gpaw.cpython-38-x86_64-linux-gnu.so (c1e45bfab3)
ase:    /home/niflheim/madkru/new_venv/ase/ase (version 3.23.0b1-ca38c75a67)
numpy:  /home/modules/software/SciPy-bundle/2020.11-foss-2020b/lib/python3.8/site-packages/numpy (version 1.19.4)
scipy:  /home/modules/software/SciPy-bundle/2020.11-foss-2020b/lib/python3.8/site-packages/scipy (version 1.5.4)
libxc:  4.3.4
units:  Angstrom and eV
cores: 40
OpenMP: False
OMP_NUM_THREADS: 1

Input parameters:
  convergence: {bands: occupied,
                density: 0.0001,
                eigenstates: 4e-08,
                energy: 0.0005,
                forces: 0.0001}
  kpts: [12 12  1]
  mode: {ecut: 600.0,
         gammacentered: False,
         name: pw}
  occupations: {fixmagmom: False,
                name: fermi-dirac,
                width: 0.001}
  symmetry: {point_group: False,
             time_reversal: False}

System changes: positions, numbers, cell, pbc, initial_charges, initial_magmoms 

Initialize ...

Cr-setup:
  name: Chromium
  id: 444e8044bc0f91048286c984738d87f5
  Z: 24.0
  valence: 6
  core: 18
  charge: 0.0
  file: /home/modules/software/GPAW-setups/0.9.20000/Cr.LDA.gz
  compensation charges: gauss, rc=0.35, lmax=2
  cutoffs: 2.14(filt), 3.04(core),
  valence states:
                energy  radius
    4s(1.00)    -4.191   1.164
    4p(0.00)    -1.079   1.217
    3d(5.00)    -3.128   1.111
    *s          23.021   1.164
    *p          26.132   1.217
    *d          24.083   1.111

  Using partial waves for Cr as LCAO basis

I-setup:
  name: Iodine
  id: b559721c0c096a7b4c8fc0e0f4de5cf4
  Z: 53.0
  valence: 7
  core: 46
  charge: 0.0
  file: /home/modules/software/GPAW-setups/0.9.20000/I.LDA.gz
  compensation charges: gauss, rc=0.37, lmax=2
  cutoffs: 2.06(filt), 2.90(core),
  valence states:
                energy  radius
    5s(2.00)   -17.626   1.164
    5p(5.00)    -7.241   1.164
    *s           9.585   1.164
    *p          19.970   1.164
    *d           0.000   1.164

  Using partial waves for I as LCAO basis

Reference energy: -2434708.556191

Spin-polarized calculation.
Magnetic moment: 12.175341

Convergence criteria:
  Maximum total energy change: 0.0005 eV / electron
  Maximum integral of absolute density change: 0.0001 electrons
  Maximum integral of absolute eigenstate change: 4e-08 eV^2
  Maximum change in atomic force: 0.0001 eV / Ang
  Maximum number of iterations: 333

Symmetries present (total): 1

  ( 1  0  0)
  ( 0  1  0)
  ( 0  0  1)

144 k-points: 12 x 12 x 1 Monkhorst-Pack grid
144 k-points in the irreducible part of the Brillouin zone
       k-points in crystal coordinates                weights
   0:    -0.45833333   -0.45833333    0.00000000          1/144
   1:    -0.45833333   -0.37500000    0.00000000          1/144
   2:    -0.45833333   -0.29166667    0.00000000          1/144
   3:    -0.45833333   -0.20833333    0.00000000          1/144
   4:    -0.45833333   -0.12500000    0.00000000          1/144
   5:    -0.45833333   -0.04166667    0.00000000          1/144
   6:    -0.45833333    0.04166667    0.00000000          1/144
   7:    -0.45833333    0.12500000    0.00000000          1/144
   8:    -0.45833333    0.20833333    0.00000000          1/144
   9:    -0.45833333    0.29166667    0.00000000          1/144
          ...
 143:     0.45833333    0.45833333    0.00000000          1/144

Wave functions: Plane wave expansion
  Cutoff energy: 600.000 eV
  Number of coefficients (min, max): 39797, 39902
  Pulay-stress correction: 0.000000 eV/Ang^3 (de/decut=0.000000)
  Using FFTW library
  ScaLapack parameters: grid=1x1, blocksize=None
  Wavefunction extrapolation:
    Improved wavefunction reuse through dual PAW basis 

Occupation numbers: Fermi-Dirac: width=0.0010 eV
 

Eigensolver
   Davidson(niter=2) 

Densities:
  Coarse grid: 42*42*160 grid
  Fine grid: 84*84*320 grid
  Total Charge: 0.000000 

Density mixing:
  Method: difference
  Backend: pulay
  Linear mixing parameter: 0.05
  Mixing with 5 old densities
  Damping of long wave oscillations: 50 

Hamiltonian:
  XC and Coulomb potentials evaluated on a 84*84*320 grid
  Using the LDA Exchange-Correlation functional
  External potential:
    <gpaw.external.NoExternalPotential object at 0x2b332d65cac0>
 

Memory estimate:
  Process memory now: 39884.98 MiB
  Calculator: 580.26 MiB
    Density: 158.40 MiB
      Arrays: 75.37 MiB
      Localized functions: 52.88 MiB
      Mixer: 30.15 MiB
    Hamiltonian: 57.28 MiB
      Arrays: 55.99 MiB
      XC: 0.00 MiB
      Poisson: 0.00 MiB
      vbar: 1.29 MiB
    Wavefunctions: 364.58 MiB
      Arrays psit_nG: 281.29 MiB
      Eigensolver: 50.83 MiB
      Projections: 1.61 MiB
      Projectors: 18.26 MiB
      PW-descriptor: 12.59 MiB

Total number of cores used: 40
Parallelization over k-points: 40

Number of atoms: 16
Number of atomic orbitals: 84
Number of bands in calculation: 77
Number of valence electrons: 108
Bands to converge: occupied

... initialized

Initializing position-dependent things.

Density initialized from atomic densities
Creating initial wave functions:
  77 bands from LCAO basis set

                                       
                                       
                                       
                                       
                      I                
                            I          
                   I                   
                       Cr  I           
             Cr                        
                 I                     
                         I             
                     I                 
                             I         
               Cr                      
                   I   Cr              
          I                            
                 I                     
                        I              
                                       
                                       
                                       
                                       

Positions:
   0 Cr     0.889135    0.000185   -3.063135    ( 0.0000,  0.0000,  3.4336)
   1 Cr    -2.666158    2.062642   -3.080223    ( 0.0000,  0.0000,  3.4336)
   2 I      1.822012   -2.046247   -4.559876    ( 0.0000,  0.0000, -0.1299)
   3 I     -1.348662    0.216415   -4.560605    ( 0.0000,  0.0000, -0.1299)
   4 I     -4.915070    1.830062   -4.560598    ( 0.0000,  0.0000, -0.1299)
   5 I     -0.074828   -2.063434   -1.594960    ( 0.0000,  0.0000, -0.1299)
   6 I     -0.416551    1.865690   -1.594231    ( 0.0000,  0.0000, -0.1299)
   7 I      3.157525    0.197989   -1.594234    ( 0.0000,  0.0000, -0.1299)
   8 Cr    -2.666887   -2.052642    3.080226    ( 0.0000,  0.0000,  3.4336)
   9 Cr     0.888546   -0.000185    3.063139    ( 0.0000,  0.0000,  3.4336)
  10 I      1.852510    2.063434    1.594959    ( 0.0000,  0.0000, -0.1299)
  11 I      2.194233   -1.865690    1.594230    ( 0.0000,  0.0000, -0.1299)
  12 I     -1.379843   -0.197989    1.594233    ( 0.0000,  0.0000, -0.1299)
  13 I     -0.044330    2.046247    4.559875    ( 0.0000,  0.0000, -0.1299)
  14 I      3.126343   -0.216415    4.560604    ( 0.0000,  0.0000, -0.1299)
  15 I     -0.417976   -1.830062    4.560597    ( 0.0000,  0.0000, -0.1299)

Unit cell:
           periodic     x           y           z      points  spacing
  1. axis:    yes    7.110727   -0.000000    0.000000    42     0.1466
  2. axis:    yes   -3.555363    6.158070    0.000000    42     0.1466
  3. axis:    no     0.000000   -0.000000   27.269192   160     0.1704

  Lengths:   7.110727   7.110727  27.269192
  Angles:   90.000000  90.000000 120.000000

Effective grid spacing dv^(1/3) = 0.1617

                     log10-error:           total        iterations:
           time      wfs    density  force  energy       poisson  magmom
iter:   1  02:32:21                        -76.899597             +12.1076
iter:   2  02:33:12  -0.99  -0.91          -70.501579             +9.9549
iter:   3  02:34:04  -1.83  -1.33          -70.496558             +11.0112
iter:   4  02:34:56  -1.58  -1.38          -70.967616             +12.0928
iter:   5  02:35:48  -2.53  -1.51          -70.628301             +12.0160
iter:   6  02:36:39  -1.91  -1.83          -70.402062             +12.0006
iter:   7  02:37:31  -2.97  -2.20          -70.395090             +12.0040
iter:   8  02:38:23  -3.31  -2.32          -70.389848             +12.0056
iter:   9  02:39:15  -3.68  -2.67          -70.391009             +12.0017
iter:  10  02:40:06  -3.86  -2.86          -70.391693             +11.9998
iter:  11  02:40:58  -3.99  -2.94          -70.392266             +12.0000
iter:  12  02:41:50  -3.99  -3.04          -70.392579             +12.0000
iter:  13  02:42:42  -4.06  -3.10          -70.392790             +12.0000
iter:  14  02:43:33  -4.10  -3.15          -70.392895             +12.0000
iter:  15  02:44:25  -4.19  -3.27          -70.393057             +12.0000
iter:  16  02:45:17  -4.33  -3.32          -70.393177             +12.0000
iter:  17  02:46:09  -4.60  -3.37          -70.393234             +12.0000
iter:  18  02:47:00  -4.75  -3.56          -70.393305             +12.0000
iter:  19  02:47:52  -4.89  -3.65          -70.393352             +12.0000
iter:  20  02:48:44  -5.00  -3.74          -70.393394             +12.0000
iter:  21  02:49:36  -5.18  -4.25          -70.393421             +12.0000
iter:  22  02:50:28  -5.17  -4.26          -70.393442             +12.0000
iter:  23  02:51:19  -5.27  -4.26          -70.393460             +12.0000
iter:  24  02:52:11  -5.36  -4.09          -70.393468             +12.0000
iter:  25  02:53:03  -5.48  -4.23          -70.393476             +12.0000
iter:  26  02:53:55  -5.69  -4.25          -70.393483             +12.0000
iter:  27  02:54:46  -5.72  -4.24          -70.393487             +12.0000
iter:  28  02:55:38  -5.93  -4.27          -70.393493             +12.0000
iter:  29  02:56:30  -6.28  -4.16          -70.393494             +12.0000
iter:  30  02:57:22  -6.41  -4.24          -70.393496             +12.0000
iter:  31  02:58:13  -6.52  -4.23          -70.393497             +12.0000
iter:  32  02:59:05  -6.65  -4.27          -70.393498             +12.0000
iter:  33  02:59:57  -6.76  -4.25          -70.393498             +12.0000
iter:  34  03:00:49  -6.97  -4.30          -70.393498             +12.0000
iter:  35  03:01:40  -7.10  -4.39          -70.393498             +12.0000
iter:  36  03:02:32  -7.20  -4.32          -70.393498             +12.0000
iter:  37  03:03:24  -7.37  -4.49          -70.393498             +12.0000
iter:  38  03:04:26  -7.57  -4.58          -70.393498             +12.0000
iter:  39  03:05:28  -7.72  -4.72    -3.15 -70.393498             +12.0000
iter:  40  03:06:31  -7.87  -4.80    -3.44 -70.393498             +12.0000
iter:  41  03:07:34  -7.98  -4.84    -3.25 -70.393498             +12.0000
iter:  42  03:08:36  -8.07  -5.02    -3.58 -70.393498             +12.0000
iter:  43  03:09:39  -8.15  -5.11    -3.55 -70.393498             +12.0000
iter:  44  03:10:42  -8.23  -5.16    -3.51 -70.393498             +12.0000
iter:  45  03:11:44  -8.51  -5.21    -3.58 -70.393498             +12.0000
iter:  46  03:12:47  -8.59  -5.59    -4.01 -70.393498             +12.0000

Converged after 46 iterations.

Dipole moment: (-31.560428, 0.007086, -0.000009) |e|*Ang

Total magnetic moment: (0.000000, 0.000000, 12.000000)
Local magnetic moments:
   0 Cr ( 0.000000,  0.000000,  2.911297)
   1 Cr ( 0.000000,  0.000000,  2.915390)
   2 I  ( 0.000000,  0.000000, -0.046486)
   3 I  ( 0.000000,  0.000000, -0.047281)
   4 I  ( 0.000000,  0.000000, -0.047084)
   5 I  ( 0.000000,  0.000000, -0.049185)
   6 I  ( 0.000000,  0.000000, -0.049779)
   7 I  ( 0.000000,  0.000000, -0.050008)
   8 Cr ( 0.000000,  0.000000,  2.915445)
   9 Cr ( 0.000000,  0.000000,  2.911290)
  10 I  ( 0.000000,  0.000000, -0.049699)
  11 I  ( 0.000000,  0.000000, -0.049610)
  12 I  ( 0.000000,  0.000000, -0.049675)
  13 I  ( 0.000000,  0.000000, -0.046981)
  14 I  ( 0.000000,  0.000000, -0.046929)
  15 I  ( 0.000000,  0.000000, -0.046952)

Energy contributions relative to reference atoms: (reference = -2434708.556191)

Kinetic:        +23.270351
Potential:      -37.243007
External:        +0.000000
XC:             -56.596998
Entropy (-ST):   -0.000000
Local:           +0.176156
--------------------------
Free energy:    -70.393498
Extrapolated:   -70.393498

Spin contamination: 1.119589 electrons
Showing only first 2 kpts
                      Up                     Down
 Kpt  Band  Eigenvalues  Occupancy  Eigenvalues  Occupancy
  0    52     -2.14115    1.00000     -0.01060    0.00000
  0    53     -2.10217    1.00000      0.00363    0.00000
  0    54     -2.01915    1.00000      0.18021    0.00000
  0    55     -2.01733    1.00000      0.21051    0.00000

  1    52     -2.11962    1.00000     -0.01795    0.00000
  1    53     -2.07394    1.00000      0.01900    0.00000
  1    54     -2.01867    1.00000      0.16978    0.00000
  1    55     -1.98967    1.00000      0.20898    0.00000


Fermi level: -1.17363

Gap: 0.970 eV
Transition (v -> c):
  (s=0, k=71, n=59, [-0.04, 0.46, 0.00]) -> (s=0, k=10, n=60, [-0.46, 0.38, 0.00])
Writing to born-0.01-1y+.gpw (mode='all')

Timing:                              incl.     excl.
-----------------------------------------------------------
Hamiltonian:                         2.928     0.010   0.0% |
 Atomic:                             1.434     1.434   0.0% |
  XC Correction:                     0.000     0.000   0.0% |
 Calculate atomic Hamiltonians:      0.324     0.324   0.0% |
 Communicate:                        0.000     0.000   0.0% |
 Initialize Hamiltonian:             0.004     0.004   0.0% |
 Poisson:                            0.011     0.011   0.0% |
 XC 3D grid:                         1.144     1.144   0.0% |
LCAO initialization:                21.338     0.141   0.0% |
 LCAO eigensolver:                   3.315     0.001   0.0% |
  Calculate projections:             0.004     0.004   0.0% |
  DenseAtomicCorrection:             0.006     0.006   0.0% |
  Distribute overlap matrix:         0.000     0.000   0.0% |
  Orbital Layouts:                   0.016     0.016   0.0% |
  Potential matrix:                  3.277     3.277   0.1% |
  Sum over cells:                    0.012     0.012   0.0% |
 LCAO to grid:                      17.597    17.597   0.3% |
 Set positions (LCAO WFS):           0.285     0.050   0.0% |
  Basic WFS set positions:           0.001     0.001   0.0% |
  Basis functions set positions:     0.000     0.000   0.0% |
  P tci:                             0.125     0.125   0.0% |
  ST tci:                            0.066     0.066   0.0% |
  mktci:                             0.044     0.044   0.0% |
PWDescriptor:                        0.087     0.087   0.0% |
SCF-cycle:                        2478.654   531.852   9.3% |---|
 Davidson:                        1517.839   238.021   4.2% |-|
  Apply H:                         266.901   258.903   4.5% |-|
   HMM T:                            7.998     7.998   0.1% |
  Subspace diag:                   319.947     0.066   0.0% |
   calc_h_matrix:                  284.039    20.548   0.4% |
    Apply H:                       263.491   255.463   4.5% |-|
     HMM T:                          8.028     8.028   0.1% |
   diagonalize:                      0.569     0.569   0.0% |
   rotate_psi:                      35.273    35.273   0.6% |
  calc. matrices:                  625.295   112.710   2.0% ||
   Apply H:                        512.586   497.856   8.7% |--|
    HMM T:                          14.729    14.729   0.3% |
  diagonalize:                       5.438     5.438   0.1% |
  rotate_psi:                       62.237    62.237   1.1% |
 Density:                          244.759     0.002   0.0% |
  Atomic density matrices:           0.350     0.350   0.0% |
  Mix:                              40.135    40.135   0.7% |
  Multipole moments:                 0.021     0.021   0.0% |
  Pseudo density:                  204.250   204.247   3.6% ||
   Symmetrize density:               0.003     0.003   0.0% |
 Forces:                            89.350    89.350   1.6% ||
 Hamiltonian:                       93.190     0.607   0.0% |
  Atomic:                            7.625     7.625   0.1% |
   XC Correction:                    0.000     0.000   0.0% |
  Calculate atomic Hamiltonians:    29.381    29.381   0.5% |
  Communicate:                       0.541     0.541   0.0% |
  Poisson:                           0.577     0.577   0.0% |
  XC 3D grid:                       54.460    54.460   1.0% |
 Orthonormalize:                     1.664     0.002   0.0% |
  calc_s_matrix:                     0.221     0.221   0.0% |
  inverse-cholesky:                  0.004     0.004   0.0% |
  projections:                       1.020     1.020   0.0% |
  rotate_psi_s:                      0.418     0.418   0.0% |
Set symmetry:                        0.000     0.000   0.0% |
Other:                            3223.513  3223.513  56.3% |----------------------|
-----------------------------------------------------------
Total:                                      5726.520 100.0%

Memory usage: 38.99 GiB
Date: Sun Jun 26 04:06:26 2022
