
  ___ ___ ___ _ _ _  
 |   |   |_  | | | | 
 | | | | | . | | | | 
 |__ |  _|___|_____|  21.6.1b1
 |___|_|             

User:   madkru@c153.nifl.fysik.dtu.dk
Date:   Sun Jun 26 06:56:32 2022
Arch:   x86_64
Pid:    48887
Python: 3.8.6
gpaw:   /home/niflheim/madkru/new_venv/gpaw/gpaw (1f0dfc9eae)
_gpaw:  /home/niflheim/madkru/new_venv/gpaw/build/lib.linux-x86_64-skylake-3.8/
        _gpaw.cpython-38-x86_64-linux-gnu.so (c1e45bfab3)
ase:    /home/niflheim/madkru/new_venv/ase/ase (version 3.23.0b1-ca38c75a67)
numpy:  /home/modules/software/SciPy-bundle/2020.11-foss-2020b/lib/python3.8/site-packages/numpy (version 1.19.4)
scipy:  /home/modules/software/SciPy-bundle/2020.11-foss-2020b/lib/python3.8/site-packages/scipy (version 1.5.4)
libxc:  4.3.4
units:  Angstrom and eV
cores: 40
OpenMP: False
OMP_NUM_THREADS: 1

Input parameters:
  convergence: {bands: occupied,
                density: 0.0001,
                eigenstates: 4e-08,
                energy: 0.0005,
                forces: 0.0001}
  kpts: [12 12  1]
  mode: {ecut: 600.0,
         gammacentered: False,
         name: pw}
  occupations: {fixmagmom: False,
                name: fermi-dirac,
                width: 0.001}
  symmetry: {point_group: False,
             time_reversal: False}

System changes: positions, numbers, cell, pbc, initial_charges, initial_magmoms 

Initialize ...

Cr-setup:
  name: Chromium
  id: 444e8044bc0f91048286c984738d87f5
  Z: 24.0
  valence: 6
  core: 18
  charge: 0.0
  file: /home/modules/software/GPAW-setups/0.9.20000/Cr.LDA.gz
  compensation charges: gauss, rc=0.35, lmax=2
  cutoffs: 2.14(filt), 3.04(core),
  valence states:
                energy  radius
    4s(1.00)    -4.191   1.164
    4p(0.00)    -1.079   1.217
    3d(5.00)    -3.128   1.111
    *s          23.021   1.164
    *p          26.132   1.217
    *d          24.083   1.111

  Using partial waves for Cr as LCAO basis

I-setup:
  name: Iodine
  id: b559721c0c096a7b4c8fc0e0f4de5cf4
  Z: 53.0
  valence: 7
  core: 46
  charge: 0.0
  file: /home/modules/software/GPAW-setups/0.9.20000/I.LDA.gz
  compensation charges: gauss, rc=0.37, lmax=2
  cutoffs: 2.06(filt), 2.90(core),
  valence states:
                energy  radius
    5s(2.00)   -17.626   1.164
    5p(5.00)    -7.241   1.164
    *s           9.585   1.164
    *p          19.970   1.164
    *d           0.000   1.164

  Using partial waves for I as LCAO basis

Reference energy: -2434708.556191

Spin-polarized calculation.
Magnetic moment: 12.175341

Convergence criteria:
  Maximum total energy change: 0.0005 eV / electron
  Maximum integral of absolute density change: 0.0001 electrons
  Maximum integral of absolute eigenstate change: 4e-08 eV^2
  Maximum change in atomic force: 0.0001 eV / Ang
  Maximum number of iterations: 333

Symmetries present (total): 1

  ( 1  0  0)
  ( 0  1  0)
  ( 0  0  1)

144 k-points: 12 x 12 x 1 Monkhorst-Pack grid
144 k-points in the irreducible part of the Brillouin zone
       k-points in crystal coordinates                weights
   0:    -0.45833333   -0.45833333    0.00000000          1/144
   1:    -0.45833333   -0.37500000    0.00000000          1/144
   2:    -0.45833333   -0.29166667    0.00000000          1/144
   3:    -0.45833333   -0.20833333    0.00000000          1/144
   4:    -0.45833333   -0.12500000    0.00000000          1/144
   5:    -0.45833333   -0.04166667    0.00000000          1/144
   6:    -0.45833333    0.04166667    0.00000000          1/144
   7:    -0.45833333    0.12500000    0.00000000          1/144
   8:    -0.45833333    0.20833333    0.00000000          1/144
   9:    -0.45833333    0.29166667    0.00000000          1/144
          ...
 143:     0.45833333    0.45833333    0.00000000          1/144

Wave functions: Plane wave expansion
  Cutoff energy: 600.000 eV
  Number of coefficients (min, max): 39797, 39902
  Pulay-stress correction: 0.000000 eV/Ang^3 (de/decut=0.000000)
  Using FFTW library
  ScaLapack parameters: grid=1x1, blocksize=None
  Wavefunction extrapolation:
    Improved wavefunction reuse through dual PAW basis 

Occupation numbers: Fermi-Dirac: width=0.0010 eV
 

Eigensolver
   Davidson(niter=2) 

Densities:
  Coarse grid: 42*42*160 grid
  Fine grid: 84*84*320 grid
  Total Charge: 0.000000 

Density mixing:
  Method: difference
  Backend: pulay
  Linear mixing parameter: 0.05
  Mixing with 5 old densities
  Damping of long wave oscillations: 50 

Hamiltonian:
  XC and Coulomb potentials evaluated on a 84*84*320 grid
  Using the LDA Exchange-Correlation functional
  External potential:
    <gpaw.external.NoExternalPotential object at 0x2b33266d9df0>
 

Memory estimate:
  Process memory now: 39951.23 MiB
  Calculator: 580.26 MiB
    Density: 158.40 MiB
      Arrays: 75.37 MiB
      Localized functions: 52.88 MiB
      Mixer: 30.15 MiB
    Hamiltonian: 57.28 MiB
      Arrays: 55.99 MiB
      XC: 0.00 MiB
      Poisson: 0.00 MiB
      vbar: 1.29 MiB
    Wavefunctions: 364.58 MiB
      Arrays psit_nG: 281.29 MiB
      Eigensolver: 50.83 MiB
      Projections: 1.61 MiB
      Projectors: 18.26 MiB
      PW-descriptor: 12.59 MiB

Total number of cores used: 40
Parallelization over k-points: 40

Number of atoms: 16
Number of atomic orbitals: 84
Number of bands in calculation: 77
Number of valence electrons: 108
Bands to converge: occupied

... initialized

Initializing position-dependent things.

Density initialized from atomic densities
Creating initial wave functions:
  77 bands from LCAO basis set

                                       
                                       
                                       
                                       
                      I                
                            I          
                   I                   
                       Cr  I           
             Cr                        
                 I                     
                         I             
                     I                 
                             I         
               Cr                      
                   I   Cr              
          I                            
                 I                     
                        I              
                                       
                                       
                                       
                                       

Positions:
   0 Cr     0.889135    0.000185   -3.063135    ( 0.0000,  0.0000,  3.4336)
   1 Cr    -2.666158    2.052642   -3.080223    ( 0.0000,  0.0000,  3.4336)
   2 I      1.822012   -2.056247   -4.559876    ( 0.0000,  0.0000, -0.1299)
   3 I     -1.348662    0.216415   -4.560605    ( 0.0000,  0.0000, -0.1299)
   4 I     -4.915070    1.830062   -4.560598    ( 0.0000,  0.0000, -0.1299)
   5 I     -0.074828   -2.063434   -1.594960    ( 0.0000,  0.0000, -0.1299)
   6 I     -0.416551    1.865690   -1.594231    ( 0.0000,  0.0000, -0.1299)
   7 I      3.157525    0.197989   -1.594234    ( 0.0000,  0.0000, -0.1299)
   8 Cr    -2.666887   -2.052642    3.080226    ( 0.0000,  0.0000,  3.4336)
   9 Cr     0.888546   -0.000185    3.063139    ( 0.0000,  0.0000,  3.4336)
  10 I      1.852510    2.063434    1.594959    ( 0.0000,  0.0000, -0.1299)
  11 I      2.194233   -1.865690    1.594230    ( 0.0000,  0.0000, -0.1299)
  12 I     -1.379843   -0.197989    1.594233    ( 0.0000,  0.0000, -0.1299)
  13 I     -0.044330    2.046247    4.559875    ( 0.0000,  0.0000, -0.1299)
  14 I      3.126343   -0.216415    4.560604    ( 0.0000,  0.0000, -0.1299)
  15 I     -0.417976   -1.830062    4.560597    ( 0.0000,  0.0000, -0.1299)

Unit cell:
           periodic     x           y           z      points  spacing
  1. axis:    yes    7.110727   -0.000000    0.000000    42     0.1466
  2. axis:    yes   -3.555363    6.158070    0.000000    42     0.1466
  3. axis:    no     0.000000   -0.000000   27.269192   160     0.1704

  Lengths:   7.110727   7.110727  27.269192
  Angles:   90.000000  90.000000 120.000000

Effective grid spacing dv^(1/3) = 0.1617

                     log10-error:           total        iterations:
           time      wfs    density  force  energy       poisson  magmom
iter:   1  06:57:52                        -76.899856             +12.1076
iter:   2  06:58:43  -0.99  -0.91          -70.503758             +9.9626
iter:   3  06:59:35  -1.83  -1.33          -70.497198             +11.0154
iter:   4  07:00:26  -1.58  -1.38          -70.967818             +12.0927
iter:   5  07:01:17  -2.53  -1.51          -70.628634             +12.0159
iter:   6  07:02:08  -1.91  -1.83          -70.402228             +12.0005
iter:   7  07:02:59  -2.97  -2.20          -70.395261             +12.0039
iter:   8  07:03:51  -3.31  -2.31          -70.390001             +12.0056
iter:   9  07:04:42  -3.68  -2.67          -70.391164             +12.0017
iter:  10  07:05:33  -3.86  -2.86          -70.391846             +11.9998
iter:  11  07:06:24  -3.99  -2.94          -70.392419             +12.0000
iter:  12  07:07:16  -3.99  -3.04          -70.392733             +12.0000
iter:  13  07:08:07  -4.06  -3.10          -70.392945             +12.0000
iter:  14  07:08:58  -4.09  -3.14          -70.393047             +12.0000
iter:  15  07:09:49  -4.19  -3.27          -70.393210             +12.0000
iter:  16  07:10:41  -4.33  -3.32          -70.393328             +12.0000
iter:  17  07:11:32  -4.59  -3.38          -70.393387             +12.0000
iter:  18  07:12:23  -4.75  -3.56          -70.393458             +12.0000
iter:  19  07:13:14  -4.88  -3.66          -70.393505             +12.0000
iter:  20  07:14:06  -4.99  -3.74          -70.393548             +12.0000
iter:  21  07:14:57  -5.17  -4.17          -70.393575             +12.0000
iter:  22  07:15:48  -5.16  -4.21          -70.393595             +12.0000
iter:  23  07:16:39  -5.33  -4.19          -70.393613             +12.0000
iter:  24  07:17:31  -5.55  -4.13          -70.393623             +12.0000
iter:  25  07:18:22  -5.71  -4.15          -70.393632             +12.0000
iter:  26  07:19:13  -5.77  -4.13          -70.393638             +12.0000
iter:  27  07:20:04  -5.87  -4.13          -70.393642             +12.0000
iter:  28  07:20:55  -5.97  -4.15          -70.393645             +12.0000
iter:  29  07:21:47  -6.23  -4.12          -70.393647             +12.0000
iter:  30  07:22:38  -6.41  -4.13          -70.393650             +12.0000
iter:  31  07:23:29  -6.48  -4.03          -70.393652             +12.0000
iter:  32  07:24:20  -6.62  -4.05          -70.393652             +12.0000
iter:  33  07:25:11  -6.60  -4.13          -70.393652             +12.0000
iter:  34  07:26:03  -6.52  -4.06          -70.393656             +12.0000
iter:  35  07:26:54  -7.02  -4.02          -70.393658             +12.0000
iter:  36  07:27:45  -7.28  -4.03          -70.393657             +12.0000
iter:  37  07:28:36  -6.92  -4.03          -70.393663             +12.0000
iter:  38  07:29:27  -6.80  -3.99          -70.393656             +12.0000
iter:  39  07:30:18  -6.34  -3.98          -70.393684             +12.0000
iter:  40  07:31:09  -6.26  -3.80          -70.393653             +12.0000
iter:  41  07:32:00  -6.62  -4.23          -70.393652             +12.0000
iter:  42  07:32:51  -7.05  -4.31          -70.393651             +12.0000
iter:  43  07:33:52  -7.46  -4.54          -70.393651             +12.0000
iter:  44  07:34:54  -7.72  -4.59    -3.06 -70.393651             +12.0000
iter:  45  07:35:55  -8.13  -4.63    -3.01 -70.393651             +12.0000
iter:  46  07:36:57  -8.44  -4.71    -3.43 -70.393651             +12.0000
iter:  47  07:37:59  -8.71  -4.80    -3.67 -70.393651             +12.0000
iter:  48  07:39:01  -8.80  -4.83    -3.73 -70.393651             +12.0000
iter:  49  07:40:03  -8.95  -4.89    -3.15 -70.393651             +12.0000
iter:  50  07:41:04  -8.70  -5.03    -3.24 -70.393651             +12.0000
iter:  51  07:42:06  -8.86  -5.09    -3.58 -70.393651             +12.0000
iter:  52  07:43:08  -9.44  -5.20    -3.98 -70.393651             +12.0000
iter:  53  07:44:10  -9.40  -5.23    -3.50 -70.393651             +12.0000
iter:  54  07:45:11  -9.60  -5.39    -3.62 -70.393651             +12.0000
iter:  55  07:46:13  -9.94  -5.47    -4.21 -70.393651             +12.0000

Converged after 55 iterations.

Dipole moment: (-31.664966, -0.003710, 0.000789) |e|*Ang

Total magnetic moment: (0.000000, 0.000000, 12.000000)
Local magnetic moments:
   0 Cr ( 0.000000,  0.000000,  2.913212)
   1 Cr ( 0.000000,  0.000000,  2.913519)
   2 I  ( 0.000000,  0.000000, -0.046989)
   3 I  ( 0.000000,  0.000000, -0.047008)
   4 I  ( 0.000000,  0.000000, -0.046874)
   5 I  ( 0.000000,  0.000000, -0.049683)
   6 I  ( 0.000000,  0.000000, -0.049903)
   7 I  ( 0.000000,  0.000000, -0.049402)
   8 Cr ( 0.000000,  0.000000,  2.915460)
   9 Cr ( 0.000000,  0.000000,  2.911294)
  10 I  ( 0.000000,  0.000000, -0.049680)
  11 I  ( 0.000000,  0.000000, -0.049598)
  12 I  ( 0.000000,  0.000000, -0.049667)
  13 I  ( 0.000000,  0.000000, -0.046980)
  14 I  ( 0.000000,  0.000000, -0.046935)
  15 I  ( 0.000000,  0.000000, -0.046954)

Energy contributions relative to reference atoms: (reference = -2434708.556191)

Kinetic:        +23.267525
Potential:      -37.240508
External:        +0.000000
XC:             -56.596576
Entropy (-ST):   -0.000000
Local:           +0.175908
--------------------------
Free energy:    -70.393651
Extrapolated:   -70.393651

Spin contamination: 1.119741 electrons
Showing only first 2 kpts
                      Up                     Down
 Kpt  Band  Eigenvalues  Occupancy  Eigenvalues  Occupancy
  0    52     -2.13884    1.00000     -0.01246    0.00000
  0    53     -2.10282    1.00000      0.00346    0.00000
  0    54     -2.01903    1.00000      0.18060    0.00000
  0    55     -2.01818    1.00000      0.21106    0.00000

  1    52     -2.11793    1.00000     -0.01965    0.00000
  1    53     -2.07377    1.00000      0.01925    0.00000
  1    54     -2.02012    1.00000      0.17010    0.00000
  1    55     -1.98945    1.00000      0.20886    0.00000


Fermi level: -1.19494

Gap: 0.970 eV
Transition (v -> c):
  (s=0, k=5, n=59, [-0.46, -0.04, 0.00]) -> (s=0, k=10, n=60, [-0.46, 0.38, 0.00])
Writing to born-0.01-2y-.gpw (mode='all')

Timing:                              incl.     excl.
-----------------------------------------------------------
Hamiltonian:                         2.659     0.011   0.0% |
 Atomic:                             1.155     1.155   0.0% |
  XC Correction:                     0.000     0.000   0.0% |
 Calculate atomic Hamiltonians:      0.333     0.333   0.0% |
 Communicate:                        0.000     0.000   0.0% |
 Initialize Hamiltonian:             0.004     0.004   0.0% |
 Poisson:                            0.013     0.013   0.0% |
 XC 3D grid:                         1.144     1.144   0.0% |
LCAO initialization:                20.995     0.141   0.0% |
 LCAO eigensolver:                   3.329     0.001   0.0% |
  Calculate projections:             0.004     0.004   0.0% |
  DenseAtomicCorrection:             0.005     0.005   0.0% |
  Distribute overlap matrix:         0.000     0.000   0.0% |
  Orbital Layouts:                   0.016     0.016   0.0% |
  Potential matrix:                  3.292     3.292   0.1% |
  Sum over cells:                    0.012     0.012   0.0% |
 LCAO to grid:                      17.246    17.246   0.3% |
 Set positions (LCAO WFS):           0.279     0.050   0.0% |
  Basic WFS set positions:           0.001     0.001   0.0% |
  Basis functions set positions:     0.000     0.000   0.0% |
  P tci:                             0.122     0.122   0.0% |
  ST tci:                            0.064     0.064   0.0% |
  mktci:                             0.043     0.043   0.0% |
PWDescriptor:                        0.088     0.088   0.0% |
SCF-cycle:                        2953.194   654.050  10.7% |---|
 Davidson:                        1764.888   293.041   4.8% |-|
  Apply H:                         294.902   285.952   4.7% |-|
   HMM T:                            8.950     8.950   0.1% |
  Subspace diag:                   364.771     0.073   0.0% |
   calc_h_matrix:                  322.332    25.341   0.4% |
    Apply H:                       296.991   287.660   4.7% |-|
     HMM T:                          9.331     9.331   0.2% |
   diagonalize:                      0.685     0.685   0.0% |
   rotate_psi:                      41.681    41.681   0.7% |
  calc. matrices:                  732.499   144.715   2.4% ||
   Apply H:                        587.784   569.990   9.3% |---|
    HMM T:                          17.794    17.794   0.3% |
  diagonalize:                       6.413     6.413   0.1% |
  rotate_psi:                       73.262    73.262   1.2% |
 Density:                          294.211     0.002   0.0% |
  Atomic density matrices:           0.404     0.404   0.0% |
  Mix:                              49.528    49.528   0.8% |
  Multipole moments:                 0.025     0.025   0.0% |
  Pseudo density:                  244.252   244.248   4.0% |-|
   Symmetrize density:               0.004     0.004   0.0% |
 Forces:                           128.872   128.872   2.1% ||
 Hamiltonian:                      109.584     0.758   0.0% |
  Atomic:                            5.913     5.913   0.1% |
   XC Correction:                    0.000     0.000   0.0% |
  Calculate atomic Hamiltonians:    35.802    35.802   0.6% |
  Communicate:                       0.009     0.009   0.0% |
  Poisson:                           0.695     0.695   0.0% |
  XC 3D grid:                       66.406    66.406   1.1% |
 Orthonormalize:                     1.589     0.001   0.0% |
  calc_s_matrix:                     0.215     0.215   0.0% |
  inverse-cholesky:                  0.004     0.004   0.0% |
  projections:                       0.970     0.970   0.0% |
  rotate_psi_s:                      0.398     0.398   0.0% |
Set symmetry:                        0.000     0.000   0.0% |
Other:                            3120.658  3120.658  51.2% |-------------------|
-----------------------------------------------------------
Total:                                      6097.594 100.0%

Memory usage: 39.04 GiB
Date: Sun Jun 26 08:38:09 2022
