
  ___ ___ ___ _ _ _  
 |   |   |_  | | | | 
 | | | | | . | | | | 
 |__ |  _|___|_____|  21.6.1b1
 |___|_|             

User:   madkru@c007.nifl.fysik.dtu.dk
Date:   Wed Jun 29 14:17:43 2022
Arch:   x86_64
Pid:    215850
Python: 3.8.6
gpaw:   /home/niflheim/madkru/new_venv/gpaw/gpaw (1f0dfc9eae)
_gpaw:  /home/niflheim/madkru/new_venv/gpaw/build/lib.linux-x86_64-skylake-3.8/
        _gpaw.cpython-38-x86_64-linux-gnu.so (c1e45bfab3)
ase:    /home/niflheim/madkru/new_venv/ase/ase (version 3.23.0b1-ca38c75a67)
numpy:  /home/modules/software/SciPy-bundle/2020.11-foss-2020b/lib/python3.8/site-packages/numpy (version 1.19.4)
scipy:  /home/modules/software/SciPy-bundle/2020.11-foss-2020b/lib/python3.8/site-packages/scipy (version 1.5.4)
libxc:  4.3.4
units:  Angstrom and eV
cores: 40
OpenMP: False
OMP_NUM_THREADS: 1

Input parameters:
  convergence: {bands: occupied,
                density: 0.0001,
                eigenstates: 4e-08,
                energy: 0.0005,
                forces: 0.0001}
  kpts: [12 12  1]
  mode: {ecut: 600.0,
         gammacentered: False,
         name: pw}
  occupations: {fixmagmom: False,
                name: fermi-dirac,
                width: 0.001}
  symmetry: {point_group: False,
             time_reversal: False}

System changes: positions, numbers, cell, pbc, initial_charges, initial_magmoms 

Initialize ...

Cr-setup:
  name: Chromium
  id: 444e8044bc0f91048286c984738d87f5
  Z: 24.0
  valence: 6
  core: 18
  charge: 0.0
  file: /home/modules/software/GPAW-setups/0.9.20000/Cr.LDA.gz
  compensation charges: gauss, rc=0.35, lmax=2
  cutoffs: 2.14(filt), 3.04(core),
  valence states:
                energy  radius
    4s(1.00)    -4.191   1.164
    4p(0.00)    -1.079   1.217
    3d(5.00)    -3.128   1.111
    *s          23.021   1.164
    *p          26.132   1.217
    *d          24.083   1.111

  Using partial waves for Cr as LCAO basis

I-setup:
  name: Iodine
  id: b559721c0c096a7b4c8fc0e0f4de5cf4
  Z: 53.0
  valence: 7
  core: 46
  charge: 0.0
  file: /home/modules/software/GPAW-setups/0.9.20000/I.LDA.gz
  compensation charges: gauss, rc=0.37, lmax=2
  cutoffs: 2.06(filt), 2.90(core),
  valence states:
                energy  radius
    5s(2.00)   -17.626   1.164
    5p(5.00)    -7.241   1.164
    *s           9.585   1.164
    *p          19.970   1.164
    *d           0.000   1.164

  Using partial waves for I as LCAO basis

Reference energy: -2434708.556191

Spin-polarized calculation.
Magnetic moment: 12.175341

Convergence criteria:
  Maximum total energy change: 0.0005 eV / electron
  Maximum integral of absolute density change: 0.0001 electrons
  Maximum integral of absolute eigenstate change: 4e-08 eV^2
  Maximum change in atomic force: 0.0001 eV / Ang
  Maximum number of iterations: 333

Symmetries present (total): 1

  ( 1  0  0)
  ( 0  1  0)
  ( 0  0  1)

144 k-points: 12 x 12 x 1 Monkhorst-Pack grid
144 k-points in the irreducible part of the Brillouin zone
       k-points in crystal coordinates                weights
   0:    -0.45833333   -0.45833333    0.00000000          1/144
   1:    -0.45833333   -0.37500000    0.00000000          1/144
   2:    -0.45833333   -0.29166667    0.00000000          1/144
   3:    -0.45833333   -0.20833333    0.00000000          1/144
   4:    -0.45833333   -0.12500000    0.00000000          1/144
   5:    -0.45833333   -0.04166667    0.00000000          1/144
   6:    -0.45833333    0.04166667    0.00000000          1/144
   7:    -0.45833333    0.12500000    0.00000000          1/144
   8:    -0.45833333    0.20833333    0.00000000          1/144
   9:    -0.45833333    0.29166667    0.00000000          1/144
          ...
 143:     0.45833333    0.45833333    0.00000000          1/144

Wave functions: Plane wave expansion
  Cutoff energy: 600.000 eV
  Number of coefficients (min, max): 39797, 39902
  Pulay-stress correction: 0.000000 eV/Ang^3 (de/decut=0.000000)
  Using FFTW library
  ScaLapack parameters: grid=1x1, blocksize=None
  Wavefunction extrapolation:
    Improved wavefunction reuse through dual PAW basis 

Occupation numbers: Fermi-Dirac: width=0.0010 eV
 

Eigensolver
   Davidson(niter=2) 

Densities:
  Coarse grid: 42*42*160 grid
  Fine grid: 84*84*320 grid
  Total Charge: 0.000000 

Density mixing:
  Method: difference
  Backend: pulay
  Linear mixing parameter: 0.05
  Mixing with 5 old densities
  Damping of long wave oscillations: 50 

Hamiltonian:
  XC and Coulomb potentials evaluated on a 84*84*320 grid
  Using the LDA Exchange-Correlation functional
  External potential:
    <gpaw.external.NoExternalPotential object at 0x2b89731ca9a0>
 

Memory estimate:
  Process memory now: 40169.75 MiB
  Calculator: 580.26 MiB
    Density: 158.40 MiB
      Arrays: 75.37 MiB
      Localized functions: 52.88 MiB
      Mixer: 30.15 MiB
    Hamiltonian: 57.28 MiB
      Arrays: 55.99 MiB
      XC: 0.00 MiB
      Poisson: 0.00 MiB
      vbar: 1.29 MiB
    Wavefunctions: 364.58 MiB
      Arrays psit_nG: 281.29 MiB
      Eigensolver: 50.83 MiB
      Projections: 1.61 MiB
      Projectors: 18.26 MiB
      PW-descriptor: 12.59 MiB

Total number of cores used: 40
Parallelization over k-points: 40

Number of atoms: 16
Number of atomic orbitals: 84
Number of bands in calculation: 77
Number of valence electrons: 108
Bands to converge: occupied

... initialized

Initializing position-dependent things.

Density initialized from atomic densities
Creating initial wave functions:
  77 bands from LCAO basis set

                                       
                                       
                                       
                                       
                      I                
                            I          
                   I                   
                       Cr  I           
             Cr                        
                 I                     
                         I             
                     I                 
                             I         
               Cr                      
                   I   Cr              
          I                            
                 I                     
                        I              
                                       
                                       
                                       
                                       

Positions:
   0 Cr     0.889135    0.000185   -3.063135    ( 0.0000,  0.0000,  3.4336)
   1 Cr    -2.666158    2.052642   -3.080223    ( 0.0000,  0.0000,  3.4336)
   2 I      1.822012   -2.046247   -4.559876    ( 0.0000,  0.0000, -0.1299)
   3 I     -1.348662    0.216415   -4.560605    ( 0.0000,  0.0000, -0.1299)
   4 I     -4.915070    1.830062   -4.560598    ( 0.0000,  0.0000, -0.1299)
   5 I     -0.074828   -2.063434   -1.594960    ( 0.0000,  0.0000, -0.1299)
   6 I     -0.416551    1.865690   -1.594231    ( 0.0000,  0.0000, -0.1299)
   7 I      3.157525    0.197989   -1.594234    ( 0.0000,  0.0000, -0.1299)
   8 Cr    -2.666887   -2.052642    3.080226    ( 0.0000,  0.0000,  3.4336)
   9 Cr     0.888546   -0.000185    3.063139    ( 0.0000,  0.0000,  3.4336)
  10 I      1.852510    2.063434    1.594959    ( 0.0000,  0.0000, -0.1299)
  11 I      2.194233   -1.865690    1.594230    ( 0.0000,  0.0000, -0.1299)
  12 I     -1.379843   -0.197989    1.594233    ( 0.0000,  0.0000, -0.1299)
  13 I     -0.044330    2.046247    4.559875    ( 0.0000,  0.0000, -0.1299)
  14 I      3.116343   -0.216415    4.560604    ( 0.0000,  0.0000, -0.1299)
  15 I     -0.417976   -1.830062    4.560597    ( 0.0000,  0.0000, -0.1299)

Unit cell:
           periodic     x           y           z      points  spacing
  1. axis:    yes    7.110727   -0.000000    0.000000    42     0.1466
  2. axis:    yes   -3.555363    6.158070    0.000000    42     0.1466
  3. axis:    no     0.000000   -0.000000   27.269192   160     0.1704

  Lengths:   7.110727   7.110727  27.269192
  Angles:   90.000000  90.000000 120.000000

Effective grid spacing dv^(1/3) = 0.1617

                     log10-error:           total        iterations:
           time      wfs    density  force  energy       poisson  magmom
iter:   1  14:19:04                        -76.902988             +12.1076
iter:   2  14:19:56  -0.99  -0.91          -70.503127             +9.9598
iter:   3  14:20:48  -1.83  -1.33          -70.497020             +11.0138
iter:   4  14:21:40  -1.58  -1.38          -70.968125             +12.0928
iter:   5  14:22:32  -2.53  -1.51          -70.628837             +12.0160
iter:   6  14:23:24  -1.91  -1.83          -70.402200             +12.0005
iter:   7  14:24:16  -2.97  -2.20          -70.395255             +12.0039
iter:   8  14:25:08  -3.31  -2.32          -70.390032             +12.0056
iter:   9  14:26:00  -3.68  -2.67          -70.391190             +12.0017
iter:  10  14:26:52  -3.86  -2.86          -70.391875             +11.9998
iter:  11  14:27:44  -3.99  -2.94          -70.392448             +12.0000
iter:  12  14:28:36  -3.99  -3.03          -70.392762             +12.0000
iter:  13  14:29:28  -4.05  -3.10          -70.392972             +12.0000
iter:  14  14:30:20  -4.10  -3.15          -70.393076             +12.0000
iter:  15  14:31:12  -4.19  -3.27          -70.393237             +12.0000
iter:  16  14:32:04  -4.34  -3.32          -70.393358             +12.0000
iter:  17  14:32:56  -4.60  -3.37          -70.393416             +12.0000
iter:  18  14:33:48  -4.75  -3.56          -70.393486             +12.0000
iter:  19  14:34:40  -4.89  -3.65          -70.393534             +12.0000
iter:  20  14:35:32  -5.01  -3.74          -70.393575             +12.0000
iter:  21  14:36:24  -5.18  -4.24          -70.393602             +12.0000
iter:  22  14:37:16  -5.18  -4.26          -70.393622             +12.0000
iter:  23  14:38:08  -5.31  -4.25          -70.393641             +12.0000
iter:  24  14:39:00  -5.49  -4.09          -70.393650             +12.0000
iter:  25  14:39:52  -5.63  -4.21          -70.393657             +12.0000
iter:  26  14:40:44  -5.79  -4.28          -70.393664             +12.0000
iter:  27  14:41:36  -5.81  -4.30          -70.393668             +12.0000
iter:  28  14:42:28  -6.04  -4.30          -70.393671             +12.0000
iter:  29  14:43:20  -6.20  -4.33          -70.393673             +12.0000
iter:  30  14:44:12  -6.33  -4.39          -70.393674             +12.0000
iter:  31  14:45:04  -6.37  -4.45          -70.393676             +12.0000
iter:  32  14:45:56  -6.67  -4.68          -70.393676             +12.0000
iter:  33  14:46:48  -6.77  -4.99          -70.393677             +12.0000
iter:  34  14:47:40  -6.88  -5.09          -70.393677             +12.0000
iter:  35  14:48:32  -7.00  -5.11          -70.393678             +12.0000
iter:  36  14:49:24  -6.97  -5.13          -70.393678             +12.0000
iter:  37  14:50:16  -7.14  -5.23          -70.393678             +12.0000
iter:  38  14:51:07  -7.30  -5.34          -70.393678             +12.0000
iter:  39  14:52:09  -7.45  -5.44          -70.393678             +12.0000
iter:  40  14:53:11  -7.66  -5.53    -4.01 -70.393678             +12.0000

Converged after 40 iterations.

Dipole moment: (-31.572054, 0.000421, 0.000727) |e|*Ang

Total magnetic moment: (0.000000, 0.000000, 12.000000)
Local magnetic moments:
   0 Cr ( 0.000000,  0.000000,  2.911306)
   1 Cr ( 0.000000,  0.000000,  2.915439)
   2 I  ( 0.000000,  0.000000, -0.046975)
   3 I  ( 0.000000,  0.000000, -0.046931)
   4 I  ( 0.000000,  0.000000, -0.046954)
   5 I  ( 0.000000,  0.000000, -0.049672)
   6 I  ( 0.000000,  0.000000, -0.049642)
   7 I  ( 0.000000,  0.000000, -0.049696)
   8 Cr ( 0.000000,  0.000000,  2.916756)
   9 Cr ( 0.000000,  0.000000,  2.909264)
  10 I  ( 0.000000,  0.000000, -0.049788)
  11 I  ( 0.000000,  0.000000, -0.049690)
  12 I  ( 0.000000,  0.000000, -0.049334)
  13 I  ( 0.000000,  0.000000, -0.047029)
  14 I  ( 0.000000,  0.000000, -0.046781)
  15 I  ( 0.000000,  0.000000, -0.046880)

Energy contributions relative to reference atoms: (reference = -2434708.556191)

Kinetic:        +23.361629
Potential:      -37.319986
External:        +0.000000
XC:             -56.612798
Entropy (-ST):   -0.000000
Local:           +0.177476
--------------------------
Free energy:    -70.393678
Extrapolated:   -70.393678

Spin contamination: 1.119075 electrons
Showing only first 2 kpts
                      Up                     Down
 Kpt  Band  Eigenvalues  Occupancy  Eigenvalues  Occupancy
  0    52     -2.13794    1.00000     -0.01232    0.00000
  0    53     -2.10164    1.00000      0.00380    0.00000
  0    54     -2.01886    1.00000      0.18125    0.00000
  0    55     -2.01810    1.00000      0.21201    0.00000

  1    52     -2.11758    1.00000     -0.01923    0.00000
  1    53     -2.07305    1.00000      0.01949    0.00000
  1    54     -2.01991    1.00000      0.17091    0.00000
  1    55     -1.98904    1.00000      0.20964    0.00000


Fermi level: -1.15848

Gap: 0.971 eV
Transition (v -> c):
  (s=0, k=5, n=59, [-0.46, -0.04, 0.00]) -> (s=0, k=22, n=60, [-0.38, 0.38, 0.00])
Writing to born-0.01-14x-.gpw (mode='all')

Timing:                              incl.     excl.
-----------------------------------------------------------
Hamiltonian:                         2.748     0.011   0.0% |
 Atomic:                             1.248     1.248   0.0% |
  XC Correction:                     0.000     0.000   0.0% |
 Calculate atomic Hamiltonians:      0.342     0.342   0.0% |
 Communicate:                        0.000     0.000   0.0% |
 Initialize Hamiltonian:             0.004     0.004   0.0% |
 Poisson:                            0.012     0.012   0.0% |
 XC 3D grid:                         1.131     1.131   0.0% |
LCAO initialization:                20.280     0.141   0.0% |
 LCAO eigensolver:                   3.056     0.001   0.0% |
  Calculate projections:             0.003     0.003   0.0% |
  DenseAtomicCorrection:             0.005     0.005   0.0% |
  Distribute overlap matrix:         0.000     0.000   0.0% |
  Orbital Layouts:                   0.016     0.016   0.0% |
  Potential matrix:                  3.020     3.020   0.1% |
  Sum over cells:                    0.011     0.011   0.0% |
 LCAO to grid:                      16.803    16.803   0.3% |
 Set positions (LCAO WFS):           0.279     0.050   0.0% |
  Basic WFS set positions:           0.001     0.001   0.0% |
  Basis functions set positions:     0.000     0.000   0.0% |
  P tci:                             0.123     0.123   0.0% |
  ST tci:                            0.064     0.064   0.0% |
  mktci:                             0.042     0.042   0.0% |
PWDescriptor:                        0.088     0.088   0.0% |
SCF-cycle:                        2100.562   453.669   8.4% |--|
 Davidson:                        1336.677   206.939   3.8% |-|
  Apply H:                         235.294   227.080   4.2% |-|
   HMM T:                            8.214     8.214   0.2% |
  Subspace diag:                   282.738     0.059   0.0% |
   calc_h_matrix:                  250.525    17.140   0.3% |
    Apply H:                       233.385   224.791   4.2% |-|
     HMM T:                          8.593     8.593   0.2% |
   diagonalize:                      0.487     0.487   0.0% |
   rotate_psi:                      31.667    31.667   0.6% |
  calc. matrices:                  552.566    96.864   1.8% ||
   Apply H:                        455.703   439.669   8.2% |--|
    HMM T:                          16.034    16.034   0.3% |
  diagonalize:                       4.684     4.684   0.1% |
  rotate_psi:                       54.456    54.456   1.0% |
 Density:                          209.381     0.002   0.0% |
  Atomic density matrices:           0.285     0.285   0.0% |
  Mix:                              36.161    36.161   0.7% |
  Multipole moments:                 0.019     0.019   0.0% |
  Pseudo density:                  172.914   172.912   3.2% ||
   Symmetrize density:               0.003     0.003   0.0% |
 Forces:                            19.691    19.691   0.4% |
 Hamiltonian:                       79.486     0.679   0.0% |
  Atomic:                            4.643     4.643   0.1% |
   XC Correction:                    0.000     0.000   0.0% |
  Calculate atomic Hamiltonians:    26.392    26.392   0.5% |
  Communicate:                       0.008     0.008   0.0% |
  Poisson:                           0.503     0.503   0.0% |
  XC 3D grid:                       47.261    47.261   0.9% |
 Orthonormalize:                     1.658     0.002   0.0% |
  calc_s_matrix:                     0.219     0.219   0.0% |
  inverse-cholesky:                  0.004     0.004   0.0% |
  projections:                       0.985     0.985   0.0% |
  rotate_psi_s:                      0.448     0.448   0.0% |
Set symmetry:                        0.000     0.000   0.0% |
Other:                            3267.134  3267.134  60.6% |-----------------------|
-----------------------------------------------------------
Total:                                      5390.812 100.0%

Memory usage: 39.23 GiB
Date: Wed Jun 29 15:47:34 2022
