
  ___ ___ ___ _ _ _  
 |   |   |_  | | | | 
 | | | | | . | | | | 
 |__ |  _|___|_____|  21.6.1b1
 |___|_|             

User:   madkru@c007.nifl.fysik.dtu.dk
Date:   Wed Jun 29 07:10:16 2022
Arch:   x86_64
Pid:    215850
Python: 3.8.6
gpaw:   /home/niflheim/madkru/new_venv/gpaw/gpaw (1f0dfc9eae)
_gpaw:  /home/niflheim/madkru/new_venv/gpaw/build/lib.linux-x86_64-skylake-3.8/
        _gpaw.cpython-38-x86_64-linux-gnu.so (c1e45bfab3)
ase:    /home/niflheim/madkru/new_venv/ase/ase (version 3.23.0b1-ca38c75a67)
numpy:  /home/modules/software/SciPy-bundle/2020.11-foss-2020b/lib/python3.8/site-packages/numpy (version 1.19.4)
scipy:  /home/modules/software/SciPy-bundle/2020.11-foss-2020b/lib/python3.8/site-packages/scipy (version 1.5.4)
libxc:  4.3.4
units:  Angstrom and eV
cores: 40
OpenMP: False
OMP_NUM_THREADS: 1

Input parameters:
  convergence: {bands: occupied,
                density: 0.0001,
                eigenstates: 4e-08,
                energy: 0.0005,
                forces: 0.0001}
  kpts: [12 12  1]
  mode: {ecut: 600.0,
         gammacentered: False,
         name: pw}
  occupations: {fixmagmom: False,
                name: fermi-dirac,
                width: 0.001}
  symmetry: {point_group: False,
             time_reversal: False}

System changes: positions, numbers, cell, pbc, initial_charges, initial_magmoms 

Initialize ...

Cr-setup:
  name: Chromium
  id: 444e8044bc0f91048286c984738d87f5
  Z: 24.0
  valence: 6
  core: 18
  charge: 0.0
  file: /home/modules/software/GPAW-setups/0.9.20000/Cr.LDA.gz
  compensation charges: gauss, rc=0.35, lmax=2
  cutoffs: 2.14(filt), 3.04(core),
  valence states:
                energy  radius
    4s(1.00)    -4.191   1.164
    4p(0.00)    -1.079   1.217
    3d(5.00)    -3.128   1.111
    *s          23.021   1.164
    *p          26.132   1.217
    *d          24.083   1.111

  Using partial waves for Cr as LCAO basis

I-setup:
  name: Iodine
  id: b559721c0c096a7b4c8fc0e0f4de5cf4
  Z: 53.0
  valence: 7
  core: 46
  charge: 0.0
  file: /home/modules/software/GPAW-setups/0.9.20000/I.LDA.gz
  compensation charges: gauss, rc=0.37, lmax=2
  cutoffs: 2.06(filt), 2.90(core),
  valence states:
                energy  radius
    5s(2.00)   -17.626   1.164
    5p(5.00)    -7.241   1.164
    *s           9.585   1.164
    *p          19.970   1.164
    *d           0.000   1.164

  Using partial waves for I as LCAO basis

Reference energy: -2434708.556191

Spin-polarized calculation.
Magnetic moment: 12.175341

Convergence criteria:
  Maximum total energy change: 0.0005 eV / electron
  Maximum integral of absolute density change: 0.0001 electrons
  Maximum integral of absolute eigenstate change: 4e-08 eV^2
  Maximum change in atomic force: 0.0001 eV / Ang
  Maximum number of iterations: 333

Symmetries present (total): 1

  ( 1  0  0)
  ( 0  1  0)
  ( 0  0  1)

144 k-points: 12 x 12 x 1 Monkhorst-Pack grid
144 k-points in the irreducible part of the Brillouin zone
       k-points in crystal coordinates                weights
   0:    -0.45833333   -0.45833333    0.00000000          1/144
   1:    -0.45833333   -0.37500000    0.00000000          1/144
   2:    -0.45833333   -0.29166667    0.00000000          1/144
   3:    -0.45833333   -0.20833333    0.00000000          1/144
   4:    -0.45833333   -0.12500000    0.00000000          1/144
   5:    -0.45833333   -0.04166667    0.00000000          1/144
   6:    -0.45833333    0.04166667    0.00000000          1/144
   7:    -0.45833333    0.12500000    0.00000000          1/144
   8:    -0.45833333    0.20833333    0.00000000          1/144
   9:    -0.45833333    0.29166667    0.00000000          1/144
          ...
 143:     0.45833333    0.45833333    0.00000000          1/144

Wave functions: Plane wave expansion
  Cutoff energy: 600.000 eV
  Number of coefficients (min, max): 39797, 39902
  Pulay-stress correction: 0.000000 eV/Ang^3 (de/decut=0.000000)
  Using FFTW library
  ScaLapack parameters: grid=1x1, blocksize=None
  Wavefunction extrapolation:
    Improved wavefunction reuse through dual PAW basis 

Occupation numbers: Fermi-Dirac: width=0.0010 eV
 

Eigensolver
   Davidson(niter=2) 

Densities:
  Coarse grid: 42*42*160 grid
  Fine grid: 84*84*320 grid
  Total Charge: 0.000000 

Density mixing:
  Method: difference
  Backend: pulay
  Linear mixing parameter: 0.05
  Mixing with 5 old densities
  Damping of long wave oscillations: 50 

Hamiltonian:
  XC and Coulomb potentials evaluated on a 84*84*320 grid
  Using the LDA Exchange-Correlation functional
  External potential:
    <gpaw.external.NoExternalPotential object at 0x2b895ecf7e50>
 

Memory estimate:
  Process memory now: 40164.96 MiB
  Calculator: 580.26 MiB
    Density: 158.40 MiB
      Arrays: 75.37 MiB
      Localized functions: 52.88 MiB
      Mixer: 30.15 MiB
    Hamiltonian: 57.28 MiB
      Arrays: 55.99 MiB
      XC: 0.00 MiB
      Poisson: 0.00 MiB
      vbar: 1.29 MiB
    Wavefunctions: 364.58 MiB
      Arrays psit_nG: 281.29 MiB
      Eigensolver: 50.83 MiB
      Projections: 1.61 MiB
      Projectors: 18.26 MiB
      PW-descriptor: 12.59 MiB

Total number of cores used: 40
Parallelization over k-points: 40

Number of atoms: 16
Number of atomic orbitals: 84
Number of bands in calculation: 77
Number of valence electrons: 108
Bands to converge: occupied

... initialized

Initializing position-dependent things.

Density initialized from atomic densities
Creating initial wave functions:
  77 bands from LCAO basis set

                                       
                                       
                                       
                                       
                      I                
                            I          
                   I                   
                       Cr  I           
             Cr                        
                 I                     
                         I             
                     I                 
                             I         
               Cr                      
                   I   Cr              
          I                            
                 I                     
                        I              
                                       
                                       
                                       
                                       

Positions:
   0 Cr     0.889135    0.000185   -3.063135    ( 0.0000,  0.0000,  3.4336)
   1 Cr    -2.666158    2.052642   -3.080223    ( 0.0000,  0.0000,  3.4336)
   2 I      1.822012   -2.046247   -4.559876    ( 0.0000,  0.0000, -0.1299)
   3 I     -1.348662    0.216415   -4.560605    ( 0.0000,  0.0000, -0.1299)
   4 I     -4.915070    1.830062   -4.560598    ( 0.0000,  0.0000, -0.1299)
   5 I     -0.074828   -2.063434   -1.594960    ( 0.0000,  0.0000, -0.1299)
   6 I     -0.416551    1.865690   -1.594231    ( 0.0000,  0.0000, -0.1299)
   7 I      3.157525    0.197989   -1.594234    ( 0.0000,  0.0000, -0.1299)
   8 Cr    -2.666887   -2.052642    3.080226    ( 0.0000,  0.0000,  3.4336)
   9 Cr     0.888546   -0.000185    3.063139    ( 0.0000,  0.0000,  3.4336)
  10 I      1.852510    2.063434    1.594959    ( 0.0000,  0.0000, -0.1299)
  11 I      2.194233   -1.865690    1.594230    ( 0.0000,  0.0000, -0.1299)
  12 I     -1.379843   -0.197989    1.584233    ( 0.0000,  0.0000, -0.1299)
  13 I     -0.044330    2.046247    4.559875    ( 0.0000,  0.0000, -0.1299)
  14 I      3.126343   -0.216415    4.560604    ( 0.0000,  0.0000, -0.1299)
  15 I     -0.417976   -1.830062    4.560597    ( 0.0000,  0.0000, -0.1299)

Unit cell:
           periodic     x           y           z      points  spacing
  1. axis:    yes    7.110727   -0.000000    0.000000    42     0.1466
  2. axis:    yes   -3.555363    6.158070    0.000000    42     0.1466
  3. axis:    no     0.000000   -0.000000   27.269192   160     0.1704

  Lengths:   7.110727   7.110727  27.269192
  Angles:   90.000000  90.000000 120.000000

Effective grid spacing dv^(1/3) = 0.1617

                     log10-error:           total        iterations:
           time      wfs    density  force  energy       poisson  magmom
iter:   1  07:11:36                        -76.892927             +12.1076
iter:   2  07:12:28  -0.99  -0.91          -70.505178             +9.9696
iter:   3  07:13:20  -1.83  -1.33          -70.497568             +11.0191
iter:   4  07:14:12  -1.59  -1.38          -70.965399             +12.0927
iter:   5  07:15:03  -2.54  -1.51          -70.628480             +12.0158
iter:   6  07:15:55  -1.91  -1.83          -70.402020             +12.0004
iter:   7  07:16:47  -2.97  -2.20          -70.395025             +12.0039
iter:   8  07:17:39  -3.30  -2.32          -70.390042             +12.0056
iter:   9  07:18:30  -3.68  -2.67          -70.391178             +12.0017
iter:  10  07:19:22  -3.86  -2.86          -70.391873             +11.9998
iter:  11  07:20:14  -3.99  -2.94          -70.392452             +12.0000
iter:  12  07:21:06  -4.01  -3.02          -70.392780             +12.0000
iter:  13  07:21:58  -4.08  -3.10          -70.392979             +12.0000
iter:  14  07:22:49  -4.11  -3.15          -70.393063             +12.0000
iter:  15  07:23:41  -4.23  -3.29          -70.393218             +12.0000
iter:  16  07:24:33  -4.36  -3.33          -70.393337             +12.0000
iter:  17  07:25:25  -4.65  -3.41          -70.393406             +12.0000
iter:  18  07:26:17  -4.80  -3.55          -70.393475             +12.0000
iter:  19  07:27:08  -4.92  -3.63          -70.393526             +12.0000
iter:  20  07:28:00  -4.99  -3.69          -70.393563             +12.0000
iter:  21  07:28:52  -5.16  -3.96          -70.393589             +12.0000
iter:  22  07:29:44  -5.24  -4.05          -70.393611             +12.0000
iter:  23  07:30:35  -5.31  -4.06          -70.393627             +12.0000
iter:  24  07:31:27  -5.33  -4.03          -70.393634             +12.0000
iter:  25  07:32:19  -5.44  -4.31          -70.393641             +12.0000
iter:  26  07:33:11  -5.52  -4.34          -70.393647             +12.0000
iter:  27  07:34:03  -5.61  -4.36          -70.393651             +12.0000
iter:  28  07:34:54  -5.77  -4.46          -70.393654             +12.0000
iter:  29  07:35:46  -5.82  -4.45          -70.393657             +12.0000
iter:  30  07:36:38  -6.07  -4.51          -70.393660             +12.0000
iter:  31  07:37:30  -6.27  -4.58          -70.393661             +12.0000
iter:  32  07:38:21  -6.34  -4.62          -70.393662             +12.0000
iter:  33  07:39:13  -6.48  -4.97          -70.393663             +12.0000
iter:  34  07:40:05  -6.61  -5.10          -70.393664             +12.0000
iter:  35  07:40:57  -6.70  -5.21          -70.393664             +12.0000
iter:  36  07:41:48  -6.82  -5.35          -70.393665             +12.0000
iter:  37  07:42:40  -6.98  -5.45          -70.393665             +12.0000
iter:  38  07:43:32  -7.11  -5.55          -70.393665             +12.0000
iter:  39  07:44:24  -7.23  -5.58          -70.393665             +12.0000
iter:  40  07:45:25  -7.41  -5.59          -70.393665             +12.0000
iter:  41  07:46:28  -7.51  -5.56    -3.88 -70.393665             +12.0000
iter:  42  07:47:30  -7.59  -5.74    -3.75 -70.393665             +12.0000
iter:  43  07:48:32  -7.69  -5.96    -4.37 -70.393665             +12.0000

Converged after 43 iterations.

Dipole moment: (-31.572776, 0.000116, -0.090806) |e|*Ang

Total magnetic moment: (0.000000, 0.000000, 12.000000)
Local magnetic moments:
   0 Cr ( 0.000000,  0.000000,  2.911258)
   1 Cr ( 0.000000,  0.000000,  2.915454)
   2 I  ( 0.000000,  0.000000, -0.046993)
   3 I  ( 0.000000,  0.000000, -0.046894)
   4 I  ( 0.000000,  0.000000, -0.046963)
   5 I  ( 0.000000,  0.000000, -0.049762)
   6 I  ( 0.000000,  0.000000, -0.049710)
   7 I  ( 0.000000,  0.000000, -0.049682)
   8 Cr ( 0.000000,  0.000000,  2.916676)
   9 Cr ( 0.000000,  0.000000,  2.912393)
  10 I  ( 0.000000,  0.000000, -0.049871)
  11 I  ( 0.000000,  0.000000, -0.049854)
  12 I  ( 0.000000,  0.000000, -0.050264)
  13 I  ( 0.000000,  0.000000, -0.047095)
  14 I  ( 0.000000,  0.000000, -0.047106)
  15 I  ( 0.000000,  0.000000, -0.046754)

Energy contributions relative to reference atoms: (reference = -2434708.556191)

Kinetic:        +23.016221
Potential:      -37.031017
External:        +0.000000
XC:             -56.555446
Entropy (-ST):   -0.000000
Local:           +0.176576
--------------------------
Free energy:    -70.393665
Extrapolated:   -70.393665

Spin contamination: 1.121198 electrons
Showing only first 2 kpts
                      Up                     Down
 Kpt  Band  Eigenvalues  Occupancy  Eigenvalues  Occupancy
  0    52     -2.13927    1.00000     -0.01129    0.00000
  0    53     -2.10255    1.00000      0.00440    0.00000
  0    54     -2.01940    1.00000      0.18146    0.00000
  0    55     -2.01831    1.00000      0.21205    0.00000

  1    52     -2.11799    1.00000     -0.01825    0.00000
  1    53     -2.07400    1.00000      0.01957    0.00000
  1    54     -2.01998    1.00000      0.17095    0.00000
  1    55     -1.98960    1.00000      0.20967    0.00000


Fermi level: -1.19442

Gap: 0.968 eV
Transition (v -> c):
  (s=0, k=11, n=59, [-0.46, 0.46, 0.00]) -> (s=0, k=17, n=60, [-0.38, -0.04, 0.00])
Writing to born-0.01-12z-.gpw (mode='all')

Timing:                              incl.     excl.
-----------------------------------------------------------
Hamiltonian:                         2.500     0.012   0.0% |
 Atomic:                             0.819     0.819   0.0% |
  XC Correction:                     0.000     0.000   0.0% |
 Calculate atomic Hamiltonians:      0.521     0.521   0.0% |
 Communicate:                        0.000     0.000   0.0% |
 Initialize Hamiltonian:             0.004     0.004   0.0% |
 Poisson:                            0.014     0.014   0.0% |
 XC 3D grid:                         1.131     1.131   0.0% |
LCAO initialization:                20.236     0.145   0.0% |
 LCAO eigensolver:                   3.059     0.001   0.0% |
  Calculate projections:             0.004     0.004   0.0% |
  DenseAtomicCorrection:             0.005     0.005   0.0% |
  Distribute overlap matrix:         0.000     0.000   0.0% |
  Orbital Layouts:                   0.016     0.016   0.0% |
  Potential matrix:                  3.022     3.022   0.1% |
  Sum over cells:                    0.011     0.011   0.0% |
 LCAO to grid:                      16.753    16.753   0.3% |
 Set positions (LCAO WFS):           0.279     0.050   0.0% |
  Basic WFS set positions:           0.001     0.001   0.0% |
  Basis functions set positions:     0.000     0.000   0.0% |
  P tci:                             0.122     0.122   0.0% |
  ST tci:                            0.064     0.064   0.0% |
  mktci:                             0.043     0.043   0.0% |
PWDescriptor:                        0.087     0.087   0.0% |
SCF-cycle:                        2269.028   491.782   8.7% |--|
 Davidson:                        1425.096   222.538   3.9% |-|
  Apply H:                         250.333   242.021   4.3% |-|
   HMM T:                            8.312     8.312   0.1% |
  Subspace diag:                   300.880     0.062   0.0% |
   calc_h_matrix:                  267.594    18.511   0.3% |
    Apply H:                       249.083   240.583   4.3% |-|
     HMM T:                          8.501     8.501   0.2% |
   diagonalize:                      0.527     0.527   0.0% |
   rotate_psi:                      32.696    32.696   0.6% |
  calc. matrices:                  588.621   104.798   1.9% ||
   Apply H:                        483.823   467.745   8.3% |--|
    HMM T:                          16.078    16.078   0.3% |
  diagonalize:                       5.016     5.016   0.1% |
  rotate_psi:                       57.709    57.709   1.0% |
 Density:                          225.390     0.002   0.0% |
  Atomic density matrices:           0.308     0.308   0.0% |
  Mix:                              38.735    38.735   0.7% |
  Multipole moments:                 0.020     0.020   0.0% |
  Pseudo density:                  186.325   186.322   3.3% ||
   Symmetrize density:               0.003     0.003   0.0% |
 Forces:                            39.510    39.510   0.7% |
 Hamiltonian:                       85.590     0.768   0.0% |
  Atomic:                            5.162     5.162   0.1% |
   XC Correction:                    0.000     0.000   0.0% |
  Calculate atomic Hamiltonians:    28.243    28.243   0.5% |
  Communicate:                       0.008     0.008   0.0% |
  Poisson:                           0.594     0.594   0.0% |
  XC 3D grid:                       50.814    50.814   0.9% |
 Orthonormalize:                     1.660     0.002   0.0% |
  calc_s_matrix:                     0.218     0.218   0.0% |
  inverse-cholesky:                  0.004     0.004   0.0% |
  projections:                       1.022     1.022   0.0% |
  rotate_psi_s:                      0.415     0.415   0.0% |
Set symmetry:                        0.000     0.000   0.0% |
Other:                            3348.156  3348.156  59.4% |-----------------------|
-----------------------------------------------------------
Total:                                      5640.008 100.0%

Memory usage: 39.22 GiB
Date: Wed Jun 29 08:44:16 2022
