
  ___ ___ ___ _ _ _  
 |   |   |_  | | | | 
 | | | | | . | | | | 
 |__ |  _|___|_____|  21.6.1b1
 |___|_|             

User:   madkru@c007.nifl.fysik.dtu.dk
Date:   Thu Jun 30 00:27:13 2022
Arch:   x86_64
Pid:    215850
Python: 3.8.6
gpaw:   /home/niflheim/madkru/new_venv/gpaw/gpaw (1f0dfc9eae)
_gpaw:  /home/niflheim/madkru/new_venv/gpaw/build/lib.linux-x86_64-skylake-3.8/
        _gpaw.cpython-38-x86_64-linux-gnu.so (c1e45bfab3)
ase:    /home/niflheim/madkru/new_venv/ase/ase (version 3.23.0b1-ca38c75a67)
numpy:  /home/modules/software/SciPy-bundle/2020.11-foss-2020b/lib/python3.8/site-packages/numpy (version 1.19.4)
scipy:  /home/modules/software/SciPy-bundle/2020.11-foss-2020b/lib/python3.8/site-packages/scipy (version 1.5.4)
libxc:  4.3.4
units:  Angstrom and eV
cores: 40
OpenMP: False
OMP_NUM_THREADS: 1

Input parameters:
  convergence: {bands: occupied,
                density: 0.0001,
                eigenstates: 4e-08,
                energy: 0.0005,
                forces: 0.0001}
  kpts: [12 12  1]
  mode: {ecut: 600.0,
         gammacentered: False,
         name: pw}
  occupations: {fixmagmom: False,
                name: fermi-dirac,
                width: 0.001}
  symmetry: {point_group: False,
             time_reversal: False}

System changes: positions, numbers, cell, pbc, initial_charges, initial_magmoms 

Initialize ...

Cr-setup:
  name: Chromium
  id: 444e8044bc0f91048286c984738d87f5
  Z: 24.0
  valence: 6
  core: 18
  charge: 0.0
  file: /home/modules/software/GPAW-setups/0.9.20000/Cr.LDA.gz
  compensation charges: gauss, rc=0.35, lmax=2
  cutoffs: 2.14(filt), 3.04(core),
  valence states:
                energy  radius
    4s(1.00)    -4.191   1.164
    4p(0.00)    -1.079   1.217
    3d(5.00)    -3.128   1.111
    *s          23.021   1.164
    *p          26.132   1.217
    *d          24.083   1.111

  Using partial waves for Cr as LCAO basis

I-setup:
  name: Iodine
  id: b559721c0c096a7b4c8fc0e0f4de5cf4
  Z: 53.0
  valence: 7
  core: 46
  charge: 0.0
  file: /home/modules/software/GPAW-setups/0.9.20000/I.LDA.gz
  compensation charges: gauss, rc=0.37, lmax=2
  cutoffs: 2.06(filt), 2.90(core),
  valence states:
                energy  radius
    5s(2.00)   -17.626   1.164
    5p(5.00)    -7.241   1.164
    *s           9.585   1.164
    *p          19.970   1.164
    *d           0.000   1.164

  Using partial waves for I as LCAO basis

Reference energy: -2434708.556191

Spin-polarized calculation.
Magnetic moment: 12.175341

Convergence criteria:
  Maximum total energy change: 0.0005 eV / electron
  Maximum integral of absolute density change: 0.0001 electrons
  Maximum integral of absolute eigenstate change: 4e-08 eV^2
  Maximum change in atomic force: 0.0001 eV / Ang
  Maximum number of iterations: 333

Symmetries present (total): 1

  ( 1  0  0)
  ( 0  1  0)
  ( 0  0  1)

144 k-points: 12 x 12 x 1 Monkhorst-Pack grid
144 k-points in the irreducible part of the Brillouin zone
       k-points in crystal coordinates                weights
   0:    -0.45833333   -0.45833333    0.00000000          1/144
   1:    -0.45833333   -0.37500000    0.00000000          1/144
   2:    -0.45833333   -0.29166667    0.00000000          1/144
   3:    -0.45833333   -0.20833333    0.00000000          1/144
   4:    -0.45833333   -0.12500000    0.00000000          1/144
   5:    -0.45833333   -0.04166667    0.00000000          1/144
   6:    -0.45833333    0.04166667    0.00000000          1/144
   7:    -0.45833333    0.12500000    0.00000000          1/144
   8:    -0.45833333    0.20833333    0.00000000          1/144
   9:    -0.45833333    0.29166667    0.00000000          1/144
          ...
 143:     0.45833333    0.45833333    0.00000000          1/144

Wave functions: Plane wave expansion
  Cutoff energy: 600.000 eV
  Number of coefficients (min, max): 39797, 39902
  Pulay-stress correction: 0.000000 eV/Ang^3 (de/decut=0.000000)
  Using FFTW library
  ScaLapack parameters: grid=1x1, blocksize=None
  Wavefunction extrapolation:
    Improved wavefunction reuse through dual PAW basis 

Occupation numbers: Fermi-Dirac: width=0.0010 eV
 

Eigensolver
   Davidson(niter=2) 

Densities:
  Coarse grid: 42*42*160 grid
  Fine grid: 84*84*320 grid
  Total Charge: 0.000000 

Density mixing:
  Method: difference
  Backend: pulay
  Linear mixing parameter: 0.05
  Mixing with 5 old densities
  Damping of long wave oscillations: 50 

Hamiltonian:
  XC and Coulomb potentials evaluated on a 84*84*320 grid
  Using the LDA Exchange-Correlation functional
  External potential:
    <gpaw.external.NoExternalPotential object at 0x2b89650c33a0>
 

Memory estimate:
  Process memory now: 40336.50 MiB
  Calculator: 580.26 MiB
    Density: 158.40 MiB
      Arrays: 75.37 MiB
      Localized functions: 52.88 MiB
      Mixer: 30.15 MiB
    Hamiltonian: 57.28 MiB
      Arrays: 55.99 MiB
      XC: 0.00 MiB
      Poisson: 0.00 MiB
      vbar: 1.29 MiB
    Wavefunctions: 364.58 MiB
      Arrays psit_nG: 281.29 MiB
      Eigensolver: 50.83 MiB
      Projections: 1.61 MiB
      Projectors: 18.26 MiB
      PW-descriptor: 12.59 MiB

Total number of cores used: 40
Parallelization over k-points: 40

Number of atoms: 16
Number of atomic orbitals: 84
Number of bands in calculation: 77
Number of valence electrons: 108
Bands to converge: occupied

... initialized

Initializing position-dependent things.

Density initialized from atomic densities
Creating initial wave functions:
  77 bands from LCAO basis set

                                       
                                       
                                       
                                       
                      I                
                            I          
                   I                   
                       Cr  I           
             Cr                        
                 I                     
                         I             
                     I                 
                             I         
               Cr                      
                   I   Cr              
          I                            
                 I                     
                        I              
                                       
                                       
                                       
                                       

Positions:
   0 Cr     0.889135    0.000185   -3.063135    ( 0.0000,  0.0000,  3.4336)
   1 Cr    -2.666158    2.052642   -3.080223    ( 0.0000,  0.0000,  3.4336)
   2 I      1.822012   -2.046247   -4.559876    ( 0.0000,  0.0000, -0.1299)
   3 I     -1.348662    0.216415   -4.560605    ( 0.0000,  0.0000, -0.1299)
   4 I     -4.915070    1.830062   -4.560598    ( 0.0000,  0.0000, -0.1299)
   5 I     -0.074828   -2.063434   -1.594960    ( 0.0000,  0.0000, -0.1299)
   6 I     -0.416551    1.865690   -1.594231    ( 0.0000,  0.0000, -0.1299)
   7 I      3.157525    0.197989   -1.594234    ( 0.0000,  0.0000, -0.1299)
   8 Cr    -2.666887   -2.052642    3.080226    ( 0.0000,  0.0000,  3.4336)
   9 Cr     0.888546   -0.000185    3.063139    ( 0.0000,  0.0000,  3.4336)
  10 I      1.852510    2.063434    1.594959    ( 0.0000,  0.0000, -0.1299)
  11 I      2.194233   -1.865690    1.594230    ( 0.0000,  0.0000, -0.1299)
  12 I     -1.379843   -0.197989    1.594233    ( 0.0000,  0.0000, -0.1299)
  13 I     -0.044330    2.046247    4.559875    ( 0.0000,  0.0000, -0.1299)
  14 I      3.126343   -0.216415    4.560604    ( 0.0000,  0.0000, -0.1299)
  15 I     -0.417976   -1.830062    4.570597    ( 0.0000,  0.0000, -0.1299)

Unit cell:
           periodic     x           y           z      points  spacing
  1. axis:    yes    7.110727   -0.000000    0.000000    42     0.1466
  2. axis:    yes   -3.555363    6.158070    0.000000    42     0.1466
  3. axis:    no     0.000000   -0.000000   27.269192   160     0.1704

  Lengths:   7.110727   7.110727  27.269192
  Angles:   90.000000  90.000000 120.000000

Effective grid spacing dv^(1/3) = 0.1617

                     log10-error:           total        iterations:
           time      wfs    density  force  energy       poisson  magmom
iter:   1  00:28:34                        -76.888679             +12.1076
iter:   2  00:29:27  -0.99  -0.91          -70.506169             +9.9688
iter:   3  00:30:19  -1.83  -1.33          -70.497784             +11.0189
iter:   4  00:31:12  -1.58  -1.38          -70.969054             +12.0925
iter:   5  00:32:04  -2.53  -1.51          -70.628029             +12.0157
iter:   6  00:32:57  -1.91  -1.83          -70.402580             +12.0005
iter:   7  00:33:49  -2.97  -2.20          -70.395247             +12.0039
iter:   8  00:34:42  -3.31  -2.32          -70.390010             +12.0055
iter:   9  00:35:34  -3.68  -2.68          -70.391188             +12.0017
iter:  10  00:36:27  -3.86  -2.86          -70.391863             +11.9998
iter:  11  00:37:19  -3.99  -2.95          -70.392429             +12.0000
iter:  12  00:38:12  -3.98  -3.05          -70.392738             +12.0000
iter:  13  00:39:04  -4.07  -3.12          -70.392952             +12.0000
iter:  14  00:39:57  -4.08  -3.16          -70.393072             +12.0000
iter:  15  00:40:49  -4.16  -3.27          -70.393235             +12.0000
iter:  16  00:41:42  -4.31  -3.32          -70.393354             +12.0000
iter:  17  00:42:34  -4.55  -3.37          -70.393410             +12.0000
iter:  18  00:43:27  -4.67  -3.58          -70.393477             +12.0000
iter:  19  00:44:19  -4.83  -3.63          -70.393522             +12.0000
iter:  20  00:45:12  -4.87  -3.76          -70.393566             +12.0000
iter:  21  00:46:04  -5.03  -4.01          -70.393598             +12.0000
iter:  22  00:46:57  -5.21  -3.99          -70.393620             +12.0000
iter:  23  00:47:49  -5.31  -4.00          -70.393636             +12.0000
iter:  24  00:48:42  -5.33  -3.95          -70.393644             +12.0000
iter:  25  00:49:34  -5.45  -4.25          -70.393651             +12.0000
iter:  26  00:50:27  -5.56  -4.31          -70.393657             +12.0000
iter:  27  00:51:19  -5.65  -4.33          -70.393661             +12.0000
iter:  28  00:52:12  -5.83  -4.33          -70.393666             +12.0000
iter:  29  00:53:04  -5.96  -4.34          -70.393669             +12.0000
iter:  30  00:53:56  -6.08  -4.36          -70.393670             +12.0000
iter:  31  00:54:49  -6.23  -4.56          -70.393672             +12.0000
iter:  32  00:55:41  -6.28  -4.66          -70.393673             +12.0000
iter:  33  00:56:33  -6.43  -4.85          -70.393674             +12.0000
iter:  34  00:57:25  -6.66  -4.98          -70.393674             +12.0000
iter:  35  00:58:18  -6.73  -5.03          -70.393675             +12.0000
iter:  36  00:59:10  -6.92  -5.06          -70.393675             +12.0000
iter:  37  01:00:02  -7.17  -5.19          -70.393675             +12.0000
iter:  38  01:00:54  -7.26  -5.49          -70.393675             +12.0000
iter:  39  01:01:47  -7.39  -5.58          -70.393676             +12.0000
iter:  40  01:02:48  -7.50  -5.61          -70.393676             +12.0000
iter:  41  01:03:52  -7.55  -5.60    -4.14 -70.393676             +12.0000

Converged after 41 iterations.

Dipole moment: (-31.572881, -0.000935, 0.000486) |e|*Ang

Total magnetic moment: (0.000000, 0.000000, 12.000000)
Local magnetic moments:
   0 Cr ( 0.000000,  0.000000,  2.911319)
   1 Cr ( 0.000000,  0.000000,  2.915480)
   2 I  ( 0.000000,  0.000000, -0.046978)
   3 I  ( 0.000000,  0.000000, -0.046936)
   4 I  ( 0.000000,  0.000000, -0.046959)
   5 I  ( 0.000000,  0.000000, -0.049718)
   6 I  ( 0.000000,  0.000000, -0.049632)
   7 I  ( 0.000000,  0.000000, -0.049663)
   8 Cr ( 0.000000,  0.000000,  2.916523)
   9 Cr ( 0.000000,  0.000000,  2.912373)
  10 I  ( 0.000000,  0.000000, -0.049850)
  11 I  ( 0.000000,  0.000000, -0.049836)
  12 I  ( 0.000000,  0.000000, -0.049427)
  13 I  ( 0.000000,  0.000000, -0.047222)
  14 I  ( 0.000000,  0.000000, -0.047181)
  15 I  ( 0.000000,  0.000000, -0.047442)

Energy contributions relative to reference atoms: (reference = -2434708.556191)

Kinetic:        +22.962326
Potential:      -36.990109
External:        +0.000000
XC:             -56.542170
Entropy (-ST):   -0.000000
Local:           +0.176278
--------------------------
Free energy:    -70.393676
Extrapolated:   -70.393676

Spin contamination: 1.121138 electrons
Showing only first 2 kpts
                      Up                     Down
 Kpt  Band  Eigenvalues  Occupancy  Eigenvalues  Occupancy
  0    52     -2.13943    1.00000     -0.01261    0.00000
  0    53     -2.10339    1.00000      0.00327    0.00000
  0    54     -2.02145    1.00000      0.18051    0.00000
  0    55     -2.01981    1.00000      0.21122    0.00000

  1    52     -2.11860    1.00000     -0.01944    0.00000
  1    53     -2.07441    1.00000      0.01842    0.00000
  1    54     -2.02115    1.00000      0.17023    0.00000
  1    55     -1.99147    1.00000      0.20814    0.00000


Fermi level: -1.19471

Gap: 0.969 eV
Transition (v -> c):
  (s=0, k=132, n=59, [0.46, -0.46, 0.00]) -> (s=0, k=72, n=60, [0.04, -0.46, 0.00])
Writing to born-0.01-15z+.gpw (mode='all')

Timing:                              incl.     excl.
-----------------------------------------------------------
Hamiltonian:                         2.552     0.012   0.0% |
 Atomic:                             0.897     0.897   0.0% |
  XC Correction:                     0.000     0.000   0.0% |
 Calculate atomic Hamiltonians:      0.491     0.491   0.0% |
 Communicate:                        0.000     0.000   0.0% |
 Initialize Hamiltonian:             0.004     0.004   0.0% |
 Poisson:                            0.014     0.014   0.0% |
 XC 3D grid:                         1.135     1.135   0.0% |
LCAO initialization:                20.591     0.141   0.0% |
 LCAO eigensolver:                   3.146     0.001   0.0% |
  Calculate projections:             0.004     0.004   0.0% |
  DenseAtomicCorrection:             0.005     0.005   0.0% |
  Distribute overlap matrix:         0.000     0.000   0.0% |
  Orbital Layouts:                   0.016     0.016   0.0% |
  Potential matrix:                  3.110     3.110   0.1% |
  Sum over cells:                    0.011     0.011   0.0% |
 LCAO to grid:                      17.025    17.025   0.6% |
 Set positions (LCAO WFS):           0.279     0.050   0.0% |
  Basic WFS set positions:           0.001     0.001   0.0% |
  Basis functions set positions:     0.000     0.000   0.0% |
  P tci:                             0.122     0.122   0.0% |
  ST tci:                            0.064     0.064   0.0% |
  mktci:                             0.042     0.042   0.0% |
PWDescriptor:                        0.088     0.088   0.0% |
SCF-cycle:                        2170.594   484.131  15.7% |-----|
 Davidson:                        1367.804   212.581   6.9% |--|
  Apply H:                         240.417   232.016   7.5% |--|
   HMM T:                            8.401     8.401   0.3% |
  Subspace diag:                   288.551     0.061   0.0% |
   calc_h_matrix:                  257.137    17.543   0.6% |
    Apply H:                       239.594   230.859   7.5% |--|
     HMM T:                          8.735     8.735   0.3% |
   diagonalize:                      0.501     0.501   0.0% |
   rotate_psi:                      30.852    30.852   1.0% |
  calc. matrices:                  566.096    99.780   3.2% ||
   Apply H:                        466.316   450.285  14.6% |-----|
    HMM T:                          16.030    16.030   0.5% |
  diagonalize:                       4.789     4.789   0.2% |
  rotate_psi:                       55.370    55.370   1.8% ||
 Density:                          216.201     0.002   0.0% |
  Atomic density matrices:           0.296     0.296   0.0% |
  Mix:                              37.266    37.266   1.2% |
  Multipole moments:                 0.019     0.019   0.0% |
  Pseudo density:                  178.618   178.615   5.8% |-|
   Symmetrize density:               0.003     0.003   0.0% |
 Forces:                            19.633    19.633   0.6% |
 Hamiltonian:                       81.105     0.703   0.0% |
  Atomic:                            4.485     4.484   0.1% |
   XC Correction:                    0.000     0.000   0.0% |
  Calculate atomic Hamiltonians:    26.718    26.718   0.9% |
  Communicate:                       0.028     0.028   0.0% |
  Poisson:                           0.569     0.569   0.0% |
  XC 3D grid:                       48.602    48.602   1.6% ||
 Orthonormalize:                     1.720     0.002   0.0% |
  calc_s_matrix:                     0.228     0.228   0.0% |
  inverse-cholesky:                  0.004     0.004   0.0% |
  projections:                       1.053     1.053   0.0% |
  rotate_psi_s:                      0.434     0.434   0.0% |
Set symmetry:                        0.000     0.000   0.0% |
Other:                             889.726   889.726  28.9% |-----------|
-----------------------------------------------------------
Total:                                      3083.550 100.0%

Memory usage: 39.39 GiB
Date: Thu Jun 30 01:18:37 2022
