
  ___ ___ ___ _ _ _  
 |   |   |_  | | | | 
 | | | | | . | | | | 
 |__ |  _|___|_____|  21.6.1b1
 |___|_|             

User:   madkru@c153.nifl.fysik.dtu.dk
Date:   Mon Jun 27 09:51:32 2022
Arch:   x86_64
Pid:    48887
Python: 3.8.6
gpaw:   /home/niflheim/madkru/new_venv/gpaw/gpaw (1f0dfc9eae)
_gpaw:  /home/niflheim/madkru/new_venv/gpaw/build/lib.linux-x86_64-skylake-3.8/
        _gpaw.cpython-38-x86_64-linux-gnu.so (c1e45bfab3)
ase:    /home/niflheim/madkru/new_venv/ase/ase (version 3.23.0b1-ca38c75a67)
numpy:  /home/modules/software/SciPy-bundle/2020.11-foss-2020b/lib/python3.8/site-packages/numpy (version 1.19.4)
scipy:  /home/modules/software/SciPy-bundle/2020.11-foss-2020b/lib/python3.8/site-packages/scipy (version 1.5.4)
libxc:  4.3.4
units:  Angstrom and eV
cores: 40
OpenMP: False
OMP_NUM_THREADS: 1

Input parameters:
  convergence: {bands: occupied,
                density: 0.0001,
                eigenstates: 4e-08,
                energy: 0.0005,
                forces: 0.0001}
  kpts: [12 12  1]
  mode: {ecut: 600.0,
         gammacentered: False,
         name: pw}
  occupations: {fixmagmom: False,
                name: fermi-dirac,
                width: 0.001}
  symmetry: {point_group: False,
             time_reversal: False}

System changes: positions, numbers, cell, pbc, initial_charges, initial_magmoms 

Initialize ...

Cr-setup:
  name: Chromium
  id: 444e8044bc0f91048286c984738d87f5
  Z: 24.0
  valence: 6
  core: 18
  charge: 0.0
  file: /home/modules/software/GPAW-setups/0.9.20000/Cr.LDA.gz
  compensation charges: gauss, rc=0.35, lmax=2
  cutoffs: 2.14(filt), 3.04(core),
  valence states:
                energy  radius
    4s(1.00)    -4.191   1.164
    4p(0.00)    -1.079   1.217
    3d(5.00)    -3.128   1.111
    *s          23.021   1.164
    *p          26.132   1.217
    *d          24.083   1.111

  Using partial waves for Cr as LCAO basis

I-setup:
  name: Iodine
  id: b559721c0c096a7b4c8fc0e0f4de5cf4
  Z: 53.0
  valence: 7
  core: 46
  charge: 0.0
  file: /home/modules/software/GPAW-setups/0.9.20000/I.LDA.gz
  compensation charges: gauss, rc=0.37, lmax=2
  cutoffs: 2.06(filt), 2.90(core),
  valence states:
                energy  radius
    5s(2.00)   -17.626   1.164
    5p(5.00)    -7.241   1.164
    *s           9.585   1.164
    *p          19.970   1.164
    *d           0.000   1.164

  Using partial waves for I as LCAO basis

Reference energy: -2434708.556191

Spin-polarized calculation.
Magnetic moment: 12.175341

Convergence criteria:
  Maximum total energy change: 0.0005 eV / electron
  Maximum integral of absolute density change: 0.0001 electrons
  Maximum integral of absolute eigenstate change: 4e-08 eV^2
  Maximum change in atomic force: 0.0001 eV / Ang
  Maximum number of iterations: 333

Symmetries present (total): 1

  ( 1  0  0)
  ( 0  1  0)
  ( 0  0  1)

144 k-points: 12 x 12 x 1 Monkhorst-Pack grid
144 k-points in the irreducible part of the Brillouin zone
       k-points in crystal coordinates                weights
   0:    -0.45833333   -0.45833333    0.00000000          1/144
   1:    -0.45833333   -0.37500000    0.00000000          1/144
   2:    -0.45833333   -0.29166667    0.00000000          1/144
   3:    -0.45833333   -0.20833333    0.00000000          1/144
   4:    -0.45833333   -0.12500000    0.00000000          1/144
   5:    -0.45833333   -0.04166667    0.00000000          1/144
   6:    -0.45833333    0.04166667    0.00000000          1/144
   7:    -0.45833333    0.12500000    0.00000000          1/144
   8:    -0.45833333    0.20833333    0.00000000          1/144
   9:    -0.45833333    0.29166667    0.00000000          1/144
          ...
 143:     0.45833333    0.45833333    0.00000000          1/144

Wave functions: Plane wave expansion
  Cutoff energy: 600.000 eV
  Number of coefficients (min, max): 39797, 39902
  Pulay-stress correction: 0.000000 eV/Ang^3 (de/decut=0.000000)
  Using FFTW library
  ScaLapack parameters: grid=1x1, blocksize=None
  Wavefunction extrapolation:
    Improved wavefunction reuse through dual PAW basis 

Occupation numbers: Fermi-Dirac: width=0.0010 eV
 

Eigensolver
   Davidson(niter=2) 

Densities:
  Coarse grid: 42*42*160 grid
  Fine grid: 84*84*320 grid
  Total Charge: 0.000000 

Density mixing:
  Method: difference
  Backend: pulay
  Linear mixing parameter: 0.05
  Mixing with 5 old densities
  Damping of long wave oscillations: 50 

Hamiltonian:
  XC and Coulomb potentials evaluated on a 84*84*320 grid
  Using the LDA Exchange-Correlation functional
  External potential:
    <gpaw.external.NoExternalPotential object at 0x2b332666b190>
 

Memory estimate:
  Process memory now: 40129.41 MiB
  Calculator: 580.26 MiB
    Density: 158.40 MiB
      Arrays: 75.37 MiB
      Localized functions: 52.88 MiB
      Mixer: 30.15 MiB
    Hamiltonian: 57.28 MiB
      Arrays: 55.99 MiB
      XC: 0.00 MiB
      Poisson: 0.00 MiB
      vbar: 1.29 MiB
    Wavefunctions: 364.58 MiB
      Arrays psit_nG: 281.29 MiB
      Eigensolver: 50.83 MiB
      Projections: 1.61 MiB
      Projectors: 18.26 MiB
      PW-descriptor: 12.59 MiB

Total number of cores used: 40
Parallelization over k-points: 40

Number of atoms: 16
Number of atomic orbitals: 84
Number of bands in calculation: 77
Number of valence electrons: 108
Bands to converge: occupied

... initialized

Initializing position-dependent things.

Density initialized from atomic densities
Creating initial wave functions:
  77 bands from LCAO basis set

                                       
                                       
                                       
                                       
                      I                
                            I          
                   I                   
                       Cr  I           
             Cr                        
                 I                     
                         I             
                     I                 
                             I         
               Cr                      
                   I   Cr              
          I                            
                 I                     
                        I              
                                       
                                       
                                       
                                       

Positions:
   0 Cr     0.889135    0.000185   -3.063135    ( 0.0000,  0.0000,  3.4336)
   1 Cr    -2.666158    2.052642   -3.080223    ( 0.0000,  0.0000,  3.4336)
   2 I      1.822012   -2.046247   -4.559876    ( 0.0000,  0.0000, -0.1299)
   3 I     -1.348662    0.216415   -4.560605    ( 0.0000,  0.0000, -0.1299)
   4 I     -4.915070    1.830062   -4.560598    ( 0.0000,  0.0000, -0.1299)
   5 I     -0.074828   -2.063434   -1.594960    ( 0.0000,  0.0000, -0.1299)
   6 I     -0.416551    1.865690   -1.594231    ( 0.0000,  0.0000, -0.1299)
   7 I      3.157525    0.187989   -1.594234    ( 0.0000,  0.0000, -0.1299)
   8 Cr    -2.666887   -2.052642    3.080226    ( 0.0000,  0.0000,  3.4336)
   9 Cr     0.888546   -0.000185    3.063139    ( 0.0000,  0.0000,  3.4336)
  10 I      1.852510    2.063434    1.594959    ( 0.0000,  0.0000, -0.1299)
  11 I      2.194233   -1.865690    1.594230    ( 0.0000,  0.0000, -0.1299)
  12 I     -1.379843   -0.197989    1.594233    ( 0.0000,  0.0000, -0.1299)
  13 I     -0.044330    2.046247    4.559875    ( 0.0000,  0.0000, -0.1299)
  14 I      3.126343   -0.216415    4.560604    ( 0.0000,  0.0000, -0.1299)
  15 I     -0.417976   -1.830062    4.560597    ( 0.0000,  0.0000, -0.1299)

Unit cell:
           periodic     x           y           z      points  spacing
  1. axis:    yes    7.110727   -0.000000    0.000000    42     0.1466
  2. axis:    yes   -3.555363    6.158070    0.000000    42     0.1466
  3. axis:    no     0.000000   -0.000000   27.269192   160     0.1704

  Lengths:   7.110727   7.110727  27.269192
  Angles:   90.000000  90.000000 120.000000

Effective grid spacing dv^(1/3) = 0.1617

                     log10-error:           total        iterations:
           time      wfs    density  force  energy       poisson  magmom
iter:   1  09:52:52                        -76.894586             +12.1076
iter:   2  09:53:44  -0.99  -0.91          -70.503578             +9.9646
iter:   3  09:54:36  -1.83  -1.33          -70.497282             +11.0163
iter:   4  09:55:28  -1.59  -1.38          -70.966253             +12.0927
iter:   5  09:56:20  -2.54  -1.51          -70.628523             +12.0159
iter:   6  09:57:12  -1.91  -1.83          -70.402221             +12.0005
iter:   7  09:58:04  -2.97  -2.20          -70.395201             +12.0039
iter:   8  09:58:55  -3.31  -2.32          -70.390078             +12.0056
iter:   9  09:59:47  -3.68  -2.67          -70.391243             +12.0017
iter:  10  10:00:39  -3.86  -2.86          -70.391928             +11.9998
iter:  11  10:01:31  -3.99  -2.94          -70.392502             +12.0000
iter:  12  10:02:23  -3.99  -3.03          -70.392820             +12.0000
iter:  13  10:03:14  -4.06  -3.10          -70.393028             +12.0000
iter:  14  10:04:06  -4.10  -3.15          -70.393125             +12.0000
iter:  15  10:04:58  -4.20  -3.28          -70.393284             +12.0000
iter:  16  10:05:50  -4.34  -3.32          -70.393406             +12.0000
iter:  17  10:06:42  -4.62  -3.38          -70.393468             +12.0000
iter:  18  10:07:33  -4.77  -3.55          -70.393538             +12.0000
iter:  19  10:08:25  -4.90  -3.65          -70.393586             +12.0000
iter:  20  10:09:17  -5.01  -3.72          -70.393627             +12.0000
iter:  21  10:10:09  -5.19  -4.14          -70.393653             +12.0000
iter:  22  10:11:01  -5.16  -4.19          -70.393674             +12.0000
iter:  23  10:11:53  -5.22  -4.17          -70.393689             +12.0000
iter:  24  10:12:44  -5.45  -4.14          -70.393700             +12.0000
iter:  25  10:13:36  -5.63  -4.13          -70.393709             +12.0000
iter:  26  10:14:28  -5.70  -4.13          -70.393716             +12.0000
iter:  27  10:15:20  -5.80  -4.11          -70.393719             +12.0000
iter:  28  10:16:12  -5.95  -4.18          -70.393722             +12.0000
iter:  29  10:17:04  -6.17  -4.13          -70.393725             +12.0000
iter:  30  10:17:56  -6.20  -4.06          -70.393729             +12.0000
iter:  31  10:18:47  -6.44  -4.02          -70.393731             +12.0000
iter:  32  10:19:39  -6.54  -4.02          -70.393729             +12.0000
iter:  33  10:20:31  -6.69  -4.09          -70.393732             +12.0000
iter:  34  10:21:23  -6.70  -4.02          -70.393732             +12.0000
iter:  35  10:22:15  -6.75  -4.04          -70.393730             +12.0000
iter:  36  10:23:07  -7.08  -4.15          -70.393730             +12.0000
iter:  37  10:23:58  -7.18  -4.21          -70.393730             +12.0000
iter:  38  10:24:50  -7.33  -4.25          -70.393730             +12.0000
iter:  39  10:25:52  -7.55  -4.28          -70.393730             +12.0000
iter:  40  10:26:55  -7.70  -4.33    -2.86 -70.393730             +12.0000
iter:  41  10:27:57  -7.67  -4.42    -2.94 -70.393729             +12.0000
iter:  42  10:29:00  -7.84  -4.54    -3.23 -70.393729             +12.0000
iter:  43  10:30:03  -7.95  -4.59    -3.39 -70.393729             +12.0000
iter:  44  10:31:06  -8.18  -5.18    -3.50 -70.393729             +12.0000
iter:  45  10:32:08  -8.23  -5.33    -3.69 -70.393729             +12.0000
iter:  46  10:33:11  -8.35  -5.46    -4.00 -70.393729             +12.0000
iter:  47  10:34:14  -8.48  -5.53    -4.27 -70.393729             +12.0000

Converged after 47 iterations.

Dipole moment: (-31.774061, 0.350732, -0.004975) |e|*Ang

Total magnetic moment: (0.000000, 0.000000, 12.000000)
Local magnetic moments:
   0 Cr ( 0.000000,  0.000000,  2.910982)
   1 Cr ( 0.000000,  0.000000,  2.917193)
   2 I  ( 0.000000,  0.000000, -0.047264)
   3 I  ( 0.000000,  0.000000, -0.047006)
   4 I  ( 0.000000,  0.000000, -0.046865)
   5 I  ( 0.000000,  0.000000, -0.049721)
   6 I  ( 0.000000,  0.000000, -0.049631)
   7 I  ( 0.000000,  0.000000, -0.049910)
   8 Cr ( 0.000000,  0.000000,  2.915314)
   9 Cr ( 0.000000,  0.000000,  2.911191)
  10 I  ( 0.000000,  0.000000, -0.049686)
  11 I  ( 0.000000,  0.000000, -0.049672)
  12 I  ( 0.000000,  0.000000, -0.049684)
  13 I  ( 0.000000,  0.000000, -0.046973)
  14 I  ( 0.000000,  0.000000, -0.046953)
  15 I  ( 0.000000,  0.000000, -0.046953)

Energy contributions relative to reference atoms: (reference = -2434708.556191)

Kinetic:        +23.114003
Potential:      -37.112810
External:        +0.000000
XC:             -56.570041
Entropy (-ST):   -0.000000
Local:           +0.175118
--------------------------
Free energy:    -70.393729
Extrapolated:   -70.393729

Spin contamination: 1.120590 electrons
Showing only first 2 kpts
                      Up                     Down
 Kpt  Band  Eigenvalues  Occupancy  Eigenvalues  Occupancy
  0    52     -2.13936    1.00000     -0.01201    0.00000
  0    53     -2.10291    1.00000      0.00392    0.00000
  0    54     -2.01952    1.00000      0.18063    0.00000
  0    55     -2.01856    1.00000      0.21127    0.00000

  1    52     -2.11876    1.00000     -0.01923    0.00000
  1    53     -2.07367    1.00000      0.01933    0.00000
  1    54     -2.02022    1.00000      0.17026    0.00000
  1    55     -1.99001    1.00000      0.20904    0.00000


Fermi level: -1.19451

Gap: 0.970 eV
Transition (v -> c):
  (s=0, k=11, n=59, [-0.46, 0.46, 0.00]) -> (s=0, k=72, n=60, [0.04, -0.46, 0.00])
Writing to born-0.01-7y-.gpw (mode='all')

Timing:                              incl.     excl.
-----------------------------------------------------------
Hamiltonian:                         2.713     0.011   0.0% |
 Atomic:                             1.218     1.218   0.0% |
  XC Correction:                     0.000     0.000   0.0% |
 Calculate atomic Hamiltonians:      0.327     0.327   0.0% |
 Communicate:                        0.000     0.000   0.0% |
 Initialize Hamiltonian:             0.004     0.004   0.0% |
 Poisson:                            0.012     0.012   0.0% |
 XC 3D grid:                         1.141     1.141   0.0% |
LCAO initialization:                21.176     0.141   0.0% |
 LCAO eigensolver:                   3.328     0.001   0.0% |
  Calculate projections:             0.004     0.004   0.0% |
  DenseAtomicCorrection:             0.005     0.005   0.0% |
  Distribute overlap matrix:         0.000     0.000   0.0% |
  Orbital Layouts:                   0.016     0.016   0.0% |
  Potential matrix:                  3.291     3.291   0.1% |
  Sum over cells:                    0.012     0.012   0.0% |
 LCAO to grid:                      17.426    17.426   0.3% |
 Set positions (LCAO WFS):           0.281     0.051   0.0% |
  Basic WFS set positions:           0.001     0.001   0.0% |
  Basis functions set positions:     0.000     0.000   0.0% |
  P tci:                             0.123     0.123   0.0% |
  ST tci:                            0.064     0.064   0.0% |
  mktci:                             0.043     0.043   0.0% |
PWDescriptor:                        0.088     0.088   0.0% |
SCF-cycle:                        2534.050   593.657  10.4% |---|
 Davidson:                        1503.634   253.782   4.4% |-|
  Apply H:                         248.542   240.934   4.2% |-|
   HMM T:                            7.608     7.608   0.1% |
  Subspace diag:                   308.619     0.063   0.0% |
   calc_h_matrix:                  271.964    22.039   0.4% |
    Apply H:                       249.924   241.789   4.2% |-|
     HMM T:                          8.136     8.136   0.1% |
   diagonalize:                      0.580     0.580   0.0% |
   rotate_psi:                      36.012    36.012   0.6% |
  calc. matrices:                  624.383   126.614   2.2% ||
   Apply H:                        497.768   482.170   8.4% |--|
    HMM T:                          15.598    15.598   0.3% |
  diagonalize:                       5.509     5.509   0.1% |
  rotate_psi:                       62.800    62.800   1.1% |
 Density:                          251.316     0.002   0.0% |
  Atomic density matrices:           0.341     0.341   0.0% |
  Mix:                              41.486    41.486   0.7% |
  Multipole moments:                 0.021     0.021   0.0% |
  Pseudo density:                  209.465   209.462   3.7% ||
   Symmetrize density:               0.003     0.003   0.0% |
 Forces:                            88.885    88.885   1.6% ||
 Hamiltonian:                       94.949     0.579   0.0% |
  Atomic:                            7.605     7.605   0.1% |
   XC Correction:                    0.000     0.000   0.0% |
  Calculate atomic Hamiltonians:    30.287    30.287   0.5% |
  Communicate:                       0.007     0.007   0.0% |
  Poisson:                           0.535     0.535   0.0% |
  XC 3D grid:                       55.935    55.935   1.0% |
 Orthonormalize:                     1.609     0.001   0.0% |
  calc_s_matrix:                     0.210     0.210   0.0% |
  inverse-cholesky:                  0.004     0.004   0.0% |
  projections:                       0.980     0.980   0.0% |
  rotate_psi_s:                      0.413     0.413   0.0% |
Set symmetry:                        0.000     0.000   0.0% |
Other:                            3170.900  3170.900  55.3% |---------------------|
-----------------------------------------------------------
Total:                                      5728.926 100.0%

Memory usage: 39.19 GiB
Date: Mon Jun 27 11:27:01 2022
