
  ___ ___ ___ _ _ _  
 |   |   |_  | | | | 
 | | | | | . | | | | 
 |__ |  _|___|_____|  21.6.1b1
 |___|_|             

User:   madkru@c007.nifl.fysik.dtu.dk
Date:   Wed Jun 29 09:53:30 2022
Arch:   x86_64
Pid:    215850
Python: 3.8.6
gpaw:   /home/niflheim/madkru/new_venv/gpaw/gpaw (1f0dfc9eae)
_gpaw:  /home/niflheim/madkru/new_venv/gpaw/build/lib.linux-x86_64-skylake-3.8/
        _gpaw.cpython-38-x86_64-linux-gnu.so (c1e45bfab3)
ase:    /home/niflheim/madkru/new_venv/ase/ase (version 3.23.0b1-ca38c75a67)
numpy:  /home/modules/software/SciPy-bundle/2020.11-foss-2020b/lib/python3.8/site-packages/numpy (version 1.19.4)
scipy:  /home/modules/software/SciPy-bundle/2020.11-foss-2020b/lib/python3.8/site-packages/scipy (version 1.5.4)
libxc:  4.3.4
units:  Angstrom and eV
cores: 40
OpenMP: False
OMP_NUM_THREADS: 1

Input parameters:
  convergence: {bands: occupied,
                density: 0.0001,
                eigenstates: 4e-08,
                energy: 0.0005,
                forces: 0.0001}
  kpts: [12 12  1]
  mode: {ecut: 600.0,
         gammacentered: False,
         name: pw}
  occupations: {fixmagmom: False,
                name: fermi-dirac,
                width: 0.001}
  symmetry: {point_group: False,
             time_reversal: False}

System changes: positions, numbers, cell, pbc, initial_charges, initial_magmoms 

Initialize ...

Cr-setup:
  name: Chromium
  id: 444e8044bc0f91048286c984738d87f5
  Z: 24.0
  valence: 6
  core: 18
  charge: 0.0
  file: /home/modules/software/GPAW-setups/0.9.20000/Cr.LDA.gz
  compensation charges: gauss, rc=0.35, lmax=2
  cutoffs: 2.14(filt), 3.04(core),
  valence states:
                energy  radius
    4s(1.00)    -4.191   1.164
    4p(0.00)    -1.079   1.217
    3d(5.00)    -3.128   1.111
    *s          23.021   1.164
    *p          26.132   1.217
    *d          24.083   1.111

  Using partial waves for Cr as LCAO basis

I-setup:
  name: Iodine
  id: b559721c0c096a7b4c8fc0e0f4de5cf4
  Z: 53.0
  valence: 7
  core: 46
  charge: 0.0
  file: /home/modules/software/GPAW-setups/0.9.20000/I.LDA.gz
  compensation charges: gauss, rc=0.37, lmax=2
  cutoffs: 2.06(filt), 2.90(core),
  valence states:
                energy  radius
    5s(2.00)   -17.626   1.164
    5p(5.00)    -7.241   1.164
    *s           9.585   1.164
    *p          19.970   1.164
    *d           0.000   1.164

  Using partial waves for I as LCAO basis

Reference energy: -2434708.556191

Spin-polarized calculation.
Magnetic moment: 12.175341

Convergence criteria:
  Maximum total energy change: 0.0005 eV / electron
  Maximum integral of absolute density change: 0.0001 electrons
  Maximum integral of absolute eigenstate change: 4e-08 eV^2
  Maximum change in atomic force: 0.0001 eV / Ang
  Maximum number of iterations: 333

Symmetries present (total): 1

  ( 1  0  0)
  ( 0  1  0)
  ( 0  0  1)

144 k-points: 12 x 12 x 1 Monkhorst-Pack grid
144 k-points in the irreducible part of the Brillouin zone
       k-points in crystal coordinates                weights
   0:    -0.45833333   -0.45833333    0.00000000          1/144
   1:    -0.45833333   -0.37500000    0.00000000          1/144
   2:    -0.45833333   -0.29166667    0.00000000          1/144
   3:    -0.45833333   -0.20833333    0.00000000          1/144
   4:    -0.45833333   -0.12500000    0.00000000          1/144
   5:    -0.45833333   -0.04166667    0.00000000          1/144
   6:    -0.45833333    0.04166667    0.00000000          1/144
   7:    -0.45833333    0.12500000    0.00000000          1/144
   8:    -0.45833333    0.20833333    0.00000000          1/144
   9:    -0.45833333    0.29166667    0.00000000          1/144
          ...
 143:     0.45833333    0.45833333    0.00000000          1/144

Wave functions: Plane wave expansion
  Cutoff energy: 600.000 eV
  Number of coefficients (min, max): 39797, 39902
  Pulay-stress correction: 0.000000 eV/Ang^3 (de/decut=0.000000)
  Using FFTW library
  ScaLapack parameters: grid=1x1, blocksize=None
  Wavefunction extrapolation:
    Improved wavefunction reuse through dual PAW basis 

Occupation numbers: Fermi-Dirac: width=0.0010 eV
 

Eigensolver
   Davidson(niter=2) 

Densities:
  Coarse grid: 42*42*160 grid
  Fine grid: 84*84*320 grid
  Total Charge: 0.000000 

Density mixing:
  Method: difference
  Backend: pulay
  Linear mixing parameter: 0.05
  Mixing with 5 old densities
  Damping of long wave oscillations: 50 

Hamiltonian:
  XC and Coulomb potentials evaluated on a 84*84*320 grid
  Using the LDA Exchange-Correlation functional
  External potential:
    <gpaw.external.NoExternalPotential object at 0x2b8971d9a460>
 

Memory estimate:
  Process memory now: 40164.96 MiB
  Calculator: 580.26 MiB
    Density: 158.40 MiB
      Arrays: 75.37 MiB
      Localized functions: 52.88 MiB
      Mixer: 30.15 MiB
    Hamiltonian: 57.28 MiB
      Arrays: 55.99 MiB
      XC: 0.00 MiB
      Poisson: 0.00 MiB
      vbar: 1.29 MiB
    Wavefunctions: 364.58 MiB
      Arrays psit_nG: 281.29 MiB
      Eigensolver: 50.83 MiB
      Projections: 1.61 MiB
      Projectors: 18.26 MiB
      PW-descriptor: 12.59 MiB

Total number of cores used: 40
Parallelization over k-points: 40

Number of atoms: 16
Number of atomic orbitals: 84
Number of bands in calculation: 77
Number of valence electrons: 108
Bands to converge: occupied

... initialized

Initializing position-dependent things.

Density initialized from atomic densities
Creating initial wave functions:
  77 bands from LCAO basis set

                                       
                                       
                                       
                                       
                      I                
                            I          
                   I                   
                       Cr  I           
             Cr                        
                 I                     
                         I             
                     I                 
                             I         
               Cr                      
                   I   Cr              
          I                            
                 I                     
                        I              
                                       
                                       
                                       
                                       

Positions:
   0 Cr     0.889135    0.000185   -3.063135    ( 0.0000,  0.0000,  3.4336)
   1 Cr    -2.666158    2.052642   -3.080223    ( 0.0000,  0.0000,  3.4336)
   2 I      1.822012   -2.046247   -4.559876    ( 0.0000,  0.0000, -0.1299)
   3 I     -1.348662    0.216415   -4.560605    ( 0.0000,  0.0000, -0.1299)
   4 I     -4.915070    1.830062   -4.560598    ( 0.0000,  0.0000, -0.1299)
   5 I     -0.074828   -2.063434   -1.594960    ( 0.0000,  0.0000, -0.1299)
   6 I     -0.416551    1.865690   -1.594231    ( 0.0000,  0.0000, -0.1299)
   7 I      3.157525    0.197989   -1.594234    ( 0.0000,  0.0000, -0.1299)
   8 Cr    -2.666887   -2.052642    3.080226    ( 0.0000,  0.0000,  3.4336)
   9 Cr     0.888546   -0.000185    3.063139    ( 0.0000,  0.0000,  3.4336)
  10 I      1.852510    2.063434    1.594959    ( 0.0000,  0.0000, -0.1299)
  11 I      2.194233   -1.865690    1.594230    ( 0.0000,  0.0000, -0.1299)
  12 I     -1.379843   -0.197989    1.594233    ( 0.0000,  0.0000, -0.1299)
  13 I     -0.034330    2.046247    4.559875    ( 0.0000,  0.0000, -0.1299)
  14 I      3.126343   -0.216415    4.560604    ( 0.0000,  0.0000, -0.1299)
  15 I     -0.417976   -1.830062    4.560597    ( 0.0000,  0.0000, -0.1299)

Unit cell:
           periodic     x           y           z      points  spacing
  1. axis:    yes    7.110727   -0.000000    0.000000    42     0.1466
  2. axis:    yes   -3.555363    6.158070    0.000000    42     0.1466
  3. axis:    no     0.000000   -0.000000   27.269192   160     0.1704

  Lengths:   7.110727   7.110727  27.269192
  Angles:   90.000000  90.000000 120.000000

Effective grid spacing dv^(1/3) = 0.1617

                     log10-error:           total        iterations:
           time      wfs    density  force  energy       poisson  magmom
iter:   1  09:54:50                        -76.906795             +12.1076
iter:   2  09:55:42  -0.99  -0.91          -70.503409             +9.9584
iter:   3  09:56:34  -1.83  -1.33          -70.497101             +11.0132
iter:   4  09:57:26  -1.58  -1.38          -70.968101             +12.0928
iter:   5  09:58:17  -2.53  -1.51          -70.629126             +12.0160
iter:   6  09:59:09  -1.91  -1.83          -70.402226             +12.0006
iter:   7  10:00:01  -2.97  -2.20          -70.395377             +12.0040
iter:   8  10:00:53  -3.31  -2.31          -70.390127             +12.0056
iter:   9  10:01:45  -3.68  -2.67          -70.391283             +12.0017
iter:  10  10:02:37  -3.86  -2.86          -70.391967             +11.9997
iter:  11  10:03:29  -3.99  -2.94          -70.392541             +12.0000
iter:  12  10:04:21  -3.99  -3.03          -70.392856             +12.0000
iter:  13  10:05:13  -4.05  -3.10          -70.393067             +12.0000
iter:  14  10:06:04  -4.10  -3.14          -70.393168             +12.0000
iter:  15  10:06:56  -4.19  -3.26          -70.393330             +12.0000
iter:  16  10:07:48  -4.34  -3.32          -70.393449             +12.0000
iter:  17  10:08:40  -4.60  -3.39          -70.393508             +12.0000
iter:  18  10:09:32  -4.75  -3.55          -70.393578             +12.0000
iter:  19  10:10:24  -4.88  -3.67          -70.393625             +12.0000
iter:  20  10:11:16  -4.99  -3.73          -70.393668             +12.0000
iter:  21  10:12:08  -5.16  -4.07          -70.393695             +12.0000
iter:  22  10:13:01  -5.17  -4.13          -70.393715             +12.0000
iter:  23  10:13:53  -5.28  -4.11          -70.393731             +12.0000
iter:  24  10:14:45  -5.51  -4.11          -70.393742             +12.0000
iter:  25  10:15:37  -5.59  -4.08          -70.393750             +12.0000
iter:  26  10:16:29  -5.79  -4.10          -70.393758             +12.0000
iter:  27  10:17:21  -5.92  -4.05          -70.393763             +12.0000
iter:  28  10:18:13  -6.16  -4.15          -70.393766             +12.0000
iter:  29  10:19:06  -6.34  -4.08          -70.393767             +12.0000
iter:  30  10:19:58  -6.33  -4.20          -70.393768             +12.0000
iter:  31  10:20:50  -6.55  -4.17          -70.393770             +12.0000
iter:  32  10:21:42  -6.74  -4.22          -70.393771             +12.0000
iter:  33  10:22:34  -6.90  -4.26          -70.393770             +12.0000
iter:  34  10:23:27  -6.90  -4.35          -70.393770             +12.0000
iter:  35  10:24:19  -7.25  -4.66          -70.393770             +12.0000
iter:  36  10:25:11  -7.34  -4.76          -70.393770             +12.0000
iter:  37  10:26:13  -7.49  -4.89          -70.393770             +12.0000
iter:  38  10:27:16  -7.59  -5.07    -3.39 -70.393770             +12.0000
iter:  39  10:28:18  -7.66  -5.24    -4.04 -70.393770             +12.0000

Converged after 39 iterations.

Dipole moment: (-31.462830, -0.000825, 0.000036) |e|*Ang

Total magnetic moment: (0.000000, 0.000000, 12.000000)
Local magnetic moments:
   0 Cr ( 0.000000,  0.000000,  2.911269)
   1 Cr ( 0.000000,  0.000000,  2.915409)
   2 I  ( 0.000000,  0.000000, -0.046974)
   3 I  ( 0.000000,  0.000000, -0.046937)
   4 I  ( 0.000000,  0.000000, -0.046951)
   5 I  ( 0.000000,  0.000000, -0.049665)
   6 I  ( 0.000000,  0.000000, -0.049627)
   7 I  ( 0.000000,  0.000000, -0.049662)
   8 Cr ( 0.000000,  0.000000,  2.914705)
   9 Cr ( 0.000000,  0.000000,  2.910566)
  10 I  ( 0.000000,  0.000000, -0.049774)
  11 I  ( 0.000000,  0.000000, -0.049433)
  12 I  ( 0.000000,  0.000000, -0.049439)
  13 I  ( 0.000000,  0.000000, -0.046719)
  14 I  ( 0.000000,  0.000000, -0.046907)
  15 I  ( 0.000000,  0.000000, -0.046918)

Energy contributions relative to reference atoms: (reference = -2434708.556191)

Kinetic:        +23.460521
Potential:      -37.396962
External:        +0.000000
XC:             -56.629447
Entropy (-ST):   -0.000000
Local:           +0.172118
--------------------------
Free energy:    -70.393770
Extrapolated:   -70.393770

Spin contamination: 1.118686 electrons
Showing only first 2 kpts
                      Up                     Down
 Kpt  Band  Eigenvalues  Occupancy  Eigenvalues  Occupancy
  0    52     -2.13759    1.00000     -0.01161    0.00000
  0    53     -2.10147    1.00000      0.00406    0.00000
  0    54     -2.01835    1.00000      0.18104    0.00000
  0    55     -2.01694    1.00000      0.21173    0.00000

  1    52     -2.11678    1.00000     -0.01811    0.00000
  1    53     -2.07301    1.00000      0.01988    0.00000
  1    54     -2.01874    1.00000      0.17092    0.00000
  1    55     -1.98820    1.00000      0.20986    0.00000


Fermi level: -1.18607

Gap: 0.971 eV
Transition (v -> c):
  (s=0, k=132, n=59, [0.46, -0.46, 0.00]) -> (s=0, k=126, n=60, [0.38, 0.04, 0.00])
Writing to born-0.01-13x+.gpw (mode='all')

Timing:                              incl.     excl.
-----------------------------------------------------------
Hamiltonian:                         2.878     0.010   0.0% |
 Atomic:                             1.384     1.384   0.0% |
  XC Correction:                     0.000     0.000   0.0% |
 Calculate atomic Hamiltonians:      0.327     0.327   0.0% |
 Communicate:                        0.000     0.000   0.0% |
 Initialize Hamiltonian:             0.004     0.004   0.0% |
 Poisson:                            0.013     0.013   0.0% |
 XC 3D grid:                         1.139     1.139   0.0% |
LCAO initialization:                20.418     0.141   0.0% |
 LCAO eigensolver:                   3.057     0.001   0.0% |
  Calculate projections:             0.004     0.004   0.0% |
  DenseAtomicCorrection:             0.005     0.005   0.0% |
  Distribute overlap matrix:         0.000     0.000   0.0% |
  Orbital Layouts:                   0.016     0.016   0.0% |
  Potential matrix:                  3.021     3.021   0.1% |
  Sum over cells:                    0.011     0.011   0.0% |
 LCAO to grid:                      16.905    16.905   0.3% |
 Set positions (LCAO WFS):           0.314     0.050   0.0% |
  Basic WFS set positions:           0.001     0.001   0.0% |
  Basis functions set positions:     0.000     0.000   0.0% |
  P tci:                             0.155     0.155   0.0% |
  ST tci:                            0.065     0.065   0.0% |
  mktci:                             0.043     0.043   0.0% |
PWDescriptor:                        0.087     0.087   0.0% |
SCF-cycle:                        2061.472   463.584   8.8% |---|
 Davidson:                        1284.898   203.118   3.9% |-|
  Apply H:                         227.032   221.137   4.2% |-|
   HMM T:                            5.895     5.895   0.1% |
  Subspace diag:                   270.716     0.060   0.0% |
   calc_h_matrix:                  239.950    17.039   0.3% |
    Apply H:                       222.911   216.452   4.1% |-|
     HMM T:                          6.460     6.460   0.1% |
   diagonalize:                      0.493     0.493   0.0% |
   rotate_psi:                      30.213    30.213   0.6% |
  calc. matrices:                  524.648    96.853   1.8% ||
   Apply H:                        427.795   416.121   7.9% |--|
    HMM T:                          11.673    11.673   0.2% |
  diagonalize:                       4.652     4.652   0.1% |
  rotate_psi:                       54.732    54.732   1.0% |
 Density:                          204.731     0.002   0.0% |
  Atomic density matrices:           0.290     0.290   0.0% |
  Mix:                              35.678    35.678   0.7% |
  Multipole moments:                 0.019     0.019   0.0% |
  Pseudo density:                  168.742   168.739   3.2% ||
   Symmetrize density:               0.003     0.003   0.0% |
 Forces:                            29.197    29.197   0.6% |
 Hamiltonian:                       77.326     0.629   0.0% |
  Atomic:                            4.484     4.484   0.1% |
   XC Correction:                    0.000     0.000   0.0% |
  Calculate atomic Hamiltonians:    25.286    25.286   0.5% |
  Communicate:                       0.007     0.007   0.0% |
  Poisson:                           0.504     0.504   0.0% |
  XC 3D grid:                       46.415    46.415   0.9% |
 Orthonormalize:                     1.735     0.002   0.0% |
  calc_s_matrix:                     0.233     0.233   0.0% |
  inverse-cholesky:                  0.004     0.004   0.0% |
  projections:                       1.053     1.053   0.0% |
  rotate_psi_s:                      0.443     0.443   0.0% |
Set symmetry:                        0.000     0.000   0.0% |
Other:                            3166.697  3166.697  60.3% |-----------------------|
-----------------------------------------------------------
Total:                                      5251.551 100.0%

Memory usage: 39.22 GiB
Date: Wed Jun 29 11:21:01 2022
