
  ___ ___ ___ _ _ _  
 |   |   |_  | | | | 
 | | | | | . | | | | 
 |__ |  _|___|_____|  21.6.1b1
 |___|_|             

User:   madkru@c007.nifl.fysik.dtu.dk
Date:   Wed Jun 29 22:32:15 2022
Arch:   x86_64
Pid:    215850
Python: 3.8.6
gpaw:   /home/niflheim/madkru/new_venv/gpaw/gpaw (1f0dfc9eae)
_gpaw:  /home/niflheim/madkru/new_venv/gpaw/build/lib.linux-x86_64-skylake-3.8/
        _gpaw.cpython-38-x86_64-linux-gnu.so (c1e45bfab3)
ase:    /home/niflheim/madkru/new_venv/ase/ase (version 3.23.0b1-ca38c75a67)
numpy:  /home/modules/software/SciPy-bundle/2020.11-foss-2020b/lib/python3.8/site-packages/numpy (version 1.19.4)
scipy:  /home/modules/software/SciPy-bundle/2020.11-foss-2020b/lib/python3.8/site-packages/scipy (version 1.5.4)
libxc:  4.3.4
units:  Angstrom and eV
cores: 40
OpenMP: False
OMP_NUM_THREADS: 1

Input parameters:
  convergence: {bands: occupied,
                density: 0.0001,
                eigenstates: 4e-08,
                energy: 0.0005,
                forces: 0.0001}
  kpts: [12 12  1]
  mode: {ecut: 600.0,
         gammacentered: False,
         name: pw}
  occupations: {fixmagmom: False,
                name: fermi-dirac,
                width: 0.001}
  symmetry: {point_group: False,
             time_reversal: False}

System changes: positions, numbers, cell, pbc, initial_charges, initial_magmoms 

Initialize ...

Cr-setup:
  name: Chromium
  id: 444e8044bc0f91048286c984738d87f5
  Z: 24.0
  valence: 6
  core: 18
  charge: 0.0
  file: /home/modules/software/GPAW-setups/0.9.20000/Cr.LDA.gz
  compensation charges: gauss, rc=0.35, lmax=2
  cutoffs: 2.14(filt), 3.04(core),
  valence states:
                energy  radius
    4s(1.00)    -4.191   1.164
    4p(0.00)    -1.079   1.217
    3d(5.00)    -3.128   1.111
    *s          23.021   1.164
    *p          26.132   1.217
    *d          24.083   1.111

  Using partial waves for Cr as LCAO basis

I-setup:
  name: Iodine
  id: b559721c0c096a7b4c8fc0e0f4de5cf4
  Z: 53.0
  valence: 7
  core: 46
  charge: 0.0
  file: /home/modules/software/GPAW-setups/0.9.20000/I.LDA.gz
  compensation charges: gauss, rc=0.37, lmax=2
  cutoffs: 2.06(filt), 2.90(core),
  valence states:
                energy  radius
    5s(2.00)   -17.626   1.164
    5p(5.00)    -7.241   1.164
    *s           9.585   1.164
    *p          19.970   1.164
    *d           0.000   1.164

  Using partial waves for I as LCAO basis

Reference energy: -2434708.556191

Spin-polarized calculation.
Magnetic moment: 12.175341

Convergence criteria:
  Maximum total energy change: 0.0005 eV / electron
  Maximum integral of absolute density change: 0.0001 electrons
  Maximum integral of absolute eigenstate change: 4e-08 eV^2
  Maximum change in atomic force: 0.0001 eV / Ang
  Maximum number of iterations: 333

Symmetries present (total): 1

  ( 1  0  0)
  ( 0  1  0)
  ( 0  0  1)

144 k-points: 12 x 12 x 1 Monkhorst-Pack grid
144 k-points in the irreducible part of the Brillouin zone
       k-points in crystal coordinates                weights
   0:    -0.45833333   -0.45833333    0.00000000          1/144
   1:    -0.45833333   -0.37500000    0.00000000          1/144
   2:    -0.45833333   -0.29166667    0.00000000          1/144
   3:    -0.45833333   -0.20833333    0.00000000          1/144
   4:    -0.45833333   -0.12500000    0.00000000          1/144
   5:    -0.45833333   -0.04166667    0.00000000          1/144
   6:    -0.45833333    0.04166667    0.00000000          1/144
   7:    -0.45833333    0.12500000    0.00000000          1/144
   8:    -0.45833333    0.20833333    0.00000000          1/144
   9:    -0.45833333    0.29166667    0.00000000          1/144
          ...
 143:     0.45833333    0.45833333    0.00000000          1/144

Wave functions: Plane wave expansion
  Cutoff energy: 600.000 eV
  Number of coefficients (min, max): 39797, 39902
  Pulay-stress correction: 0.000000 eV/Ang^3 (de/decut=0.000000)
  Using FFTW library
  ScaLapack parameters: grid=1x1, blocksize=None
  Wavefunction extrapolation:
    Improved wavefunction reuse through dual PAW basis 

Occupation numbers: Fermi-Dirac: width=0.0010 eV
 

Eigensolver
   Davidson(niter=2) 

Densities:
  Coarse grid: 42*42*160 grid
  Fine grid: 84*84*320 grid
  Total Charge: 0.000000 

Density mixing:
  Method: difference
  Backend: pulay
  Linear mixing parameter: 0.05
  Mixing with 5 old densities
  Damping of long wave oscillations: 50 

Hamiltonian:
  XC and Coulomb potentials evaluated on a 84*84*320 grid
  Using the LDA Exchange-Correlation functional
  External potential:
    <gpaw.external.NoExternalPotential object at 0x2b896edcd1c0>
 

Memory estimate:
  Process memory now: 40294.80 MiB
  Calculator: 580.26 MiB
    Density: 158.40 MiB
      Arrays: 75.37 MiB
      Localized functions: 52.88 MiB
      Mixer: 30.15 MiB
    Hamiltonian: 57.28 MiB
      Arrays: 55.99 MiB
      XC: 0.00 MiB
      Poisson: 0.00 MiB
      vbar: 1.29 MiB
    Wavefunctions: 364.58 MiB
      Arrays psit_nG: 281.29 MiB
      Eigensolver: 50.83 MiB
      Projections: 1.61 MiB
      Projectors: 18.26 MiB
      PW-descriptor: 12.59 MiB

Total number of cores used: 40
Parallelization over k-points: 40

Number of atoms: 16
Number of atomic orbitals: 84
Number of bands in calculation: 77
Number of valence electrons: 108
Bands to converge: occupied

... initialized

Initializing position-dependent things.

Density initialized from atomic densities
Creating initial wave functions:
  77 bands from LCAO basis set

                                       
                                       
                                       
                                       
                      I                
                            I          
                   I                   
                       Cr  I           
             Cr                        
                 I                     
                         I             
                     I                 
                             I         
               Cr                      
                   I   Cr              
          I                            
                 I                     
                        I              
                                       
                                       
                                       
                                       

Positions:
   0 Cr     0.889135    0.000185   -3.063135    ( 0.0000,  0.0000,  3.4336)
   1 Cr    -2.666158    2.052642   -3.080223    ( 0.0000,  0.0000,  3.4336)
   2 I      1.822012   -2.046247   -4.559876    ( 0.0000,  0.0000, -0.1299)
   3 I     -1.348662    0.216415   -4.560605    ( 0.0000,  0.0000, -0.1299)
   4 I     -4.915070    1.830062   -4.560598    ( 0.0000,  0.0000, -0.1299)
   5 I     -0.074828   -2.063434   -1.594960    ( 0.0000,  0.0000, -0.1299)
   6 I     -0.416551    1.865690   -1.594231    ( 0.0000,  0.0000, -0.1299)
   7 I      3.157525    0.197989   -1.594234    ( 0.0000,  0.0000, -0.1299)
   8 Cr    -2.666887   -2.052642    3.080226    ( 0.0000,  0.0000,  3.4336)
   9 Cr     0.888546   -0.000185    3.063139    ( 0.0000,  0.0000,  3.4336)
  10 I      1.852510    2.063434    1.594959    ( 0.0000,  0.0000, -0.1299)
  11 I      2.194233   -1.865690    1.594230    ( 0.0000,  0.0000, -0.1299)
  12 I     -1.379843   -0.197989    1.594233    ( 0.0000,  0.0000, -0.1299)
  13 I     -0.044330    2.046247    4.559875    ( 0.0000,  0.0000, -0.1299)
  14 I      3.126343   -0.216415    4.560604    ( 0.0000,  0.0000, -0.1299)
  15 I     -0.417976   -1.820062    4.560597    ( 0.0000,  0.0000, -0.1299)

Unit cell:
           periodic     x           y           z      points  spacing
  1. axis:    yes    7.110727   -0.000000    0.000000    42     0.1466
  2. axis:    yes   -3.555363    6.158070    0.000000    42     0.1466
  3. axis:    no     0.000000   -0.000000   27.269192   160     0.1704

  Lengths:   7.110727   7.110727  27.269192
  Angles:   90.000000  90.000000 120.000000

Effective grid spacing dv^(1/3) = 0.1617

                     log10-error:           total        iterations:
           time      wfs    density  force  energy       poisson  magmom
iter:   1  22:33:36                        -76.905693             +12.1076
iter:   2  22:34:28  -0.99  -0.91          -70.503347             +9.9585
iter:   3  22:35:20  -1.83  -1.33          -70.497071             +11.0132
iter:   4  22:36:12  -1.58  -1.38          -70.968275             +12.0928
iter:   5  22:37:04  -2.53  -1.51          -70.629006             +12.0160
iter:   6  22:37:56  -1.91  -1.83          -70.402218             +12.0006
iter:   7  22:38:48  -2.97  -2.20          -70.395335             +12.0039
iter:   8  22:39:40  -3.31  -2.31          -70.390093             +12.0056
iter:   9  22:40:32  -3.68  -2.67          -70.391248             +12.0017
iter:  10  22:41:24  -3.86  -2.86          -70.391933             +11.9998
iter:  11  22:42:16  -3.99  -2.94          -70.392507             +12.0000
iter:  12  22:43:08  -3.99  -3.03          -70.392821             +12.0000
iter:  13  22:44:01  -4.05  -3.10          -70.393031             +12.0000
iter:  14  22:44:53  -4.10  -3.14          -70.393134             +12.0000
iter:  15  22:45:45  -4.19  -3.26          -70.393296             +12.0000
iter:  16  22:46:37  -4.34  -3.32          -70.393416             +12.0000
iter:  17  22:47:29  -4.60  -3.38          -70.393474             +12.0000
iter:  18  22:48:21  -4.75  -3.56          -70.393544             +12.0000
iter:  19  22:49:13  -4.89  -3.66          -70.393592             +12.0000
iter:  20  22:50:05  -5.00  -3.73          -70.393634             +12.0000
iter:  21  22:50:57  -5.17  -4.16          -70.393660             +12.0000
iter:  22  22:51:49  -5.16  -4.20          -70.393680             +12.0000
iter:  23  22:52:41  -5.26  -4.19          -70.393697             +12.0000
iter:  24  22:53:33  -5.50  -4.14          -70.393708             +12.0000
iter:  25  22:54:25  -5.67  -4.15          -70.393717             +12.0000
iter:  26  22:55:17  -5.75  -4.13          -70.393724             +12.0000
iter:  27  22:56:09  -5.82  -4.12          -70.393727             +12.0000
iter:  28  22:57:01  -5.90  -4.16          -70.393730             +12.0000
iter:  29  22:57:53  -6.18  -4.14          -70.393732             +12.0000
iter:  30  22:58:45  -6.36  -4.13          -70.393735             +12.0000
iter:  31  22:59:37  -6.48  -4.04          -70.393736             +12.0000
iter:  32  23:00:29  -6.42  -4.05          -70.393738             +12.0000
iter:  33  23:01:21  -6.63  -4.08          -70.393737             +12.0000
iter:  34  23:02:13  -7.02  -4.06          -70.393737             +12.0000
iter:  35  23:03:05  -7.16  -4.04          -70.393737             +12.0000
iter:  36  23:03:56  -7.03  -4.09          -70.393738             +12.0000
iter:  37  23:04:48  -7.32  -4.21          -70.393737             +12.0000
iter:  38  23:05:50  -7.44  -4.25          -70.393736             +12.0000
iter:  39  23:06:53  -7.49  -4.34    -2.67 -70.393736             +12.0000
iter:  40  23:07:56  -7.77  -4.58    -2.60 -70.393736             +12.0000
iter:  41  23:08:59  -8.06  -4.89    -3.31 -70.393737             +12.0000
iter:  42  23:10:01  -8.18  -4.94    -3.96 -70.393736             +12.0000
iter:  43  23:11:04  -8.30  -4.96    -4.07 -70.393736             +12.0000

Converged after 43 iterations.

Dipole moment: (-31.546003, 0.010973, 0.000430) |e|*Ang

Total magnetic moment: (0.000000, 0.000000, 12.000000)
Local magnetic moments:
   0 Cr ( 0.000000,  0.000000,  2.911336)
   1 Cr ( 0.000000,  0.000000,  2.915456)
   2 I  ( 0.000000,  0.000000, -0.046982)
   3 I  ( 0.000000,  0.000000, -0.046937)
   4 I  ( 0.000000,  0.000000, -0.046953)
   5 I  ( 0.000000,  0.000000, -0.049684)
   6 I  ( 0.000000,  0.000000, -0.049652)
   7 I  ( 0.000000,  0.000000, -0.049653)
   8 Cr ( 0.000000,  0.000000,  2.915815)
   9 Cr ( 0.000000,  0.000000,  2.909748)
  10 I  ( 0.000000,  0.000000, -0.049362)
  11 I  ( 0.000000,  0.000000, -0.049590)
  12 I  ( 0.000000,  0.000000, -0.049745)
  13 I  ( 0.000000,  0.000000, -0.046921)
  14 I  ( 0.000000,  0.000000, -0.046946)
  15 I  ( 0.000000,  0.000000, -0.046719)

Energy contributions relative to reference atoms: (reference = -2434708.556191)

Kinetic:        +23.369833
Potential:      -37.318465
External:        +0.000000
XC:             -56.619484
Entropy (-ST):   -0.000000
Local:           +0.174379
--------------------------
Free energy:    -70.393736
Extrapolated:   -70.393736

Spin contamination: 1.118818 electrons
Showing only first 2 kpts
                      Up                     Down
 Kpt  Band  Eigenvalues  Occupancy  Eigenvalues  Occupancy
  0    52     -2.13746    1.00000     -0.01137    0.00000
  0    53     -2.10191    1.00000      0.00342    0.00000
  0    54     -2.01846    1.00000      0.18114    0.00000
  0    55     -2.01740    1.00000      0.21148    0.00000

  1    52     -2.11697    1.00000     -0.01827    0.00000
  1    53     -2.07338    1.00000      0.01930    0.00000
  1    54     -2.01891    1.00000      0.17085    0.00000
  1    55     -1.98853    1.00000      0.20949    0.00000


Fermi level: -1.15933

Gap: 0.971 eV
Transition (v -> c):
  (s=0, k=138, n=59, [0.46, 0.04, 0.00]) -> (s=0, k=17, n=60, [-0.38, -0.04, 0.00])
Writing to born-0.01-15y+.gpw (mode='all')

Timing:                              incl.     excl.
-----------------------------------------------------------
Hamiltonian:                         2.819     0.011   0.0% |
 Atomic:                             1.319     1.319   0.0% |
  XC Correction:                     0.000     0.000   0.0% |
 Calculate atomic Hamiltonians:      0.332     0.332   0.0% |
 Communicate:                        0.000     0.000   0.0% |
 Initialize Hamiltonian:             0.004     0.004   0.0% |
 Poisson:                            0.013     0.013   0.0% |
 XC 3D grid:                         1.140     1.140   0.0% |
LCAO initialization:                20.415     0.141   0.0% |
 LCAO eigensolver:                   3.072     0.001   0.0% |
  Calculate projections:             0.004     0.004   0.0% |
  DenseAtomicCorrection:             0.005     0.005   0.0% |
  Distribute overlap matrix:         0.000     0.000   0.0% |
  Orbital Layouts:                   0.016     0.016   0.0% |
  Potential matrix:                  3.035     3.035   0.0% |
  Sum over cells:                    0.011     0.011   0.0% |
 LCAO to grid:                      16.924    16.924   0.3% |
 Set positions (LCAO WFS):           0.279     0.051   0.0% |
  Basic WFS set positions:           0.001     0.001   0.0% |
  Basis functions set positions:     0.000     0.000   0.0% |
  P tci:                             0.123     0.123   0.0% |
  ST tci:                            0.063     0.063   0.0% |
  mktci:                             0.042     0.042   0.0% |
PWDescriptor:                        0.087     0.087   0.0% |
SCF-cycle:                        2301.140   495.635   8.0% |--|
 Davidson:                        1430.596   223.055   3.6% ||
  Apply H:                         251.914   243.570   3.9% |-|
   HMM T:                            8.344     8.344   0.1% |
  Subspace diag:                   302.156     0.063   0.0% |
   calc_h_matrix:                  269.285    18.735   0.3% |
    Apply H:                       250.550   242.021   3.9% |-|
     HMM T:                          8.530     8.530   0.1% |
   diagonalize:                      0.531     0.531   0.0% |
   rotate_psi:                      32.277    32.277   0.5% |
  calc. matrices:                  589.756   104.722   1.7% ||
   Apply H:                        485.034   469.105   7.6% |--|
    HMM T:                          15.930    15.930   0.3% |
  diagonalize:                       5.057     5.057   0.1% |
  rotate_psi:                       58.658    58.658   1.0% |
 Density:                          229.792     0.002   0.0% |
  Atomic density matrices:           0.304     0.304   0.0% |
  Mix:                              39.999    39.999   0.6% |
  Multipole moments:                 0.020     0.020   0.0% |
  Pseudo density:                  189.467   189.463   3.1% ||
   Symmetrize density:               0.004     0.004   0.0% |
 Forces:                            59.319    59.319   1.0% |
 Hamiltonian:                       84.148     0.493   0.0% |
  Atomic:                            3.545     3.545   0.1% |
   XC Correction:                    0.000     0.000   0.0% |
  Calculate atomic Hamiltonians:    28.679    28.679   0.5% |
  Communicate:                       0.008     0.008   0.0% |
  Poisson:                           0.508     0.508   0.0% |
  XC 3D grid:                       50.915    50.915   0.8% |
 Orthonormalize:                     1.650     0.002   0.0% |
  calc_s_matrix:                     0.224     0.224   0.0% |
  inverse-cholesky:                  0.004     0.004   0.0% |
  projections:                       1.005     1.005   0.0% |
  rotate_psi_s:                      0.415     0.415   0.0% |
Set symmetry:                        0.000     0.000   0.0% |
Other:                            3845.534  3845.534  62.3% |------------------------|
-----------------------------------------------------------
Total:                                      6169.996 100.0%

Memory usage: 39.39 GiB
Date: Thu Jun 30 00:15:05 2022
