
  ___ ___ ___ _ _ _  
 |   |   |_  | | | | 
 | | | | | . | | | | 
 |__ |  _|___|_____|  21.6.1b1
 |___|_|             

User:   madkru@c153.nifl.fysik.dtu.dk
Date:   Sun Jun 26 03:26:57 2022
Arch:   x86_64
Pid:    48887
Python: 3.8.6
gpaw:   /home/niflheim/madkru/new_venv/gpaw/gpaw (1f0dfc9eae)
_gpaw:  /home/niflheim/madkru/new_venv/gpaw/build/lib.linux-x86_64-skylake-3.8/
        _gpaw.cpython-38-x86_64-linux-gnu.so (c1e45bfab3)
ase:    /home/niflheim/madkru/new_venv/ase/ase (version 3.23.0b1-ca38c75a67)
numpy:  /home/modules/software/SciPy-bundle/2020.11-foss-2020b/lib/python3.8/site-packages/numpy (version 1.19.4)
scipy:  /home/modules/software/SciPy-bundle/2020.11-foss-2020b/lib/python3.8/site-packages/scipy (version 1.5.4)
libxc:  4.3.4
units:  Angstrom and eV
cores: 40
OpenMP: False
OMP_NUM_THREADS: 1

Input parameters:
  convergence: {bands: occupied,
                density: 0.0001,
                eigenstates: 4e-08,
                energy: 0.0005,
                forces: 0.0001}
  kpts: [12 12  1]
  mode: {ecut: 600.0,
         gammacentered: False,
         name: pw}
  occupations: {fixmagmom: False,
                name: fermi-dirac,
                width: 0.001}
  symmetry: {point_group: False,
             time_reversal: False}

System changes: positions, numbers, cell, pbc, initial_charges, initial_magmoms 

Initialize ...

Cr-setup:
  name: Chromium
  id: 444e8044bc0f91048286c984738d87f5
  Z: 24.0
  valence: 6
  core: 18
  charge: 0.0
  file: /home/modules/software/GPAW-setups/0.9.20000/Cr.LDA.gz
  compensation charges: gauss, rc=0.35, lmax=2
  cutoffs: 2.14(filt), 3.04(core),
  valence states:
                energy  radius
    4s(1.00)    -4.191   1.164
    4p(0.00)    -1.079   1.217
    3d(5.00)    -3.128   1.111
    *s          23.021   1.164
    *p          26.132   1.217
    *d          24.083   1.111

  Using partial waves for Cr as LCAO basis

I-setup:
  name: Iodine
  id: b559721c0c096a7b4c8fc0e0f4de5cf4
  Z: 53.0
  valence: 7
  core: 46
  charge: 0.0
  file: /home/modules/software/GPAW-setups/0.9.20000/I.LDA.gz
  compensation charges: gauss, rc=0.37, lmax=2
  cutoffs: 2.06(filt), 2.90(core),
  valence states:
                energy  radius
    5s(2.00)   -17.626   1.164
    5p(5.00)    -7.241   1.164
    *s           9.585   1.164
    *p          19.970   1.164
    *d           0.000   1.164

  Using partial waves for I as LCAO basis

Reference energy: -2434708.556191

Spin-polarized calculation.
Magnetic moment: 12.175341

Convergence criteria:
  Maximum total energy change: 0.0005 eV / electron
  Maximum integral of absolute density change: 0.0001 electrons
  Maximum integral of absolute eigenstate change: 4e-08 eV^2
  Maximum change in atomic force: 0.0001 eV / Ang
  Maximum number of iterations: 333

Symmetries present (total): 1

  ( 1  0  0)
  ( 0  1  0)
  ( 0  0  1)

144 k-points: 12 x 12 x 1 Monkhorst-Pack grid
144 k-points in the irreducible part of the Brillouin zone
       k-points in crystal coordinates                weights
   0:    -0.45833333   -0.45833333    0.00000000          1/144
   1:    -0.45833333   -0.37500000    0.00000000          1/144
   2:    -0.45833333   -0.29166667    0.00000000          1/144
   3:    -0.45833333   -0.20833333    0.00000000          1/144
   4:    -0.45833333   -0.12500000    0.00000000          1/144
   5:    -0.45833333   -0.04166667    0.00000000          1/144
   6:    -0.45833333    0.04166667    0.00000000          1/144
   7:    -0.45833333    0.12500000    0.00000000          1/144
   8:    -0.45833333    0.20833333    0.00000000          1/144
   9:    -0.45833333    0.29166667    0.00000000          1/144
          ...
 143:     0.45833333    0.45833333    0.00000000          1/144

Wave functions: Plane wave expansion
  Cutoff energy: 600.000 eV
  Number of coefficients (min, max): 39797, 39902
  Pulay-stress correction: 0.000000 eV/Ang^3 (de/decut=0.000000)
  Using FFTW library
  ScaLapack parameters: grid=1x1, blocksize=None
  Wavefunction extrapolation:
    Improved wavefunction reuse through dual PAW basis 

Occupation numbers: Fermi-Dirac: width=0.0010 eV
 

Eigensolver
   Davidson(niter=2) 

Densities:
  Coarse grid: 42*42*160 grid
  Fine grid: 84*84*320 grid
  Total Charge: 0.000000 

Density mixing:
  Method: difference
  Backend: pulay
  Linear mixing parameter: 0.05
  Mixing with 5 old densities
  Damping of long wave oscillations: 50 

Hamiltonian:
  XC and Coulomb potentials evaluated on a 84*84*320 grid
  Using the LDA Exchange-Correlation functional
  External potential:
    <gpaw.external.NoExternalPotential object at 0x2b332cfaa610>
 

Memory estimate:
  Process memory now: 39927.33 MiB
  Calculator: 580.26 MiB
    Density: 158.40 MiB
      Arrays: 75.37 MiB
      Localized functions: 52.88 MiB
      Mixer: 30.15 MiB
    Hamiltonian: 57.28 MiB
      Arrays: 55.99 MiB
      XC: 0.00 MiB
      Poisson: 0.00 MiB
      vbar: 1.29 MiB
    Wavefunctions: 364.58 MiB
      Arrays psit_nG: 281.29 MiB
      Eigensolver: 50.83 MiB
      Projections: 1.61 MiB
      Projectors: 18.26 MiB
      PW-descriptor: 12.59 MiB

Total number of cores used: 40
Parallelization over k-points: 40

Number of atoms: 16
Number of atomic orbitals: 84
Number of bands in calculation: 77
Number of valence electrons: 108
Bands to converge: occupied

... initialized

Initializing position-dependent things.

Density initialized from atomic densities
Creating initial wave functions:
  77 bands from LCAO basis set

                                       
                                       
                                       
                                       
                      I                
                            I          
                   I                   
                       Cr  I           
             Cr                        
                 I                     
                         I             
                     I                 
                             I         
               Cr                      
                   I   Cr              
          I                            
                 I                     
                        I              
                                       
                                       
                                       
                                       

Positions:
   0 Cr     0.889135    0.000185   -3.063135    ( 0.0000,  0.0000,  3.4336)
   1 Cr    -2.666158    2.052642   -3.090223    ( 0.0000,  0.0000,  3.4336)
   2 I      1.822012   -2.046247   -4.559876    ( 0.0000,  0.0000, -0.1299)
   3 I     -1.348662    0.216415   -4.560605    ( 0.0000,  0.0000, -0.1299)
   4 I     -4.915070    1.830062   -4.560598    ( 0.0000,  0.0000, -0.1299)
   5 I     -0.074828   -2.063434   -1.594960    ( 0.0000,  0.0000, -0.1299)
   6 I     -0.416551    1.865690   -1.594231    ( 0.0000,  0.0000, -0.1299)
   7 I      3.157525    0.197989   -1.594234    ( 0.0000,  0.0000, -0.1299)
   8 Cr    -2.666887   -2.052642    3.080226    ( 0.0000,  0.0000,  3.4336)
   9 Cr     0.888546   -0.000185    3.063139    ( 0.0000,  0.0000,  3.4336)
  10 I      1.852510    2.063434    1.594959    ( 0.0000,  0.0000, -0.1299)
  11 I      2.194233   -1.865690    1.594230    ( 0.0000,  0.0000, -0.1299)
  12 I     -1.379843   -0.197989    1.594233    ( 0.0000,  0.0000, -0.1299)
  13 I     -0.044330    2.046247    4.559875    ( 0.0000,  0.0000, -0.1299)
  14 I      3.126343   -0.216415    4.560604    ( 0.0000,  0.0000, -0.1299)
  15 I     -0.417976   -1.830062    4.560597    ( 0.0000,  0.0000, -0.1299)

Unit cell:
           periodic     x           y           z      points  spacing
  1. axis:    yes    7.110727   -0.000000    0.000000    42     0.1466
  2. axis:    yes   -3.555363    6.158070    0.000000    42     0.1466
  3. axis:    no     0.000000   -0.000000   27.269192   160     0.1704

  Lengths:   7.110727   7.110727  27.269192
  Angles:   90.000000  90.000000 120.000000

Effective grid spacing dv^(1/3) = 0.1617

                     log10-error:           total        iterations:
           time      wfs    density  force  energy       poisson  magmom
iter:   1  03:28:18                        -76.900171             +12.1076
iter:   2  03:29:10  -0.99  -0.91          -70.503804             +9.9676
iter:   3  03:30:02  -1.83  -1.33          -70.497197             +11.0180
iter:   4  03:30:54  -1.59  -1.38          -70.962552             +12.0929
iter:   5  03:31:47  -2.54  -1.51          -70.629063             +12.0161
iter:   6  03:32:39  -1.91  -1.83          -70.401207             +12.0004
iter:   7  03:33:31  -2.97  -2.20          -70.394620             +12.0039
iter:   8  03:34:23  -3.30  -2.32          -70.389920             +12.0056
iter:   9  03:35:15  -3.67  -2.66          -70.390991             +12.0018
iter:  10  03:36:08  -3.85  -2.86          -70.391707             +11.9998
iter:  11  03:37:00  -3.99  -2.94          -70.392293             +12.0000
iter:  12  03:37:52  -4.03  -2.99          -70.392642             +12.0000
iter:  13  03:38:45  -4.09  -3.08          -70.392824             +12.0000
iter:  14  03:39:37  -4.12  -3.13          -70.392877             +12.0000
iter:  15  03:40:29  -4.27  -3.30          -70.393016             +12.0000
iter:  16  03:41:21  -4.42  -3.44          -70.393144             +12.0000
iter:  17  03:42:14  -4.51  -3.65          -70.393236             +12.0000
iter:  18  03:43:06  -4.73  -3.77          -70.393291             +12.0000
iter:  19  03:43:58  -4.91  -3.94          -70.393342             +12.0000
iter:  20  03:44:50  -4.93  -3.93          -70.393380             +12.0000
iter:  21  03:45:43  -5.17  -3.86          -70.393405             +12.0000
iter:  22  03:46:35  -5.31  -4.07          -70.393424             +12.0000
iter:  23  03:47:27  -5.37  -4.25          -70.393439             +12.0000
iter:  24  03:48:19  -5.55  -4.24          -70.393451             +12.0000
iter:  25  03:49:11  -5.58  -4.23          -70.393459             +12.0000
iter:  26  03:50:04  -5.55  -4.20          -70.393466             +12.0000
iter:  27  03:50:56  -5.75  -4.26          -70.393470             +12.0000
iter:  28  03:51:48  -5.92  -4.21          -70.393473             +12.0000
iter:  29  03:52:40  -6.18  -4.32          -70.393475             +12.0000
iter:  30  03:53:32  -6.37  -4.34          -70.393477             +12.0000
iter:  31  03:54:25  -6.54  -4.42          -70.393478             +12.0000
iter:  32  03:55:17  -6.59  -4.55          -70.393479             +12.0000
iter:  33  03:56:09  -6.74  -4.72          -70.393479             +12.0000
iter:  34  03:57:01  -6.84  -4.76          -70.393479             +12.0000
iter:  35  03:57:54  -7.02  -4.95          -70.393480             +12.0000
iter:  36  03:58:46  -7.22  -5.05          -70.393480             +12.0000
iter:  37  03:59:38  -7.31  -5.16          -70.393480             +12.0000
iter:  38  04:00:40  -7.47  -5.21          -70.393480             +12.0000
iter:  39  04:01:43  -7.58  -5.45    -3.59 -70.393480             +12.0000
iter:  40  04:02:46  -7.73  -5.69    -3.90 -70.393480             +12.0000
iter:  41  04:03:49  -7.82  -5.84    -4.46 -70.393480             +12.0000

Converged after 41 iterations.

Dipole moment: (-31.570656, -0.000070, -0.010686) |e|*Ang

Total magnetic moment: (0.000000, 0.000000, 12.000000)
Local magnetic moments:
   0 Cr ( 0.000000,  0.000000,  2.911152)
   1 Cr ( 0.000000,  0.000000,  2.915817)
   2 I  ( 0.000000,  0.000000, -0.046547)
   3 I  ( 0.000000,  0.000000, -0.046504)
   4 I  ( 0.000000,  0.000000, -0.046522)
   5 I  ( 0.000000,  0.000000, -0.050091)
   6 I  ( 0.000000,  0.000000, -0.050069)
   7 I  ( 0.000000,  0.000000, -0.050079)
   8 Cr ( 0.000000,  0.000000,  2.915312)
   9 Cr ( 0.000000,  0.000000,  2.911238)
  10 I  ( 0.000000,  0.000000, -0.049726)
  11 I  ( 0.000000,  0.000000, -0.049702)
  12 I  ( 0.000000,  0.000000, -0.049712)
  13 I  ( 0.000000,  0.000000, -0.046983)
  14 I  ( 0.000000,  0.000000, -0.046942)
  15 I  ( 0.000000,  0.000000, -0.046960)

Energy contributions relative to reference atoms: (reference = -2434708.556191)

Kinetic:        +23.264275
Potential:      -37.238329
External:        +0.000000
XC:             -56.596310
Entropy (-ST):   -0.000000
Local:           +0.176883
--------------------------
Free energy:    -70.393480
Extrapolated:   -70.393480

Spin contamination: 1.119754 electrons
Showing only first 2 kpts
                      Up                     Down
 Kpt  Band  Eigenvalues  Occupancy  Eigenvalues  Occupancy
  0    52     -2.13785    1.00000     -0.00993    0.00000
  0    53     -2.10133    1.00000      0.00424    0.00000
  0    54     -2.01730    1.00000      0.18167    0.00000
  0    55     -2.01636    1.00000      0.21249    0.00000

  1    52     -2.11611    1.00000     -0.01742    0.00000
  1    53     -2.07257    1.00000      0.01997    0.00000
  1    54     -2.01815    1.00000      0.17132    0.00000
  1    55     -1.98772    1.00000      0.21076    0.00000


Fermi level: -1.19475

Gap: 0.972 eV
Transition (v -> c):
  (s=0, k=132, n=59, [0.46, -0.46, 0.00]) -> (s=0, k=17, n=60, [-0.38, -0.04, 0.00])
Writing to born-0.01-1z-.gpw (mode='all')

Timing:                              incl.     excl.
-----------------------------------------------------------
Hamiltonian:                         2.763     0.011   0.0% |
 Atomic:                             1.265     1.265   0.0% |
  XC Correction:                     0.000     0.000   0.0% |
 Calculate atomic Hamiltonians:      0.325     0.325   0.0% |
 Communicate:                        0.000     0.000   0.0% |
 Initialize Hamiltonian:             0.004     0.004   0.0% |
 Poisson:                            0.013     0.013   0.0% |
 XC 3D grid:                         1.145     1.145   0.0% |
LCAO initialization:                21.034     0.141   0.0% |
 LCAO eigensolver:                   3.322     0.001   0.0% |
  Calculate projections:             0.004     0.004   0.0% |
  DenseAtomicCorrection:             0.006     0.006   0.0% |
  Distribute overlap matrix:         0.000     0.000   0.0% |
  Orbital Layouts:                   0.016     0.016   0.0% |
  Potential matrix:                  3.284     3.284   0.1% |
  Sum over cells:                    0.012     0.012   0.0% |
 LCAO to grid:                      17.288    17.288   0.3% |
 Set positions (LCAO WFS):           0.283     0.050   0.0% |
  Basic WFS set positions:           0.001     0.001   0.0% |
  Basis functions set positions:     0.000     0.000   0.0% |
  P tci:                             0.123     0.123   0.0% |
  ST tci:                            0.065     0.065   0.0% |
  mktci:                             0.043     0.043   0.0% |
PWDescriptor:                        0.087     0.087   0.0% |
SCF-cycle:                        2183.697   506.309   9.5% |---|
 Davidson:                        1339.773   224.018   4.2% |-|
  Apply H:                         223.763   216.751   4.1% |-|
   HMM T:                            7.012     7.012   0.1% |
  Subspace diag:                   275.645     0.056   0.0% |
   calc_h_matrix:                  243.781    19.050   0.4% |
    Apply H:                       224.732   217.522   4.1% |-|
     HMM T:                          7.210     7.210   0.1% |
   diagonalize:                      0.526     0.526   0.0% |
   rotate_psi:                      31.282    31.282   0.6% |
  calc. matrices:                  555.515   109.846   2.1% ||
   Apply H:                        445.669   431.617   8.1% |--|
    HMM T:                          14.052    14.052   0.3% |
  diagonalize:                       4.897     4.897   0.1% |
  rotate_psi:                       55.934    55.934   1.1% |
 Density:                          214.538     0.002   0.0% |
  Atomic density matrices:           0.297     0.297   0.0% |
  Mix:                              36.328    36.328   0.7% |
  Multipole moments:                 0.019     0.019   0.0% |
  Pseudo density:                  177.893   177.890   3.3% ||
   Symmetrize density:               0.003     0.003   0.0% |
 Forces:                            39.820    39.820   0.7% |
 Hamiltonian:                       81.660     0.504   0.0% |
  Atomic:                            5.278     5.278   0.1% |
   XC Correction:                    0.000     0.000   0.0% |
  Calculate atomic Hamiltonians:    26.691    26.691   0.5% |
  Communicate:                       0.008     0.008   0.0% |
  Poisson:                           0.572     0.572   0.0% |
  XC 3D grid:                       48.607    48.607   0.9% |
 Orthonormalize:                     1.597     0.001   0.0% |
  calc_s_matrix:                     0.212     0.212   0.0% |
  inverse-cholesky:                  0.004     0.004   0.0% |
  projections:                       0.990     0.990   0.0% |
  rotate_psi_s:                      0.389     0.389   0.0% |
Set symmetry:                        0.000     0.000   0.0% |
Other:                            3112.754  3112.754  58.5% |----------------------|
-----------------------------------------------------------
Total:                                      5320.336 100.0%

Memory usage: 38.99 GiB
Date: Sun Jun 26 04:55:37 2022
