
  ___ ___ ___ _ _ _  
 |   |   |_  | | | | 
 | | | | | . | | | | 
 |__ |  _|___|_____|  21.6.1b1
 |___|_|             

User:   madkru@c007.nifl.fysik.dtu.dk
Date:   Wed Jun 29 08:56:24 2022
Arch:   x86_64
Pid:    215850
Python: 3.8.6
gpaw:   /home/niflheim/madkru/new_venv/gpaw/gpaw (1f0dfc9eae)
_gpaw:  /home/niflheim/madkru/new_venv/gpaw/build/lib.linux-x86_64-skylake-3.8/
        _gpaw.cpython-38-x86_64-linux-gnu.so (c1e45bfab3)
ase:    /home/niflheim/madkru/new_venv/ase/ase (version 3.23.0b1-ca38c75a67)
numpy:  /home/modules/software/SciPy-bundle/2020.11-foss-2020b/lib/python3.8/site-packages/numpy (version 1.19.4)
scipy:  /home/modules/software/SciPy-bundle/2020.11-foss-2020b/lib/python3.8/site-packages/scipy (version 1.5.4)
libxc:  4.3.4
units:  Angstrom and eV
cores: 40
OpenMP: False
OMP_NUM_THREADS: 1

Input parameters:
  convergence: {bands: occupied,
                density: 0.0001,
                eigenstates: 4e-08,
                energy: 0.0005,
                forces: 0.0001}
  kpts: [12 12  1]
  mode: {ecut: 600.0,
         gammacentered: False,
         name: pw}
  occupations: {fixmagmom: False,
                name: fermi-dirac,
                width: 0.001}
  symmetry: {point_group: False,
             time_reversal: False}

System changes: positions, numbers, cell, pbc, initial_charges, initial_magmoms 

Initialize ...

Cr-setup:
  name: Chromium
  id: 444e8044bc0f91048286c984738d87f5
  Z: 24.0
  valence: 6
  core: 18
  charge: 0.0
  file: /home/modules/software/GPAW-setups/0.9.20000/Cr.LDA.gz
  compensation charges: gauss, rc=0.35, lmax=2
  cutoffs: 2.14(filt), 3.04(core),
  valence states:
                energy  radius
    4s(1.00)    -4.191   1.164
    4p(0.00)    -1.079   1.217
    3d(5.00)    -3.128   1.111
    *s          23.021   1.164
    *p          26.132   1.217
    *d          24.083   1.111

  Using partial waves for Cr as LCAO basis

I-setup:
  name: Iodine
  id: b559721c0c096a7b4c8fc0e0f4de5cf4
  Z: 53.0
  valence: 7
  core: 46
  charge: 0.0
  file: /home/modules/software/GPAW-setups/0.9.20000/I.LDA.gz
  compensation charges: gauss, rc=0.37, lmax=2
  cutoffs: 2.06(filt), 2.90(core),
  valence states:
                energy  radius
    5s(2.00)   -17.626   1.164
    5p(5.00)    -7.241   1.164
    *s           9.585   1.164
    *p          19.970   1.164
    *d           0.000   1.164

  Using partial waves for I as LCAO basis

Reference energy: -2434708.556191

Spin-polarized calculation.
Magnetic moment: 12.175341

Convergence criteria:
  Maximum total energy change: 0.0005 eV / electron
  Maximum integral of absolute density change: 0.0001 electrons
  Maximum integral of absolute eigenstate change: 4e-08 eV^2
  Maximum change in atomic force: 0.0001 eV / Ang
  Maximum number of iterations: 333

Symmetries present (total): 1

  ( 1  0  0)
  ( 0  1  0)
  ( 0  0  1)

144 k-points: 12 x 12 x 1 Monkhorst-Pack grid
144 k-points in the irreducible part of the Brillouin zone
       k-points in crystal coordinates                weights
   0:    -0.45833333   -0.45833333    0.00000000          1/144
   1:    -0.45833333   -0.37500000    0.00000000          1/144
   2:    -0.45833333   -0.29166667    0.00000000          1/144
   3:    -0.45833333   -0.20833333    0.00000000          1/144
   4:    -0.45833333   -0.12500000    0.00000000          1/144
   5:    -0.45833333   -0.04166667    0.00000000          1/144
   6:    -0.45833333    0.04166667    0.00000000          1/144
   7:    -0.45833333    0.12500000    0.00000000          1/144
   8:    -0.45833333    0.20833333    0.00000000          1/144
   9:    -0.45833333    0.29166667    0.00000000          1/144
          ...
 143:     0.45833333    0.45833333    0.00000000          1/144

Wave functions: Plane wave expansion
  Cutoff energy: 600.000 eV
  Number of coefficients (min, max): 39797, 39902
  Pulay-stress correction: 0.000000 eV/Ang^3 (de/decut=0.000000)
  Using FFTW library
  ScaLapack parameters: grid=1x1, blocksize=None
  Wavefunction extrapolation:
    Improved wavefunction reuse through dual PAW basis 

Occupation numbers: Fermi-Dirac: width=0.0010 eV
 

Eigensolver
   Davidson(niter=2) 

Densities:
  Coarse grid: 42*42*160 grid
  Fine grid: 84*84*320 grid
  Total Charge: 0.000000 

Density mixing:
  Method: difference
  Backend: pulay
  Linear mixing parameter: 0.05
  Mixing with 5 old densities
  Damping of long wave oscillations: 50 

Hamiltonian:
  XC and Coulomb potentials evaluated on a 84*84*320 grid
  Using the LDA Exchange-Correlation functional
  External potential:
    <gpaw.external.NoExternalPotential object at 0x2b896518b9a0>
 

Memory estimate:
  Process memory now: 40164.96 MiB
  Calculator: 580.26 MiB
    Density: 158.40 MiB
      Arrays: 75.37 MiB
      Localized functions: 52.88 MiB
      Mixer: 30.15 MiB
    Hamiltonian: 57.28 MiB
      Arrays: 55.99 MiB
      XC: 0.00 MiB
      Poisson: 0.00 MiB
      vbar: 1.29 MiB
    Wavefunctions: 364.58 MiB
      Arrays psit_nG: 281.29 MiB
      Eigensolver: 50.83 MiB
      Projections: 1.61 MiB
      Projectors: 18.26 MiB
      PW-descriptor: 12.59 MiB

Total number of cores used: 40
Parallelization over k-points: 40

Number of atoms: 16
Number of atomic orbitals: 84
Number of bands in calculation: 77
Number of valence electrons: 108
Bands to converge: occupied

... initialized

Initializing position-dependent things.

Density initialized from atomic densities
Creating initial wave functions:
  77 bands from LCAO basis set

                                       
                                       
                                       
                                       
                      I                
                            I          
                   I                   
                       Cr  I           
             Cr                        
                 I                     
                         I             
                     I                 
                             I         
               Cr                      
                   I   Cr              
          I                            
                 I                     
                        I              
                                       
                                       
                                       
                                       

Positions:
   0 Cr     0.889135    0.000185   -3.063135    ( 0.0000,  0.0000,  3.4336)
   1 Cr    -2.666158    2.052642   -3.080223    ( 0.0000,  0.0000,  3.4336)
   2 I      1.822012   -2.046247   -4.559876    ( 0.0000,  0.0000, -0.1299)
   3 I     -1.348662    0.216415   -4.560605    ( 0.0000,  0.0000, -0.1299)
   4 I     -4.915070    1.830062   -4.560598    ( 0.0000,  0.0000, -0.1299)
   5 I     -0.074828   -2.063434   -1.594960    ( 0.0000,  0.0000, -0.1299)
   6 I     -0.416551    1.865690   -1.594231    ( 0.0000,  0.0000, -0.1299)
   7 I      3.157525    0.197989   -1.594234    ( 0.0000,  0.0000, -0.1299)
   8 Cr    -2.666887   -2.052642    3.080226    ( 0.0000,  0.0000,  3.4336)
   9 Cr     0.888546   -0.000185    3.063139    ( 0.0000,  0.0000,  3.4336)
  10 I      1.852510    2.063434    1.594959    ( 0.0000,  0.0000, -0.1299)
  11 I      2.194233   -1.865690    1.594230    ( 0.0000,  0.0000, -0.1299)
  12 I     -1.379843   -0.197989    1.594233    ( 0.0000,  0.0000, -0.1299)
  13 I     -0.054330    2.046247    4.559875    ( 0.0000,  0.0000, -0.1299)
  14 I      3.126343   -0.216415    4.560604    ( 0.0000,  0.0000, -0.1299)
  15 I     -0.417976   -1.830062    4.560597    ( 0.0000,  0.0000, -0.1299)

Unit cell:
           periodic     x           y           z      points  spacing
  1. axis:    yes    7.110727   -0.000000    0.000000    42     0.1466
  2. axis:    yes   -3.555363    6.158070    0.000000    42     0.1466
  3. axis:    no     0.000000   -0.000000   27.269192   160     0.1704

  Lengths:   7.110727   7.110727  27.269192
  Angles:   90.000000  90.000000 120.000000

Effective grid spacing dv^(1/3) = 0.1617

                     log10-error:           total        iterations:
           time      wfs    density  force  energy       poisson  magmom
iter:   1  08:57:44                        -76.892490             +12.1076
iter:   2  08:58:36  -0.99  -0.91          -70.503390             +9.9643
iter:   3  08:59:27  -1.83  -1.33          -70.497285             +11.0162
iter:   4  09:00:19  -1.58  -1.38          -70.967936             +12.0927
iter:   5  09:01:10  -2.53  -1.51          -70.628304             +12.0158
iter:   6  09:02:02  -1.91  -1.83          -70.402457             +12.0005
iter:   7  09:02:53  -2.97  -2.20          -70.395304             +12.0039
iter:   8  09:03:45  -3.31  -2.32          -70.390107             +12.0055
iter:   9  09:04:36  -3.68  -2.67          -70.391273             +12.0017
iter:  10  09:05:28  -3.86  -2.86          -70.391954             +11.9998
iter:  11  09:06:19  -3.99  -2.94          -70.392526             +12.0000
iter:  12  09:07:11  -3.99  -3.04          -70.392840             +12.0000
iter:  13  09:08:02  -4.06  -3.11          -70.393050             +12.0000
iter:  14  09:08:54  -4.09  -3.15          -70.393156             +12.0000
iter:  15  09:09:45  -4.19  -3.27          -70.393318             +12.0000
iter:  16  09:10:37  -4.32  -3.32          -70.393438             +12.0000
iter:  17  09:11:28  -4.59  -3.37          -70.393496             +12.0000
iter:  18  09:12:20  -4.74  -3.57          -70.393567             +12.0000
iter:  19  09:13:11  -4.89  -3.65          -70.393615             +12.0000
iter:  20  09:14:03  -5.01  -3.75          -70.393656             +12.0000
iter:  21  09:14:54  -5.19  -4.17          -70.393686             +12.0000
iter:  22  09:15:46  -5.31  -4.17          -70.393708             +12.0000
iter:  23  09:16:37  -5.36  -4.20          -70.393721             +12.0000
iter:  24  09:17:28  -5.53  -4.37          -70.393731             +12.0000
iter:  25  09:18:20  -5.72  -4.46          -70.393740             +12.0000
iter:  26  09:19:11  -5.76  -4.43          -70.393745             +12.0000
iter:  27  09:20:03  -5.86  -4.38          -70.393750             +12.0000
iter:  28  09:20:54  -5.96  -4.42          -70.393753             +12.0000
iter:  29  09:21:46  -6.02  -4.41          -70.393756             +12.0000
iter:  30  09:22:37  -6.19  -4.33          -70.393757             +12.0000
iter:  31  09:23:28  -6.27  -4.33          -70.393758             +12.0000
iter:  32  09:24:20  -6.36  -4.32          -70.393759             +12.0000
iter:  33  09:25:11  -6.58  -4.32          -70.393760             +12.0000
iter:  34  09:26:03  -6.65  -4.31          -70.393761             +12.0000
iter:  35  09:26:54  -6.73  -4.26          -70.393761             +12.0000
iter:  36  09:27:45  -6.94  -4.40          -70.393761             +12.0000
iter:  37  09:28:36  -7.18  -4.39          -70.393761             +12.0000
iter:  38  09:29:28  -7.35  -4.58          -70.393761             +12.0000
iter:  39  09:30:29  -7.51  -4.68          -70.393761             +12.0000
iter:  40  09:31:30  -7.72  -4.77    -3.64 -70.393761             +12.0000
iter:  41  09:32:32  -7.81  -4.81    -2.83 -70.393761             +12.0000
iter:  42  09:33:34  -7.96  -5.05    -3.21 -70.393761             +12.0000
iter:  43  09:34:36  -8.09  -5.18    -3.84 -70.393761             +12.0000
iter:  44  09:35:38  -8.15  -5.22    -3.53 -70.393761             +12.0000
iter:  45  09:36:40  -8.24  -5.31    -3.64 -70.393761             +12.0000
iter:  46  09:37:42  -8.41  -5.45    -3.59 -70.393761             +12.0000
iter:  47  09:38:44  -8.56  -5.63    -4.13 -70.393761             +12.0000

Converged after 47 iterations.

Dipole moment: (-31.681002, 0.000823, -0.000103) |e|*Ang

Total magnetic moment: (0.000000, 0.000000, 12.000000)
Local magnetic moments:
   0 Cr ( 0.000000,  0.000000,  2.911282)
   1 Cr ( 0.000000,  0.000000,  2.915453)
   2 I  ( 0.000000,  0.000000, -0.046978)
   3 I  ( 0.000000,  0.000000, -0.046932)
   4 I  ( 0.000000,  0.000000, -0.046954)
   5 I  ( 0.000000,  0.000000, -0.049684)
   6 I  ( 0.000000,  0.000000, -0.049672)
   7 I  ( 0.000000,  0.000000, -0.049659)
   8 Cr ( 0.000000,  0.000000,  2.916163)
   9 Cr ( 0.000000,  0.000000,  2.911992)
  10 I  ( 0.000000,  0.000000, -0.049574)
  11 I  ( 0.000000,  0.000000, -0.049867)
  12 I  ( 0.000000,  0.000000, -0.049882)
  13 I  ( 0.000000,  0.000000, -0.047237)
  14 I  ( 0.000000,  0.000000, -0.046962)
  15 I  ( 0.000000,  0.000000, -0.046988)

Energy contributions relative to reference atoms: (reference = -2434708.556191)

Kinetic:        +23.075915
Potential:      -37.081660
External:        +0.000000
XC:             -56.564244
Entropy (-ST):   -0.000000
Local:           +0.176228
--------------------------
Free energy:    -70.393761
Extrapolated:   -70.393761

Spin contamination: 1.120618 electrons
Showing only first 2 kpts
                      Up                     Down
 Kpt  Band  Eigenvalues  Occupancy  Eigenvalues  Occupancy
  0    52     -2.13957    1.00000     -0.01272    0.00000
  0    53     -2.10425    1.00000      0.00261    0.00000
  0    54     -2.02073    1.00000      0.17984    0.00000
  0    55     -2.01972    1.00000      0.21055    0.00000

  1    52     -2.11902    1.00000     -0.02006    0.00000
  1    53     -2.07492    1.00000      0.01797    0.00000
  1    54     -2.02148    1.00000      0.16927    0.00000
  1    55     -1.99112    1.00000      0.20808    0.00000


Fermi level: -1.19448

Gap: 0.970 eV
Transition (v -> c):
  (s=0, k=5, n=59, [-0.46, -0.04, 0.00]) -> (s=0, k=22, n=60, [-0.38, 0.38, 0.00])
Writing to born-0.01-13x-.gpw (mode='all')

Timing:                              incl.     excl.
-----------------------------------------------------------
Hamiltonian:                         2.797     0.011   0.0% |
 Atomic:                             1.306     1.306   0.0% |
  XC Correction:                     0.000     0.000   0.0% |
 Calculate atomic Hamiltonians:      0.326     0.326   0.0% |
 Communicate:                        0.000     0.000   0.0% |
 Initialize Hamiltonian:             0.004     0.004   0.0% |
 Poisson:                            0.014     0.014   0.0% |
 XC 3D grid:                         1.136     1.136   0.0% |
LCAO initialization:                20.310     0.141   0.0% |
 LCAO eigensolver:                   3.055     0.001   0.0% |
  Calculate projections:             0.004     0.004   0.0% |
  DenseAtomicCorrection:             0.005     0.005   0.0% |
  Distribute overlap matrix:         0.000     0.000   0.0% |
  Orbital Layouts:                   0.016     0.016   0.0% |
  Potential matrix:                  3.018     3.018   0.1% |
  Sum over cells:                    0.011     0.011   0.0% |
 LCAO to grid:                      16.834    16.834   0.3% |
 Set positions (LCAO WFS):           0.281     0.050   0.0% |
  Basic WFS set positions:           0.001     0.001   0.0% |
  Basis functions set positions:     0.000     0.000   0.0% |
  P tci:                             0.122     0.122   0.0% |
  ST tci:                            0.065     0.065   0.0% |
  mktci:                             0.043     0.043   0.0% |
PWDescriptor:                        0.088     0.088   0.0% |
SCF-cycle:                        2512.049   523.535   9.2% |---|
 Davidson:                        1553.609   243.545   4.3% |-|
  Apply H:                         272.785   264.000   4.7% |-|
   HMM T:                            8.785     8.785   0.2% |
  Subspace diag:                   328.149     0.072   0.0% |
   calc_h_matrix:                  291.871    20.150   0.4% |
    Apply H:                       271.721   262.510   4.6% |-|
     HMM T:                          9.212     9.212   0.2% |
   diagonalize:                      0.588     0.588   0.0% |
   rotate_psi:                      35.618    35.618   0.6% |
  calc. matrices:                  638.816   114.470   2.0% ||
   Apply H:                        524.346   507.385   8.9% |---|
    HMM T:                          16.962    16.962   0.3% |
  diagonalize:                       5.552     5.552   0.1% |
  rotate_psi:                       64.763    64.763   1.1% |
 Density:                          251.456     0.002   0.0% |
  Atomic density matrices:           0.331     0.331   0.0% |
  Mix:                              42.515    42.515   0.7% |
  Multipole moments:                 0.022     0.022   0.0% |
  Pseudo density:                  208.587   208.583   3.7% ||
   Symmetrize density:               0.004     0.004   0.0% |
 Forces:                            87.908    87.908   1.5% ||
 Hamiltonian:                       93.897     0.832   0.0% |
  Atomic:                            5.616     5.616   0.1% |
   XC Correction:                    0.000     0.000   0.0% |
  Calculate atomic Hamiltonians:    30.969    30.969   0.5% |
  Communicate:                       0.009     0.009   0.0% |
  Poisson:                           0.641     0.641   0.0% |
  XC 3D grid:                       55.832    55.832   1.0% |
 Orthonormalize:                     1.644     0.002   0.0% |
  calc_s_matrix:                     0.217     0.217   0.0% |
  inverse-cholesky:                  0.004     0.004   0.0% |
  projections:                       1.008     1.008   0.0% |
  rotate_psi_s:                      0.413     0.413   0.0% |
Set symmetry:                        0.000     0.000   0.0% |
Other:                            3136.567  3136.567  55.3% |---------------------|
-----------------------------------------------------------
Total:                                      5671.812 100.0%

Memory usage: 39.22 GiB
Date: Wed Jun 29 10:30:56 2022
