
  ___ ___ ___ _ _ _  
 |   |   |_  | | | | 
 | | | | | . | | | | 
 |__ |  _|___|_____|  21.6.1b1
 |___|_|             

User:   madkru@c007.nifl.fysik.dtu.dk
Date:   Wed Jun 29 21:41:08 2022
Arch:   x86_64
Pid:    215850
Python: 3.8.6
gpaw:   /home/niflheim/madkru/new_venv/gpaw/gpaw (1f0dfc9eae)
_gpaw:  /home/niflheim/madkru/new_venv/gpaw/build/lib.linux-x86_64-skylake-3.8/
        _gpaw.cpython-38-x86_64-linux-gnu.so (c1e45bfab3)
ase:    /home/niflheim/madkru/new_venv/ase/ase (version 3.23.0b1-ca38c75a67)
numpy:  /home/modules/software/SciPy-bundle/2020.11-foss-2020b/lib/python3.8/site-packages/numpy (version 1.19.4)
scipy:  /home/modules/software/SciPy-bundle/2020.11-foss-2020b/lib/python3.8/site-packages/scipy (version 1.5.4)
libxc:  4.3.4
units:  Angstrom and eV
cores: 40
OpenMP: False
OMP_NUM_THREADS: 1

Input parameters:
  convergence: {bands: occupied,
                density: 0.0001,
                eigenstates: 4e-08,
                energy: 0.0005,
                forces: 0.0001}
  kpts: [12 12  1]
  mode: {ecut: 600.0,
         gammacentered: False,
         name: pw}
  occupations: {fixmagmom: False,
                name: fermi-dirac,
                width: 0.001}
  symmetry: {point_group: False,
             time_reversal: False}

System changes: positions, numbers, cell, pbc, initial_charges, initial_magmoms 

Initialize ...

Cr-setup:
  name: Chromium
  id: 444e8044bc0f91048286c984738d87f5
  Z: 24.0
  valence: 6
  core: 18
  charge: 0.0
  file: /home/modules/software/GPAW-setups/0.9.20000/Cr.LDA.gz
  compensation charges: gauss, rc=0.35, lmax=2
  cutoffs: 2.14(filt), 3.04(core),
  valence states:
                energy  radius
    4s(1.00)    -4.191   1.164
    4p(0.00)    -1.079   1.217
    3d(5.00)    -3.128   1.111
    *s          23.021   1.164
    *p          26.132   1.217
    *d          24.083   1.111

  Using partial waves for Cr as LCAO basis

I-setup:
  name: Iodine
  id: b559721c0c096a7b4c8fc0e0f4de5cf4
  Z: 53.0
  valence: 7
  core: 46
  charge: 0.0
  file: /home/modules/software/GPAW-setups/0.9.20000/I.LDA.gz
  compensation charges: gauss, rc=0.37, lmax=2
  cutoffs: 2.06(filt), 2.90(core),
  valence states:
                energy  radius
    5s(2.00)   -17.626   1.164
    5p(5.00)    -7.241   1.164
    *s           9.585   1.164
    *p          19.970   1.164
    *d           0.000   1.164

  Using partial waves for I as LCAO basis

Reference energy: -2434708.556191

Spin-polarized calculation.
Magnetic moment: 12.175341

Convergence criteria:
  Maximum total energy change: 0.0005 eV / electron
  Maximum integral of absolute density change: 0.0001 electrons
  Maximum integral of absolute eigenstate change: 4e-08 eV^2
  Maximum change in atomic force: 0.0001 eV / Ang
  Maximum number of iterations: 333

Symmetries present (total): 1

  ( 1  0  0)
  ( 0  1  0)
  ( 0  0  1)

144 k-points: 12 x 12 x 1 Monkhorst-Pack grid
144 k-points in the irreducible part of the Brillouin zone
       k-points in crystal coordinates                weights
   0:    -0.45833333   -0.45833333    0.00000000          1/144
   1:    -0.45833333   -0.37500000    0.00000000          1/144
   2:    -0.45833333   -0.29166667    0.00000000          1/144
   3:    -0.45833333   -0.20833333    0.00000000          1/144
   4:    -0.45833333   -0.12500000    0.00000000          1/144
   5:    -0.45833333   -0.04166667    0.00000000          1/144
   6:    -0.45833333    0.04166667    0.00000000          1/144
   7:    -0.45833333    0.12500000    0.00000000          1/144
   8:    -0.45833333    0.20833333    0.00000000          1/144
   9:    -0.45833333    0.29166667    0.00000000          1/144
          ...
 143:     0.45833333    0.45833333    0.00000000          1/144

Wave functions: Plane wave expansion
  Cutoff energy: 600.000 eV
  Number of coefficients (min, max): 39797, 39902
  Pulay-stress correction: 0.000000 eV/Ang^3 (de/decut=0.000000)
  Using FFTW library
  ScaLapack parameters: grid=1x1, blocksize=None
  Wavefunction extrapolation:
    Improved wavefunction reuse through dual PAW basis 

Occupation numbers: Fermi-Dirac: width=0.0010 eV
 

Eigensolver
   Davidson(niter=2) 

Densities:
  Coarse grid: 42*42*160 grid
  Fine grid: 84*84*320 grid
  Total Charge: 0.000000 

Density mixing:
  Method: difference
  Backend: pulay
  Linear mixing parameter: 0.05
  Mixing with 5 old densities
  Damping of long wave oscillations: 50 

Hamiltonian:
  XC and Coulomb potentials evaluated on a 84*84*320 grid
  Using the LDA Exchange-Correlation functional
  External potential:
    <gpaw.external.NoExternalPotential object at 0x2b89808bb730>
 

Memory estimate:
  Process memory now: 40294.80 MiB
  Calculator: 580.26 MiB
    Density: 158.40 MiB
      Arrays: 75.37 MiB
      Localized functions: 52.88 MiB
      Mixer: 30.15 MiB
    Hamiltonian: 57.28 MiB
      Arrays: 55.99 MiB
      XC: 0.00 MiB
      Poisson: 0.00 MiB
      vbar: 1.29 MiB
    Wavefunctions: 364.58 MiB
      Arrays psit_nG: 281.29 MiB
      Eigensolver: 50.83 MiB
      Projections: 1.61 MiB
      Projectors: 18.26 MiB
      PW-descriptor: 12.59 MiB

Total number of cores used: 40
Parallelization over k-points: 40

Number of atoms: 16
Number of atomic orbitals: 84
Number of bands in calculation: 77
Number of valence electrons: 108
Bands to converge: occupied

... initialized

Initializing position-dependent things.

Density initialized from atomic densities
Creating initial wave functions:
  77 bands from LCAO basis set

                                       
                                       
                                       
                                       
                      I                
                            I          
                   I                   
                       Cr  I           
             Cr                        
                 I                     
                         I             
                     I                 
                             I         
               Cr                      
                   I   Cr              
          I                            
                 I                     
                        I              
                                       
                                       
                                       
                                       

Positions:
   0 Cr     0.889135    0.000185   -3.063135    ( 0.0000,  0.0000,  3.4336)
   1 Cr    -2.666158    2.052642   -3.080223    ( 0.0000,  0.0000,  3.4336)
   2 I      1.822012   -2.046247   -4.559876    ( 0.0000,  0.0000, -0.1299)
   3 I     -1.348662    0.216415   -4.560605    ( 0.0000,  0.0000, -0.1299)
   4 I     -4.915070    1.830062   -4.560598    ( 0.0000,  0.0000, -0.1299)
   5 I     -0.074828   -2.063434   -1.594960    ( 0.0000,  0.0000, -0.1299)
   6 I     -0.416551    1.865690   -1.594231    ( 0.0000,  0.0000, -0.1299)
   7 I      3.157525    0.197989   -1.594234    ( 0.0000,  0.0000, -0.1299)
   8 Cr    -2.666887   -2.052642    3.080226    ( 0.0000,  0.0000,  3.4336)
   9 Cr     0.888546   -0.000185    3.063139    ( 0.0000,  0.0000,  3.4336)
  10 I      1.852510    2.063434    1.594959    ( 0.0000,  0.0000, -0.1299)
  11 I      2.194233   -1.865690    1.594230    ( 0.0000,  0.0000, -0.1299)
  12 I     -1.379843   -0.197989    1.594233    ( 0.0000,  0.0000, -0.1299)
  13 I     -0.044330    2.046247    4.559875    ( 0.0000,  0.0000, -0.1299)
  14 I      3.126343   -0.216415    4.560604    ( 0.0000,  0.0000, -0.1299)
  15 I     -0.417976   -1.840062    4.560597    ( 0.0000,  0.0000, -0.1299)

Unit cell:
           periodic     x           y           z      points  spacing
  1. axis:    yes    7.110727   -0.000000    0.000000    42     0.1466
  2. axis:    yes   -3.555363    6.158070    0.000000    42     0.1466
  3. axis:    no     0.000000   -0.000000   27.269192   160     0.1704

  Lengths:   7.110727   7.110727  27.269192
  Angles:   90.000000  90.000000 120.000000

Effective grid spacing dv^(1/3) = 0.1617

                     log10-error:           total        iterations:
           time      wfs    density  force  energy       poisson  magmom
iter:   1  21:42:28                        -76.893582             +12.1076
iter:   2  21:43:20  -0.99  -0.91          -70.503378             +9.9642
iter:   3  21:44:11  -1.83  -1.33          -70.497261             +11.0162
iter:   4  21:45:03  -1.58  -1.38          -70.967868             +12.0927
iter:   5  21:45:55  -2.54  -1.51          -70.628332             +12.0159
iter:   6  21:46:47  -1.91  -1.83          -70.402420             +12.0005
iter:   7  21:47:38  -2.97  -2.20          -70.395304             +12.0039
iter:   8  21:48:30  -3.31  -2.32          -70.390084             +12.0055
iter:   9  21:49:22  -3.68  -2.67          -70.391251             +12.0017
iter:  10  21:50:13  -3.86  -2.86          -70.391932             +11.9998
iter:  11  21:51:05  -3.99  -2.94          -70.392504             +12.0000
iter:  12  21:51:57  -3.99  -3.04          -70.392818             +12.0000
iter:  13  21:52:49  -4.06  -3.11          -70.393029             +12.0000
iter:  14  21:53:40  -4.09  -3.15          -70.393134             +12.0000
iter:  15  21:54:32  -4.19  -3.27          -70.393296             +12.0000
iter:  16  21:55:24  -4.32  -3.32          -70.393415             +12.0000
iter:  17  21:56:16  -4.59  -3.37          -70.393473             +12.0000
iter:  18  21:57:08  -4.74  -3.56          -70.393545             +12.0000
iter:  19  21:57:59  -4.89  -3.65          -70.393592             +12.0000
iter:  20  21:58:51  -5.01  -3.75          -70.393634             +12.0000
iter:  21  21:59:43  -5.19  -4.22          -70.393662             +12.0000
iter:  22  22:00:35  -5.26  -4.22          -70.393685             +12.0000
iter:  23  22:01:26  -5.41  -4.24          -70.393699             +12.0000
iter:  24  22:02:18  -5.59  -4.28          -70.393710             +12.0000
iter:  25  22:03:10  -5.73  -4.34          -70.393718             +12.0000
iter:  26  22:04:01  -5.78  -4.52          -70.393723             +12.0000
iter:  27  22:04:53  -5.73  -4.61          -70.393727             +12.0000
iter:  28  22:05:45  -6.05  -4.42          -70.393730             +12.0000
iter:  29  22:06:37  -6.14  -4.34          -70.393732             +12.0000
iter:  30  22:07:28  -6.22  -4.69          -70.393734             +12.0000
iter:  31  22:08:20  -6.40  -4.65          -70.393735             +12.0000
iter:  32  22:09:12  -6.53  -4.52          -70.393736             +12.0000
iter:  33  22:10:04  -6.65  -4.67          -70.393737             +12.0000
iter:  34  22:10:55  -6.85  -4.53          -70.393737             +12.0000
iter:  35  22:11:47  -7.06  -4.65          -70.393738             +12.0000
iter:  36  22:12:39  -7.04  -4.58          -70.393738             +12.0000
iter:  37  22:13:31  -7.27  -4.91          -70.393738             +12.0000
iter:  38  22:14:22  -7.32  -4.96          -70.393738             +12.0000
iter:  39  22:15:24  -7.41  -5.19          -70.393738             +12.0000
iter:  40  22:16:26  -7.65  -5.27    -3.37 -70.393738             +12.0000
iter:  41  22:17:29  -7.79  -5.64    -4.00 -70.393738             +12.0000

Converged after 41 iterations.

Dipole moment: (-31.595334, -0.010650, -0.000485) |e|*Ang

Total magnetic moment: (0.000000, 0.000000, 12.000000)
Local magnetic moments:
   0 Cr ( 0.000000,  0.000000,  2.911284)
   1 Cr ( 0.000000,  0.000000,  2.915456)
   2 I  ( 0.000000,  0.000000, -0.046977)
   3 I  ( 0.000000,  0.000000, -0.046938)
   4 I  ( 0.000000,  0.000000, -0.046958)
   5 I  ( 0.000000,  0.000000, -0.049668)
   6 I  ( 0.000000,  0.000000, -0.049651)
   7 I  ( 0.000000,  0.000000, -0.049672)
   8 Cr ( 0.000000,  0.000000,  2.915112)
   9 Cr ( 0.000000,  0.000000,  2.912854)
  10 I  ( 0.000000,  0.000000, -0.049991)
  11 I  ( 0.000000,  0.000000, -0.049714)
  12 I  ( 0.000000,  0.000000, -0.049579)
  13 I  ( 0.000000,  0.000000, -0.047039)
  14 I  ( 0.000000,  0.000000, -0.046927)
  15 I  ( 0.000000,  0.000000, -0.047189)

Energy contributions relative to reference atoms: (reference = -2434708.556191)

Kinetic:        +23.104976
Potential:      -37.106549
External:        +0.000000
XC:             -56.568797
Entropy (-ST):   -0.000000
Local:           +0.176632
--------------------------
Free energy:    -70.393738
Extrapolated:   -70.393738

Spin contamination: 1.120507 electrons
Showing only first 2 kpts
                      Up                     Down
 Kpt  Band  Eigenvalues  Occupancy  Eigenvalues  Occupancy
  0    52     -2.13984    1.00000     -0.01302    0.00000
  0    53     -2.10397    1.00000      0.00312    0.00000
  0    54     -2.02067    1.00000      0.17964    0.00000
  0    55     -2.01941    1.00000      0.21071    0.00000

  1    52     -2.11896    1.00000     -0.01998    0.00000
  1    53     -2.07468    1.00000      0.01843    0.00000
  1    54     -2.02144    1.00000      0.16926    0.00000
  1    55     -1.99089    1.00000      0.20835    0.00000


Fermi level: -1.19457

Gap: 0.970 eV
Transition (v -> c):
  (s=0, k=132, n=59, [0.46, -0.46, 0.00]) -> (s=0, k=72, n=60, [0.04, -0.46, 0.00])
Writing to born-0.01-15y-.gpw (mode='all')

Timing:                              incl.     excl.
-----------------------------------------------------------
Hamiltonian:                         2.664     0.012   0.0% |
 Atomic:                             1.093     1.093   0.0% |
  XC Correction:                     0.000     0.000   0.0% |
 Calculate atomic Hamiltonians:      0.410     0.410   0.0% |
 Communicate:                        0.000     0.000   0.0% |
 Initialize Hamiltonian:             0.004     0.004   0.0% |
 Poisson:                            0.012     0.012   0.0% |
 XC 3D grid:                         1.133     1.133   0.0% |
LCAO initialization:                20.322     0.141   0.0% |
 LCAO eigensolver:                   3.094     0.001   0.0% |
  Calculate projections:             0.004     0.004   0.0% |
  DenseAtomicCorrection:             0.005     0.005   0.0% |
  Distribute overlap matrix:         0.000     0.000   0.0% |
  Orbital Layouts:                   0.016     0.016   0.0% |
  Potential matrix:                  3.057     3.057   0.1% |
  Sum over cells:                    0.011     0.011   0.0% |
 LCAO to grid:                      16.806    16.806   0.3% |
 Set positions (LCAO WFS):           0.281     0.050   0.0% |
  Basic WFS set positions:           0.001     0.001   0.0% |
  Basis functions set positions:     0.000     0.000   0.0% |
  P tci:                             0.122     0.122   0.0% |
  ST tci:                            0.066     0.066   0.0% |
  mktci:                             0.043     0.043   0.0% |
PWDescriptor:                        0.089     0.089   0.0% |
SCF-cycle:                        2153.723   465.813   8.4% |--|
 Davidson:                        1361.117   212.514   3.8% |-|
  Apply H:                         239.019   231.047   4.2% |-|
   HMM T:                            7.972     7.972   0.1% |
  Subspace diag:                   287.141     0.058   0.0% |
   calc_h_matrix:                  256.365    17.988   0.3% |
    Apply H:                       238.377   230.004   4.1% |-|
     HMM T:                          8.373     8.373   0.2% |
   diagonalize:                      0.500     0.500   0.0% |
   rotate_psi:                      30.219    30.219   0.5% |
  calc. matrices:                  563.462   100.567   1.8% ||
   Apply H:                        462.895   447.386   8.1% |--|
    HMM T:                          15.509    15.509   0.3% |
  diagonalize:                       4.730     4.730   0.1% |
  rotate_psi:                       54.250    54.250   1.0% |
 Density:                          215.369     0.002   0.0% |
  Atomic density matrices:           0.291     0.291   0.0% |
  Mix:                              38.090    38.090   0.7% |
  Multipole moments:                 0.019     0.019   0.0% |
  Pseudo density:                  176.967   176.964   3.2% ||
   Symmetrize density:               0.003     0.003   0.0% |
 Forces:                            29.508    29.508   0.5% |
 Hamiltonian:                       80.300     0.427   0.0% |
  Atomic:                            4.043     4.043   0.1% |
   XC Correction:                    0.000     0.000   0.0% |
  Calculate atomic Hamiltonians:    27.306    27.306   0.5% |
  Communicate:                       0.008     0.008   0.0% |
  Poisson:                           0.429     0.429   0.0% |
  XC 3D grid:                       48.087    48.087   0.9% |
 Orthonormalize:                     1.616     0.002   0.0% |
  calc_s_matrix:                     0.215     0.215   0.0% |
  inverse-cholesky:                  0.004     0.004   0.0% |
  projections:                       0.971     0.971   0.0% |
  rotate_psi_s:                      0.424     0.424   0.0% |
Set symmetry:                        0.000     0.000   0.0% |
Other:                            3378.084  3378.084  60.8% |-----------------------|
-----------------------------------------------------------
Total:                                      5554.882 100.0%

Memory usage: 39.35 GiB
Date: Wed Jun 29 23:13:43 2022
