
  ___ ___ ___ _ _ _  
 |   |   |_  | | | | 
 | | | | | . | | | | 
 |__ |  _|___|_____|  21.6.1b1
 |___|_|             

User:   madkru@c007.nifl.fysik.dtu.dk
Date:   Tue Jun 28 15:04:09 2022
Arch:   x86_64
Pid:    215850
Python: 3.8.6
gpaw:   /home/niflheim/madkru/new_venv/gpaw/gpaw (1f0dfc9eae)
_gpaw:  /home/niflheim/madkru/new_venv/gpaw/build/lib.linux-x86_64-skylake-3.8/
        _gpaw.cpython-38-x86_64-linux-gnu.so (c1e45bfab3)
ase:    /home/niflheim/madkru/new_venv/ase/ase (version 3.23.0b1-ca38c75a67)
numpy:  /home/modules/software/SciPy-bundle/2020.11-foss-2020b/lib/python3.8/site-packages/numpy (version 1.19.4)
scipy:  /home/modules/software/SciPy-bundle/2020.11-foss-2020b/lib/python3.8/site-packages/scipy (version 1.5.4)
libxc:  4.3.4
units:  Angstrom and eV
cores: 40
OpenMP: False
OMP_NUM_THREADS: 1

Input parameters:
  convergence: {bands: occupied,
                density: 0.0001,
                eigenstates: 4e-08,
                energy: 0.0005,
                forces: 0.0001}
  kpts: [12 12  1]
  mode: {ecut: 600.0,
         gammacentered: False,
         name: pw}
  occupations: {fixmagmom: False,
                name: fermi-dirac,
                width: 0.001}
  symmetry: {point_group: False,
             time_reversal: False}

System changes: positions, numbers, cell, pbc, initial_charges, initial_magmoms 

Initialize ...

Cr-setup:
  name: Chromium
  id: 444e8044bc0f91048286c984738d87f5
  Z: 24.0
  valence: 6
  core: 18
  charge: 0.0
  file: /home/modules/software/GPAW-setups/0.9.20000/Cr.LDA.gz
  compensation charges: gauss, rc=0.35, lmax=2
  cutoffs: 2.14(filt), 3.04(core),
  valence states:
                energy  radius
    4s(1.00)    -4.191   1.164
    4p(0.00)    -1.079   1.217
    3d(5.00)    -3.128   1.111
    *s          23.021   1.164
    *p          26.132   1.217
    *d          24.083   1.111

  Using partial waves for Cr as LCAO basis

I-setup:
  name: Iodine
  id: b559721c0c096a7b4c8fc0e0f4de5cf4
  Z: 53.0
  valence: 7
  core: 46
  charge: 0.0
  file: /home/modules/software/GPAW-setups/0.9.20000/I.LDA.gz
  compensation charges: gauss, rc=0.37, lmax=2
  cutoffs: 2.06(filt), 2.90(core),
  valence states:
                energy  radius
    5s(2.00)   -17.626   1.164
    5p(5.00)    -7.241   1.164
    *s           9.585   1.164
    *p          19.970   1.164
    *d           0.000   1.164

  Using partial waves for I as LCAO basis

Reference energy: -2434708.556191

Spin-polarized calculation.
Magnetic moment: 12.175341

Convergence criteria:
  Maximum total energy change: 0.0005 eV / electron
  Maximum integral of absolute density change: 0.0001 electrons
  Maximum integral of absolute eigenstate change: 4e-08 eV^2
  Maximum change in atomic force: 0.0001 eV / Ang
  Maximum number of iterations: 333

Symmetries present (total): 1

  ( 1  0  0)
  ( 0  1  0)
  ( 0  0  1)

144 k-points: 12 x 12 x 1 Monkhorst-Pack grid
144 k-points in the irreducible part of the Brillouin zone
       k-points in crystal coordinates                weights
   0:    -0.45833333   -0.45833333    0.00000000          1/144
   1:    -0.45833333   -0.37500000    0.00000000          1/144
   2:    -0.45833333   -0.29166667    0.00000000          1/144
   3:    -0.45833333   -0.20833333    0.00000000          1/144
   4:    -0.45833333   -0.12500000    0.00000000          1/144
   5:    -0.45833333   -0.04166667    0.00000000          1/144
   6:    -0.45833333    0.04166667    0.00000000          1/144
   7:    -0.45833333    0.12500000    0.00000000          1/144
   8:    -0.45833333    0.20833333    0.00000000          1/144
   9:    -0.45833333    0.29166667    0.00000000          1/144
          ...
 143:     0.45833333    0.45833333    0.00000000          1/144

Wave functions: Plane wave expansion
  Cutoff energy: 600.000 eV
  Number of coefficients (min, max): 39797, 39902
  Pulay-stress correction: 0.000000 eV/Ang^3 (de/decut=0.000000)
  Using FFTW library
  ScaLapack parameters: grid=1x1, blocksize=None
  Wavefunction extrapolation:
    Improved wavefunction reuse through dual PAW basis 

Occupation numbers: Fermi-Dirac: width=0.0010 eV
 

Eigensolver
   Davidson(niter=2) 

Densities:
  Coarse grid: 42*42*160 grid
  Fine grid: 84*84*320 grid
  Total Charge: 0.000000 

Density mixing:
  Method: difference
  Backend: pulay
  Linear mixing parameter: 0.05
  Mixing with 5 old densities
  Damping of long wave oscillations: 50 

Hamiltonian:
  XC and Coulomb potentials evaluated on a 84*84*320 grid
  Using the LDA Exchange-Correlation functional
  External potential:
    <gpaw.external.NoExternalPotential object at 0x2b8968db9b80>
 

Memory estimate:
  Process memory now: 39889.23 MiB
  Calculator: 580.26 MiB
    Density: 158.40 MiB
      Arrays: 75.37 MiB
      Localized functions: 52.88 MiB
      Mixer: 30.15 MiB
    Hamiltonian: 57.28 MiB
      Arrays: 55.99 MiB
      XC: 0.00 MiB
      Poisson: 0.00 MiB
      vbar: 1.29 MiB
    Wavefunctions: 364.58 MiB
      Arrays psit_nG: 281.29 MiB
      Eigensolver: 50.83 MiB
      Projections: 1.61 MiB
      Projectors: 18.26 MiB
      PW-descriptor: 12.59 MiB

Total number of cores used: 40
Parallelization over k-points: 40

Number of atoms: 16
Number of atomic orbitals: 84
Number of bands in calculation: 77
Number of valence electrons: 108
Bands to converge: occupied

... initialized

Initializing position-dependent things.

Density initialized from atomic densities
Creating initial wave functions:
  77 bands from LCAO basis set

                                       
                                       
                                       
                                       
                      I                
                            I          
                   I                   
                       Cr  I           
             Cr                        
                 I                     
                         I             
                     I                 
                             I         
               Cr                      
                   I   Cr              
          I                            
                 I                     
                        I              
                                       
                                       
                                       
                                       

Positions:
   0 Cr     0.889135    0.000185   -3.063135    ( 0.0000,  0.0000,  3.4336)
   1 Cr    -2.666158    2.052642   -3.080223    ( 0.0000,  0.0000,  3.4336)
   2 I      1.822012   -2.046247   -4.559876    ( 0.0000,  0.0000, -0.1299)
   3 I     -1.348662    0.216415   -4.560605    ( 0.0000,  0.0000, -0.1299)
   4 I     -4.915070    1.830062   -4.560598    ( 0.0000,  0.0000, -0.1299)
   5 I     -0.074828   -2.063434   -1.594960    ( 0.0000,  0.0000, -0.1299)
   6 I     -0.416551    1.865690   -1.594231    ( 0.0000,  0.0000, -0.1299)
   7 I      3.157525    0.197989   -1.594234    ( 0.0000,  0.0000, -0.1299)
   8 Cr    -2.666887   -2.052642    3.080226    ( 0.0000,  0.0000,  3.4336)
   9 Cr     0.888546   -0.000185    3.053139    ( 0.0000,  0.0000,  3.4336)
  10 I      1.852510    2.063434    1.594959    ( 0.0000,  0.0000, -0.1299)
  11 I      2.194233   -1.865690    1.594230    ( 0.0000,  0.0000, -0.1299)
  12 I     -1.379843   -0.197989    1.594233    ( 0.0000,  0.0000, -0.1299)
  13 I     -0.044330    2.046247    4.559875    ( 0.0000,  0.0000, -0.1299)
  14 I      3.126343   -0.216415    4.560604    ( 0.0000,  0.0000, -0.1299)
  15 I     -0.417976   -1.830062    4.560597    ( 0.0000,  0.0000, -0.1299)

Unit cell:
           periodic     x           y           z      points  spacing
  1. axis:    yes    7.110727   -0.000000    0.000000    42     0.1466
  2. axis:    yes   -3.555363    6.158070    0.000000    42     0.1466
  3. axis:    no     0.000000   -0.000000   27.269192   160     0.1704

  Lengths:   7.110727   7.110727  27.269192
  Angles:   90.000000  90.000000 120.000000

Effective grid spacing dv^(1/3) = 0.1617

                     log10-error:           total        iterations:
           time      wfs    density  force  energy       poisson  magmom
iter:   1  15:05:30                        -76.900105             +12.1076
iter:   2  15:06:21  -0.99  -0.91          -70.505790             +9.9618
iter:   3  15:07:13  -1.83  -1.33          -70.497342             +11.0153
iter:   4  15:08:05  -1.58  -1.38          -70.972321             +12.0925
iter:   5  15:08:56  -2.53  -1.51          -70.627685             +12.0157
iter:   6  15:09:48  -1.90  -1.83          -70.402861             +12.0006
iter:   7  15:10:40  -2.98  -2.19          -70.395214             +12.0039
iter:   8  15:11:32  -3.32  -2.31          -70.389796             +12.0054
iter:   9  15:12:23  -3.68  -2.67          -70.390998             +12.0017
iter:  10  15:13:15  -3.86  -2.86          -70.391656             +11.9998
iter:  11  15:14:07  -3.99  -2.94          -70.392208             +12.0000
iter:  12  15:14:58  -4.02  -3.10          -70.392506             +11.9999
iter:  13  15:15:50  -4.14  -3.15          -70.392764             +12.0000
iter:  14  15:16:42  -4.16  -3.18          -70.392925             +12.0000
iter:  15  15:17:33  -4.22  -3.25          -70.393075             +12.0000
iter:  16  15:18:25  -4.35  -3.37          -70.393188             +12.0000
iter:  17  15:19:17  -4.46  -3.42          -70.393244             +12.0000
iter:  18  15:20:08  -4.56  -3.59          -70.393298             +12.0000
iter:  19  15:21:00  -4.65  -3.66          -70.393343             +12.0000
iter:  20  15:21:52  -4.96  -3.70          -70.393390             +12.0000
iter:  21  15:22:43  -5.23  -3.79          -70.393417             +12.0000
iter:  22  15:23:35  -5.28  -3.89          -70.393437             +12.0000
iter:  23  15:24:27  -5.38  -3.95          -70.393451             +12.0000
iter:  24  15:25:18  -5.63  -3.98          -70.393462             +12.0000
iter:  25  15:26:10  -5.81  -4.06          -70.393470             +12.0000
iter:  26  15:27:02  -5.88  -4.11          -70.393475             +12.0000
iter:  27  15:27:53  -5.95  -4.27          -70.393479             +12.0000
iter:  28  15:28:45  -6.03  -4.40          -70.393481             +12.0000
iter:  29  15:29:37  -6.14  -4.51          -70.393483             +12.0000
iter:  30  15:30:28  -6.34  -4.55          -70.393485             +12.0000
iter:  31  15:31:20  -6.56  -4.64          -70.393486             +12.0000
iter:  32  15:32:12  -6.68  -4.72          -70.393487             +12.0000
iter:  33  15:33:03  -6.71  -4.69          -70.393487             +12.0000
iter:  34  15:33:55  -6.86  -4.79          -70.393488             +12.0000
iter:  35  15:34:46  -6.99  -4.86          -70.393488             +12.0000
iter:  36  15:35:38  -7.13  -4.85          -70.393488             +12.0000
iter:  37  15:36:29  -7.28  -4.89          -70.393489             +12.0000
iter:  38  15:37:31  -7.56  -4.82          -70.393489             +12.0000
iter:  39  15:38:33  -7.62  -4.76    -2.94 -70.393489             +12.0000
iter:  40  15:39:35  -7.82  -4.74    -3.03 -70.393489             +12.0000
iter:  41  15:40:37  -8.06  -4.88    -3.53 -70.393489             +12.0000
iter:  42  15:41:39  -8.07  -4.88    -3.14 -70.393489             +12.0000
iter:  43  15:42:42  -8.20  -4.86    -2.99 -70.393489             +12.0000
iter:  44  15:43:44  -8.32  -4.85    -2.96 -70.393489             +12.0000
iter:  45  15:44:46  -8.58  -4.81    -3.54 -70.393489             +12.0000
iter:  46  15:45:49  -8.64  -4.76    -3.36 -70.393489             +12.0000
iter:  47  15:46:51  -8.77  -4.83    -3.29 -70.393489             +12.0000
iter:  48  15:47:53  -8.77  -4.90    -2.96 -70.393489             +12.0000
iter:  49  15:48:55  -8.96  -5.03    -3.43 -70.393489             +12.0000
iter:  50  15:49:58  -8.95  -5.09    -3.11 -70.393489             +12.0000
iter:  51  15:51:00  -9.21  -5.27    -3.74 -70.393489             +12.0000
iter:  52  15:52:02  -9.34  -5.33    -3.55 -70.393489             +12.0000
iter:  53  15:53:04  -9.46  -5.45    -3.58 -70.393489             +12.0000
iter:  54  15:54:06  -9.71  -5.58    -3.96 -70.393489             +12.0000
iter:  55  15:55:09  -9.87  -5.62    -4.05 -70.393489             +12.0000

Converged after 55 iterations.

Dipole moment: (-31.570853, 0.000056, -0.010415) |e|*Ang

Total magnetic moment: (0.000000, 0.000000, 12.000000)
Local magnetic moments:
   0 Cr ( 0.000000,  0.000000,  2.911382)
   1 Cr ( 0.000000,  0.000000,  2.915532)
   2 I  ( 0.000000,  0.000000, -0.046973)
   3 I  ( 0.000000,  0.000000, -0.046931)
   4 I  ( 0.000000,  0.000000, -0.046949)
   5 I  ( 0.000000,  0.000000, -0.049644)
   6 I  ( 0.000000,  0.000000, -0.049620)
   7 I  ( 0.000000,  0.000000, -0.049630)
   8 Cr ( 0.000000,  0.000000,  2.915603)
   9 Cr ( 0.000000,  0.000000,  2.910950)
  10 I  ( 0.000000,  0.000000, -0.049272)
  11 I  ( 0.000000,  0.000000, -0.049247)
  12 I  ( 0.000000,  0.000000, -0.049256)
  13 I  ( 0.000000,  0.000000, -0.047408)
  14 I  ( 0.000000,  0.000000, -0.047369)
  15 I  ( 0.000000,  0.000000, -0.047386)

Energy contributions relative to reference atoms: (reference = -2434708.556191)

Kinetic:        +23.251885
Potential:      -37.226508
External:        +0.000000
XC:             -56.594516
Entropy (-ST):   -0.000000
Local:           +0.175650
--------------------------
Free energy:    -70.393489
Extrapolated:   -70.393489

Spin contamination: 1.119594 electrons
Showing only first 2 kpts
                      Up                     Down
 Kpt  Band  Eigenvalues  Occupancy  Eigenvalues  Occupancy
  0    52     -2.13961    1.00000     -0.01316    0.00000
  0    53     -2.10385    1.00000      0.00138    0.00000
  0    54     -2.02133    1.00000      0.17949    0.00000
  0    55     -2.02064    1.00000      0.20976    0.00000

  1    52     -2.11848    1.00000     -0.02031    0.00000
  1    53     -2.07501    1.00000      0.01701    0.00000
  1    54     -2.02183    1.00000      0.16928    0.00000
  1    55     -1.99161    1.00000      0.20735    0.00000


Fermi level: -1.13583

Gap: 0.970 eV
Transition (v -> c):
  (s=0, k=132, n=59, [0.46, -0.46, 0.00]) -> (s=0, k=121, n=60, [0.38, -0.38, 0.00])
Writing to born-0.01-9z-.gpw (mode='all')

Timing:                              incl.     excl.
-----------------------------------------------------------
Hamiltonian:                         2.859     0.011   0.0% |
 Atomic:                             1.369     1.369   0.0% |
  XC Correction:                     0.000     0.000   0.0% |
 Calculate atomic Hamiltonians:      0.327     0.327   0.0% |
 Communicate:                        0.000     0.000   0.0% |
 Initialize Hamiltonian:             0.004     0.004   0.0% |
 Poisson:                            0.011     0.011   0.0% |
 XC 3D grid:                         1.136     1.136   0.0% |
LCAO initialization:                20.225     0.141   0.0% |
 LCAO eigensolver:                   3.059     0.001   0.0% |
  Calculate projections:             0.004     0.004   0.0% |
  DenseAtomicCorrection:             0.005     0.005   0.0% |
  Distribute overlap matrix:         0.000     0.000   0.0% |
  Orbital Layouts:                   0.016     0.016   0.0% |
  Potential matrix:                  3.023     3.023   0.0% |
  Sum over cells:                    0.011     0.011   0.0% |
 LCAO to grid:                      16.745    16.745   0.3% |
 Set positions (LCAO WFS):           0.278     0.050   0.0% |
  Basic WFS set positions:           0.001     0.001   0.0% |
  Basis functions set positions:     0.000     0.000   0.0% |
  P tci:                             0.122     0.122   0.0% |
  ST tci:                            0.064     0.064   0.0% |
  mktci:                             0.042     0.042   0.0% |
PWDescriptor:                        0.086     0.086   0.0% |
SCF-cycle:                        3032.311   655.605  10.5% |---|
 Davidson:                        1786.646   291.017   4.7% |-|
  Apply H:                         306.690   297.666   4.8% |-|
   HMM T:                            9.025     9.025   0.1% |
  Subspace diag:                   373.323     0.073   0.0% |
   calc_h_matrix:                  332.433    24.446   0.4% |
    Apply H:                       307.987   298.732   4.8% |-|
     HMM T:                          9.255     9.255   0.1% |
   diagonalize:                      0.689     0.689   0.0% |
   rotate_psi:                      40.128    40.128   0.6% |
  calc. matrices:                  736.301   140.749   2.3% ||
   Apply H:                        595.552   578.382   9.3% |---|
    HMM T:                          17.171    17.171   0.3% |
  diagonalize:                       6.442     6.442   0.1% |
  rotate_psi:                       72.871    72.871   1.2% |
 Density:                          302.080     0.002   0.0% |
  Atomic density matrices:           0.395     0.395   0.0% |
  Mix:                              49.564    49.564   0.8% |
  Multipole moments:                 0.025     0.025   0.0% |
  Pseudo density:                  252.093   252.089   4.0% |-|
   Symmetrize density:               0.004     0.004   0.0% |
 Forces:                           176.484   176.484   2.8% ||
 Hamiltonian:                      109.907     0.696   0.0% |
  Atomic:                            7.796     7.796   0.1% |
   XC Correction:                    0.000     0.000   0.0% |
  Calculate atomic Hamiltonians:    36.416    36.416   0.6% |
  Communicate:                       0.010     0.010   0.0% |
  Poisson:                           0.625     0.625   0.0% |
  XC 3D grid:                       64.362    64.362   1.0% |
 Orthonormalize:                     1.591     0.002   0.0% |
  calc_s_matrix:                     0.214     0.214   0.0% |
  inverse-cholesky:                  0.004     0.004   0.0% |
  projections:                       0.990     0.990   0.0% |
  rotate_psi_s:                      0.382     0.382   0.0% |
Set symmetry:                        0.000     0.000   0.0% |
Other:                            3193.143  3193.143  51.1% |-------------------|
-----------------------------------------------------------
Total:                                      6248.624 100.0%

Memory usage: 38.95 GiB
Date: Tue Jun 28 16:48:18 2022
