
  ___ ___ ___ _ _ _  
 |   |   |_  | | | | 
 | | | | | . | | | | 
 |__ |  _|___|_____|  21.6.1b1
 |___|_|             

User:   madkru@c153.nifl.fysik.dtu.dk
Date:   Sun Jun 26 17:52:43 2022
Arch:   x86_64
Pid:    48887
Python: 3.8.6
gpaw:   /home/niflheim/madkru/new_venv/gpaw/gpaw (1f0dfc9eae)
_gpaw:  /home/niflheim/madkru/new_venv/gpaw/build/lib.linux-x86_64-skylake-3.8/
        _gpaw.cpython-38-x86_64-linux-gnu.so (c1e45bfab3)
ase:    /home/niflheim/madkru/new_venv/ase/ase (version 3.23.0b1-ca38c75a67)
numpy:  /home/modules/software/SciPy-bundle/2020.11-foss-2020b/lib/python3.8/site-packages/numpy (version 1.19.4)
scipy:  /home/modules/software/SciPy-bundle/2020.11-foss-2020b/lib/python3.8/site-packages/scipy (version 1.5.4)
libxc:  4.3.4
units:  Angstrom and eV
cores: 40
OpenMP: False
OMP_NUM_THREADS: 1

Input parameters:
  convergence: {bands: occupied,
                density: 0.0001,
                eigenstates: 4e-08,
                energy: 0.0005,
                forces: 0.0001}
  kpts: [12 12  1]
  mode: {ecut: 600.0,
         gammacentered: False,
         name: pw}
  occupations: {fixmagmom: False,
                name: fermi-dirac,
                width: 0.001}
  symmetry: {point_group: False,
             time_reversal: False}

System changes: positions, numbers, cell, pbc, initial_charges, initial_magmoms 

Initialize ...

Cr-setup:
  name: Chromium
  id: 444e8044bc0f91048286c984738d87f5
  Z: 24.0
  valence: 6
  core: 18
  charge: 0.0
  file: /home/modules/software/GPAW-setups/0.9.20000/Cr.LDA.gz
  compensation charges: gauss, rc=0.35, lmax=2
  cutoffs: 2.14(filt), 3.04(core),
  valence states:
                energy  radius
    4s(1.00)    -4.191   1.164
    4p(0.00)    -1.079   1.217
    3d(5.00)    -3.128   1.111
    *s          23.021   1.164
    *p          26.132   1.217
    *d          24.083   1.111

  Using partial waves for Cr as LCAO basis

I-setup:
  name: Iodine
  id: b559721c0c096a7b4c8fc0e0f4de5cf4
  Z: 53.0
  valence: 7
  core: 46
  charge: 0.0
  file: /home/modules/software/GPAW-setups/0.9.20000/I.LDA.gz
  compensation charges: gauss, rc=0.37, lmax=2
  cutoffs: 2.06(filt), 2.90(core),
  valence states:
                energy  radius
    5s(2.00)   -17.626   1.164
    5p(5.00)    -7.241   1.164
    *s           9.585   1.164
    *p          19.970   1.164
    *d           0.000   1.164

  Using partial waves for I as LCAO basis

Reference energy: -2434708.556191

Spin-polarized calculation.
Magnetic moment: 12.175341

Convergence criteria:
  Maximum total energy change: 0.0005 eV / electron
  Maximum integral of absolute density change: 0.0001 electrons
  Maximum integral of absolute eigenstate change: 4e-08 eV^2
  Maximum change in atomic force: 0.0001 eV / Ang
  Maximum number of iterations: 333

Symmetries present (total): 1

  ( 1  0  0)
  ( 0  1  0)
  ( 0  0  1)

144 k-points: 12 x 12 x 1 Monkhorst-Pack grid
144 k-points in the irreducible part of the Brillouin zone
       k-points in crystal coordinates                weights
   0:    -0.45833333   -0.45833333    0.00000000          1/144
   1:    -0.45833333   -0.37500000    0.00000000          1/144
   2:    -0.45833333   -0.29166667    0.00000000          1/144
   3:    -0.45833333   -0.20833333    0.00000000          1/144
   4:    -0.45833333   -0.12500000    0.00000000          1/144
   5:    -0.45833333   -0.04166667    0.00000000          1/144
   6:    -0.45833333    0.04166667    0.00000000          1/144
   7:    -0.45833333    0.12500000    0.00000000          1/144
   8:    -0.45833333    0.20833333    0.00000000          1/144
   9:    -0.45833333    0.29166667    0.00000000          1/144
          ...
 143:     0.45833333    0.45833333    0.00000000          1/144

Wave functions: Plane wave expansion
  Cutoff energy: 600.000 eV
  Number of coefficients (min, max): 39797, 39902
  Pulay-stress correction: 0.000000 eV/Ang^3 (de/decut=0.000000)
  Using FFTW library
  ScaLapack parameters: grid=1x1, blocksize=None
  Wavefunction extrapolation:
    Improved wavefunction reuse through dual PAW basis 

Occupation numbers: Fermi-Dirac: width=0.0010 eV
 

Eigensolver
   Davidson(niter=2) 

Densities:
  Coarse grid: 42*42*160 grid
  Fine grid: 84*84*320 grid
  Total Charge: 0.000000 

Density mixing:
  Method: difference
  Backend: pulay
  Linear mixing parameter: 0.05
  Mixing with 5 old densities
  Damping of long wave oscillations: 50 

Hamiltonian:
  XC and Coulomb potentials evaluated on a 84*84*320 grid
  Using the LDA Exchange-Correlation functional
  External potential:
    <gpaw.external.NoExternalPotential object at 0x2b3331a69d30>
 

Memory estimate:
  Process memory now: 40029.57 MiB
  Calculator: 580.26 MiB
    Density: 158.40 MiB
      Arrays: 75.37 MiB
      Localized functions: 52.88 MiB
      Mixer: 30.15 MiB
    Hamiltonian: 57.28 MiB
      Arrays: 55.99 MiB
      XC: 0.00 MiB
      Poisson: 0.00 MiB
      vbar: 1.29 MiB
    Wavefunctions: 364.58 MiB
      Arrays psit_nG: 281.29 MiB
      Eigensolver: 50.83 MiB
      Projections: 1.61 MiB
      Projectors: 18.26 MiB
      PW-descriptor: 12.59 MiB

Total number of cores used: 40
Parallelization over k-points: 40

Number of atoms: 16
Number of atomic orbitals: 84
Number of bands in calculation: 77
Number of valence electrons: 108
Bands to converge: occupied

... initialized

Initializing position-dependent things.

Density initialized from atomic densities
Creating initial wave functions:
  77 bands from LCAO basis set

                                       
                                       
                                       
                                       
                      I                
                            I          
                   I                   
                       Cr  I           
             Cr                        
                 I                     
                         I             
                     I                 
                             I         
               Cr                      
                   I   Cr              
          I                            
                 I                     
                        I              
                                       
                                       
                                       
                                       

Positions:
   0 Cr     0.889135    0.000185   -3.063135    ( 0.0000,  0.0000,  3.4336)
   1 Cr    -2.666158    2.052642   -3.080223    ( 0.0000,  0.0000,  3.4336)
   2 I      1.822012   -2.046247   -4.559876    ( 0.0000,  0.0000, -0.1299)
   3 I     -1.348662    0.216415   -4.560605    ( 0.0000,  0.0000, -0.1299)
   4 I     -4.915070    1.820062   -4.560598    ( 0.0000,  0.0000, -0.1299)
   5 I     -0.074828   -2.063434   -1.594960    ( 0.0000,  0.0000, -0.1299)
   6 I     -0.416551    1.865690   -1.594231    ( 0.0000,  0.0000, -0.1299)
   7 I      3.157525    0.197989   -1.594234    ( 0.0000,  0.0000, -0.1299)
   8 Cr    -2.666887   -2.052642    3.080226    ( 0.0000,  0.0000,  3.4336)
   9 Cr     0.888546   -0.000185    3.063139    ( 0.0000,  0.0000,  3.4336)
  10 I      1.852510    2.063434    1.594959    ( 0.0000,  0.0000, -0.1299)
  11 I      2.194233   -1.865690    1.594230    ( 0.0000,  0.0000, -0.1299)
  12 I     -1.379843   -0.197989    1.594233    ( 0.0000,  0.0000, -0.1299)
  13 I     -0.044330    2.046247    4.559875    ( 0.0000,  0.0000, -0.1299)
  14 I      3.126343   -0.216415    4.560604    ( 0.0000,  0.0000, -0.1299)
  15 I     -0.417976   -1.830062    4.560597    ( 0.0000,  0.0000, -0.1299)

Unit cell:
           periodic     x           y           z      points  spacing
  1. axis:    yes    7.110727   -0.000000    0.000000    42     0.1466
  2. axis:    yes   -3.555363    6.158070    0.000000    42     0.1466
  3. axis:    no     0.000000   -0.000000   27.269192   160     0.1704

  Lengths:   7.110727   7.110727  27.269192
  Angles:   90.000000  90.000000 120.000000

Effective grid spacing dv^(1/3) = 0.1617

                     log10-error:           total        iterations:
           time      wfs    density  force  energy       poisson  magmom
iter:   1  17:54:04                        -76.905693             +12.1076
iter:   2  17:54:56  -0.99  -0.91          -70.503347             +9.9585
iter:   3  17:55:48  -1.83  -1.33          -70.497071             +11.0132
iter:   4  17:56:39  -1.58  -1.38          -70.968275             +12.0928
iter:   5  17:57:31  -2.53  -1.51          -70.629006             +12.0160
iter:   6  17:58:23  -1.91  -1.83          -70.402218             +12.0006
iter:   7  17:59:14  -2.97  -2.20          -70.395335             +12.0039
iter:   8  18:00:06  -3.31  -2.31          -70.390093             +12.0056
iter:   9  18:00:58  -3.68  -2.67          -70.391248             +12.0017
iter:  10  18:01:50  -3.86  -2.86          -70.391933             +11.9998
iter:  11  18:02:41  -3.99  -2.94          -70.392507             +12.0000
iter:  12  18:03:33  -3.99  -3.03          -70.392821             +12.0000
iter:  13  18:04:25  -4.05  -3.10          -70.393032             +12.0000
iter:  14  18:05:16  -4.10  -3.14          -70.393134             +12.0000
iter:  15  18:06:08  -4.19  -3.26          -70.393296             +12.0000
iter:  16  18:07:00  -4.34  -3.32          -70.393416             +12.0000
iter:  17  18:07:51  -4.60  -3.38          -70.393474             +12.0000
iter:  18  18:08:43  -4.75  -3.56          -70.393544             +12.0000
iter:  19  18:09:35  -4.89  -3.66          -70.393592             +12.0000
iter:  20  18:10:26  -5.00  -3.73          -70.393634             +12.0000
iter:  21  18:11:18  -5.17  -4.16          -70.393660             +12.0000
iter:  22  18:12:10  -5.16  -4.20          -70.393680             +12.0000
iter:  23  18:13:02  -5.26  -4.19          -70.393697             +12.0000
iter:  24  18:13:53  -5.50  -4.14          -70.393708             +12.0000
iter:  25  18:14:45  -5.67  -4.15          -70.393717             +12.0000
iter:  26  18:15:37  -5.75  -4.13          -70.393724             +12.0000
iter:  27  18:16:28  -5.83  -4.12          -70.393727             +12.0000
iter:  28  18:17:20  -5.90  -4.16          -70.393730             +12.0000
iter:  29  18:18:12  -6.18  -4.14          -70.393732             +12.0000
iter:  30  18:19:03  -6.36  -4.13          -70.393735             +12.0000
iter:  31  18:19:55  -6.48  -4.04          -70.393736             +12.0000
iter:  32  18:20:47  -6.43  -4.05          -70.393738             +12.0000
iter:  33  18:21:38  -6.63  -4.08          -70.393737             +12.0000
iter:  34  18:22:30  -7.02  -4.06          -70.393737             +12.0000
iter:  35  18:23:22  -7.16  -4.04          -70.393737             +12.0000
iter:  36  18:24:13  -7.03  -4.09          -70.393738             +12.0000
iter:  37  18:25:05  -7.32  -4.21          -70.393737             +12.0000
iter:  38  18:25:57  -7.35  -4.25          -70.393736             +12.0000
iter:  39  18:26:58  -7.51  -4.32          -70.393736             +12.0000
iter:  40  18:28:01  -7.79  -4.61    -2.62 -70.393736             +12.0000
iter:  41  18:29:03  -8.04  -4.91    -3.21 -70.393737             +12.0000
iter:  42  18:30:06  -8.16  -4.96    -4.00 -70.393736             +12.0000
iter:  43  18:31:08  -8.30  -4.98    -4.14 -70.393737             +12.0000

Converged after 43 iterations.

Dipole moment: (-31.565026, -0.010980, -0.000479) |e|*Ang

Total magnetic moment: (0.000000, 0.000000, 12.000000)
Local magnetic moments:
   0 Cr ( 0.000000,  0.000000,  2.909744)
   1 Cr ( 0.000000,  0.000000,  2.915810)
   2 I  ( 0.000000,  0.000000, -0.046921)
   3 I  ( 0.000000,  0.000000, -0.046946)
   4 I  ( 0.000000,  0.000000, -0.046719)
   5 I  ( 0.000000,  0.000000, -0.049361)
   6 I  ( 0.000000,  0.000000, -0.049589)
   7 I  ( 0.000000,  0.000000, -0.049744)
   8 Cr ( 0.000000,  0.000000,  2.915452)
   9 Cr ( 0.000000,  0.000000,  2.911331)
  10 I  ( 0.000000,  0.000000, -0.049684)
  11 I  ( 0.000000,  0.000000, -0.049652)
  12 I  ( 0.000000,  0.000000, -0.049653)
  13 I  ( 0.000000,  0.000000, -0.046981)
  14 I  ( 0.000000,  0.000000, -0.046936)
  15 I  ( 0.000000,  0.000000, -0.046952)

Energy contributions relative to reference atoms: (reference = -2434708.556191)

Kinetic:        +23.378289
Potential:      -37.326425
External:        +0.000000
XC:             -56.620151
Entropy (-ST):   -0.000000
Local:           +0.174551
--------------------------
Free energy:    -70.393737
Extrapolated:   -70.393737

Spin contamination: 1.118809 electrons
Showing only first 2 kpts
                      Up                     Down
 Kpt  Band  Eigenvalues  Occupancy  Eigenvalues  Occupancy
  0    52     -2.13744    1.00000     -0.01135    0.00000
  0    53     -2.10189    1.00000      0.00344    0.00000
  0    54     -2.01844    1.00000      0.18116    0.00000
  0    55     -2.01738    1.00000      0.21150    0.00000

  1    52     -2.11695    1.00000     -0.01825    0.00000
  1    53     -2.07336    1.00000      0.01932    0.00000
  1    54     -2.01889    1.00000      0.17087    0.00000
  1    55     -1.98851    1.00000      0.20951    0.00000


Fermi level: -1.15933

Gap: 0.971 eV
Transition (v -> c):
  (s=0, k=138, n=59, [0.46, 0.04, 0.00]) -> (s=0, k=126, n=60, [0.38, 0.04, 0.00])
Writing to born-0.01-4y-.gpw (mode='all')

Timing:                              incl.     excl.
-----------------------------------------------------------
Hamiltonian:                         2.803     0.011   0.0% |
 Atomic:                             1.303     1.303   0.0% |
  XC Correction:                     0.000     0.000   0.0% |
 Calculate atomic Hamiltonians:      0.329     0.329   0.0% |
 Communicate:                        0.000     0.000   0.0% |
 Initialize Hamiltonian:             0.004     0.004   0.0% |
 Poisson:                            0.012     0.012   0.0% |
 XC 3D grid:                         1.144     1.144   0.0% |
LCAO initialization:                21.156     0.141   0.0% |
 LCAO eigensolver:                   3.325     0.001   0.0% |
  Calculate projections:             0.004     0.004   0.0% |
  DenseAtomicCorrection:             0.005     0.005   0.0% |
  Distribute overlap matrix:         0.000     0.000   0.0% |
  Orbital Layouts:                   0.016     0.016   0.0% |
  Potential matrix:                  3.287     3.287   0.1% |
  Sum over cells:                    0.012     0.012   0.0% |
 LCAO to grid:                      17.409    17.409   0.3% |
 Set positions (LCAO WFS):           0.281     0.051   0.0% |
  Basic WFS set positions:           0.001     0.001   0.0% |
  Basis functions set positions:     0.000     0.000   0.0% |
  P tci:                             0.123     0.123   0.0% |
  ST tci:                            0.064     0.064   0.0% |
  mktci:                             0.043     0.043   0.0% |
PWDescriptor:                        0.087     0.087   0.0% |
SCF-cycle:                        2276.781   528.692   9.3% |---|
 Davidson:                        1384.933   232.380   4.1% |-|
  Apply H:                         230.586   223.525   3.9% |-|
   HMM T:                            7.061     7.061   0.1% |
  Subspace diag:                   286.810     0.058   0.0% |
   calc_h_matrix:                  252.404    20.026   0.4% |
    Apply H:                       232.378   224.993   4.0% |-|
     HMM T:                          7.385     7.385   0.1% |
   diagonalize:                      0.560     0.560   0.0% |
   rotate_psi:                      33.789    33.789   0.6% |
  calc. matrices:                  572.279   113.415   2.0% ||
   Apply H:                        458.863   444.861   7.9% |--|
    HMM T:                          14.002    14.002   0.2% |
  diagonalize:                       5.074     5.074   0.1% |
  rotate_psi:                       57.804    57.804   1.0% |
 Density:                          225.843     0.002   0.0% |
  Atomic density matrices:           0.309     0.309   0.0% |
  Mix:                              37.991    37.991   0.7% |
  Multipole moments:                 0.020     0.020   0.0% |
  Pseudo density:                  187.521   187.518   3.3% ||
   Symmetrize density:               0.003     0.003   0.0% |
 Forces:                            49.407    49.407   0.9% |
 Hamiltonian:                       86.314     0.674   0.0% |
  Atomic:                            6.051     6.051   0.1% |
   XC Correction:                    0.000     0.000   0.0% |
  Calculate atomic Hamiltonians:    27.474    27.474   0.5% |
  Communicate:                       0.007     0.007   0.0% |
  Poisson:                           0.524     0.524   0.0% |
  XC 3D grid:                       51.585    51.585   0.9% |
 Orthonormalize:                     1.592     0.001   0.0% |
  calc_s_matrix:                     0.213     0.213   0.0% |
  inverse-cholesky:                  0.004     0.004   0.0% |
  projections:                       0.971     0.971   0.0% |
  rotate_psi_s:                      0.402     0.402   0.0% |
Set symmetry:                        0.000     0.000   0.0% |
Other:                            3361.541  3361.541  59.4% |-----------------------|
-----------------------------------------------------------
Total:                                      5662.368 100.0%

Memory usage: 39.14 GiB
Date: Sun Jun 26 19:27:06 2022
