
  ___ ___ ___ _ _ _  
 |   |   |_  | | | | 
 | | | | | . | | | | 
 |__ |  _|___|_____|  21.6.1b1
 |___|_|             

User:   madkru@c153.nifl.fysik.dtu.dk
Date:   Mon Jun 27 14:19:34 2022
Arch:   x86_64
Pid:    48887
Python: 3.8.6
gpaw:   /home/niflheim/madkru/new_venv/gpaw/gpaw (1f0dfc9eae)
_gpaw:  /home/niflheim/madkru/new_venv/gpaw/build/lib.linux-x86_64-skylake-3.8/
        _gpaw.cpython-38-x86_64-linux-gnu.so (c1e45bfab3)
ase:    /home/niflheim/madkru/new_venv/ase/ase (version 3.23.0b1-ca38c75a67)
numpy:  /home/modules/software/SciPy-bundle/2020.11-foss-2020b/lib/python3.8/site-packages/numpy (version 1.19.4)
scipy:  /home/modules/software/SciPy-bundle/2020.11-foss-2020b/lib/python3.8/site-packages/scipy (version 1.5.4)
libxc:  4.3.4
units:  Angstrom and eV
cores: 40
OpenMP: False
OMP_NUM_THREADS: 1

Input parameters:
  convergence: {bands: occupied,
                density: 0.0001,
                eigenstates: 4e-08,
                energy: 0.0005,
                forces: 0.0001}
  kpts: [12 12  1]
  mode: {ecut: 600.0,
         gammacentered: False,
         name: pw}
  occupations: {fixmagmom: False,
                name: fermi-dirac,
                width: 0.001}
  symmetry: {point_group: False,
             time_reversal: False}

System changes: positions, numbers, cell, pbc, initial_charges, initial_magmoms 

Initialize ...

Cr-setup:
  name: Chromium
  id: 444e8044bc0f91048286c984738d87f5
  Z: 24.0
  valence: 6
  core: 18
  charge: 0.0
  file: /home/modules/software/GPAW-setups/0.9.20000/Cr.LDA.gz
  compensation charges: gauss, rc=0.35, lmax=2
  cutoffs: 2.14(filt), 3.04(core),
  valence states:
                energy  radius
    4s(1.00)    -4.191   1.164
    4p(0.00)    -1.079   1.217
    3d(5.00)    -3.128   1.111
    *s          23.021   1.164
    *p          26.132   1.217
    *d          24.083   1.111

  Using partial waves for Cr as LCAO basis

I-setup:
  name: Iodine
  id: b559721c0c096a7b4c8fc0e0f4de5cf4
  Z: 53.0
  valence: 7
  core: 46
  charge: 0.0
  file: /home/modules/software/GPAW-setups/0.9.20000/I.LDA.gz
  compensation charges: gauss, rc=0.37, lmax=2
  cutoffs: 2.06(filt), 2.90(core),
  valence states:
                energy  radius
    5s(2.00)   -17.626   1.164
    5p(5.00)    -7.241   1.164
    *s           9.585   1.164
    *p          19.970   1.164
    *d           0.000   1.164

  Using partial waves for I as LCAO basis

Reference energy: -2434708.556191

Spin-polarized calculation.
Magnetic moment: 12.175341

Convergence criteria:
  Maximum total energy change: 0.0005 eV / electron
  Maximum integral of absolute density change: 0.0001 electrons
  Maximum integral of absolute eigenstate change: 4e-08 eV^2
  Maximum change in atomic force: 0.0001 eV / Ang
  Maximum number of iterations: 333

Symmetries present (total): 1

  ( 1  0  0)
  ( 0  1  0)
  ( 0  0  1)

144 k-points: 12 x 12 x 1 Monkhorst-Pack grid
144 k-points in the irreducible part of the Brillouin zone
       k-points in crystal coordinates                weights
   0:    -0.45833333   -0.45833333    0.00000000          1/144
   1:    -0.45833333   -0.37500000    0.00000000          1/144
   2:    -0.45833333   -0.29166667    0.00000000          1/144
   3:    -0.45833333   -0.20833333    0.00000000          1/144
   4:    -0.45833333   -0.12500000    0.00000000          1/144
   5:    -0.45833333   -0.04166667    0.00000000          1/144
   6:    -0.45833333    0.04166667    0.00000000          1/144
   7:    -0.45833333    0.12500000    0.00000000          1/144
   8:    -0.45833333    0.20833333    0.00000000          1/144
   9:    -0.45833333    0.29166667    0.00000000          1/144
          ...
 143:     0.45833333    0.45833333    0.00000000          1/144

Wave functions: Plane wave expansion
  Cutoff energy: 600.000 eV
  Number of coefficients (min, max): 39797, 39902
  Pulay-stress correction: 0.000000 eV/Ang^3 (de/decut=0.000000)
  Using FFTW library
  ScaLapack parameters: grid=1x1, blocksize=None
  Wavefunction extrapolation:
    Improved wavefunction reuse through dual PAW basis 

Occupation numbers: Fermi-Dirac: width=0.0010 eV
 

Eigensolver
   Davidson(niter=2) 

Densities:
  Coarse grid: 42*42*160 grid
  Fine grid: 84*84*320 grid
  Total Charge: 0.000000 

Density mixing:
  Method: difference
  Backend: pulay
  Linear mixing parameter: 0.05
  Mixing with 5 old densities
  Damping of long wave oscillations: 50 

Hamiltonian:
  XC and Coulomb potentials evaluated on a 84*84*320 grid
  Using the LDA Exchange-Correlation functional
  External potential:
    <gpaw.external.NoExternalPotential object at 0x2b3331ff5070>
 

Memory estimate:
  Process memory now: 40129.41 MiB
  Calculator: 580.26 MiB
    Density: 158.40 MiB
      Arrays: 75.37 MiB
      Localized functions: 52.88 MiB
      Mixer: 30.15 MiB
    Hamiltonian: 57.28 MiB
      Arrays: 55.99 MiB
      XC: 0.00 MiB
      Poisson: 0.00 MiB
      vbar: 1.29 MiB
    Wavefunctions: 364.58 MiB
      Arrays psit_nG: 281.29 MiB
      Eigensolver: 50.83 MiB
      Projections: 1.61 MiB
      Projectors: 18.26 MiB
      PW-descriptor: 12.59 MiB

Total number of cores used: 40
Parallelization over k-points: 40

Number of atoms: 16
Number of atomic orbitals: 84
Number of bands in calculation: 77
Number of valence electrons: 108
Bands to converge: occupied

... initialized

Initializing position-dependent things.

Density initialized from atomic densities
Creating initial wave functions:
  77 bands from LCAO basis set

                                       
                                       
                                       
                                       
                      I                
                            I          
                   I                   
                       Cr  I           
             Cr                        
                 I                     
                         I             
                     I                 
                             I         
               Cr                      
                   I   Cr              
          I                            
                 I                     
                        I              
                                       
                                       
                                       
                                       

Positions:
   0 Cr     0.889135    0.000185   -3.063135    ( 0.0000,  0.0000,  3.4336)
   1 Cr    -2.666158    2.052642   -3.080223    ( 0.0000,  0.0000,  3.4336)
   2 I      1.822012   -2.046247   -4.559876    ( 0.0000,  0.0000, -0.1299)
   3 I     -1.348662    0.216415   -4.560605    ( 0.0000,  0.0000, -0.1299)
   4 I     -4.915070    1.830062   -4.560598    ( 0.0000,  0.0000, -0.1299)
   5 I     -0.074828   -2.063434   -1.594960    ( 0.0000,  0.0000, -0.1299)
   6 I     -0.416551    1.865690   -1.594231    ( 0.0000,  0.0000, -0.1299)
   7 I      3.157525    0.197989   -1.594234    ( 0.0000,  0.0000, -0.1299)
   8 Cr    -2.656887   -2.052642    3.080226    ( 0.0000,  0.0000,  3.4336)
   9 Cr     0.888546   -0.000185    3.063139    ( 0.0000,  0.0000,  3.4336)
  10 I      1.852510    2.063434    1.594959    ( 0.0000,  0.0000, -0.1299)
  11 I      2.194233   -1.865690    1.594230    ( 0.0000,  0.0000, -0.1299)
  12 I     -1.379843   -0.197989    1.594233    ( 0.0000,  0.0000, -0.1299)
  13 I     -0.044330    2.046247    4.559875    ( 0.0000,  0.0000, -0.1299)
  14 I      3.126343   -0.216415    4.560604    ( 0.0000,  0.0000, -0.1299)
  15 I     -0.417976   -1.830062    4.560597    ( 0.0000,  0.0000, -0.1299)

Unit cell:
           periodic     x           y           z      points  spacing
  1. axis:    yes    7.110727   -0.000000    0.000000    42     0.1466
  2. axis:    yes   -3.555363    6.158070    0.000000    42     0.1466
  3. axis:    no     0.000000   -0.000000   27.269192   160     0.1704

  Lengths:   7.110727   7.110727  27.269192
  Angles:   90.000000  90.000000 120.000000

Effective grid spacing dv^(1/3) = 0.1617

                     log10-error:           total        iterations:
           time      wfs    density  force  energy       poisson  magmom
iter:   1  14:20:54                        -76.899575             +12.1076
iter:   2  14:21:45  -0.99  -0.91          -70.502210             +9.9598
iter:   3  14:22:36  -1.83  -1.33          -70.496717             +11.0138
iter:   4  14:23:28  -1.58  -1.38          -70.967805             +12.0928
iter:   5  14:24:19  -2.53  -1.51          -70.628358             +12.0160
iter:   6  14:25:10  -1.91  -1.83          -70.402052             +12.0005
iter:   7  14:26:02  -2.97  -2.20          -70.395085             +12.0039
iter:   8  14:26:53  -3.31  -2.32          -70.389848             +12.0056
iter:   9  14:27:44  -3.68  -2.67          -70.391009             +12.0017
iter:  10  14:28:36  -3.86  -2.86          -70.391692             +11.9998
iter:  11  14:29:27  -3.99  -2.94          -70.392265             +12.0000
iter:  12  14:30:18  -3.99  -3.04          -70.392577             +12.0000
iter:  13  14:31:10  -4.06  -3.11          -70.392788             +12.0000
iter:  14  14:32:01  -4.09  -3.15          -70.392894             +12.0000
iter:  15  14:32:52  -4.19  -3.27          -70.393056             +12.0000
iter:  16  14:33:43  -4.33  -3.32          -70.393176             +12.0000
iter:  17  14:34:35  -4.60  -3.37          -70.393233             +12.0000
iter:  18  14:35:26  -4.75  -3.56          -70.393304             +12.0000
iter:  19  14:36:17  -4.89  -3.65          -70.393351             +12.0000
iter:  20  14:37:09  -5.00  -3.74          -70.393393             +12.0000
iter:  21  14:38:00  -5.18  -4.25          -70.393420             +12.0000
iter:  22  14:38:51  -5.17  -4.26          -70.393441             +12.0000
iter:  23  14:39:43  -5.22  -4.26          -70.393457             +12.0000
iter:  24  14:40:34  -5.33  -4.12          -70.393467             +12.0000
iter:  25  14:41:25  -5.46  -4.23          -70.393474             +12.0000
iter:  26  14:42:17  -5.56  -4.24          -70.393480             +12.0000
iter:  27  14:43:08  -5.62  -4.22          -70.393484             +12.0000
iter:  28  14:43:59  -5.86  -4.27          -70.393491             +12.0000
iter:  29  14:44:50  -6.26  -4.16          -70.393492             +12.0000
iter:  30  14:45:42  -6.44  -4.27          -70.393495             +12.0000
iter:  31  14:46:33  -6.58  -4.22          -70.393494             +12.0000
iter:  32  14:47:24  -6.77  -4.43          -70.393495             +12.0000
iter:  33  14:48:15  -6.90  -4.44          -70.393496             +12.0000
iter:  34  14:49:06  -7.07  -4.45          -70.393496             +12.0000
iter:  35  14:49:58  -7.17  -4.44          -70.393496             +12.0000
iter:  36  14:50:49  -7.28  -4.45          -70.393496             +12.0000
iter:  37  14:51:50  -7.47  -4.64          -70.393496             +12.0000
iter:  38  14:52:52  -7.59  -4.77    -3.96 -70.393497             +12.0000
iter:  39  14:53:54  -7.63  -4.85    -3.11 -70.393497             +12.0000
iter:  40  14:54:56  -7.86  -5.01    -3.55 -70.393497             +12.0000
iter:  41  14:55:58  -7.98  -5.08    -4.41 -70.393497             +12.0000

Converged after 41 iterations.

Dipole moment: (-31.562291, 0.000710, -0.000040) |e|*Ang

Total magnetic moment: (0.000000, 0.000000, 12.000000)
Local magnetic moments:
   0 Cr ( 0.000000,  0.000000,  2.911268)
   1 Cr ( 0.000000,  0.000000,  2.915426)
   2 I  ( 0.000000,  0.000000, -0.046972)
   3 I  ( 0.000000,  0.000000, -0.046930)
   4 I  ( 0.000000,  0.000000, -0.046958)
   5 I  ( 0.000000,  0.000000, -0.049642)
   6 I  ( 0.000000,  0.000000, -0.049643)
   7 I  ( 0.000000,  0.000000, -0.049697)
   8 Cr ( 0.000000,  0.000000,  2.915367)
   9 Cr ( 0.000000,  0.000000,  2.911275)
  10 I  ( 0.000000,  0.000000, -0.049546)
  11 I  ( 0.000000,  0.000000, -0.050122)
  12 I  ( 0.000000,  0.000000, -0.049302)
  13 I  ( 0.000000,  0.000000, -0.047099)
  14 I  ( 0.000000,  0.000000, -0.047282)
  15 I  ( 0.000000,  0.000000, -0.046465)

Energy contributions relative to reference atoms: (reference = -2434708.556191)

Kinetic:        +23.289956
Potential:      -37.257321
External:        +0.000000
XC:             -56.598812
Entropy (-ST):   -0.000000
Local:           +0.172680
--------------------------
Free energy:    -70.393497
Extrapolated:   -70.393497

Spin contamination: 1.119572 electrons
Showing only first 2 kpts
                      Up                     Down
 Kpt  Band  Eigenvalues  Occupancy  Eigenvalues  Occupancy
  0    52     -2.13823    1.00000     -0.01119    0.00000
  0    53     -2.10346    1.00000      0.00475    0.00000
  0    54     -2.01882    1.00000      0.17977    0.00000
  0    55     -2.01807    1.00000      0.21046    0.00000

  1    52     -2.11817    1.00000     -0.01780    0.00000
  1    53     -2.07492    1.00000      0.02024    0.00000
  1    54     -2.01930    1.00000      0.16926    0.00000
  1    55     -1.98898    1.00000      0.20865    0.00000


Fermi level: -1.19460

Gap: 0.969 eV
Transition (v -> c):
  (s=0, k=138, n=59, [0.46, 0.04, 0.00]) -> (s=0, k=71, n=60, [-0.04, 0.46, 0.00])
Writing to born-0.01-8x+.gpw (mode='all')

Timing:                              incl.     excl.
-----------------------------------------------------------
Hamiltonian:                         2.712     0.011   0.0% |
 Atomic:                             1.218     1.218   0.0% |
  XC Correction:                     0.000     0.000   0.0% |
 Calculate atomic Hamiltonians:      0.323     0.323   0.0% |
 Communicate:                        0.000     0.000   0.0% |
 Initialize Hamiltonian:             0.004     0.004   0.0% |
 Poisson:                            0.011     0.011   0.0% |
 XC 3D grid:                         1.144     1.144   0.0% |
LCAO initialization:                21.461     0.141   0.0% |
 LCAO eigensolver:                   3.327     0.001   0.0% |
  Calculate projections:             0.004     0.004   0.0% |
  DenseAtomicCorrection:             0.005     0.005   0.0% |
  Distribute overlap matrix:         0.000     0.000   0.0% |
  Orbital Layouts:                   0.016     0.016   0.0% |
  Potential matrix:                  3.290     3.290   0.1% |
  Sum over cells:                    0.011     0.011   0.0% |
 LCAO to grid:                      17.709    17.709   0.3% |
 Set positions (LCAO WFS):           0.284     0.050   0.0% |
  Basic WFS set positions:           0.001     0.001   0.0% |
  Basis functions set positions:     0.000     0.000   0.0% |
  P tci:                             0.123     0.123   0.0% |
  ST tci:                            0.066     0.066   0.0% |
  mktci:                             0.044     0.044   0.0% |
PWDescriptor:                        0.088     0.088   0.0% |
SCF-cycle:                        2155.552   457.330   8.3% |--|
 Davidson:                        1351.198   216.792   4.0% |-|
  Apply H:                         233.896   227.039   4.1% |-|
   HMM T:                            6.857     6.857   0.1% |
  Subspace diag:                   284.518     0.062   0.0% |
   calc_h_matrix:                  252.553    18.339   0.3% |
    Apply H:                       234.214   226.994   4.1% |-|
     HMM T:                          7.220     7.220   0.1% |
   diagonalize:                      0.506     0.506   0.0% |
   rotate_psi:                      31.397    31.397   0.6% |
  calc. matrices:                  553.282   106.307   1.9% ||
   Apply H:                        446.975   434.257   7.9% |--|
    HMM T:                          12.718    12.718   0.2% |
  diagonalize:                       4.902     4.902   0.1% |
  rotate_psi:                       57.808    57.808   1.1% |
 Density:                          213.941     0.002   0.0% |
  Atomic density matrices:           0.293     0.293   0.0% |
  Mix:                              36.623    36.623   0.7% |
  Multipole moments:                 0.019     0.019   0.0% |
  Pseudo density:                  177.004   177.001   3.2% ||
   Symmetrize density:               0.004     0.004   0.0% |
 Forces:                            49.624    49.624   0.9% |
 Hamiltonian:                       81.698     0.684   0.0% |
  Atomic:                            5.010     5.010   0.1% |
   XC Correction:                    0.000     0.000   0.0% |
  Calculate atomic Hamiltonians:    26.220    26.220   0.5% |
  Communicate:                       0.006     0.006   0.0% |
  Poisson:                           0.473     0.473   0.0% |
  XC 3D grid:                       49.303    49.303   0.9% |
 Orthonormalize:                     1.760     0.002   0.0% |
  calc_s_matrix:                     0.230     0.230   0.0% |
  inverse-cholesky:                  0.004     0.004   0.0% |
  projections:                       1.061     1.061   0.0% |
  rotate_psi_s:                      0.463     0.463   0.0% |
Set symmetry:                        0.000     0.000   0.0% |
Other:                            3301.797  3301.797  60.2% |-----------------------|
-----------------------------------------------------------
Total:                                      5481.610 100.0%

Memory usage: 39.22 GiB
Date: Mon Jun 27 15:50:55 2022
