
  ___ ___ ___ _ _ _  
 |   |   |_  | | | | 
 | | | | | . | | | | 
 |__ |  _|___|_____|  21.6.1b1
 |___|_|             

User:   madkru@c153.nifl.fysik.dtu.dk
Date:   Sun Jun 26 14:12:05 2022
Arch:   x86_64
Pid:    48887
Python: 3.8.6
gpaw:   /home/niflheim/madkru/new_venv/gpaw/gpaw (1f0dfc9eae)
_gpaw:  /home/niflheim/madkru/new_venv/gpaw/build/lib.linux-x86_64-skylake-3.8/
        _gpaw.cpython-38-x86_64-linux-gnu.so (c1e45bfab3)
ase:    /home/niflheim/madkru/new_venv/ase/ase (version 3.23.0b1-ca38c75a67)
numpy:  /home/modules/software/SciPy-bundle/2020.11-foss-2020b/lib/python3.8/site-packages/numpy (version 1.19.4)
scipy:  /home/modules/software/SciPy-bundle/2020.11-foss-2020b/lib/python3.8/site-packages/scipy (version 1.5.4)
libxc:  4.3.4
units:  Angstrom and eV
cores: 40
OpenMP: False
OMP_NUM_THREADS: 1

Input parameters:
  convergence: {bands: occupied,
                density: 0.0001,
                eigenstates: 4e-08,
                energy: 0.0005,
                forces: 0.0001}
  kpts: [12 12  1]
  mode: {ecut: 600.0,
         gammacentered: False,
         name: pw}
  occupations: {fixmagmom: False,
                name: fermi-dirac,
                width: 0.001}
  symmetry: {point_group: False,
             time_reversal: False}

System changes: positions, numbers, cell, pbc, initial_charges, initial_magmoms 

Initialize ...

Cr-setup:
  name: Chromium
  id: 444e8044bc0f91048286c984738d87f5
  Z: 24.0
  valence: 6
  core: 18
  charge: 0.0
  file: /home/modules/software/GPAW-setups/0.9.20000/Cr.LDA.gz
  compensation charges: gauss, rc=0.35, lmax=2
  cutoffs: 2.14(filt), 3.04(core),
  valence states:
                energy  radius
    4s(1.00)    -4.191   1.164
    4p(0.00)    -1.079   1.217
    3d(5.00)    -3.128   1.111
    *s          23.021   1.164
    *p          26.132   1.217
    *d          24.083   1.111

  Using partial waves for Cr as LCAO basis

I-setup:
  name: Iodine
  id: b559721c0c096a7b4c8fc0e0f4de5cf4
  Z: 53.0
  valence: 7
  core: 46
  charge: 0.0
  file: /home/modules/software/GPAW-setups/0.9.20000/I.LDA.gz
  compensation charges: gauss, rc=0.37, lmax=2
  cutoffs: 2.06(filt), 2.90(core),
  valence states:
                energy  radius
    5s(2.00)   -17.626   1.164
    5p(5.00)    -7.241   1.164
    *s           9.585   1.164
    *p          19.970   1.164
    *d           0.000   1.164

  Using partial waves for I as LCAO basis

Reference energy: -2434708.556191

Spin-polarized calculation.
Magnetic moment: 12.175341

Convergence criteria:
  Maximum total energy change: 0.0005 eV / electron
  Maximum integral of absolute density change: 0.0001 electrons
  Maximum integral of absolute eigenstate change: 4e-08 eV^2
  Maximum change in atomic force: 0.0001 eV / Ang
  Maximum number of iterations: 333

Symmetries present (total): 1

  ( 1  0  0)
  ( 0  1  0)
  ( 0  0  1)

144 k-points: 12 x 12 x 1 Monkhorst-Pack grid
144 k-points in the irreducible part of the Brillouin zone
       k-points in crystal coordinates                weights
   0:    -0.45833333   -0.45833333    0.00000000          1/144
   1:    -0.45833333   -0.37500000    0.00000000          1/144
   2:    -0.45833333   -0.29166667    0.00000000          1/144
   3:    -0.45833333   -0.20833333    0.00000000          1/144
   4:    -0.45833333   -0.12500000    0.00000000          1/144
   5:    -0.45833333   -0.04166667    0.00000000          1/144
   6:    -0.45833333    0.04166667    0.00000000          1/144
   7:    -0.45833333    0.12500000    0.00000000          1/144
   8:    -0.45833333    0.20833333    0.00000000          1/144
   9:    -0.45833333    0.29166667    0.00000000          1/144
          ...
 143:     0.45833333    0.45833333    0.00000000          1/144

Wave functions: Plane wave expansion
  Cutoff energy: 600.000 eV
  Number of coefficients (min, max): 39797, 39902
  Pulay-stress correction: 0.000000 eV/Ang^3 (de/decut=0.000000)
  Using FFTW library
  ScaLapack parameters: grid=1x1, blocksize=None
  Wavefunction extrapolation:
    Improved wavefunction reuse through dual PAW basis 

Occupation numbers: Fermi-Dirac: width=0.0010 eV
 

Eigensolver
   Davidson(niter=2) 

Densities:
  Coarse grid: 42*42*160 grid
  Fine grid: 84*84*320 grid
  Total Charge: 0.000000 

Density mixing:
  Method: difference
  Backend: pulay
  Linear mixing parameter: 0.05
  Mixing with 5 old densities
  Damping of long wave oscillations: 50 

Hamiltonian:
  XC and Coulomb potentials evaluated on a 84*84*320 grid
  Using the LDA Exchange-Correlation functional
  External potential:
    <gpaw.external.NoExternalPotential object at 0x2b3324d0bb80>
 

Memory estimate:
  Process memory now: 40029.57 MiB
  Calculator: 580.26 MiB
    Density: 158.40 MiB
      Arrays: 75.37 MiB
      Localized functions: 52.88 MiB
      Mixer: 30.15 MiB
    Hamiltonian: 57.28 MiB
      Arrays: 55.99 MiB
      XC: 0.00 MiB
      Poisson: 0.00 MiB
      vbar: 1.29 MiB
    Wavefunctions: 364.58 MiB
      Arrays psit_nG: 281.29 MiB
      Eigensolver: 50.83 MiB
      Projections: 1.61 MiB
      Projectors: 18.26 MiB
      PW-descriptor: 12.59 MiB

Total number of cores used: 40
Parallelization over k-points: 40

Number of atoms: 16
Number of atomic orbitals: 84
Number of bands in calculation: 77
Number of valence electrons: 108
Bands to converge: occupied

... initialized

Initializing position-dependent things.

Density initialized from atomic densities
Creating initial wave functions:
  77 bands from LCAO basis set

                                       
                                       
                                       
                                       
                      I                
                            I          
                   I                   
                       Cr  I           
             Cr                        
                 I                     
                         I             
                     I                 
                             I         
               Cr                      
                   I   Cr              
          I                            
                 I                     
                        I              
                                       
                                       
                                       
                                       

Positions:
   0 Cr     0.889135    0.000185   -3.063135    ( 0.0000,  0.0000,  3.4336)
   1 Cr    -2.666158    2.052642   -3.080223    ( 0.0000,  0.0000,  3.4336)
   2 I      1.822012   -2.046247   -4.559876    ( 0.0000,  0.0000, -0.1299)
   3 I     -1.348662    0.216415   -4.570605    ( 0.0000,  0.0000, -0.1299)
   4 I     -4.915070    1.830062   -4.560598    ( 0.0000,  0.0000, -0.1299)
   5 I     -0.074828   -2.063434   -1.594960    ( 0.0000,  0.0000, -0.1299)
   6 I     -0.416551    1.865690   -1.594231    ( 0.0000,  0.0000, -0.1299)
   7 I      3.157525    0.197989   -1.594234    ( 0.0000,  0.0000, -0.1299)
   8 Cr    -2.666887   -2.052642    3.080226    ( 0.0000,  0.0000,  3.4336)
   9 Cr     0.888546   -0.000185    3.063139    ( 0.0000,  0.0000,  3.4336)
  10 I      1.852510    2.063434    1.594959    ( 0.0000,  0.0000, -0.1299)
  11 I      2.194233   -1.865690    1.594230    ( 0.0000,  0.0000, -0.1299)
  12 I     -1.379843   -0.197989    1.594233    ( 0.0000,  0.0000, -0.1299)
  13 I     -0.044330    2.046247    4.559875    ( 0.0000,  0.0000, -0.1299)
  14 I      3.126343   -0.216415    4.560604    ( 0.0000,  0.0000, -0.1299)
  15 I     -0.417976   -1.830062    4.560597    ( 0.0000,  0.0000, -0.1299)

Unit cell:
           periodic     x           y           z      points  spacing
  1. axis:    yes    7.110727   -0.000000    0.000000    42     0.1466
  2. axis:    yes   -3.555363    6.158070    0.000000    42     0.1466
  3. axis:    no     0.000000   -0.000000   27.269192   160     0.1704

  Lengths:   7.110727   7.110727  27.269192
  Angles:   90.000000  90.000000 120.000000

Effective grid spacing dv^(1/3) = 0.1617

                     log10-error:           total        iterations:
           time      wfs    density  force  energy       poisson  magmom
iter:   1  14:13:26                        -76.888703             +12.1076
iter:   2  14:14:17  -0.99  -0.91          -70.506561             +9.9703
iter:   3  14:15:09  -1.83  -1.33          -70.497863             +11.0197
iter:   4  14:16:00  -1.58  -1.38          -70.968931             +12.0925
iter:   5  14:16:52  -2.53  -1.51          -70.628076             +12.0156
iter:   6  14:17:43  -1.91  -1.83          -70.402566             +12.0005
iter:   7  14:18:34  -2.97  -2.20          -70.395240             +12.0039
iter:   8  14:19:26  -3.31  -2.32          -70.390010             +12.0055
iter:   9  14:20:17  -3.68  -2.68          -70.391190             +12.0017
iter:  10  14:21:08  -3.86  -2.86          -70.391864             +11.9998
iter:  11  14:22:00  -3.99  -2.95          -70.392431             +12.0000
iter:  12  14:22:51  -3.98  -3.05          -70.392739             +12.0000
iter:  13  14:23:43  -4.06  -3.12          -70.392954             +12.0000
iter:  14  14:24:34  -4.08  -3.16          -70.393073             +12.0000
iter:  15  14:25:26  -4.16  -3.27          -70.393236             +12.0000
iter:  16  14:26:17  -4.30  -3.32          -70.393355             +12.0000
iter:  17  14:27:08  -4.55  -3.37          -70.393411             +12.0000
iter:  18  14:28:00  -4.67  -3.58          -70.393479             +12.0000
iter:  19  14:28:51  -4.84  -3.63          -70.393524             +12.0000
iter:  20  14:29:43  -4.87  -3.76          -70.393568             +12.0000
iter:  21  14:30:34  -5.04  -4.02          -70.393600             +12.0000
iter:  22  14:31:25  -5.22  -4.00          -70.393622             +12.0000
iter:  23  14:32:17  -5.32  -4.00          -70.393639             +12.0000
iter:  24  14:33:08  -5.33  -3.95          -70.393646             +12.0000
iter:  25  14:34:00  -5.45  -4.24          -70.393653             +12.0000
iter:  26  14:34:51  -5.57  -4.29          -70.393659             +12.0000
iter:  27  14:35:42  -5.66  -4.32          -70.393663             +12.0000
iter:  28  14:36:34  -5.84  -4.31          -70.393667             +12.0000
iter:  29  14:37:25  -5.98  -4.33          -70.393671             +12.0000
iter:  30  14:38:17  -6.10  -4.36          -70.393672             +12.0000
iter:  31  14:39:08  -6.25  -4.57          -70.393674             +12.0000
iter:  32  14:40:00  -6.30  -4.65          -70.393674             +12.0000
iter:  33  14:40:51  -6.46  -4.86          -70.393676             +12.0000
iter:  34  14:41:42  -6.64  -5.13          -70.393676             +12.0000
iter:  35  14:42:34  -6.73  -5.31          -70.393676             +12.0000
iter:  36  14:43:25  -6.81  -5.31          -70.393677             +12.0000
iter:  37  14:44:16  -6.94  -5.27          -70.393677             +12.0000
iter:  38  14:45:07  -7.10  -5.24          -70.393677             +12.0000
iter:  39  14:45:59  -7.16  -5.22          -70.393677             +12.0000
iter:  40  14:46:50  -7.30  -5.25          -70.393677             +12.0000
iter:  41  14:47:41  -7.39  -5.26          -70.393677             +12.0000
iter:  42  14:48:42  -7.61  -5.20          -70.393678             +12.0000
iter:  43  14:49:44  -7.81  -5.25    -4.06 -70.393678             +12.0000

Converged after 43 iterations.

Dipole moment: (-31.570730, -0.000116, -0.000562) |e|*Ang

Total magnetic moment: (0.000000, 0.000000, 12.000000)
Local magnetic moments:
   0 Cr ( 0.000000,  0.000000,  2.912364)
   1 Cr ( 0.000000,  0.000000,  2.916532)
   2 I  ( 0.000000,  0.000000, -0.047223)
   3 I  ( 0.000000,  0.000000, -0.047425)
   4 I  ( 0.000000,  0.000000, -0.047200)
   5 I  ( 0.000000,  0.000000, -0.049863)
   6 I  ( 0.000000,  0.000000, -0.049418)
   7 I  ( 0.000000,  0.000000, -0.049835)
   8 Cr ( 0.000000,  0.000000,  2.915485)
   9 Cr ( 0.000000,  0.000000,  2.911322)
  10 I  ( 0.000000,  0.000000, -0.049658)
  11 I  ( 0.000000,  0.000000, -0.049654)
  12 I  ( 0.000000,  0.000000, -0.049706)
  13 I  ( 0.000000,  0.000000, -0.046977)
  14 I  ( 0.000000,  0.000000, -0.046941)
  15 I  ( 0.000000,  0.000000, -0.046954)

Energy contributions relative to reference atoms: (reference = -2434708.556191)

Kinetic:        +22.953652
Potential:      -36.981607
External:        +0.000000
XC:             -56.541623
Entropy (-ST):   -0.000000
Local:           +0.175900
--------------------------
Free energy:    -70.393678
Extrapolated:   -70.393678

Spin contamination: 1.121039 electrons
Showing only first 2 kpts
                      Up                     Down
 Kpt  Band  Eigenvalues  Occupancy  Eigenvalues  Occupancy
  0    52     -2.13956    1.00000     -0.01302    0.00000
  0    53     -2.10398    1.00000      0.00325    0.00000
  0    54     -2.02017    1.00000      0.17990    0.00000
  0    55     -2.01850    1.00000      0.21047    0.00000

  1    52     -2.11885    1.00000     -0.02042    0.00000
  1    53     -2.07518    1.00000      0.01850    0.00000
  1    54     -2.02060    1.00000      0.16956    0.00000
  1    55     -1.99016    1.00000      0.20846    0.00000


Fermi level: -1.19460

Gap: 0.970 eV
Transition (v -> c):
  (s=0, k=132, n=59, [0.46, -0.46, 0.00]) -> (s=0, k=126, n=60, [0.38, 0.04, 0.00])
Writing to born-0.01-3z-.gpw (mode='all')

Timing:                              incl.     excl.
-----------------------------------------------------------
Hamiltonian:                         2.605     0.011   0.0% |
 Atomic:                             1.101     1.101   0.0% |
  XC Correction:                     0.000     0.000   0.0% |
 Calculate atomic Hamiltonians:      0.337     0.337   0.0% |
 Communicate:                        0.000     0.000   0.0% |
 Initialize Hamiltonian:             0.004     0.004   0.0% |
 Poisson:                            0.012     0.012   0.0% |
 XC 3D grid:                         1.140     1.140   0.0% |
LCAO initialization:                21.142     0.142   0.0% |
 LCAO eigensolver:                   3.320     0.001   0.0% |
  Calculate projections:             0.004     0.004   0.0% |
  DenseAtomicCorrection:             0.006     0.006   0.0% |
  Distribute overlap matrix:         0.000     0.000   0.0% |
  Orbital Layouts:                   0.016     0.016   0.0% |
  Potential matrix:                  3.282     3.282   0.1% |
  Sum over cells:                    0.012     0.012   0.0% |
 LCAO to grid:                      17.396    17.396   0.3% |
 Set positions (LCAO WFS):           0.284     0.050   0.0% |
  Basic WFS set positions:           0.001     0.001   0.0% |
  Basis functions set positions:     0.000     0.000   0.0% |
  P tci:                             0.123     0.123   0.0% |
  ST tci:                            0.066     0.066   0.0% |
  mktci:                             0.044     0.044   0.0% |
PWDescriptor:                        0.087     0.087   0.0% |
SCF-cycle:                        2231.239   526.572   9.0% |---|
 Davidson:                        1375.198   233.601   4.0% |-|
  Apply H:                         225.997   219.393   3.8% |-|
   HMM T:                            6.604     6.604   0.1% |
  Subspace diag:                   281.284     0.059   0.0% |
   calc_h_matrix:                  248.130    19.961   0.3% |
    Apply H:                       228.170   221.304   3.8% |-|
     HMM T:                          6.866     6.866   0.1% |
   diagonalize:                      0.547     0.547   0.0% |
   rotate_psi:                      32.547    32.547   0.6% |
  calc. matrices:                  570.666   115.897   2.0% ||
   Apply H:                        454.769   441.157   7.6% |--|
    HMM T:                          13.612    13.612   0.2% |
  diagonalize:                       5.129     5.129   0.1% |
  rotate_psi:                       58.521    58.521   1.0% |
 Density:                          221.444     0.002   0.0% |
  Atomic density matrices:           0.308     0.308   0.0% |
  Mix:                              37.742    37.742   0.6% |
  Multipole moments:                 0.020     0.020   0.0% |
  Pseudo density:                  183.372   183.369   3.1% ||
   Symmetrize density:               0.003     0.003   0.0% |
 Forces:                            19.876    19.876   0.3% |
 Hamiltonian:                       86.562     0.549   0.0% |
  Atomic:                            7.235     7.235   0.1% |
   XC Correction:                    0.000     0.000   0.0% |
  Calculate atomic Hamiltonians:    27.505    27.505   0.5% |
  Communicate:                       0.007     0.007   0.0% |
  Poisson:                           0.519     0.519   0.0% |
  XC 3D grid:                       50.747    50.747   0.9% |
 Orthonormalize:                     1.587     0.001   0.0% |
  calc_s_matrix:                     0.211     0.211   0.0% |
  inverse-cholesky:                  0.004     0.004   0.0% |
  projections:                       0.993     0.993   0.0% |
  rotate_psi_s:                      0.378     0.378   0.0% |
Set symmetry:                        0.000     0.000   0.0% |
Other:                            3587.177  3587.177  61.4% |------------------------|
-----------------------------------------------------------
Total:                                      5842.249 100.0%

Memory usage: 39.09 GiB
Date: Sun Jun 26 15:49:27 2022
