
  ___ ___ ___ _ _ _  
 |   |   |_  | | | | 
 | | | | | . | | | | 
 |__ |  _|___|_____|  21.6.1b1
 |___|_|             

User:   madkru@c153.nifl.fysik.dtu.dk
Date:   Sun Jun 26 16:54:50 2022
Arch:   x86_64
Pid:    48887
Python: 3.8.6
gpaw:   /home/niflheim/madkru/new_venv/gpaw/gpaw (1f0dfc9eae)
_gpaw:  /home/niflheim/madkru/new_venv/gpaw/build/lib.linux-x86_64-skylake-3.8/
        _gpaw.cpython-38-x86_64-linux-gnu.so (c1e45bfab3)
ase:    /home/niflheim/madkru/new_venv/ase/ase (version 3.23.0b1-ca38c75a67)
numpy:  /home/modules/software/SciPy-bundle/2020.11-foss-2020b/lib/python3.8/site-packages/numpy (version 1.19.4)
scipy:  /home/modules/software/SciPy-bundle/2020.11-foss-2020b/lib/python3.8/site-packages/scipy (version 1.5.4)
libxc:  4.3.4
units:  Angstrom and eV
cores: 40
OpenMP: False
OMP_NUM_THREADS: 1

Input parameters:
  convergence: {bands: occupied,
                density: 0.0001,
                eigenstates: 4e-08,
                energy: 0.0005,
                forces: 0.0001}
  kpts: [12 12  1]
  mode: {ecut: 600.0,
         gammacentered: False,
         name: pw}
  occupations: {fixmagmom: False,
                name: fermi-dirac,
                width: 0.001}
  symmetry: {point_group: False,
             time_reversal: False}

System changes: positions, numbers, cell, pbc, initial_charges, initial_magmoms 

Initialize ...

Cr-setup:
  name: Chromium
  id: 444e8044bc0f91048286c984738d87f5
  Z: 24.0
  valence: 6
  core: 18
  charge: 0.0
  file: /home/modules/software/GPAW-setups/0.9.20000/Cr.LDA.gz
  compensation charges: gauss, rc=0.35, lmax=2
  cutoffs: 2.14(filt), 3.04(core),
  valence states:
                energy  radius
    4s(1.00)    -4.191   1.164
    4p(0.00)    -1.079   1.217
    3d(5.00)    -3.128   1.111
    *s          23.021   1.164
    *p          26.132   1.217
    *d          24.083   1.111

  Using partial waves for Cr as LCAO basis

I-setup:
  name: Iodine
  id: b559721c0c096a7b4c8fc0e0f4de5cf4
  Z: 53.0
  valence: 7
  core: 46
  charge: 0.0
  file: /home/modules/software/GPAW-setups/0.9.20000/I.LDA.gz
  compensation charges: gauss, rc=0.37, lmax=2
  cutoffs: 2.06(filt), 2.90(core),
  valence states:
                energy  radius
    5s(2.00)   -17.626   1.164
    5p(5.00)    -7.241   1.164
    *s           9.585   1.164
    *p          19.970   1.164
    *d           0.000   1.164

  Using partial waves for I as LCAO basis

Reference energy: -2434708.556191

Spin-polarized calculation.
Magnetic moment: 12.175341

Convergence criteria:
  Maximum total energy change: 0.0005 eV / electron
  Maximum integral of absolute density change: 0.0001 electrons
  Maximum integral of absolute eigenstate change: 4e-08 eV^2
  Maximum change in atomic force: 0.0001 eV / Ang
  Maximum number of iterations: 333

Symmetries present (total): 1

  ( 1  0  0)
  ( 0  1  0)
  ( 0  0  1)

144 k-points: 12 x 12 x 1 Monkhorst-Pack grid
144 k-points in the irreducible part of the Brillouin zone
       k-points in crystal coordinates                weights
   0:    -0.45833333   -0.45833333    0.00000000          1/144
   1:    -0.45833333   -0.37500000    0.00000000          1/144
   2:    -0.45833333   -0.29166667    0.00000000          1/144
   3:    -0.45833333   -0.20833333    0.00000000          1/144
   4:    -0.45833333   -0.12500000    0.00000000          1/144
   5:    -0.45833333   -0.04166667    0.00000000          1/144
   6:    -0.45833333    0.04166667    0.00000000          1/144
   7:    -0.45833333    0.12500000    0.00000000          1/144
   8:    -0.45833333    0.20833333    0.00000000          1/144
   9:    -0.45833333    0.29166667    0.00000000          1/144
          ...
 143:     0.45833333    0.45833333    0.00000000          1/144

Wave functions: Plane wave expansion
  Cutoff energy: 600.000 eV
  Number of coefficients (min, max): 39797, 39902
  Pulay-stress correction: 0.000000 eV/Ang^3 (de/decut=0.000000)
  Using FFTW library
  ScaLapack parameters: grid=1x1, blocksize=None
  Wavefunction extrapolation:
    Improved wavefunction reuse through dual PAW basis 

Occupation numbers: Fermi-Dirac: width=0.0010 eV
 

Eigensolver
   Davidson(niter=2) 

Densities:
  Coarse grid: 42*42*160 grid
  Fine grid: 84*84*320 grid
  Total Charge: 0.000000 

Density mixing:
  Method: difference
  Backend: pulay
  Linear mixing parameter: 0.05
  Mixing with 5 old densities
  Damping of long wave oscillations: 50 

Hamiltonian:
  XC and Coulomb potentials evaluated on a 84*84*320 grid
  Using the LDA Exchange-Correlation functional
  External potential:
    <gpaw.external.NoExternalPotential object at 0x2b33281859d0>
 

Memory estimate:
  Process memory now: 40029.57 MiB
  Calculator: 580.26 MiB
    Density: 158.40 MiB
      Arrays: 75.37 MiB
      Localized functions: 52.88 MiB
      Mixer: 30.15 MiB
    Hamiltonian: 57.28 MiB
      Arrays: 55.99 MiB
      XC: 0.00 MiB
      Poisson: 0.00 MiB
      vbar: 1.29 MiB
    Wavefunctions: 364.58 MiB
      Arrays psit_nG: 281.29 MiB
      Eigensolver: 50.83 MiB
      Projections: 1.61 MiB
      Projectors: 18.26 MiB
      PW-descriptor: 12.59 MiB

Total number of cores used: 40
Parallelization over k-points: 40

Number of atoms: 16
Number of atomic orbitals: 84
Number of bands in calculation: 77
Number of valence electrons: 108
Bands to converge: occupied

... initialized

Initializing position-dependent things.

Density initialized from atomic densities
Creating initial wave functions:
  77 bands from LCAO basis set

                                       
                                       
                                       
                                       
                      I                
                            I          
                   I                   
                       Cr  I           
             Cr                        
                 I                     
                         I             
                     I                 
                             I         
               Cr                      
                   I   Cr              
          I                            
                 I                     
                        I              
                                       
                                       
                                       
                                       

Positions:
   0 Cr     0.889135    0.000185   -3.063135    ( 0.0000,  0.0000,  3.4336)
   1 Cr    -2.666158    2.052642   -3.080223    ( 0.0000,  0.0000,  3.4336)
   2 I      1.822012   -2.046247   -4.559876    ( 0.0000,  0.0000, -0.1299)
   3 I     -1.348662    0.216415   -4.560605    ( 0.0000,  0.0000, -0.1299)
   4 I     -4.905070    1.830062   -4.560598    ( 0.0000,  0.0000, -0.1299)
   5 I     -0.074828   -2.063434   -1.594960    ( 0.0000,  0.0000, -0.1299)
   6 I     -0.416551    1.865690   -1.594231    ( 0.0000,  0.0000, -0.1299)
   7 I      3.157525    0.197989   -1.594234    ( 0.0000,  0.0000, -0.1299)
   8 Cr    -2.666887   -2.052642    3.080226    ( 0.0000,  0.0000,  3.4336)
   9 Cr     0.888546   -0.000185    3.063139    ( 0.0000,  0.0000,  3.4336)
  10 I      1.852510    2.063434    1.594959    ( 0.0000,  0.0000, -0.1299)
  11 I      2.194233   -1.865690    1.594230    ( 0.0000,  0.0000, -0.1299)
  12 I     -1.379843   -0.197989    1.594233    ( 0.0000,  0.0000, -0.1299)
  13 I     -0.044330    2.046247    4.559875    ( 0.0000,  0.0000, -0.1299)
  14 I      3.126343   -0.216415    4.560604    ( 0.0000,  0.0000, -0.1299)
  15 I     -0.417976   -1.830062    4.560597    ( 0.0000,  0.0000, -0.1299)

Unit cell:
           periodic     x           y           z      points  spacing
  1. axis:    yes    7.110727   -0.000000    0.000000    42     0.1466
  2. axis:    yes   -3.555363    6.158070    0.000000    42     0.1466
  3. axis:    no     0.000000   -0.000000   27.269192   160     0.1704

  Lengths:   7.110727   7.110727  27.269192
  Angles:   90.000000  90.000000 120.000000

Effective grid spacing dv^(1/3) = 0.1617

                     log10-error:           total        iterations:
           time      wfs    density  force  energy       poisson  magmom
iter:   1  16:56:11                        -76.903397             +12.1076
iter:   2  16:57:03  -0.99  -0.91          -70.503315             +9.9598
iter:   3  16:57:55  -1.83  -1.33          -70.497064             +11.0139
iter:   4  16:58:47  -1.58  -1.38          -70.967868             +12.0928
iter:   5  16:59:39  -2.53  -1.51          -70.628809             +12.0160
iter:   6  17:00:31  -1.91  -1.83          -70.402203             +12.0005
iter:   7  17:01:22  -2.97  -2.20          -70.395304             +12.0039
iter:   8  17:02:14  -3.31  -2.31          -70.390031             +12.0056
iter:   9  17:03:06  -3.68  -2.67          -70.391191             +12.0017
iter:  10  17:03:58  -3.86  -2.86          -70.391874             +11.9998
iter:  11  17:04:50  -3.99  -2.94          -70.392448             +12.0000
iter:  12  17:05:42  -3.99  -3.03          -70.392762             +12.0000
iter:  13  17:06:34  -4.05  -3.10          -70.392974             +12.0000
iter:  14  17:07:26  -4.09  -3.14          -70.393075             +12.0000
iter:  15  17:08:18  -4.19  -3.27          -70.393238             +12.0000
iter:  16  17:09:10  -4.34  -3.32          -70.393356             +12.0000
iter:  17  17:10:01  -4.59  -3.39          -70.393415             +12.0000
iter:  18  17:10:53  -4.75  -3.55          -70.393485             +12.0000
iter:  19  17:11:45  -4.88  -3.67          -70.393532             +12.0000
iter:  20  17:12:37  -4.99  -3.73          -70.393575             +12.0000
iter:  21  17:13:29  -5.16  -4.09          -70.393602             +12.0000
iter:  22  17:14:21  -5.18  -4.15          -70.393623             +12.0000
iter:  23  17:15:13  -5.31  -4.13          -70.393639             +12.0000
iter:  24  17:16:05  -5.54  -4.11          -70.393650             +12.0000
iter:  25  17:16:57  -5.61  -4.09          -70.393657             +12.0000
iter:  26  17:17:49  -5.81  -4.14          -70.393664             +12.0000
iter:  27  17:18:41  -5.93  -4.12          -70.393671             +12.0000
iter:  28  17:19:33  -6.18  -4.08          -70.393673             +12.0000
iter:  29  17:20:25  -6.34  -4.05          -70.393674             +12.0000
iter:  30  17:21:16  -6.43  -4.19          -70.393676             +12.0000
iter:  31  17:22:08  -6.58  -4.13          -70.393678             +12.0000
iter:  32  17:23:00  -6.74  -4.15          -70.393679             +12.0000
iter:  33  17:23:52  -6.90  -4.17          -70.393679             +12.0000
iter:  34  17:24:44  -6.73  -4.22          -70.393678             +12.0000
iter:  35  17:25:36  -7.23  -4.54          -70.393678             +12.0000
iter:  36  17:26:28  -7.33  -4.58          -70.393678             +12.0000
iter:  37  17:27:30  -7.52  -4.60          -70.393678             +12.0000
iter:  38  17:28:33  -7.64  -4.64    -3.55 -70.393678             +12.0000
iter:  39  17:29:35  -7.66  -4.70    -3.56 -70.393678             +12.0000
iter:  40  17:30:38  -7.89  -4.73    -3.31 -70.393678             +12.0000
iter:  41  17:31:41  -7.95  -4.76    -2.83 -70.393678             +12.0000
iter:  42  17:32:43  -8.21  -4.88    -3.77 -70.393678             +12.0000
iter:  43  17:33:46  -8.32  -5.02    -3.39 -70.393678             +12.0000
iter:  44  17:34:49  -8.49  -5.26    -3.84 -70.393678             +12.0000
iter:  45  17:35:52  -8.63  -5.38    -3.67 -70.393678             +12.0000
iter:  46  17:36:54  -8.78  -5.50    -3.77 -70.393678             +12.0000
iter:  47  17:37:57  -8.85  -5.57    -4.18 -70.393678             +12.0000

Converged after 47 iterations.

Dipole moment: (-31.569227, -0.001130, 0.000644) |e|*Ang

Total magnetic moment: (0.000000, 0.000000, 12.000000)
Local magnetic moments:
   0 Cr ( 0.000000,  0.000000,  2.912601)
   1 Cr ( 0.000000,  0.000000,  2.913398)
   2 I  ( 0.000000,  0.000000, -0.047023)
   3 I  ( 0.000000,  0.000000, -0.046849)
   4 I  ( 0.000000,  0.000000, -0.046835)
   5 I  ( 0.000000,  0.000000, -0.049784)
   6 I  ( 0.000000,  0.000000, -0.049315)
   7 I  ( 0.000000,  0.000000, -0.049718)
   8 Cr ( 0.000000,  0.000000,  2.915440)
   9 Cr ( 0.000000,  0.000000,  2.911284)
  10 I  ( 0.000000,  0.000000, -0.049618)
  11 I  ( 0.000000,  0.000000, -0.049656)
  12 I  ( 0.000000,  0.000000, -0.049660)
  13 I  ( 0.000000,  0.000000, -0.046977)
  14 I  ( 0.000000,  0.000000, -0.046933)
  15 I  ( 0.000000,  0.000000, -0.046954)

Energy contributions relative to reference atoms: (reference = -2434708.556191)

Kinetic:        +23.368386
Potential:      -37.325168
External:        +0.000000
XC:             -56.613020
Entropy (-ST):   -0.000000
Local:           +0.176123
--------------------------
Free energy:    -70.393678
Extrapolated:   -70.393678

Spin contamination: 1.119248 electrons
Showing only first 2 kpts
                      Up                     Down
 Kpt  Band  Eigenvalues  Occupancy  Eigenvalues  Occupancy
  0    52     -2.13794    1.00000     -0.01152    0.00000
  0    53     -2.10216    1.00000      0.00364    0.00000
  0    54     -2.01857    1.00000      0.18075    0.00000
  0    55     -2.01802    1.00000      0.21127    0.00000

  1    52     -2.11729    1.00000     -0.01820    0.00000
  1    53     -2.07349    1.00000      0.01946    0.00000
  1    54     -2.01935    1.00000      0.17043    0.00000
  1    55     -1.98902    1.00000      0.20952    0.00000


Fermi level: -1.19018

Gap: 0.970 eV
Transition (v -> c):
  (s=0, k=138, n=59, [0.46, 0.04, 0.00]) -> (s=0, k=121, n=60, [0.38, -0.38, 0.00])
Writing to born-0.01-4x+.gpw (mode='all')

Timing:                              incl.     excl.
-----------------------------------------------------------
Hamiltonian:                         2.820     0.010   0.0% |
 Atomic:                             1.329     1.329   0.0% |
  XC Correction:                     0.000     0.000   0.0% |
 Calculate atomic Hamiltonians:      0.324     0.324   0.0% |
 Communicate:                        0.000     0.000   0.0% |
 Initialize Hamiltonian:             0.004     0.004   0.0% |
 Poisson:                            0.011     0.011   0.0% |
 XC 3D grid:                         1.141     1.141   0.0% |
LCAO initialization:                21.210     0.141   0.0% |
 LCAO eigensolver:                   3.324     0.001   0.0% |
  Calculate projections:             0.004     0.004   0.0% |
  DenseAtomicCorrection:             0.005     0.005   0.0% |
  Distribute overlap matrix:         0.000     0.000   0.0% |
  Orbital Layouts:                   0.016     0.016   0.0% |
  Potential matrix:                  3.287     3.287   0.1% |
  Sum over cells:                    0.011     0.011   0.0% |
 LCAO to grid:                      17.463    17.463   0.3% |
 Set positions (LCAO WFS):           0.281     0.050   0.0% |
  Basic WFS set positions:           0.001     0.001   0.0% |
  Basis functions set positions:     0.000     0.000   0.0% |
  P tci:                             0.124     0.124   0.0% |
  ST tci:                            0.063     0.063   0.0% |
  mktci:                             0.043     0.043   0.0% |
PWDescriptor:                        0.087     0.087   0.0% |
SCF-cycle:                        2558.920   562.430   9.5% |---|
 Davidson:                        1538.949   246.997   4.2% |-|
  Apply H:                         266.920   259.146   4.4% |-|
   HMM T:                            7.774     7.774   0.1% |
  Subspace diag:                   324.481     0.070   0.0% |
   calc_h_matrix:                  287.470    20.892   0.4% |
    Apply H:                       266.577   258.597   4.4% |-|
     HMM T:                          7.980     7.980   0.1% |
   diagonalize:                      0.589     0.589   0.0% |
   rotate_psi:                      36.353    36.353   0.6% |
  calc. matrices:                  628.608   119.726   2.0% ||
   Apply H:                        508.882   494.463   8.3% |--|
    HMM T:                          14.419    14.419   0.2% |
  diagonalize:                       5.622     5.622   0.1% |
  rotate_psi:                       66.321    66.321   1.1% |
 Density:                          253.130     0.002   0.0% |
  Atomic density matrices:           0.345     0.345   0.0% |
  Mix:                              42.060    42.060   0.7% |
  Multipole moments:                 0.021     0.021   0.0% |
  Pseudo density:                  210.701   210.698   3.5% ||
   Symmetrize density:               0.003     0.003   0.0% |
 Forces:                           108.557   108.557   1.8% ||
 Hamiltonian:                       94.151     0.831   0.0% |
  Atomic:                            5.464     5.464   0.1% |
   XC Correction:                    0.000     0.000   0.0% |
  Calculate atomic Hamiltonians:    30.531    30.531   0.5% |
  Communicate:                       0.009     0.009   0.0% |
  Poisson:                           0.534     0.534   0.0% |
  XC 3D grid:                       56.783    56.783   1.0% |
 Orthonormalize:                     1.703     0.002   0.0% |
  calc_s_matrix:                     0.224     0.224   0.0% |
  inverse-cholesky:                  0.004     0.004   0.0% |
  projections:                       1.032     1.032   0.0% |
  rotate_psi_s:                      0.442     0.442   0.0% |
Set symmetry:                        0.000     0.000   0.0% |
Other:                            3352.424  3352.424  56.5% |----------------------|
-----------------------------------------------------------
Total:                                      5935.461 100.0%

Memory usage: 39.09 GiB
Date: Sun Jun 26 18:33:46 2022
