
  ___ ___ ___ _ _ _  
 |   |   |_  | | | | 
 | | | | | . | | | | 
 |__ |  _|___|_____|  21.6.1b1
 |___|_|             

User:   madkru@c153.nifl.fysik.dtu.dk
Date:   Sun Jun 26 05:07:37 2022
Arch:   x86_64
Pid:    48887
Python: 3.8.6
gpaw:   /home/niflheim/madkru/new_venv/gpaw/gpaw (1f0dfc9eae)
_gpaw:  /home/niflheim/madkru/new_venv/gpaw/build/lib.linux-x86_64-skylake-3.8/
        _gpaw.cpython-38-x86_64-linux-gnu.so (c1e45bfab3)
ase:    /home/niflheim/madkru/new_venv/ase/ase (version 3.23.0b1-ca38c75a67)
numpy:  /home/modules/software/SciPy-bundle/2020.11-foss-2020b/lib/python3.8/site-packages/numpy (version 1.19.4)
scipy:  /home/modules/software/SciPy-bundle/2020.11-foss-2020b/lib/python3.8/site-packages/scipy (version 1.5.4)
libxc:  4.3.4
units:  Angstrom and eV
cores: 40
OpenMP: False
OMP_NUM_THREADS: 1

Input parameters:
  convergence: {bands: occupied,
                density: 0.0001,
                eigenstates: 4e-08,
                energy: 0.0005,
                forces: 0.0001}
  kpts: [12 12  1]
  mode: {ecut: 600.0,
         gammacentered: False,
         name: pw}
  occupations: {fixmagmom: False,
                name: fermi-dirac,
                width: 0.001}
  symmetry: {point_group: False,
             time_reversal: False}

System changes: positions, numbers, cell, pbc, initial_charges, initial_magmoms 

Initialize ...

Cr-setup:
  name: Chromium
  id: 444e8044bc0f91048286c984738d87f5
  Z: 24.0
  valence: 6
  core: 18
  charge: 0.0
  file: /home/modules/software/GPAW-setups/0.9.20000/Cr.LDA.gz
  compensation charges: gauss, rc=0.35, lmax=2
  cutoffs: 2.14(filt), 3.04(core),
  valence states:
                energy  radius
    4s(1.00)    -4.191   1.164
    4p(0.00)    -1.079   1.217
    3d(5.00)    -3.128   1.111
    *s          23.021   1.164
    *p          26.132   1.217
    *d          24.083   1.111

  Using partial waves for Cr as LCAO basis

I-setup:
  name: Iodine
  id: b559721c0c096a7b4c8fc0e0f4de5cf4
  Z: 53.0
  valence: 7
  core: 46
  charge: 0.0
  file: /home/modules/software/GPAW-setups/0.9.20000/I.LDA.gz
  compensation charges: gauss, rc=0.37, lmax=2
  cutoffs: 2.06(filt), 2.90(core),
  valence states:
                energy  radius
    5s(2.00)   -17.626   1.164
    5p(5.00)    -7.241   1.164
    *s           9.585   1.164
    *p          19.970   1.164
    *d           0.000   1.164

  Using partial waves for I as LCAO basis

Reference energy: -2434708.556191

Spin-polarized calculation.
Magnetic moment: 12.175341

Convergence criteria:
  Maximum total energy change: 0.0005 eV / electron
  Maximum integral of absolute density change: 0.0001 electrons
  Maximum integral of absolute eigenstate change: 4e-08 eV^2
  Maximum change in atomic force: 0.0001 eV / Ang
  Maximum number of iterations: 333

Symmetries present (total): 1

  ( 1  0  0)
  ( 0  1  0)
  ( 0  0  1)

144 k-points: 12 x 12 x 1 Monkhorst-Pack grid
144 k-points in the irreducible part of the Brillouin zone
       k-points in crystal coordinates                weights
   0:    -0.45833333   -0.45833333    0.00000000          1/144
   1:    -0.45833333   -0.37500000    0.00000000          1/144
   2:    -0.45833333   -0.29166667    0.00000000          1/144
   3:    -0.45833333   -0.20833333    0.00000000          1/144
   4:    -0.45833333   -0.12500000    0.00000000          1/144
   5:    -0.45833333   -0.04166667    0.00000000          1/144
   6:    -0.45833333    0.04166667    0.00000000          1/144
   7:    -0.45833333    0.12500000    0.00000000          1/144
   8:    -0.45833333    0.20833333    0.00000000          1/144
   9:    -0.45833333    0.29166667    0.00000000          1/144
          ...
 143:     0.45833333    0.45833333    0.00000000          1/144

Wave functions: Plane wave expansion
  Cutoff energy: 600.000 eV
  Number of coefficients (min, max): 39797, 39902
  Pulay-stress correction: 0.000000 eV/Ang^3 (de/decut=0.000000)
  Using FFTW library
  ScaLapack parameters: grid=1x1, blocksize=None
  Wavefunction extrapolation:
    Improved wavefunction reuse through dual PAW basis 

Occupation numbers: Fermi-Dirac: width=0.0010 eV
 

Eigensolver
   Davidson(niter=2) 

Densities:
  Coarse grid: 42*42*160 grid
  Fine grid: 84*84*320 grid
  Total Charge: 0.000000 

Density mixing:
  Method: difference
  Backend: pulay
  Linear mixing parameter: 0.05
  Mixing with 5 old densities
  Damping of long wave oscillations: 50 

Hamiltonian:
  XC and Coulomb potentials evaluated on a 84*84*320 grid
  Using the LDA Exchange-Correlation functional
  External potential:
    <gpaw.external.NoExternalPotential object at 0x2b332cf04d30>
 

Memory estimate:
  Process memory now: 39927.33 MiB
  Calculator: 580.26 MiB
    Density: 158.40 MiB
      Arrays: 75.37 MiB
      Localized functions: 52.88 MiB
      Mixer: 30.15 MiB
    Hamiltonian: 57.28 MiB
      Arrays: 55.99 MiB
      XC: 0.00 MiB
      Poisson: 0.00 MiB
      vbar: 1.29 MiB
    Wavefunctions: 364.58 MiB
      Arrays psit_nG: 281.29 MiB
      Eigensolver: 50.83 MiB
      Projections: 1.61 MiB
      Projectors: 18.26 MiB
      PW-descriptor: 12.59 MiB

Total number of cores used: 40
Parallelization over k-points: 40

Number of atoms: 16
Number of atomic orbitals: 84
Number of bands in calculation: 77
Number of valence electrons: 108
Bands to converge: occupied

... initialized

Initializing position-dependent things.

Density initialized from atomic densities
Creating initial wave functions:
  77 bands from LCAO basis set

                                       
                                       
                                       
                                       
                      I                
                            I          
                   I                   
                       Cr  I           
             Cr                        
                 I                     
                         I             
                     I                 
                             I         
               Cr                      
                   I   Cr              
          I                            
                 I                     
                        I              
                                       
                                       
                                       
                                       

Positions:
   0 Cr     0.889135    0.000185   -3.063135    ( 0.0000,  0.0000,  3.4336)
   1 Cr    -2.666158    2.052642   -3.080223    ( 0.0000,  0.0000,  3.4336)
   2 I      1.812012   -2.046247   -4.559876    ( 0.0000,  0.0000, -0.1299)
   3 I     -1.348662    0.216415   -4.560605    ( 0.0000,  0.0000, -0.1299)
   4 I     -4.915070    1.830062   -4.560598    ( 0.0000,  0.0000, -0.1299)
   5 I     -0.074828   -2.063434   -1.594960    ( 0.0000,  0.0000, -0.1299)
   6 I     -0.416551    1.865690   -1.594231    ( 0.0000,  0.0000, -0.1299)
   7 I      3.157525    0.197989   -1.594234    ( 0.0000,  0.0000, -0.1299)
   8 Cr    -2.666887   -2.052642    3.080226    ( 0.0000,  0.0000,  3.4336)
   9 Cr     0.888546   -0.000185    3.063139    ( 0.0000,  0.0000,  3.4336)
  10 I      1.852510    2.063434    1.594959    ( 0.0000,  0.0000, -0.1299)
  11 I      2.194233   -1.865690    1.594230    ( 0.0000,  0.0000, -0.1299)
  12 I     -1.379843   -0.197989    1.594233    ( 0.0000,  0.0000, -0.1299)
  13 I     -0.044330    2.046247    4.559875    ( 0.0000,  0.0000, -0.1299)
  14 I      3.126343   -0.216415    4.560604    ( 0.0000,  0.0000, -0.1299)
  15 I     -0.417976   -1.830062    4.560597    ( 0.0000,  0.0000, -0.1299)

Unit cell:
           periodic     x           y           z      points  spacing
  1. axis:    yes    7.110727   -0.000000    0.000000    42     0.1466
  2. axis:    yes   -3.555363    6.158070    0.000000    42     0.1466
  3. axis:    no     0.000000   -0.000000   27.269192   160     0.1704

  Lengths:   7.110727   7.110727  27.269192
  Angles:   90.000000  90.000000 120.000000

Effective grid spacing dv^(1/3) = 0.1617

                     log10-error:           total        iterations:
           time      wfs    density  force  energy       poisson  magmom
iter:   1  05:08:58                        -76.906795             +12.1076
iter:   2  05:09:50  -0.99  -0.91          -70.503408             +9.9584
iter:   3  05:10:41  -1.83  -1.33          -70.497101             +11.0131
iter:   4  05:11:33  -1.58  -1.38          -70.968102             +12.0928
iter:   5  05:12:25  -2.53  -1.51          -70.629127             +12.0160
iter:   6  05:13:17  -1.91  -1.83          -70.402226             +12.0006
iter:   7  05:14:09  -2.97  -2.20          -70.395377             +12.0040
iter:   8  05:15:01  -3.31  -2.31          -70.390127             +12.0056
iter:   9  05:15:52  -3.68  -2.67          -70.391283             +12.0017
iter:  10  05:16:44  -3.86  -2.86          -70.391967             +11.9997
iter:  11  05:17:36  -3.99  -2.94          -70.392541             +12.0000
iter:  12  05:18:28  -3.99  -3.03          -70.392856             +12.0000
iter:  13  05:19:20  -4.05  -3.10          -70.393067             +12.0000
iter:  14  05:20:12  -4.10  -3.14          -70.393168             +12.0000
iter:  15  05:21:04  -4.19  -3.26          -70.393330             +12.0000
iter:  16  05:21:55  -4.34  -3.32          -70.393449             +12.0000
iter:  17  05:22:47  -4.60  -3.39          -70.393508             +12.0000
iter:  18  05:23:39  -4.75  -3.55          -70.393578             +12.0000
iter:  19  05:24:31  -4.88  -3.67          -70.393625             +12.0000
iter:  20  05:25:23  -4.99  -3.73          -70.393668             +12.0000
iter:  21  05:26:15  -5.16  -4.07          -70.393695             +12.0000
iter:  22  05:27:07  -5.17  -4.13          -70.393715             +12.0000
iter:  23  05:27:58  -5.28  -4.11          -70.393731             +12.0000
iter:  24  05:28:50  -5.51  -4.11          -70.393742             +12.0000
iter:  25  05:29:42  -5.59  -4.08          -70.393750             +12.0000
iter:  26  05:30:34  -5.79  -4.10          -70.393758             +12.0000
iter:  27  05:31:26  -5.92  -4.05          -70.393763             +12.0000
iter:  28  05:32:18  -6.16  -4.15          -70.393766             +12.0000
iter:  29  05:33:10  -6.34  -4.08          -70.393767             +12.0000
iter:  30  05:34:02  -6.32  -4.20          -70.393768             +12.0000
iter:  31  05:34:54  -6.55  -4.16          -70.393770             +12.0000
iter:  32  05:35:45  -6.74  -4.22          -70.393771             +12.0000
iter:  33  05:36:37  -6.90  -4.26          -70.393770             +12.0000
iter:  34  05:37:29  -6.89  -4.35          -70.393770             +12.0000
iter:  35  05:38:21  -7.25  -4.66          -70.393770             +12.0000
iter:  36  05:39:13  -7.34  -4.75          -70.393770             +12.0000
iter:  37  05:40:15  -7.49  -4.88          -70.393770             +12.0000
iter:  38  05:41:17  -7.59  -5.07    -3.46 -70.393770             +12.0000
iter:  39  05:42:20  -7.69  -5.23    -3.78 -70.393770             +12.0000
iter:  40  05:43:22  -7.77  -5.29    -3.87 -70.393770             +12.0000
iter:  41  05:44:25  -7.88  -5.32    -4.18 -70.393770             +12.0000

Converged after 41 iterations.

Dipole moment: (-31.731353, 0.000819, -0.000087) |e|*Ang

Total magnetic moment: (0.000000, 0.000000, 12.000000)
Local magnetic moments:
   0 Cr ( 0.000000,  0.000000,  2.910580)
   1 Cr ( 0.000000,  0.000000,  2.914718)
   2 I  ( 0.000000,  0.000000, -0.046719)
   3 I  ( 0.000000,  0.000000, -0.046907)
   4 I  ( 0.000000,  0.000000, -0.046917)
   5 I  ( 0.000000,  0.000000, -0.049775)
   6 I  ( 0.000000,  0.000000, -0.049433)
   7 I  ( 0.000000,  0.000000, -0.049439)
   8 Cr ( 0.000000,  0.000000,  2.915423)
   9 Cr ( 0.000000,  0.000000,  2.911285)
  10 I  ( 0.000000,  0.000000, -0.049666)
  11 I  ( 0.000000,  0.000000, -0.049628)
  12 I  ( 0.000000,  0.000000, -0.049663)
  13 I  ( 0.000000,  0.000000, -0.046973)
  14 I  ( 0.000000,  0.000000, -0.046936)
  15 I  ( 0.000000,  0.000000, -0.046950)

Energy contributions relative to reference atoms: (reference = -2434708.556191)

Kinetic:        +23.461205
Potential:      -37.398844
External:        +0.000000
XC:             -56.629315
Entropy (-ST):   -0.000000
Local:           +0.173184
--------------------------
Free energy:    -70.393770
Extrapolated:   -70.393770

Spin contamination: 1.118680 electrons
Showing only first 2 kpts
                      Up                     Down
 Kpt  Band  Eigenvalues  Occupancy  Eigenvalues  Occupancy
  0    52     -2.13758    1.00000     -0.01160    0.00000
  0    53     -2.10146    1.00000      0.00407    0.00000
  0    54     -2.01834    1.00000      0.18105    0.00000
  0    55     -2.01692    1.00000      0.21174    0.00000

  1    52     -2.11677    1.00000     -0.01811    0.00000
  1    53     -2.07300    1.00000      0.01989    0.00000
  1    54     -2.01872    1.00000      0.17093    0.00000
  1    55     -1.98819    1.00000      0.20987    0.00000


Fermi level: -1.18608

Gap: 0.971 eV
Transition (v -> c):
  (s=0, k=11, n=59, [-0.46, 0.46, 0.00]) -> (s=0, k=17, n=60, [-0.38, -0.04, 0.00])
Writing to born-0.01-2x-.gpw (mode='all')

Timing:                              incl.     excl.
-----------------------------------------------------------
Hamiltonian:                         2.618     0.011   0.0% |
 Atomic:                             1.070     1.070   0.0% |
  XC Correction:                     0.000     0.000   0.0% |
 Calculate atomic Hamiltonians:      0.364     0.364   0.0% |
 Communicate:                        0.000     0.000   0.0% |
 Initialize Hamiltonian:             0.004     0.004   0.0% |
 Poisson:                            0.013     0.013   0.0% |
 XC 3D grid:                         1.154     1.154   0.0% |
LCAO initialization:                21.008     0.142   0.0% |
 LCAO eigensolver:                   3.317     0.001   0.0% |
  Calculate projections:             0.004     0.004   0.0% |
  DenseAtomicCorrection:             0.006     0.006   0.0% |
  Distribute overlap matrix:         0.000     0.000   0.0% |
  Orbital Layouts:                   0.016     0.016   0.0% |
  Potential matrix:                  3.280     3.280   0.1% |
  Sum over cells:                    0.012     0.012   0.0% |
 LCAO to grid:                      17.268    17.268   0.3% |
 Set positions (LCAO WFS):           0.281     0.050   0.0% |
  Basic WFS set positions:           0.001     0.001   0.0% |
  Basis functions set positions:     0.000     0.000   0.0% |
  P tci:                             0.123     0.123   0.0% |
  ST tci:                            0.065     0.065   0.0% |
  mktci:                             0.043     0.043   0.0% |
PWDescriptor:                        0.086     0.086   0.0% |
SCF-cycle:                        2180.004   519.158   8.9% |---|
 Davidson:                        1312.856   223.811   3.9% |-|
  Apply H:                         215.543   209.055   3.6% ||
   HMM T:                            6.488     6.488   0.1% |
  Subspace diag:                   268.387     0.056   0.0% |
   calc_h_matrix:                  236.438    19.279   0.3% |
    Apply H:                       217.158   210.463   3.6% ||
     HMM T:                          6.696     6.696   0.1% |
   diagonalize:                      0.516     0.516   0.0% |
   rotate_psi:                      31.377    31.377   0.5% |
  calc. matrices:                  544.744   111.468   1.9% ||
   Apply H:                        433.276   420.240   7.2% |--|
    HMM T:                          13.036    13.036   0.2% |
  diagonalize:                       4.835     4.835   0.1% |
  rotate_psi:                       55.537    55.537   1.0% |
 Density:                          215.678     0.002   0.0% |
  Atomic density matrices:           0.304     0.304   0.0% |
  Mix:                              36.422    36.422   0.6% |
  Multipole moments:                 0.018     0.018   0.0% |
  Pseudo density:                  178.932   178.929   3.1% ||
   Symmetrize density:               0.003     0.003   0.0% |
 Forces:                            49.168    49.168   0.8% |
 Hamiltonian:                       81.507     0.477   0.0% |
  Atomic:                            5.562     5.561   0.1% |
   XC Correction:                    0.000     0.000   0.0% |
  Calculate atomic Hamiltonians:    26.285    26.285   0.5% |
  Communicate:                       0.008     0.008   0.0% |
  Poisson:                           0.526     0.526   0.0% |
  XC 3D grid:                       48.649    48.649   0.8% |
 Orthonormalize:                     1.637     0.002   0.0% |
  calc_s_matrix:                     0.219     0.219   0.0% |
  inverse-cholesky:                  0.004     0.004   0.0% |
  projections:                       1.010     1.010   0.0% |
  rotate_psi_s:                      0.403     0.403   0.0% |
Set symmetry:                        0.000     0.000   0.0% |
Other:                            3605.626  3605.626  62.1% |------------------------|
-----------------------------------------------------------
Total:                                      5809.343 100.0%

Memory usage: 39.01 GiB
Date: Sun Jun 26 06:44:26 2022
