
  ___ ___ ___ _ _ _  
 |   |   |_  | | | | 
 | | | | | . | | | | 
 |__ |  _|___|_____|  21.6.1b1
 |___|_|             

User:   madkru@c153.nifl.fysik.dtu.dk
Date:   Sat Jun 25 20:26:48 2022
Arch:   x86_64
Pid:    48887
Python: 3.8.6
gpaw:   /home/niflheim/madkru/new_venv/gpaw/gpaw (1f0dfc9eae)
_gpaw:  /home/niflheim/madkru/new_venv/gpaw/build/lib.linux-x86_64-skylake-3.8/
        _gpaw.cpython-38-x86_64-linux-gnu.so (c1e45bfab3)
ase:    /home/niflheim/madkru/new_venv/ase/ase (version 3.23.0b1-ca38c75a67)
numpy:  /home/modules/software/SciPy-bundle/2020.11-foss-2020b/lib/python3.8/site-packages/numpy (version 1.19.4)
scipy:  /home/modules/software/SciPy-bundle/2020.11-foss-2020b/lib/python3.8/site-packages/scipy (version 1.5.4)
libxc:  4.3.4
units:  Angstrom and eV
cores: 40
OpenMP: False
OMP_NUM_THREADS: 1

Input parameters:
  convergence: {bands: occupied,
                density: 0.0001,
                eigenstates: 4e-08,
                energy: 0.0005,
                forces: 0.0001}
  kpts: [12 12  1]
  mode: {ecut: 600.0,
         gammacentered: False,
         name: pw}
  occupations: {fixmagmom: False,
                name: fermi-dirac,
                width: 0.001}
  symmetry: {point_group: False,
             time_reversal: False}

System changes: positions, numbers, cell, pbc, initial_charges, initial_magmoms 

Initialize ...

Cr-setup:
  name: Chromium
  id: 444e8044bc0f91048286c984738d87f5
  Z: 24.0
  valence: 6
  core: 18
  charge: 0.0
  file: /home/modules/software/GPAW-setups/0.9.20000/Cr.LDA.gz
  compensation charges: gauss, rc=0.35, lmax=2
  cutoffs: 2.14(filt), 3.04(core),
  valence states:
                energy  radius
    4s(1.00)    -4.191   1.164
    4p(0.00)    -1.079   1.217
    3d(5.00)    -3.128   1.111
    *s          23.021   1.164
    *p          26.132   1.217
    *d          24.083   1.111

  Using partial waves for Cr as LCAO basis

I-setup:
  name: Iodine
  id: b559721c0c096a7b4c8fc0e0f4de5cf4
  Z: 53.0
  valence: 7
  core: 46
  charge: 0.0
  file: /home/modules/software/GPAW-setups/0.9.20000/I.LDA.gz
  compensation charges: gauss, rc=0.37, lmax=2
  cutoffs: 2.06(filt), 2.90(core),
  valence states:
                energy  radius
    5s(2.00)   -17.626   1.164
    5p(5.00)    -7.241   1.164
    *s           9.585   1.164
    *p          19.970   1.164
    *d           0.000   1.164

  Using partial waves for I as LCAO basis

Reference energy: -2434708.556191

Spin-polarized calculation.
Magnetic moment: 12.175341

Convergence criteria:
  Maximum total energy change: 0.0005 eV / electron
  Maximum integral of absolute density change: 0.0001 electrons
  Maximum integral of absolute eigenstate change: 4e-08 eV^2
  Maximum change in atomic force: 0.0001 eV / Ang
  Maximum number of iterations: 333

Symmetries present (total): 1

  ( 1  0  0)
  ( 0  1  0)
  ( 0  0  1)

144 k-points: 12 x 12 x 1 Monkhorst-Pack grid
144 k-points in the irreducible part of the Brillouin zone
       k-points in crystal coordinates                weights
   0:    -0.45833333   -0.45833333    0.00000000          1/144
   1:    -0.45833333   -0.37500000    0.00000000          1/144
   2:    -0.45833333   -0.29166667    0.00000000          1/144
   3:    -0.45833333   -0.20833333    0.00000000          1/144
   4:    -0.45833333   -0.12500000    0.00000000          1/144
   5:    -0.45833333   -0.04166667    0.00000000          1/144
   6:    -0.45833333    0.04166667    0.00000000          1/144
   7:    -0.45833333    0.12500000    0.00000000          1/144
   8:    -0.45833333    0.20833333    0.00000000          1/144
   9:    -0.45833333    0.29166667    0.00000000          1/144
          ...
 143:     0.45833333    0.45833333    0.00000000          1/144

Wave functions: Plane wave expansion
  Cutoff energy: 600.000 eV
  Number of coefficients (min, max): 39797, 39902
  Pulay-stress correction: 0.000000 eV/Ang^3 (de/decut=0.000000)
  Using FFTW library
  ScaLapack parameters: grid=1x1, blocksize=None
  Wavefunction extrapolation:
    Improved wavefunction reuse through dual PAW basis 

Occupation numbers: Fermi-Dirac: width=0.0010 eV
 

Eigensolver
   Davidson(niter=2) 

Densities:
  Coarse grid: 42*42*160 grid
  Fine grid: 84*84*320 grid
  Total Charge: 0.000000 

Density mixing:
  Method: difference
  Backend: pulay
  Linear mixing parameter: 0.05
  Mixing with 5 old densities
  Damping of long wave oscillations: 50 

Hamiltonian:
  XC and Coulomb potentials evaluated on a 84*84*320 grid
  Using the LDA Exchange-Correlation functional
  External potential:
    <gpaw.external.NoExternalPotential object at 0x2b33266152e0>
 

Memory estimate:
  Process memory now: 39567.16 MiB
  Calculator: 580.26 MiB
    Density: 158.40 MiB
      Arrays: 75.37 MiB
      Localized functions: 52.88 MiB
      Mixer: 30.15 MiB
    Hamiltonian: 57.28 MiB
      Arrays: 55.99 MiB
      XC: 0.00 MiB
      Poisson: 0.00 MiB
      vbar: 1.29 MiB
    Wavefunctions: 364.58 MiB
      Arrays psit_nG: 281.29 MiB
      Eigensolver: 50.83 MiB
      Projections: 1.61 MiB
      Projectors: 18.26 MiB
      PW-descriptor: 12.59 MiB

Total number of cores used: 40
Parallelization over k-points: 40

Number of atoms: 16
Number of atomic orbitals: 84
Number of bands in calculation: 77
Number of valence electrons: 108
Bands to converge: occupied

... initialized

Initializing position-dependent things.

Density initialized from atomic densities
Creating initial wave functions:
  77 bands from LCAO basis set

                                       
                                       
                                       
                                       
                      I                
                            I          
                   I                   
                       Cr  I           
             Cr                        
                 I                     
                         I             
                     I                 
                             I         
               Cr                      
                   I   Cr              
          I                            
                 I                     
                        I              
                                       
                                       
                                       
                                       

Positions:
   0 Cr     0.889135   -0.009815   -3.063135    ( 0.0000,  0.0000,  3.4336)
   1 Cr    -2.666158    2.052642   -3.080223    ( 0.0000,  0.0000,  3.4336)
   2 I      1.822012   -2.046247   -4.559876    ( 0.0000,  0.0000, -0.1299)
   3 I     -1.348662    0.216415   -4.560605    ( 0.0000,  0.0000, -0.1299)
   4 I     -4.915070    1.830062   -4.560598    ( 0.0000,  0.0000, -0.1299)
   5 I     -0.074828   -2.063434   -1.594960    ( 0.0000,  0.0000, -0.1299)
   6 I     -0.416551    1.865690   -1.594231    ( 0.0000,  0.0000, -0.1299)
   7 I      3.157525    0.197989   -1.594234    ( 0.0000,  0.0000, -0.1299)
   8 Cr    -2.666887   -2.052642    3.080226    ( 0.0000,  0.0000,  3.4336)
   9 Cr     0.888546   -0.000185    3.063139    ( 0.0000,  0.0000,  3.4336)
  10 I      1.852510    2.063434    1.594959    ( 0.0000,  0.0000, -0.1299)
  11 I      2.194233   -1.865690    1.594230    ( 0.0000,  0.0000, -0.1299)
  12 I     -1.379843   -0.197989    1.594233    ( 0.0000,  0.0000, -0.1299)
  13 I     -0.044330    2.046247    4.559875    ( 0.0000,  0.0000, -0.1299)
  14 I      3.126343   -0.216415    4.560604    ( 0.0000,  0.0000, -0.1299)
  15 I     -0.417976   -1.830062    4.560597    ( 0.0000,  0.0000, -0.1299)

Unit cell:
           periodic     x           y           z      points  spacing
  1. axis:    yes    7.110727   -0.000000    0.000000    42     0.1466
  2. axis:    yes   -3.555363    6.158070    0.000000    42     0.1466
  3. axis:    no     0.000000   -0.000000   27.269192   160     0.1704

  Lengths:   7.110727   7.110727  27.269192
  Angles:   90.000000  90.000000 120.000000

Effective grid spacing dv^(1/3) = 0.1617

                     log10-error:           total        iterations:
           time      wfs    density  force  energy       poisson  magmom
iter:   1  20:28:08                        -76.899617             +12.1076
iter:   2  20:29:00  -0.99  -0.91          -70.501325             +9.9544
iter:   3  20:29:51  -1.83  -1.33          -70.496510             +11.0109
iter:   4  20:30:43  -1.58  -1.38          -70.967857             +12.0928
iter:   5  20:31:34  -2.53  -1.51          -70.628225             +12.0160
iter:   6  20:32:26  -1.91  -1.83          -70.402083             +12.0006
iter:   7  20:33:17  -2.97  -2.20          -70.395110             +12.0040
iter:   8  20:34:09  -3.31  -2.31          -70.389858             +12.0055
iter:   9  20:35:00  -3.68  -2.67          -70.391017             +12.0017
iter:  10  20:35:52  -3.86  -2.86          -70.391701             +11.9998
iter:  11  20:36:43  -3.99  -2.94          -70.392274             +12.0000
iter:  12  20:37:35  -3.99  -3.04          -70.392586             +12.0000
iter:  13  20:38:27  -4.06  -3.11          -70.392797             +12.0000
iter:  14  20:39:18  -4.10  -3.15          -70.392903             +12.0000
iter:  15  20:40:10  -4.19  -3.27          -70.393065             +12.0000
iter:  16  20:41:01  -4.33  -3.31          -70.393185             +12.0000
iter:  17  20:41:53  -4.60  -3.37          -70.393241             +12.0000
iter:  18  20:42:44  -4.75  -3.57          -70.393312             +12.0000
iter:  19  20:43:36  -4.89  -3.65          -70.393359             +12.0000
iter:  20  20:44:27  -5.01  -3.74          -70.393401             +12.0000
iter:  21  20:45:19  -5.19  -4.25          -70.393429             +12.0000
iter:  22  20:46:10  -5.20  -4.26          -70.393451             +12.0000
iter:  23  20:47:02  -5.27  -4.27          -70.393465             +12.0000
iter:  24  20:47:53  -5.46  -4.18          -70.393478             +12.0000
iter:  25  20:48:45  -5.60  -4.22          -70.393487             +12.0000
iter:  26  20:49:36  -5.70  -4.21          -70.393492             +12.0000
iter:  27  20:50:28  -5.85  -4.19          -70.393497             +12.0000
iter:  28  20:51:19  -5.96  -4.19          -70.393501             +12.0000
iter:  29  20:52:11  -6.16  -4.13          -70.393502             +12.0000
iter:  30  20:53:02  -6.37  -4.25          -70.393503             +12.0000
iter:  31  20:53:54  -6.49  -4.28          -70.393505             +12.0000
iter:  32  20:54:45  -6.55  -4.25          -70.393504             +12.0000
iter:  33  20:55:37  -6.79  -4.35          -70.393505             +12.0000
iter:  34  20:56:28  -6.95  -4.39          -70.393505             +12.0000
iter:  35  20:57:20  -6.98  -4.42          -70.393505             +12.0000
iter:  36  20:58:11  -7.11  -4.50          -70.393505             +12.0000
iter:  37  20:59:03  -7.34  -4.56          -70.393505             +12.0000
iter:  38  21:00:04  -7.42  -4.75          -70.393505             +12.0000
iter:  39  21:01:06  -7.57  -4.90    -3.25 -70.393505             +12.0000
iter:  40  21:02:08  -7.70  -5.19    -3.60 -70.393505             +12.0000
iter:  41  21:03:10  -7.82  -5.35    -3.66 -70.393505             +12.0000
iter:  42  21:04:13  -7.96  -5.53    -3.92 -70.393505             +12.0000
iter:  43  21:05:15  -8.07  -5.55    -3.97 -70.393505             +12.0000
iter:  44  21:06:17  -8.22  -5.55    -4.06 -70.393505             +12.0000

Converged after 44 iterations.

Dipole moment: (-31.800795, 0.313038, -0.000005) |e|*Ang

Total magnetic moment: (0.000000, 0.000000, 12.000000)
Local magnetic moments:
   0 Cr ( 0.000000,  0.000000,  2.911238)
   1 Cr ( 0.000000,  0.000000,  2.915451)
   2 I  ( 0.000000,  0.000000, -0.046472)
   3 I  ( 0.000000,  0.000000, -0.047058)
   4 I  ( 0.000000,  0.000000, -0.047318)
   5 I  ( 0.000000,  0.000000, -0.049179)
   6 I  ( 0.000000,  0.000000, -0.050002)
   7 I  ( 0.000000,  0.000000, -0.049790)
   8 Cr ( 0.000000,  0.000000,  2.915444)
   9 Cr ( 0.000000,  0.000000,  2.911292)
  10 I  ( 0.000000,  0.000000, -0.049644)
  11 I  ( 0.000000,  0.000000, -0.049663)
  12 I  ( 0.000000,  0.000000, -0.049676)
  13 I  ( 0.000000,  0.000000, -0.046955)
  14 I  ( 0.000000,  0.000000, -0.046930)
  15 I  ( 0.000000,  0.000000, -0.046974)

Energy contributions relative to reference atoms: (reference = -2434708.556191)

Kinetic:        +23.279495
Potential:      -37.250408
External:        +0.000000
XC:             -56.597660
Entropy (-ST):   -0.000000
Local:           +0.175067
--------------------------
Free energy:    -70.393505
Extrapolated:   -70.393505

Spin contamination: 1.119573 electrons
Showing only first 2 kpts
                      Up                     Down
 Kpt  Band  Eigenvalues  Occupancy  Eigenvalues  Occupancy
  0    52     -2.14007    1.00000     -0.01105    0.00000
  0    53     -2.10211    1.00000      0.00318    0.00000
  0    54     -2.02030    1.00000      0.17950    0.00000
  0    55     -2.01834    1.00000      0.21109    0.00000

  1    52     -2.11900    1.00000     -0.01832    0.00000
  1    53     -2.07353    1.00000      0.01844    0.00000
  1    54     -2.01961    1.00000      0.16922    0.00000
  1    55     -1.99028    1.00000      0.20917    0.00000


Fermi level: -1.20326

Gap: 0.969 eV
Transition (v -> c):
  (s=0, k=11, n=59, [-0.46, 0.46, 0.00]) -> (s=0, k=126, n=60, [0.38, 0.04, 0.00])
Writing to born-0.01-0y-.gpw (mode='all')

Timing:                              incl.     excl.
-----------------------------------------------------------
Hamiltonian:                         2.662     0.011   0.0% |
 Atomic:                             1.139     1.139   0.0% |
  XC Correction:                     0.000     0.000   0.0% |
 Calculate atomic Hamiltonians:      0.346     0.346   0.0% |
 Communicate:                        0.000     0.000   0.0% |
 Initialize Hamiltonian:             0.004     0.004   0.0% |
 Poisson:                            0.012     0.012   0.0% |
 XC 3D grid:                         1.150     1.150   0.0% |
LCAO initialization:                21.176     0.142   0.0% |
 LCAO eigensolver:                   3.287     0.001   0.0% |
  Calculate projections:             0.004     0.004   0.0% |
  DenseAtomicCorrection:             0.006     0.006   0.0% |
  Distribute overlap matrix:         0.000     0.000   0.0% |
  Orbital Layouts:                   0.016     0.016   0.0% |
  Potential matrix:                  3.249     3.249   0.1% |
  Sum over cells:                    0.012     0.012   0.0% |
 LCAO to grid:                      17.462    17.462   0.3% |
 Set positions (LCAO WFS):           0.285     0.050   0.0% |
  Basic WFS set positions:           0.001     0.001   0.0% |
  Basis functions set positions:     0.000     0.000   0.0% |
  P tci:                             0.126     0.126   0.0% |
  ST tci:                            0.065     0.065   0.0% |
  mktci:                             0.044     0.044   0.0% |
PWDescriptor:                        0.087     0.087   0.0% |
SCF-cycle:                        2340.704   520.727   9.4% |---|
 Davidson:                        1427.791   233.864   4.2% |-|
  Apply H:                         241.960   234.565   4.2% |-|
   HMM T:                            7.396     7.396   0.1% |
  Subspace diag:                   296.513     0.062   0.0% |
   calc_h_matrix:                  263.329    21.012   0.4% |
    Apply H:                       242.317   234.453   4.2% |-|
     HMM T:                          7.864     7.864   0.1% |
   diagonalize:                      0.551     0.551   0.0% |
   rotate_psi:                      32.571    32.571   0.6% |
  calc. matrices:                  591.356   118.588   2.1% ||
   Apply H:                        472.768   458.484   8.3% |--|
    HMM T:                          14.285    14.285   0.3% |
  diagonalize:                       5.179     5.179   0.1% |
  rotate_psi:                       58.919    58.919   1.1% |
 Density:                          234.410     0.002   0.0% |
  Atomic density matrices:           0.295     0.295   0.0% |
  Mix:                              40.452    40.452   0.7% |
  Multipole moments:                 0.021     0.021   0.0% |
  Pseudo density:                  193.641   193.636   3.5% ||
   Symmetrize density:               0.004     0.004   0.0% |
 Forces:                            69.451    69.451   1.3% ||
 Hamiltonian:                       86.660     0.578   0.0% |
  Atomic:                            3.855     3.855   0.1% |
   XC Correction:                    0.000     0.000   0.0% |
  Calculate atomic Hamiltonians:    27.940    27.940   0.5% |
  Communicate:                       0.159     0.159   0.0% |
  Poisson:                           0.661     0.661   0.0% |
  XC 3D grid:                       53.466    53.466   1.0% |
 Orthonormalize:                     1.665     0.002   0.0% |
  calc_s_matrix:                     0.234     0.234   0.0% |
  inverse-cholesky:                  0.004     0.004   0.0% |
  projections:                       1.024     1.024   0.0% |
  rotate_psi_s:                      0.401     0.401   0.0% |
Set symmetry:                        0.000     0.000   0.0% |
Other:                            3165.526  3165.526  57.2% |----------------------|
-----------------------------------------------------------
Total:                                      5530.156 100.0%

Memory usage: 38.72 GiB
Date: Sat Jun 25 21:58:58 2022
