
  ___ ___ ___ _ _ _  
 |   |   |_  | | | | 
 | | | | | . | | | | 
 |__ |  _|___|_____|  21.6.1b1
 |___|_|             

User:   madkru@c153.nifl.fysik.dtu.dk
Date:   Sat Jun 25 18:51:32 2022
Arch:   x86_64
Pid:    48887
Python: 3.8.6
gpaw:   /home/niflheim/madkru/new_venv/gpaw/gpaw (1f0dfc9eae)
_gpaw:  /home/niflheim/madkru/new_venv/gpaw/build/lib.linux-x86_64-skylake-3.8/
        _gpaw.cpython-38-x86_64-linux-gnu.so (c1e45bfab3)
ase:    /home/niflheim/madkru/new_venv/ase/ase (version 3.23.0b1-ca38c75a67)
numpy:  /home/modules/software/SciPy-bundle/2020.11-foss-2020b/lib/python3.8/site-packages/numpy (version 1.19.4)
scipy:  /home/modules/software/SciPy-bundle/2020.11-foss-2020b/lib/python3.8/site-packages/scipy (version 1.5.4)
libxc:  4.3.4
units:  Angstrom and eV
cores: 40
OpenMP: False
OMP_NUM_THREADS: 1

Input parameters:
  convergence: {bands: occupied,
                density: 0.0001,
                eigenstates: 4e-08,
                energy: 0.0005,
                forces: 0.0001}
  kpts: [12 12  1]
  mode: {ecut: 600.0,
         gammacentered: False,
         name: pw}
  occupations: {fixmagmom: False,
                name: fermi-dirac,
                width: 0.001}
  symmetry: {point_group: False,
             time_reversal: False}

System changes: positions, numbers, cell, pbc, initial_charges, initial_magmoms 

Initialize ...

Cr-setup:
  name: Chromium
  id: 444e8044bc0f91048286c984738d87f5
  Z: 24.0
  valence: 6
  core: 18
  charge: 0.0
  file: /home/modules/software/GPAW-setups/0.9.20000/Cr.LDA.gz
  compensation charges: gauss, rc=0.35, lmax=2
  cutoffs: 2.14(filt), 3.04(core),
  valence states:
                energy  radius
    4s(1.00)    -4.191   1.164
    4p(0.00)    -1.079   1.217
    3d(5.00)    -3.128   1.111
    *s          23.021   1.164
    *p          26.132   1.217
    *d          24.083   1.111

  Using partial waves for Cr as LCAO basis

I-setup:
  name: Iodine
  id: b559721c0c096a7b4c8fc0e0f4de5cf4
  Z: 53.0
  valence: 7
  core: 46
  charge: 0.0
  file: /home/modules/software/GPAW-setups/0.9.20000/I.LDA.gz
  compensation charges: gauss, rc=0.37, lmax=2
  cutoffs: 2.06(filt), 2.90(core),
  valence states:
                energy  radius
    5s(2.00)   -17.626   1.164
    5p(5.00)    -7.241   1.164
    *s           9.585   1.164
    *p          19.970   1.164
    *d           0.000   1.164

  Using partial waves for I as LCAO basis

Reference energy: -2434708.556191

Spin-polarized calculation.
Magnetic moment: 12.175341

Convergence criteria:
  Maximum total energy change: 0.0005 eV / electron
  Maximum integral of absolute density change: 0.0001 electrons
  Maximum integral of absolute eigenstate change: 4e-08 eV^2
  Maximum change in atomic force: 0.0001 eV / Ang
  Maximum number of iterations: 333

Symmetries present (total): 1

  ( 1  0  0)
  ( 0  1  0)
  ( 0  0  1)

144 k-points: 12 x 12 x 1 Monkhorst-Pack grid
144 k-points in the irreducible part of the Brillouin zone
       k-points in crystal coordinates                weights
   0:    -0.45833333   -0.45833333    0.00000000          1/144
   1:    -0.45833333   -0.37500000    0.00000000          1/144
   2:    -0.45833333   -0.29166667    0.00000000          1/144
   3:    -0.45833333   -0.20833333    0.00000000          1/144
   4:    -0.45833333   -0.12500000    0.00000000          1/144
   5:    -0.45833333   -0.04166667    0.00000000          1/144
   6:    -0.45833333    0.04166667    0.00000000          1/144
   7:    -0.45833333    0.12500000    0.00000000          1/144
   8:    -0.45833333    0.20833333    0.00000000          1/144
   9:    -0.45833333    0.29166667    0.00000000          1/144
          ...
 143:     0.45833333    0.45833333    0.00000000          1/144

Wave functions: Plane wave expansion
  Cutoff energy: 600.000 eV
  Number of coefficients (min, max): 39797, 39902
  Pulay-stress correction: 0.000000 eV/Ang^3 (de/decut=0.000000)
  Using FFTW library
  ScaLapack parameters: grid=1x1, blocksize=None
  Wavefunction extrapolation:
    Improved wavefunction reuse through dual PAW basis 

Occupation numbers: Fermi-Dirac: width=0.0010 eV
 

Eigensolver
   Davidson(niter=2) 

Densities:
  Coarse grid: 42*42*160 grid
  Fine grid: 84*84*320 grid
  Total Charge: 0.000000 

Density mixing:
  Method: difference
  Backend: pulay
  Linear mixing parameter: 0.05
  Mixing with 5 old densities
  Damping of long wave oscillations: 50 

Hamiltonian:
  XC and Coulomb potentials evaluated on a 84*84*320 grid
  Using the LDA Exchange-Correlation functional
  External potential:
    <gpaw.external.NoExternalPotential object at 0x2b3324d0b820>
 

Memory estimate:
  Process memory now: 374.21 MiB
  Calculator: 580.26 MiB
    Density: 158.40 MiB
      Arrays: 75.37 MiB
      Localized functions: 52.88 MiB
      Mixer: 30.15 MiB
    Hamiltonian: 57.28 MiB
      Arrays: 55.99 MiB
      XC: 0.00 MiB
      Poisson: 0.00 MiB
      vbar: 1.29 MiB
    Wavefunctions: 364.58 MiB
      Arrays psit_nG: 281.29 MiB
      Eigensolver: 50.83 MiB
      Projections: 1.61 MiB
      Projectors: 18.26 MiB
      PW-descriptor: 12.59 MiB

Total number of cores used: 40
Parallelization over k-points: 40

Number of atoms: 16
Number of atomic orbitals: 84
Number of bands in calculation: 77
Number of valence electrons: 108
Bands to converge: occupied

... initialized

Initializing position-dependent things.

Density initialized from atomic densities
Creating initial wave functions:
  77 bands from LCAO basis set

                                       
                                       
                                       
                                       
                      I                
                            I          
                   I                   
                       Cr  I           
             Cr                        
                 I                     
                         I             
                     I                 
                             I         
               Cr                      
                   I   Cr              
          I                            
                 I                     
                        I              
                                       
                                       
                                       
                                       

Positions:
   0 Cr     0.879135    0.000185   -3.063135    ( 0.0000,  0.0000,  3.4336)
   1 Cr    -2.666158    2.052642   -3.080223    ( 0.0000,  0.0000,  3.4336)
   2 I      1.822012   -2.046247   -4.559876    ( 0.0000,  0.0000, -0.1299)
   3 I     -1.348662    0.216415   -4.560605    ( 0.0000,  0.0000, -0.1299)
   4 I     -4.915070    1.830062   -4.560598    ( 0.0000,  0.0000, -0.1299)
   5 I     -0.074828   -2.063434   -1.594960    ( 0.0000,  0.0000, -0.1299)
   6 I     -0.416551    1.865690   -1.594231    ( 0.0000,  0.0000, -0.1299)
   7 I      3.157525    0.197989   -1.594234    ( 0.0000,  0.0000, -0.1299)
   8 Cr    -2.666887   -2.052642    3.080226    ( 0.0000,  0.0000,  3.4336)
   9 Cr     0.888546   -0.000185    3.063139    ( 0.0000,  0.0000,  3.4336)
  10 I      1.852510    2.063434    1.594959    ( 0.0000,  0.0000, -0.1299)
  11 I      2.194233   -1.865690    1.594230    ( 0.0000,  0.0000, -0.1299)
  12 I     -1.379843   -0.197989    1.594233    ( 0.0000,  0.0000, -0.1299)
  13 I     -0.044330    2.046247    4.559875    ( 0.0000,  0.0000, -0.1299)
  14 I      3.126343   -0.216415    4.560604    ( 0.0000,  0.0000, -0.1299)
  15 I     -0.417976   -1.830062    4.560597    ( 0.0000,  0.0000, -0.1299)

Unit cell:
           periodic     x           y           z      points  spacing
  1. axis:    yes    7.110727   -0.000000    0.000000    42     0.1466
  2. axis:    yes   -3.555363    6.158070    0.000000    42     0.1466
  3. axis:    no     0.000000   -0.000000   27.269192   160     0.1704

  Lengths:   7.110727   7.110727  27.269192
  Angles:   90.000000  90.000000 120.000000

Effective grid spacing dv^(1/3) = 0.1617

                     log10-error:           total        iterations:
           time      wfs    density  force  energy       poisson  magmom
iter:   1  18:52:52                        -76.899615             +12.1076
iter:   2  18:53:44  -0.99  -0.91          -70.504306             +9.9661
iter:   3  18:54:35  -1.83  -1.33          -70.497222             +11.0172
iter:   4  18:55:27  -1.58  -1.38          -70.967663             +12.0927
iter:   5  18:56:19  -2.53  -1.51          -70.628542             +12.0159
iter:   6  18:57:10  -1.91  -1.83          -70.402023             +12.0005
iter:   7  18:58:02  -2.97  -2.20          -70.395048             +12.0039
iter:   8  18:58:53  -3.31  -2.32          -70.389850             +12.0056
iter:   9  18:59:45  -3.68  -2.67          -70.391012             +12.0017
iter:  10  19:00:36  -3.86  -2.86          -70.391695             +11.9998
iter:  11  19:01:28  -3.99  -2.94          -70.392268             +12.0000
iter:  12  19:02:20  -3.99  -3.04          -70.392581             +12.0000
iter:  13  19:03:11  -4.06  -3.11          -70.392792             +12.0000
iter:  14  19:04:03  -4.09  -3.15          -70.392896             +12.0000
iter:  15  19:04:54  -4.19  -3.27          -70.393058             +12.0000
iter:  16  19:05:46  -4.33  -3.32          -70.393178             +12.0000
iter:  17  19:06:38  -4.60  -3.37          -70.393236             +12.0000
iter:  18  19:07:29  -4.75  -3.56          -70.393307             +12.0000
iter:  19  19:08:21  -4.89  -3.65          -70.393354             +12.0000
iter:  20  19:09:12  -5.00  -3.74          -70.393397             +12.0000
iter:  21  19:10:04  -5.18  -4.25          -70.393424             +12.0000
iter:  22  19:10:55  -5.16  -4.26          -70.393444             +12.0000
iter:  23  19:11:47  -5.29  -4.26          -70.393463             +12.0000
iter:  24  19:12:38  -5.40  -4.09          -70.393471             +12.0000
iter:  25  19:13:30  -5.55  -4.22          -70.393479             +12.0000
iter:  26  19:14:21  -5.75  -4.26          -70.393486             +12.0000
iter:  27  19:15:13  -5.80  -4.25          -70.393490             +12.0000
iter:  28  19:16:04  -5.87  -4.28          -70.393493             +12.0000
iter:  29  19:16:56  -6.18  -4.23          -70.393495             +12.0000
iter:  30  19:17:47  -6.31  -4.26          -70.393496             +12.0000
iter:  31  19:18:39  -6.43  -4.42          -70.393497             +12.0000
iter:  32  19:19:30  -6.57  -4.52          -70.393498             +12.0000
iter:  33  19:20:22  -6.66  -4.63          -70.393498             +12.0000
iter:  34  19:21:13  -6.78  -4.74          -70.393499             +12.0000
iter:  35  19:22:05  -6.97  -4.93          -70.393499             +12.0000
iter:  36  19:22:56  -7.03  -4.98          -70.393499             +12.0000
iter:  37  19:23:48  -7.24  -5.03          -70.393500             +12.0000
iter:  38  19:24:39  -7.39  -5.36          -70.393500             +12.0000
iter:  39  19:25:40  -7.47  -5.64          -70.393500             +12.0000
iter:  40  19:26:43  -7.56  -5.73    -4.53 -70.393500             +12.0000

Converged after 40 iterations.

Dipole moment: (-31.655974, 0.000057, -0.000007) |e|*Ang

Total magnetic moment: (0.000000, 0.000000, 12.000000)
Local magnetic moments:
   0 Cr ( 0.000000,  0.000000,  2.911222)
   1 Cr ( 0.000000,  0.000000,  2.915447)
   2 I  ( 0.000000,  0.000000, -0.047117)
   3 I  ( 0.000000,  0.000000, -0.046428)
   4 I  ( 0.000000,  0.000000, -0.047304)
   5 I  ( 0.000000,  0.000000, -0.049546)
   6 I  ( 0.000000,  0.000000, -0.049289)
   7 I  ( 0.000000,  0.000000, -0.050140)
   8 Cr ( 0.000000,  0.000000,  2.915441)
   9 Cr ( 0.000000,  0.000000,  2.911280)
  10 I  ( 0.000000,  0.000000, -0.049678)
  11 I  ( 0.000000,  0.000000, -0.049625)
  12 I  ( 0.000000,  0.000000, -0.049687)
  13 I  ( 0.000000,  0.000000, -0.046991)
  14 I  ( 0.000000,  0.000000, -0.046909)
  15 I  ( 0.000000,  0.000000, -0.046962)

Energy contributions relative to reference atoms: (reference = -2434708.556191)

Kinetic:        +23.275684
Potential:      -37.247682
External:        +0.000000
XC:             -56.597427
Entropy (-ST):   -0.000000
Local:           +0.175925
--------------------------
Free energy:    -70.393500
Extrapolated:   -70.393500

Spin contamination: 1.119599 electrons
Showing only first 2 kpts
                      Up                     Down
 Kpt  Band  Eigenvalues  Occupancy  Eigenvalues  Occupancy
  0    52     -2.13956    1.00000     -0.01324    0.00000
  0    53     -2.10177    1.00000      0.00220    0.00000
  0    54     -2.02033    1.00000      0.18110    0.00000
  0    55     -2.01884    1.00000      0.21197    0.00000

  1    52     -2.11849    1.00000     -0.02035    0.00000
  1    53     -2.07235    1.00000      0.01813    0.00000
  1    54     -2.02107    1.00000      0.17074    0.00000
  1    55     -1.99080    1.00000      0.21006    0.00000


Fermi level: -1.20791

Gap: 0.967 eV
Transition (v -> c):
  (s=0, k=132, n=59, [0.46, -0.46, 0.00]) -> (s=0, k=126, n=60, [0.38, 0.04, 0.00])
Writing to born-0.01-0x-.gpw (mode='all')

Timing:                              incl.     excl.
-----------------------------------------------------------
Hamiltonian:                         2.135     0.011   0.0% |
 Atomic:                             0.255     0.255   0.0% |
  XC Correction:                     0.000     0.000   0.0% |
 Calculate atomic Hamiltonians:      0.643     0.643   0.0% |
 Communicate:                        0.000     0.000   0.0% |
 Initialize Hamiltonian:             0.003     0.003   0.0% |
 Poisson:                            0.011     0.011   0.0% |
 XC 3D grid:                         1.211     1.211   0.0% |
LCAO initialization:                21.190     0.142   0.0% |
 LCAO eigensolver:                   3.331     0.001   0.0% |
  Calculate projections:             0.004     0.004   0.0% |
  DenseAtomicCorrection:             0.005     0.005   0.0% |
  Distribute overlap matrix:         0.000     0.000   0.0% |
  Orbital Layouts:                   0.016     0.016   0.0% |
  Potential matrix:                  3.294     3.294   0.1% |
  Sum over cells:                    0.011     0.011   0.0% |
 LCAO to grid:                      17.406    17.406   0.3% |
 Set positions (LCAO WFS):           0.310     0.050   0.0% |
  Basic WFS set positions:           0.001     0.001   0.0% |
  Basis functions set positions:     0.000     0.000   0.0% |
  P tci:                             0.148     0.148   0.0% |
  ST tci:                            0.066     0.066   0.0% |
  mktci:                             0.046     0.046   0.0% |
PWDescriptor:                        0.088     0.088   0.0% |
SCF-cycle:                        2082.688   479.206   9.3% |---|
 Davidson:                        1295.522   211.728   4.1% |-|
  Apply H:                         219.290   212.461   4.1% |-|
   HMM T:                            6.828     6.828   0.1% |
  Subspace diag:                   269.253     0.053   0.0% |
   calc_h_matrix:                  238.861    18.961   0.4% |
    Apply H:                       219.900   212.943   4.1% |-|
     HMM T:                          6.957     6.957   0.1% |
   diagonalize:                      0.504     0.504   0.0% |
   rotate_psi:                      29.835    29.835   0.6% |
  calc. matrices:                  537.029   106.052   2.1% ||
   Apply H:                        430.977   417.760   8.1% |--|
    HMM T:                          13.217    13.217   0.3% |
  diagonalize:                       4.726     4.726   0.1% |
  rotate_psi:                       53.495    53.495   1.0% |
 Density:                          208.237     0.001   0.0% |
  Atomic density matrices:           0.271     0.271   0.0% |
  Mix:                              36.831    36.831   0.7% |
  Multipole moments:                 0.019     0.019   0.0% |
  Pseudo density:                  171.114   171.111   3.3% ||
   Symmetrize density:               0.003     0.003   0.0% |
 Forces:                            20.037    20.037   0.4% |
 Hamiltonian:                       78.020     0.489   0.0% |
  Atomic:                            3.321     3.321   0.1% |
   XC Correction:                    0.000     0.000   0.0% |
  Calculate atomic Hamiltonians:    25.380    25.380   0.5% |
  Communicate:                       0.008     0.008   0.0% |
  Poisson:                           0.477     0.477   0.0% |
  XC 3D grid:                       48.345    48.345   0.9% |
 Orthonormalize:                     1.667     0.002   0.0% |
  calc_s_matrix:                     0.230     0.230   0.0% |
  inverse-cholesky:                  0.004     0.004   0.0% |
  projections:                       1.025     1.025   0.0% |
  rotate_psi_s:                      0.406     0.406   0.0% |
Set symmetry:                        0.000     0.000   0.0% |
Other:                            3061.757  3061.757  59.2% |-----------------------|
-----------------------------------------------------------
Total:                                      5167.858 100.0%

Memory usage: 38.35 GiB
Date: Sat Jun 25 20:17:39 2022
