
  ___ ___ ___ _ _ _  
 |   |   |_  | | | | 
 | | | | | . | | | | 
 |__ |  _|___|_____|  21.6.1b1
 |___|_|             

User:   madkru@c153.nifl.fysik.dtu.dk
Date:   Sun Jun 26 05:59:11 2022
Arch:   x86_64
Pid:    48887
Python: 3.8.6
gpaw:   /home/niflheim/madkru/new_venv/gpaw/gpaw (1f0dfc9eae)
_gpaw:  /home/niflheim/madkru/new_venv/gpaw/build/lib.linux-x86_64-skylake-3.8/
        _gpaw.cpython-38-x86_64-linux-gnu.so (c1e45bfab3)
ase:    /home/niflheim/madkru/new_venv/ase/ase (version 3.23.0b1-ca38c75a67)
numpy:  /home/modules/software/SciPy-bundle/2020.11-foss-2020b/lib/python3.8/site-packages/numpy (version 1.19.4)
scipy:  /home/modules/software/SciPy-bundle/2020.11-foss-2020b/lib/python3.8/site-packages/scipy (version 1.5.4)
libxc:  4.3.4
units:  Angstrom and eV
cores: 40
OpenMP: False
OMP_NUM_THREADS: 1

Input parameters:
  convergence: {bands: occupied,
                density: 0.0001,
                eigenstates: 4e-08,
                energy: 0.0005,
                forces: 0.0001}
  kpts: [12 12  1]
  mode: {ecut: 600.0,
         gammacentered: False,
         name: pw}
  occupations: {fixmagmom: False,
                name: fermi-dirac,
                width: 0.001}
  symmetry: {point_group: False,
             time_reversal: False}

System changes: positions, numbers, cell, pbc, initial_charges, initial_magmoms 

Initialize ...

Cr-setup:
  name: Chromium
  id: 444e8044bc0f91048286c984738d87f5
  Z: 24.0
  valence: 6
  core: 18
  charge: 0.0
  file: /home/modules/software/GPAW-setups/0.9.20000/Cr.LDA.gz
  compensation charges: gauss, rc=0.35, lmax=2
  cutoffs: 2.14(filt), 3.04(core),
  valence states:
                energy  radius
    4s(1.00)    -4.191   1.164
    4p(0.00)    -1.079   1.217
    3d(5.00)    -3.128   1.111
    *s          23.021   1.164
    *p          26.132   1.217
    *d          24.083   1.111

  Using partial waves for Cr as LCAO basis

I-setup:
  name: Iodine
  id: b559721c0c096a7b4c8fc0e0f4de5cf4
  Z: 53.0
  valence: 7
  core: 46
  charge: 0.0
  file: /home/modules/software/GPAW-setups/0.9.20000/I.LDA.gz
  compensation charges: gauss, rc=0.37, lmax=2
  cutoffs: 2.06(filt), 2.90(core),
  valence states:
                energy  radius
    5s(2.00)   -17.626   1.164
    5p(5.00)    -7.241   1.164
    *s           9.585   1.164
    *p          19.970   1.164
    *d           0.000   1.164

  Using partial waves for I as LCAO basis

Reference energy: -2434708.556191

Spin-polarized calculation.
Magnetic moment: 12.175341

Convergence criteria:
  Maximum total energy change: 0.0005 eV / electron
  Maximum integral of absolute density change: 0.0001 electrons
  Maximum integral of absolute eigenstate change: 4e-08 eV^2
  Maximum change in atomic force: 0.0001 eV / Ang
  Maximum number of iterations: 333

Symmetries present (total): 1

  ( 1  0  0)
  ( 0  1  0)
  ( 0  0  1)

144 k-points: 12 x 12 x 1 Monkhorst-Pack grid
144 k-points in the irreducible part of the Brillouin zone
       k-points in crystal coordinates                weights
   0:    -0.45833333   -0.45833333    0.00000000          1/144
   1:    -0.45833333   -0.37500000    0.00000000          1/144
   2:    -0.45833333   -0.29166667    0.00000000          1/144
   3:    -0.45833333   -0.20833333    0.00000000          1/144
   4:    -0.45833333   -0.12500000    0.00000000          1/144
   5:    -0.45833333   -0.04166667    0.00000000          1/144
   6:    -0.45833333    0.04166667    0.00000000          1/144
   7:    -0.45833333    0.12500000    0.00000000          1/144
   8:    -0.45833333    0.20833333    0.00000000          1/144
   9:    -0.45833333    0.29166667    0.00000000          1/144
          ...
 143:     0.45833333    0.45833333    0.00000000          1/144

Wave functions: Plane wave expansion
  Cutoff energy: 600.000 eV
  Number of coefficients (min, max): 39797, 39902
  Pulay-stress correction: 0.000000 eV/Ang^3 (de/decut=0.000000)
  Using FFTW library
  ScaLapack parameters: grid=1x1, blocksize=None
  Wavefunction extrapolation:
    Improved wavefunction reuse through dual PAW basis 

Occupation numbers: Fermi-Dirac: width=0.0010 eV
 

Eigensolver
   Davidson(niter=2) 

Densities:
  Coarse grid: 42*42*160 grid
  Fine grid: 84*84*320 grid
  Total Charge: 0.000000 

Density mixing:
  Method: difference
  Backend: pulay
  Linear mixing parameter: 0.05
  Mixing with 5 old densities
  Damping of long wave oscillations: 50 

Hamiltonian:
  XC and Coulomb potentials evaluated on a 84*84*320 grid
  Using the LDA Exchange-Correlation functional
  External potential:
    <gpaw.external.NoExternalPotential object at 0x2b33280d4b50>
 

Memory estimate:
  Process memory now: 39951.23 MiB
  Calculator: 580.26 MiB
    Density: 158.40 MiB
      Arrays: 75.37 MiB
      Localized functions: 52.88 MiB
      Mixer: 30.15 MiB
    Hamiltonian: 57.28 MiB
      Arrays: 55.99 MiB
      XC: 0.00 MiB
      Poisson: 0.00 MiB
      vbar: 1.29 MiB
    Wavefunctions: 364.58 MiB
      Arrays psit_nG: 281.29 MiB
      Eigensolver: 50.83 MiB
      Projections: 1.61 MiB
      Projectors: 18.26 MiB
      PW-descriptor: 12.59 MiB

Total number of cores used: 40
Parallelization over k-points: 40

Number of atoms: 16
Number of atomic orbitals: 84
Number of bands in calculation: 77
Number of valence electrons: 108
Bands to converge: occupied

... initialized

Initializing position-dependent things.

Density initialized from atomic densities
Creating initial wave functions:
  77 bands from LCAO basis set

                                       
                                       
                                       
                                       
                      I                
                            I          
                   I                   
                       Cr  I           
             Cr                        
                 I                     
                         I             
                     I                 
                             I         
               Cr                      
                   I   Cr              
          I                            
                 I                     
                        I              
                                       
                                       
                                       
                                       

Positions:
   0 Cr     0.889135    0.000185   -3.063135    ( 0.0000,  0.0000,  3.4336)
   1 Cr    -2.666158    2.052642   -3.080223    ( 0.0000,  0.0000,  3.4336)
   2 I      1.832012   -2.046247   -4.559876    ( 0.0000,  0.0000, -0.1299)
   3 I     -1.348662    0.216415   -4.560605    ( 0.0000,  0.0000, -0.1299)
   4 I     -4.915070    1.830062   -4.560598    ( 0.0000,  0.0000, -0.1299)
   5 I     -0.074828   -2.063434   -1.594960    ( 0.0000,  0.0000, -0.1299)
   6 I     -0.416551    1.865690   -1.594231    ( 0.0000,  0.0000, -0.1299)
   7 I      3.157525    0.197989   -1.594234    ( 0.0000,  0.0000, -0.1299)
   8 Cr    -2.666887   -2.052642    3.080226    ( 0.0000,  0.0000,  3.4336)
   9 Cr     0.888546   -0.000185    3.063139    ( 0.0000,  0.0000,  3.4336)
  10 I      1.852510    2.063434    1.594959    ( 0.0000,  0.0000, -0.1299)
  11 I      2.194233   -1.865690    1.594230    ( 0.0000,  0.0000, -0.1299)
  12 I     -1.379843   -0.197989    1.594233    ( 0.0000,  0.0000, -0.1299)
  13 I     -0.044330    2.046247    4.559875    ( 0.0000,  0.0000, -0.1299)
  14 I      3.126343   -0.216415    4.560604    ( 0.0000,  0.0000, -0.1299)
  15 I     -0.417976   -1.830062    4.560597    ( 0.0000,  0.0000, -0.1299)

Unit cell:
           periodic     x           y           z      points  spacing
  1. axis:    yes    7.110727   -0.000000    0.000000    42     0.1466
  2. axis:    yes   -3.555363    6.158070    0.000000    42     0.1466
  3. axis:    no     0.000000   -0.000000   27.269192   160     0.1704

  Lengths:   7.110727   7.110727  27.269192
  Angles:   90.000000  90.000000 120.000000

Effective grid spacing dv^(1/3) = 0.1617

                     log10-error:           total        iterations:
           time      wfs    density  force  energy       poisson  magmom
iter:   1  06:00:32                        -76.892490             +12.1076
iter:   2  06:01:24  -0.99  -0.91          -70.503391             +9.9643
iter:   3  06:02:15  -1.83  -1.33          -70.497285             +11.0162
iter:   4  06:03:07  -1.58  -1.38          -70.967936             +12.0927
iter:   5  06:03:58  -2.53  -1.51          -70.628304             +12.0158
iter:   6  06:04:50  -1.91  -1.83          -70.402457             +12.0005
iter:   7  06:05:41  -2.97  -2.20          -70.395303             +12.0039
iter:   8  06:06:32  -3.31  -2.32          -70.390107             +12.0055
iter:   9  06:07:24  -3.68  -2.67          -70.391273             +12.0017
iter:  10  06:08:15  -3.86  -2.86          -70.391954             +11.9998
iter:  11  06:09:07  -3.99  -2.94          -70.392526             +12.0000
iter:  12  06:09:58  -3.99  -3.04          -70.392840             +12.0000
iter:  13  06:10:50  -4.06  -3.11          -70.393050             +12.0000
iter:  14  06:11:41  -4.09  -3.15          -70.393156             +12.0000
iter:  15  06:12:33  -4.19  -3.27          -70.393318             +12.0000
iter:  16  06:13:24  -4.32  -3.32          -70.393438             +12.0000
iter:  17  06:14:16  -4.59  -3.37          -70.393496             +12.0000
iter:  18  06:15:07  -4.74  -3.57          -70.393567             +12.0000
iter:  19  06:15:59  -4.89  -3.65          -70.393615             +12.0000
iter:  20  06:16:50  -5.01  -3.75          -70.393656             +12.0000
iter:  21  06:17:42  -5.19  -4.17          -70.393685             +12.0000
iter:  22  06:18:33  -5.31  -4.17          -70.393708             +12.0000
iter:  23  06:19:25  -5.36  -4.20          -70.393721             +12.0000
iter:  24  06:20:16  -5.53  -4.37          -70.393731             +12.0000
iter:  25  06:21:07  -5.72  -4.46          -70.393740             +12.0000
iter:  26  06:21:59  -5.76  -4.43          -70.393745             +12.0000
iter:  27  06:22:50  -5.86  -4.37          -70.393750             +12.0000
iter:  28  06:23:42  -5.96  -4.42          -70.393753             +12.0000
iter:  29  06:24:33  -6.00  -4.41          -70.393755             +12.0000
iter:  30  06:25:25  -6.18  -4.33          -70.393757             +12.0000
iter:  31  06:26:16  -6.32  -4.33          -70.393759             +12.0000
iter:  32  06:27:08  -6.45  -4.32          -70.393760             +12.0000
iter:  33  06:27:59  -6.67  -4.32          -70.393760             +12.0000
iter:  34  06:28:51  -6.78  -4.37          -70.393761             +12.0000
iter:  35  06:29:42  -6.99  -4.36          -70.393762             +12.0000
iter:  36  06:30:34  -7.14  -4.27          -70.393761             +12.0000
iter:  37  06:31:25  -7.36  -4.39          -70.393761             +12.0000
iter:  38  06:32:26  -7.45  -4.39          -70.393761             +12.0000
iter:  39  06:33:29  -7.66  -4.48    -3.18 -70.393761             +12.0000
iter:  40  06:34:31  -7.66  -4.54    -3.12 -70.393761             +12.0000
iter:  41  06:35:33  -8.04  -4.65    -3.22 -70.393761             +12.0000
iter:  42  06:36:36  -7.93  -4.73    -2.80 -70.393761             +12.0000
iter:  43  06:37:38  -8.09  -5.01    -3.33 -70.393761             +12.0000
iter:  44  06:38:41  -8.24  -5.13    -3.47 -70.393761             +12.0000
iter:  45  06:39:43  -8.41  -5.25    -3.72 -70.393761             +12.0000
iter:  46  06:40:46  -8.51  -5.36    -3.53 -70.393761             +12.0000
iter:  47  06:41:48  -8.57  -5.43    -4.18 -70.393761             +12.0000

Converged after 47 iterations.

Dipole moment: (-31.406481, -0.000830, 0.000053) |e|*Ang

Total magnetic moment: (0.000000, 0.000000, 12.000000)
Local magnetic moments:
   0 Cr ( 0.000000,  0.000000,  2.911991)
   1 Cr ( 0.000000,  0.000000,  2.916163)
   2 I  ( 0.000000,  0.000000, -0.047237)
   3 I  ( 0.000000,  0.000000, -0.046962)
   4 I  ( 0.000000,  0.000000, -0.046988)
   5 I  ( 0.000000,  0.000000, -0.049574)
   6 I  ( 0.000000,  0.000000, -0.049867)
   7 I  ( 0.000000,  0.000000, -0.049882)
   8 Cr ( 0.000000,  0.000000,  2.915455)
   9 Cr ( 0.000000,  0.000000,  2.911283)
  10 I  ( 0.000000,  0.000000, -0.049684)
  11 I  ( 0.000000,  0.000000, -0.049673)
  12 I  ( 0.000000,  0.000000, -0.049659)
  13 I  ( 0.000000,  0.000000, -0.046978)
  14 I  ( 0.000000,  0.000000, -0.046932)
  15 I  ( 0.000000,  0.000000, -0.046954)

Energy contributions relative to reference atoms: (reference = -2434708.556191)

Kinetic:        +23.088911
Potential:      -37.094164
External:        +0.000000
XC:             -56.565236
Entropy (-ST):   -0.000000
Local:           +0.176727
--------------------------
Free energy:    -70.393761
Extrapolated:   -70.393761

Spin contamination: 1.120621 electrons
Showing only first 2 kpts
                      Up                     Down
 Kpt  Band  Eigenvalues  Occupancy  Eigenvalues  Occupancy
  0    52     -2.13952    1.00000     -0.01266    0.00000
  0    53     -2.10420    1.00000      0.00267    0.00000
  0    54     -2.02068    1.00000      0.17989    0.00000
  0    55     -2.01968    1.00000      0.21061    0.00000

  1    52     -2.11897    1.00000     -0.02000    0.00000
  1    53     -2.07487    1.00000      0.01802    0.00000
  1    54     -2.02143    1.00000      0.16933    0.00000
  1    55     -1.99107    1.00000      0.20813    0.00000


Fermi level: -1.19448

Gap: 0.970 eV
Transition (v -> c):
  (s=0, k=138, n=59, [0.46, 0.04, 0.00]) -> (s=0, k=121, n=60, [0.38, -0.38, 0.00])
Writing to born-0.01-2x+.gpw (mode='all')

Timing:                              incl.     excl.
-----------------------------------------------------------
Hamiltonian:                         2.502     0.011   0.0% |
 Atomic:                             0.888     0.888   0.0% |
  XC Correction:                     0.000     0.000   0.0% |
 Calculate atomic Hamiltonians:      0.445     0.445   0.0% |
 Communicate:                        0.000     0.000   0.0% |
 Initialize Hamiltonian:             0.004     0.004   0.0% |
 Poisson:                            0.012     0.012   0.0% |
 XC 3D grid:                         1.142     1.142   0.0% |
LCAO initialization:                21.121     0.142   0.0% |
 LCAO eigensolver:                   3.327     0.001   0.0% |
  Calculate projections:             0.003     0.003   0.0% |
  DenseAtomicCorrection:             0.006     0.006   0.0% |
  Distribute overlap matrix:         0.000     0.000   0.0% |
  Orbital Layouts:                   0.016     0.016   0.0% |
  Potential matrix:                  3.289     3.289   0.0% |
  Sum over cells:                    0.011     0.011   0.0% |
 LCAO to grid:                      17.367    17.367   0.3% |
 Set positions (LCAO WFS):           0.285     0.051   0.0% |
  Basic WFS set positions:           0.001     0.001   0.0% |
  Basis functions set positions:     0.000     0.000   0.0% |
  P tci:                             0.125     0.125   0.0% |
  ST tci:                            0.066     0.066   0.0% |
  mktci:                             0.044     0.044   0.0% |
PWDescriptor:                        0.087     0.087   0.0% |
SCF-cycle:                        2528.403   539.168   8.2% |--|
 Davidson:                        1543.111   244.781   3.7% ||
  Apply H:                         268.796   260.641   4.0% |-|
   HMM T:                            8.155     8.155   0.1% |
  Subspace diag:                   325.539     0.071   0.0% |
   calc_h_matrix:                  288.472    20.736   0.3% |
    Apply H:                       267.735   259.377   3.9% |-|
     HMM T:                          8.358     8.358   0.1% |
   diagonalize:                      0.583     0.583   0.0% |
   rotate_psi:                      36.413    36.413   0.6% |
  calc. matrices:                  634.012   119.540   1.8% ||
   Apply H:                        514.472   499.316   7.6% |--|
    HMM T:                          15.156    15.156   0.2% |
  diagonalize:                       5.560     5.560   0.1% |
  rotate_psi:                       64.423    64.423   1.0% |
 Density:                          251.694     0.002   0.0% |
  Atomic density matrices:           0.339     0.339   0.0% |
  Mix:                              41.720    41.720   0.6% |
  Multipole moments:                 0.021     0.021   0.0% |
  Pseudo density:                  209.613   209.609   3.2% ||
   Symmetrize density:               0.003     0.003   0.0% |
 Forces:                            98.672    98.672   1.5% ||
 Hamiltonian:                       94.109     0.574   0.0% |
  Atomic:                            6.821     6.821   0.1% |
   XC Correction:                    0.000     0.000   0.0% |
  Calculate atomic Hamiltonians:    30.508    30.508   0.5% |
  Communicate:                       0.007     0.007   0.0% |
  Poisson:                           0.545     0.545   0.0% |
  XC 3D grid:                       55.654    55.654   0.8% |
 Orthonormalize:                     1.648     0.002   0.0% |
  calc_s_matrix:                     0.221     0.221   0.0% |
  inverse-cholesky:                  0.004     0.004   0.0% |
  projections:                       1.003     1.003   0.0% |
  rotate_psi_s:                      0.419     0.419   0.0% |
Set symmetry:                        0.000     0.000   0.0% |
Other:                            4026.915  4026.915  61.2% |-----------------------|
-----------------------------------------------------------
Total:                                      6579.028 100.0%

Memory usage: 39.01 GiB
Date: Sun Jun 26 07:48:50 2022
