
  ___ ___ ___ _ _ _  
 |   |   |_  | | | | 
 | | | | | . | | | | 
 |__ |  _|___|_____|  21.6.1b1
 |___|_|             

User:   madkru@c153.nifl.fysik.dtu.dk
Date:   Mon Jun 27 08:58:09 2022
Arch:   x86_64
Pid:    48887
Python: 3.8.6
gpaw:   /home/niflheim/madkru/new_venv/gpaw/gpaw (1f0dfc9eae)
_gpaw:  /home/niflheim/madkru/new_venv/gpaw/build/lib.linux-x86_64-skylake-3.8/
        _gpaw.cpython-38-x86_64-linux-gnu.so (c1e45bfab3)
ase:    /home/niflheim/madkru/new_venv/ase/ase (version 3.23.0b1-ca38c75a67)
numpy:  /home/modules/software/SciPy-bundle/2020.11-foss-2020b/lib/python3.8/site-packages/numpy (version 1.19.4)
scipy:  /home/modules/software/SciPy-bundle/2020.11-foss-2020b/lib/python3.8/site-packages/scipy (version 1.5.4)
libxc:  4.3.4
units:  Angstrom and eV
cores: 40
OpenMP: False
OMP_NUM_THREADS: 1

Input parameters:
  convergence: {bands: occupied,
                density: 0.0001,
                eigenstates: 4e-08,
                energy: 0.0005,
                forces: 0.0001}
  kpts: [12 12  1]
  mode: {ecut: 600.0,
         gammacentered: False,
         name: pw}
  occupations: {fixmagmom: False,
                name: fermi-dirac,
                width: 0.001}
  symmetry: {point_group: False,
             time_reversal: False}

System changes: positions, numbers, cell, pbc, initial_charges, initial_magmoms 

Initialize ...

Cr-setup:
  name: Chromium
  id: 444e8044bc0f91048286c984738d87f5
  Z: 24.0
  valence: 6
  core: 18
  charge: 0.0
  file: /home/modules/software/GPAW-setups/0.9.20000/Cr.LDA.gz
  compensation charges: gauss, rc=0.35, lmax=2
  cutoffs: 2.14(filt), 3.04(core),
  valence states:
                energy  radius
    4s(1.00)    -4.191   1.164
    4p(0.00)    -1.079   1.217
    3d(5.00)    -3.128   1.111
    *s          23.021   1.164
    *p          26.132   1.217
    *d          24.083   1.111

  Using partial waves for Cr as LCAO basis

I-setup:
  name: Iodine
  id: b559721c0c096a7b4c8fc0e0f4de5cf4
  Z: 53.0
  valence: 7
  core: 46
  charge: 0.0
  file: /home/modules/software/GPAW-setups/0.9.20000/I.LDA.gz
  compensation charges: gauss, rc=0.37, lmax=2
  cutoffs: 2.06(filt), 2.90(core),
  valence states:
                energy  radius
    5s(2.00)   -17.626   1.164
    5p(5.00)    -7.241   1.164
    *s           9.585   1.164
    *p          19.970   1.164
    *d           0.000   1.164

  Using partial waves for I as LCAO basis

Reference energy: -2434708.556191

Spin-polarized calculation.
Magnetic moment: 12.175341

Convergence criteria:
  Maximum total energy change: 0.0005 eV / electron
  Maximum integral of absolute density change: 0.0001 electrons
  Maximum integral of absolute eigenstate change: 4e-08 eV^2
  Maximum change in atomic force: 0.0001 eV / Ang
  Maximum number of iterations: 333

Symmetries present (total): 1

  ( 1  0  0)
  ( 0  1  0)
  ( 0  0  1)

144 k-points: 12 x 12 x 1 Monkhorst-Pack grid
144 k-points in the irreducible part of the Brillouin zone
       k-points in crystal coordinates                weights
   0:    -0.45833333   -0.45833333    0.00000000          1/144
   1:    -0.45833333   -0.37500000    0.00000000          1/144
   2:    -0.45833333   -0.29166667    0.00000000          1/144
   3:    -0.45833333   -0.20833333    0.00000000          1/144
   4:    -0.45833333   -0.12500000    0.00000000          1/144
   5:    -0.45833333   -0.04166667    0.00000000          1/144
   6:    -0.45833333    0.04166667    0.00000000          1/144
   7:    -0.45833333    0.12500000    0.00000000          1/144
   8:    -0.45833333    0.20833333    0.00000000          1/144
   9:    -0.45833333    0.29166667    0.00000000          1/144
          ...
 143:     0.45833333    0.45833333    0.00000000          1/144

Wave functions: Plane wave expansion
  Cutoff energy: 600.000 eV
  Number of coefficients (min, max): 39797, 39902
  Pulay-stress correction: 0.000000 eV/Ang^3 (de/decut=0.000000)
  Using FFTW library
  ScaLapack parameters: grid=1x1, blocksize=None
  Wavefunction extrapolation:
    Improved wavefunction reuse through dual PAW basis 

Occupation numbers: Fermi-Dirac: width=0.0010 eV
 

Eigensolver
   Davidson(niter=2) 

Densities:
  Coarse grid: 42*42*160 grid
  Fine grid: 84*84*320 grid
  Total Charge: 0.000000 

Density mixing:
  Method: difference
  Backend: pulay
  Linear mixing parameter: 0.05
  Mixing with 5 old densities
  Damping of long wave oscillations: 50 

Hamiltonian:
  XC and Coulomb potentials evaluated on a 84*84*320 grid
  Using the LDA Exchange-Correlation functional
  External potential:
    <gpaw.external.NoExternalPotential object at 0x2b33266d9100>
 

Memory estimate:
  Process memory now: 40108.18 MiB
  Calculator: 580.26 MiB
    Density: 158.40 MiB
      Arrays: 75.37 MiB
      Localized functions: 52.88 MiB
      Mixer: 30.15 MiB
    Hamiltonian: 57.28 MiB
      Arrays: 55.99 MiB
      XC: 0.00 MiB
      Poisson: 0.00 MiB
      vbar: 1.29 MiB
    Wavefunctions: 364.58 MiB
      Arrays psit_nG: 281.29 MiB
      Eigensolver: 50.83 MiB
      Projections: 1.61 MiB
      Projectors: 18.26 MiB
      PW-descriptor: 12.59 MiB

Total number of cores used: 40
Parallelization over k-points: 40

Number of atoms: 16
Number of atomic orbitals: 84
Number of bands in calculation: 77
Number of valence electrons: 108
Bands to converge: occupied

... initialized

Initializing position-dependent things.

Density initialized from atomic densities
Creating initial wave functions:
  77 bands from LCAO basis set

                                       
                                       
                                       
                                       
                      I                
                            I          
                   I                   
                       Cr  I           
             Cr                        
                 I                     
                         I             
                     I                 
                             I         
               Cr                      
                   I   Cr              
          I                            
                 I                     
                        I              
                                       
                                       
                                       
                                       

Positions:
   0 Cr     0.889135    0.000185   -3.063135    ( 0.0000,  0.0000,  3.4336)
   1 Cr    -2.666158    2.052642   -3.080223    ( 0.0000,  0.0000,  3.4336)
   2 I      1.822012   -2.046247   -4.559876    ( 0.0000,  0.0000, -0.1299)
   3 I     -1.348662    0.216415   -4.560605    ( 0.0000,  0.0000, -0.1299)
   4 I     -4.915070    1.830062   -4.560598    ( 0.0000,  0.0000, -0.1299)
   5 I     -0.074828   -2.063434   -1.594960    ( 0.0000,  0.0000, -0.1299)
   6 I     -0.416551    1.865690   -1.594231    ( 0.0000,  0.0000, -0.1299)
   7 I      3.167525    0.197989   -1.594234    ( 0.0000,  0.0000, -0.1299)
   8 Cr    -2.666887   -2.052642    3.080226    ( 0.0000,  0.0000,  3.4336)
   9 Cr     0.888546   -0.000185    3.063139    ( 0.0000,  0.0000,  3.4336)
  10 I      1.852510    2.063434    1.594959    ( 0.0000,  0.0000, -0.1299)
  11 I      2.194233   -1.865690    1.594230    ( 0.0000,  0.0000, -0.1299)
  12 I     -1.379843   -0.197989    1.594233    ( 0.0000,  0.0000, -0.1299)
  13 I     -0.044330    2.046247    4.559875    ( 0.0000,  0.0000, -0.1299)
  14 I      3.126343   -0.216415    4.560604    ( 0.0000,  0.0000, -0.1299)
  15 I     -0.417976   -1.830062    4.560597    ( 0.0000,  0.0000, -0.1299)

Unit cell:
           periodic     x           y           z      points  spacing
  1. axis:    yes    7.110727   -0.000000    0.000000    42     0.1466
  2. axis:    yes   -3.555363    6.158070    0.000000    42     0.1466
  3. axis:    no     0.000000   -0.000000   27.269192   160     0.1704

  Lengths:   7.110727   7.110727  27.269192
  Angles:   90.000000  90.000000 120.000000

Effective grid spacing dv^(1/3) = 0.1617

                     log10-error:           total        iterations:
           time      wfs    density  force  energy       poisson  magmom
iter:   1  08:59:30                        -76.895013             +12.1076
iter:   2  09:00:21  -0.99  -0.91          -70.504124             +9.9661
iter:   3  09:01:13  -1.83  -1.33          -70.497410             +11.0173
iter:   4  09:02:05  -1.58  -1.38          -70.968044             +12.0927
iter:   5  09:02:57  -2.53  -1.51          -70.628506             +12.0159
iter:   6  09:03:49  -1.91  -1.83          -70.402277             +12.0005
iter:   7  09:04:41  -2.97  -2.20          -70.395261             +12.0039
iter:   8  09:05:33  -3.31  -2.32          -70.390043             +12.0055
iter:   9  09:06:25  -3.68  -2.67          -70.391199             +12.0017
iter:  10  09:07:16  -3.86  -2.86          -70.391884             +11.9998
iter:  11  09:08:08  -3.99  -2.94          -70.392458             +12.0000
iter:  12  09:09:00  -3.99  -3.04          -70.392772             +12.0000
iter:  13  09:09:52  -4.06  -3.11          -70.392982             +12.0000
iter:  14  09:10:44  -4.10  -3.15          -70.393084             +12.0000
iter:  15  09:11:36  -4.20  -3.27          -70.393245             +12.0000
iter:  16  09:12:28  -4.33  -3.32          -70.393364             +12.0000
iter:  17  09:13:20  -4.61  -3.37          -70.393422             +12.0000
iter:  18  09:14:12  -4.75  -3.56          -70.393494             +12.0000
iter:  19  09:15:03  -4.89  -3.65          -70.393542             +12.0000
iter:  20  09:15:55  -5.01  -3.74          -70.393584             +12.0000
iter:  21  09:16:47  -5.19  -4.24          -70.393611             +12.0000
iter:  22  09:17:39  -5.18  -4.25          -70.393632             +12.0000
iter:  23  09:18:31  -5.31  -4.27          -70.393647             +12.0000
iter:  24  09:19:23  -5.48  -4.22          -70.393661             +12.0000
iter:  25  09:20:15  -5.60  -4.19          -70.393668             +12.0000
iter:  26  09:21:07  -5.70  -4.19          -70.393673             +12.0000
iter:  27  09:21:58  -5.73  -4.22          -70.393677             +12.0000
iter:  28  09:22:50  -5.82  -4.17          -70.393680             +12.0000
iter:  29  09:23:42  -6.13  -4.17          -70.393682             +12.0000
iter:  30  09:24:34  -6.32  -4.36          -70.393683             +12.0000
iter:  31  09:25:26  -6.48  -4.51          -70.393684             +12.0000
iter:  32  09:26:18  -6.62  -4.67          -70.393685             +12.0000
iter:  33  09:27:10  -6.82  -4.65          -70.393686             +12.0000
iter:  34  09:28:02  -6.88  -4.68          -70.393686             +12.0000
iter:  35  09:28:54  -6.95  -4.81          -70.393686             +12.0000
iter:  36  09:29:45  -7.22  -4.83          -70.393687             +12.0000
iter:  37  09:30:37  -7.32  -4.93          -70.393687             +12.0000
iter:  38  09:31:29  -7.35  -4.97          -70.393687             +12.0000
iter:  39  09:32:31  -7.52  -5.07          -70.393687             +12.0000
iter:  40  09:33:34  -7.63  -5.19    -3.39 -70.393687             +12.0000
iter:  41  09:34:36  -7.75  -5.33    -3.85 -70.393687             +12.0000
iter:  42  09:35:39  -7.89  -5.36    -3.83 -70.393687             +12.0000
iter:  43  09:36:42  -8.01  -5.42    -4.07 -70.393687             +12.0000

Converged after 43 iterations.

Dipole moment: (-31.569710, 0.000222, -0.000554) |e|*Ang

Total magnetic moment: (0.000000, 0.000000, 12.000000)
Local magnetic moments:
   0 Cr ( 0.000000,  0.000000,  2.913406)
   1 Cr ( 0.000000,  0.000000,  2.914073)
   2 I  ( 0.000000,  0.000000, -0.046890)
   3 I  ( 0.000000,  0.000000, -0.047268)
   4 I  ( 0.000000,  0.000000, -0.046888)
   5 I  ( 0.000000,  0.000000, -0.049630)
   6 I  ( 0.000000,  0.000000, -0.049742)
   7 I  ( 0.000000,  0.000000, -0.049785)
   8 Cr ( 0.000000,  0.000000,  2.915394)
   9 Cr ( 0.000000,  0.000000,  2.911311)
  10 I  ( 0.000000,  0.000000, -0.049690)
  11 I  ( 0.000000,  0.000000, -0.049630)
  12 I  ( 0.000000,  0.000000, -0.049682)
  13 I  ( 0.000000,  0.000000, -0.046981)
  14 I  ( 0.000000,  0.000000, -0.046935)
  15 I  ( 0.000000,  0.000000, -0.046956)

Energy contributions relative to reference atoms: (reference = -2434708.556191)

Kinetic:        +23.169388
Potential:      -37.159742
External:        +0.000000
XC:             -56.579770
Entropy (-ST):   -0.000000
Local:           +0.176438
--------------------------
Free energy:    -70.393687
Extrapolated:   -70.393687

Spin contamination: 1.120131 electrons
Showing only first 2 kpts
                      Up                     Down
 Kpt  Band  Eigenvalues  Occupancy  Eigenvalues  Occupancy
  0    52     -2.13887    1.00000     -0.01216    0.00000
  0    53     -2.10312    1.00000      0.00372    0.00000
  0    54     -2.01977    1.00000      0.18060    0.00000
  0    55     -2.01849    1.00000      0.21126    0.00000

  1    52     -2.11820    1.00000     -0.01933    0.00000
  1    53     -2.07377    1.00000      0.01916    0.00000
  1    54     -2.02060    1.00000      0.17008    0.00000
  1    55     -1.99004    1.00000      0.20912    0.00000


Fermi level: -1.19457

Gap: 0.968 eV
Transition (v -> c):
  (s=0, k=138, n=59, [0.46, 0.04, 0.00]) -> (s=0, k=126, n=60, [0.38, 0.04, 0.00])
Writing to born-0.01-7x+.gpw (mode='all')

Timing:                              incl.     excl.
-----------------------------------------------------------
Hamiltonian:                         2.773     0.010   0.0% |
 Atomic:                             1.282     1.282   0.0% |
  XC Correction:                     0.000     0.000   0.0% |
 Calculate atomic Hamiltonians:      0.325     0.325   0.0% |
 Communicate:                        0.000     0.000   0.0% |
 Initialize Hamiltonian:             0.004     0.004   0.0% |
 Poisson:                            0.013     0.013   0.0% |
 XC 3D grid:                         1.138     1.138   0.0% |
LCAO initialization:                21.113     0.141   0.0% |
 LCAO eigensolver:                   3.326     0.001   0.0% |
  Calculate projections:             0.004     0.004   0.0% |
  DenseAtomicCorrection:             0.005     0.005   0.0% |
  Distribute overlap matrix:         0.000     0.000   0.0% |
  Orbital Layouts:                   0.016     0.016   0.0% |
  Potential matrix:                  3.288     3.288   0.1% |
  Sum over cells:                    0.012     0.012   0.0% |
 LCAO to grid:                      17.366    17.366   0.3% |
 Set positions (LCAO WFS):           0.281     0.050   0.0% |
  Basic WFS set positions:           0.001     0.001   0.0% |
  Basis functions set positions:     0.000     0.000   0.0% |
  P tci:                             0.123     0.123   0.0% |
  ST tci:                            0.064     0.064   0.0% |
  mktci:                             0.043     0.043   0.0% |
PWDescriptor:                        0.088     0.088   0.0% |
SCF-cycle:                        2284.973   537.591   9.1% |---|
 Davidson:                        1383.367   229.156   3.9% |-|
  Apply H:                         232.818   225.617   3.8% |-|
   HMM T:                            7.202     7.202   0.1% |
  Subspace diag:                   285.953     0.057   0.0% |
   calc_h_matrix:                  253.403    19.217   0.3% |
    Apply H:                       234.186   226.745   3.8% |-|
     HMM T:                          7.441     7.441   0.1% |
   diagonalize:                      0.534     0.534   0.0% |
   rotate_psi:                      31.958    31.958   0.5% |
  calc. matrices:                  574.271   109.966   1.9% ||
   Apply H:                        464.304   449.884   7.6% |--|
    HMM T:                          14.420    14.420   0.2% |
  diagonalize:                       4.972     4.972   0.1% |
  rotate_psi:                       56.196    56.196   0.9% |
 Density:                          227.405     0.002   0.0% |
  Atomic density matrices:           0.370     0.370   0.0% |
  Mix:                              38.385    38.385   0.6% |
  Multipole moments:                 0.020     0.020   0.0% |
  Pseudo density:                  188.628   188.625   3.2% ||
   Symmetrize density:               0.003     0.003   0.0% |
 Forces:                            49.147    49.147   0.8% |
 Hamiltonian:                       85.838     0.516   0.0% |
  Atomic:                            6.134     6.134   0.1% |
   XC Correction:                    0.000     0.000   0.0% |
  Calculate atomic Hamiltonians:    27.635    27.635   0.5% |
  Communicate:                       0.007     0.007   0.0% |
  Poisson:                           0.480     0.480   0.0% |
  XC 3D grid:                       51.065    51.065   0.9% |
 Orthonormalize:                     1.625     0.001   0.0% |
  calc_s_matrix:                     0.211     0.211   0.0% |
  inverse-cholesky:                  0.004     0.004   0.0% |
  projections:                       1.022     1.022   0.0% |
  rotate_psi_s:                      0.387     0.387   0.0% |
Set symmetry:                        0.000     0.000   0.0% |
Other:                            3613.247  3613.247  61.0% |-----------------------|
-----------------------------------------------------------
Total:                                      5922.194 100.0%

Memory usage: 39.19 GiB
Date: Mon Jun 27 10:36:51 2022
