
  ___ ___ ___ _ _ _  
 |   |   |_  | | | | 
 | | | | | . | | | | 
 |__ |  _|___|_____|  21.6.1b1
 |___|_|             

User:   madkru@c153.nifl.fysik.dtu.dk
Date:   Mon Jun 27 06:16:51 2022
Arch:   x86_64
Pid:    48887
Python: 3.8.6
gpaw:   /home/niflheim/madkru/new_venv/gpaw/gpaw (1f0dfc9eae)
_gpaw:  /home/niflheim/madkru/new_venv/gpaw/build/lib.linux-x86_64-skylake-3.8/
        _gpaw.cpython-38-x86_64-linux-gnu.so (c1e45bfab3)
ase:    /home/niflheim/madkru/new_venv/ase/ase (version 3.23.0b1-ca38c75a67)
numpy:  /home/modules/software/SciPy-bundle/2020.11-foss-2020b/lib/python3.8/site-packages/numpy (version 1.19.4)
scipy:  /home/modules/software/SciPy-bundle/2020.11-foss-2020b/lib/python3.8/site-packages/scipy (version 1.5.4)
libxc:  4.3.4
units:  Angstrom and eV
cores: 40
OpenMP: False
OMP_NUM_THREADS: 1

Input parameters:
  convergence: {bands: occupied,
                density: 0.0001,
                eigenstates: 4e-08,
                energy: 0.0005,
                forces: 0.0001}
  kpts: [12 12  1]
  mode: {ecut: 600.0,
         gammacentered: False,
         name: pw}
  occupations: {fixmagmom: False,
                name: fermi-dirac,
                width: 0.001}
  symmetry: {point_group: False,
             time_reversal: False}

System changes: positions, numbers, cell, pbc, initial_charges, initial_magmoms 

Initialize ...

Cr-setup:
  name: Chromium
  id: 444e8044bc0f91048286c984738d87f5
  Z: 24.0
  valence: 6
  core: 18
  charge: 0.0
  file: /home/modules/software/GPAW-setups/0.9.20000/Cr.LDA.gz
  compensation charges: gauss, rc=0.35, lmax=2
  cutoffs: 2.14(filt), 3.04(core),
  valence states:
                energy  radius
    4s(1.00)    -4.191   1.164
    4p(0.00)    -1.079   1.217
    3d(5.00)    -3.128   1.111
    *s          23.021   1.164
    *p          26.132   1.217
    *d          24.083   1.111

  Using partial waves for Cr as LCAO basis

I-setup:
  name: Iodine
  id: b559721c0c096a7b4c8fc0e0f4de5cf4
  Z: 53.0
  valence: 7
  core: 46
  charge: 0.0
  file: /home/modules/software/GPAW-setups/0.9.20000/I.LDA.gz
  compensation charges: gauss, rc=0.37, lmax=2
  cutoffs: 2.06(filt), 2.90(core),
  valence states:
                energy  radius
    5s(2.00)   -17.626   1.164
    5p(5.00)    -7.241   1.164
    *s           9.585   1.164
    *p          19.970   1.164
    *d           0.000   1.164

  Using partial waves for I as LCAO basis

Reference energy: -2434708.556191

Spin-polarized calculation.
Magnetic moment: 12.175341

Convergence criteria:
  Maximum total energy change: 0.0005 eV / electron
  Maximum integral of absolute density change: 0.0001 electrons
  Maximum integral of absolute eigenstate change: 4e-08 eV^2
  Maximum change in atomic force: 0.0001 eV / Ang
  Maximum number of iterations: 333

Symmetries present (total): 1

  ( 1  0  0)
  ( 0  1  0)
  ( 0  0  1)

144 k-points: 12 x 12 x 1 Monkhorst-Pack grid
144 k-points in the irreducible part of the Brillouin zone
       k-points in crystal coordinates                weights
   0:    -0.45833333   -0.45833333    0.00000000          1/144
   1:    -0.45833333   -0.37500000    0.00000000          1/144
   2:    -0.45833333   -0.29166667    0.00000000          1/144
   3:    -0.45833333   -0.20833333    0.00000000          1/144
   4:    -0.45833333   -0.12500000    0.00000000          1/144
   5:    -0.45833333   -0.04166667    0.00000000          1/144
   6:    -0.45833333    0.04166667    0.00000000          1/144
   7:    -0.45833333    0.12500000    0.00000000          1/144
   8:    -0.45833333    0.20833333    0.00000000          1/144
   9:    -0.45833333    0.29166667    0.00000000          1/144
          ...
 143:     0.45833333    0.45833333    0.00000000          1/144

Wave functions: Plane wave expansion
  Cutoff energy: 600.000 eV
  Number of coefficients (min, max): 39797, 39902
  Pulay-stress correction: 0.000000 eV/Ang^3 (de/decut=0.000000)
  Using FFTW library
  ScaLapack parameters: grid=1x1, blocksize=None
  Wavefunction extrapolation:
    Improved wavefunction reuse through dual PAW basis 

Occupation numbers: Fermi-Dirac: width=0.0010 eV
 

Eigensolver
   Davidson(niter=2) 

Densities:
  Coarse grid: 42*42*160 grid
  Fine grid: 84*84*320 grid
  Total Charge: 0.000000 

Density mixing:
  Method: difference
  Backend: pulay
  Linear mixing parameter: 0.05
  Mixing with 5 old densities
  Damping of long wave oscillations: 50 

Hamiltonian:
  XC and Coulomb potentials evaluated on a 84*84*320 grid
  Using the LDA Exchange-Correlation functional
  External potential:
    <gpaw.external.NoExternalPotential object at 0x2b33280d4670>
 

Memory estimate:
  Process memory now: 40079.48 MiB
  Calculator: 580.26 MiB
    Density: 158.40 MiB
      Arrays: 75.37 MiB
      Localized functions: 52.88 MiB
      Mixer: 30.15 MiB
    Hamiltonian: 57.28 MiB
      Arrays: 55.99 MiB
      XC: 0.00 MiB
      Poisson: 0.00 MiB
      vbar: 1.29 MiB
    Wavefunctions: 364.58 MiB
      Arrays psit_nG: 281.29 MiB
      Eigensolver: 50.83 MiB
      Projections: 1.61 MiB
      Projectors: 18.26 MiB
      PW-descriptor: 12.59 MiB

Total number of cores used: 40
Parallelization over k-points: 40

Number of atoms: 16
Number of atomic orbitals: 84
Number of bands in calculation: 77
Number of valence electrons: 108
Bands to converge: occupied

... initialized

Initializing position-dependent things.

Density initialized from atomic densities
Creating initial wave functions:
  77 bands from LCAO basis set

                                       
                                       
                                       
                                       
                      I                
                            I          
                   I                   
                       Cr  I           
             Cr                        
                 I                     
                         I             
                     I                 
                             I         
               Cr                      
                   I   Cr              
          I                            
                 I                     
                        I              
                                       
                                       
                                       
                                       

Positions:
   0 Cr     0.889135    0.000185   -3.063135    ( 0.0000,  0.0000,  3.4336)
   1 Cr    -2.666158    2.052642   -3.080223    ( 0.0000,  0.0000,  3.4336)
   2 I      1.822012   -2.046247   -4.559876    ( 0.0000,  0.0000, -0.1299)
   3 I     -1.348662    0.216415   -4.560605    ( 0.0000,  0.0000, -0.1299)
   4 I     -4.915070    1.830062   -4.560598    ( 0.0000,  0.0000, -0.1299)
   5 I     -0.074828   -2.063434   -1.594960    ( 0.0000,  0.0000, -0.1299)
   6 I     -0.416551    1.865690   -1.604231    ( 0.0000,  0.0000, -0.1299)
   7 I      3.157525    0.197989   -1.594234    ( 0.0000,  0.0000, -0.1299)
   8 Cr    -2.666887   -2.052642    3.080226    ( 0.0000,  0.0000,  3.4336)
   9 Cr     0.888546   -0.000185    3.063139    ( 0.0000,  0.0000,  3.4336)
  10 I      1.852510    2.063434    1.594959    ( 0.0000,  0.0000, -0.1299)
  11 I      2.194233   -1.865690    1.594230    ( 0.0000,  0.0000, -0.1299)
  12 I     -1.379843   -0.197989    1.594233    ( 0.0000,  0.0000, -0.1299)
  13 I     -0.044330    2.046247    4.559875    ( 0.0000,  0.0000, -0.1299)
  14 I      3.126343   -0.216415    4.560604    ( 0.0000,  0.0000, -0.1299)
  15 I     -0.417976   -1.830062    4.560597    ( 0.0000,  0.0000, -0.1299)

Unit cell:
           periodic     x           y           z      points  spacing
  1. axis:    yes    7.110727   -0.000000    0.000000    42     0.1466
  2. axis:    yes   -3.555363    6.158070    0.000000    42     0.1466
  3. axis:    no     0.000000   -0.000000   27.269192   160     0.1704

  Lengths:   7.110727   7.110727  27.269192
  Angles:   90.000000  90.000000 120.000000

Effective grid spacing dv^(1/3) = 0.1617

                     log10-error:           total        iterations:
           time      wfs    density  force  energy       poisson  magmom
iter:   1  06:18:12                        -76.906360             +12.1076
iter:   2  06:19:03  -0.99  -0.91          -70.501755             +9.9541
iter:   3  06:19:54  -1.83  -1.33          -70.496702             +11.0108
iter:   4  06:20:45  -1.58  -1.38          -70.970389             +12.0928
iter:   5  06:21:37  -2.53  -1.51          -70.628773             +12.0161
iter:   6  06:22:28  -1.90  -1.83          -70.402460             +12.0006
iter:   7  06:23:19  -2.97  -2.20          -70.395429             +12.0040
iter:   8  06:24:10  -3.31  -2.31          -70.389989             +12.0055
iter:   9  06:25:02  -3.68  -2.67          -70.391169             +12.0017
iter:  10  06:25:53  -3.86  -2.86          -70.391842             +11.9998
iter:  11  06:26:44  -3.99  -2.94          -70.392407             +12.0000
iter:  12  06:27:35  -3.98  -3.06          -70.392711             +12.0000
iter:  13  06:28:27  -4.07  -3.11          -70.392933             +12.0000
iter:  14  06:29:18  -4.08  -3.15          -70.393059             +12.0000
iter:  15  06:30:09  -4.15  -3.25          -70.393227             +12.0000
iter:  16  06:31:00  -4.31  -3.32          -70.393341             +12.0000
iter:  17  06:31:52  -4.49  -3.38          -70.393392             +12.0000
iter:  18  06:32:43  -4.59  -3.58          -70.393455             +12.0000
iter:  19  06:33:34  -4.78  -3.62          -70.393498             +12.0000
iter:  20  06:34:25  -4.79  -3.76          -70.393541             +12.0000
iter:  21  06:35:16  -4.95  -4.05          -70.393575             +12.0000
iter:  22  06:36:08  -5.10  -4.03          -70.393597             +12.0000
iter:  23  06:36:59  -5.17  -4.03          -70.393615             +12.0000
iter:  24  06:37:50  -5.23  -3.94          -70.393623             +12.0000
iter:  25  06:38:41  -5.41  -4.17          -70.393633             +12.0000
iter:  26  06:39:33  -5.55  -4.24          -70.393639             +12.0000
iter:  27  06:40:24  -5.71  -4.30          -70.393644             +12.0000
iter:  28  06:41:15  -5.82  -4.36          -70.393647             +12.0000
iter:  29  06:42:06  -5.99  -4.36          -70.393651             +12.0000
iter:  30  06:42:58  -6.06  -4.34          -70.393653             +12.0000
iter:  31  06:43:49  -6.43  -4.35          -70.393655             +12.0000
iter:  32  06:44:40  -6.50  -4.35          -70.393656             +12.0000
iter:  33  06:45:31  -6.53  -4.35          -70.393657             +12.0000
iter:  34  06:46:22  -6.88  -4.32          -70.393657             +12.0000
iter:  35  06:47:13  -7.02  -4.35          -70.393658             +12.0000
iter:  36  06:48:05  -7.03  -4.36          -70.393657             +12.0000
iter:  37  06:48:56  -7.17  -4.61          -70.393658             +12.0000
iter:  38  06:49:47  -7.31  -4.74          -70.393658             +12.0000
iter:  39  06:50:38  -7.36  -4.86          -70.393658             +12.0000
iter:  40  06:51:39  -7.55  -5.10          -70.393658             +12.0000
iter:  41  06:52:41  -7.63  -5.23    -3.24 -70.393658             +12.0000
iter:  42  06:53:43  -7.79  -5.37    -3.75 -70.393658             +12.0000
iter:  43  06:54:45  -7.92  -5.44    -3.85 -70.393658             +12.0000
iter:  44  06:55:47  -8.11  -5.50    -3.76 -70.393658             +12.0000
iter:  45  06:56:49  -8.24  -5.62    -3.78 -70.393658             +12.0000
iter:  46  06:57:51  -8.37  -5.88    -3.75 -70.393658             +12.0000
iter:  47  06:58:53  -8.50  -6.23    -4.51 -70.393658             +12.0000

Converged after 47 iterations.

Dipole moment: (-31.570610, -0.000561, -0.088234) |e|*Ang

Total magnetic moment: (0.000000, 0.000000, 12.000000)
Local magnetic moments:
   0 Cr ( 0.000000,  0.000000,  2.910202)
   1 Cr ( 0.000000,  0.000000,  2.914247)
   2 I  ( 0.000000,  0.000000, -0.046803)
   3 I  ( 0.000000,  0.000000, -0.047136)
   4 I  ( 0.000000,  0.000000, -0.046834)
   5 I  ( 0.000000,  0.000000, -0.049470)
   6 I  ( 0.000000,  0.000000, -0.049049)
   7 I  ( 0.000000,  0.000000, -0.049462)
   8 Cr ( 0.000000,  0.000000,  2.915458)
   9 Cr ( 0.000000,  0.000000,  2.911346)
  10 I  ( 0.000000,  0.000000, -0.049617)
  11 I  ( 0.000000,  0.000000, -0.049630)
  12 I  ( 0.000000,  0.000000, -0.049576)
  13 I  ( 0.000000,  0.000000, -0.047016)
  14 I  ( 0.000000,  0.000000, -0.046924)
  15 I  ( 0.000000,  0.000000, -0.046936)

Energy contributions relative to reference atoms: (reference = -2434708.556191)

Kinetic:        +23.521027
Potential:      -37.453328
External:        +0.000000
XC:             -56.638009
Entropy (-ST):   -0.000000
Local:           +0.176652
--------------------------
Free energy:    -70.393658
Extrapolated:   -70.393658

Spin contamination: 1.118080 electrons
Showing only first 2 kpts
                      Up                     Down
 Kpt  Band  Eigenvalues  Occupancy  Eigenvalues  Occupancy
  0    52     -2.13843    1.00000     -0.01247    0.00000
  0    53     -2.10270    1.00000      0.00255    0.00000
  0    54     -2.02028    1.00000      0.18038    0.00000
  0    55     -2.01920    1.00000      0.21064    0.00000

  1    52     -2.11761    1.00000     -0.01868    0.00000
  1    53     -2.07393    1.00000      0.01839    0.00000
  1    54     -2.02088    1.00000      0.17010    0.00000
  1    55     -1.99029    1.00000      0.20810    0.00000


Fermi level: -1.20524

Gap: 0.971 eV
Transition (v -> c):
  (s=0, k=132, n=59, [0.46, -0.46, 0.00]) -> (s=0, k=17, n=60, [-0.38, -0.04, 0.00])
Writing to born-0.01-6z-.gpw (mode='all')

Timing:                              incl.     excl.
-----------------------------------------------------------
Hamiltonian:                         2.733     0.011   0.0% |
 Atomic:                             1.235     1.235   0.0% |
  XC Correction:                     0.000     0.000   0.0% |
 Calculate atomic Hamiltonians:      0.328     0.328   0.0% |
 Communicate:                        0.000     0.000   0.0% |
 Initialize Hamiltonian:             0.004     0.004   0.0% |
 Poisson:                            0.011     0.011   0.0% |
 XC 3D grid:                         1.144     1.144   0.0% |
LCAO initialization:                21.056     0.142   0.0% |
 LCAO eigensolver:                   3.328     0.001   0.0% |
  Calculate projections:             0.004     0.004   0.0% |
  DenseAtomicCorrection:             0.006     0.006   0.0% |
  Distribute overlap matrix:         0.000     0.000   0.0% |
  Orbital Layouts:                   0.016     0.016   0.0% |
  Potential matrix:                  3.290     3.290   0.1% |
  Sum over cells:                    0.012     0.012   0.0% |
 LCAO to grid:                      17.297    17.297   0.3% |
 Set positions (LCAO WFS):           0.290     0.051   0.0% |
  Basic WFS set positions:           0.001     0.001   0.0% |
  Basis functions set positions:     0.000     0.000   0.0% |
  P tci:                             0.130     0.130   0.0% |
  ST tci:                            0.065     0.065   0.0% |
  mktci:                             0.043     0.043   0.0% |
PWDescriptor:                        0.088     0.088   0.0% |
SCF-cycle:                        2493.509   552.420   9.7% |---|
 Davidson:                        1517.926   257.099   4.5% |-|
  Apply H:                         250.420   242.848   4.3% |-|
   HMM T:                            7.573     7.573   0.1% |
  Subspace diag:                   311.981     0.062   0.0% |
   calc_h_matrix:                  275.077    22.335   0.4% |
    Apply H:                       252.742   244.586   4.3% |-|
     HMM T:                          8.156     8.156   0.1% |
   diagonalize:                      0.588     0.588   0.0% |
   rotate_psi:                      36.253    36.253   0.6% |
  calc. matrices:                  630.039   128.104   2.3% ||
   Apply H:                        501.935   486.465   8.6% |--|
    HMM T:                          15.470    15.470   0.3% |
  diagonalize:                       5.553     5.553   0.1% |
  rotate_psi:                       62.834    62.834   1.1% |
 Density:                          247.958     0.002   0.0% |
  Atomic density matrices:           0.331     0.331   0.0% |
  Mix:                              42.028    42.028   0.7% |
  Multipole moments:                 0.022     0.022   0.0% |
  Pseudo density:                  205.575   205.572   3.6% ||
   Symmetrize density:               0.004     0.004   0.0% |
 Forces:                            79.179    79.179   1.4% ||
 Hamiltonian:                       94.382     0.572   0.0% |
  Atomic:                            6.431     6.431   0.1% |
   XC Correction:                    0.000     0.000   0.0% |
  Calculate atomic Hamiltonians:    30.723    30.723   0.5% |
  Communicate:                       0.008     0.008   0.0% |
  Poisson:                           0.542     0.542   0.0% |
  XC 3D grid:                       56.105    56.105   1.0% |
 Orthonormalize:                     1.644     0.001   0.0% |
  calc_s_matrix:                     0.215     0.215   0.0% |
  inverse-cholesky:                  0.004     0.004   0.0% |
  projections:                       0.994     0.994   0.0% |
  rotate_psi_s:                      0.430     0.430   0.0% |
Set symmetry:                        0.000     0.000   0.0% |
Other:                            3157.083  3157.083  55.6% |---------------------|
-----------------------------------------------------------
Total:                                      5674.468 100.0%

Memory usage: 39.16 GiB
Date: Mon Jun 27 07:51:26 2022
