
  ___ ___ ___ _ _ _  
 |   |   |_  | | | | 
 | | | | | . | | | | 
 |__ |  _|___|_____|  21.6.1b1
 |___|_|             

User:   madkru@c007.nifl.fysik.dtu.dk
Date:   Wed Jun 29 04:25:09 2022
Arch:   x86_64
Pid:    215850
Python: 3.8.6
gpaw:   /home/niflheim/madkru/new_venv/gpaw/gpaw (1f0dfc9eae)
_gpaw:  /home/niflheim/madkru/new_venv/gpaw/build/lib.linux-x86_64-skylake-3.8/
        _gpaw.cpython-38-x86_64-linux-gnu.so (c1e45bfab3)
ase:    /home/niflheim/madkru/new_venv/ase/ase (version 3.23.0b1-ca38c75a67)
numpy:  /home/modules/software/SciPy-bundle/2020.11-foss-2020b/lib/python3.8/site-packages/numpy (version 1.19.4)
scipy:  /home/modules/software/SciPy-bundle/2020.11-foss-2020b/lib/python3.8/site-packages/scipy (version 1.5.4)
libxc:  4.3.4
units:  Angstrom and eV
cores: 40
OpenMP: False
OMP_NUM_THREADS: 1

Input parameters:
  convergence: {bands: occupied,
                density: 0.0001,
                eigenstates: 4e-08,
                energy: 0.0005,
                forces: 0.0001}
  kpts: [12 12  1]
  mode: {ecut: 600.0,
         gammacentered: False,
         name: pw}
  occupations: {fixmagmom: False,
                name: fermi-dirac,
                width: 0.001}
  symmetry: {point_group: False,
             time_reversal: False}

System changes: positions, numbers, cell, pbc, initial_charges, initial_magmoms 

Initialize ...

Cr-setup:
  name: Chromium
  id: 444e8044bc0f91048286c984738d87f5
  Z: 24.0
  valence: 6
  core: 18
  charge: 0.0
  file: /home/modules/software/GPAW-setups/0.9.20000/Cr.LDA.gz
  compensation charges: gauss, rc=0.35, lmax=2
  cutoffs: 2.14(filt), 3.04(core),
  valence states:
                energy  radius
    4s(1.00)    -4.191   1.164
    4p(0.00)    -1.079   1.217
    3d(5.00)    -3.128   1.111
    *s          23.021   1.164
    *p          26.132   1.217
    *d          24.083   1.111

  Using partial waves for Cr as LCAO basis

I-setup:
  name: Iodine
  id: b559721c0c096a7b4c8fc0e0f4de5cf4
  Z: 53.0
  valence: 7
  core: 46
  charge: 0.0
  file: /home/modules/software/GPAW-setups/0.9.20000/I.LDA.gz
  compensation charges: gauss, rc=0.37, lmax=2
  cutoffs: 2.06(filt), 2.90(core),
  valence states:
                energy  radius
    5s(2.00)   -17.626   1.164
    5p(5.00)    -7.241   1.164
    *s           9.585   1.164
    *p          19.970   1.164
    *d           0.000   1.164

  Using partial waves for I as LCAO basis

Reference energy: -2434708.556191

Spin-polarized calculation.
Magnetic moment: 12.175341

Convergence criteria:
  Maximum total energy change: 0.0005 eV / electron
  Maximum integral of absolute density change: 0.0001 electrons
  Maximum integral of absolute eigenstate change: 4e-08 eV^2
  Maximum change in atomic force: 0.0001 eV / Ang
  Maximum number of iterations: 333

Symmetries present (total): 1

  ( 1  0  0)
  ( 0  1  0)
  ( 0  0  1)

144 k-points: 12 x 12 x 1 Monkhorst-Pack grid
144 k-points in the irreducible part of the Brillouin zone
       k-points in crystal coordinates                weights
   0:    -0.45833333   -0.45833333    0.00000000          1/144
   1:    -0.45833333   -0.37500000    0.00000000          1/144
   2:    -0.45833333   -0.29166667    0.00000000          1/144
   3:    -0.45833333   -0.20833333    0.00000000          1/144
   4:    -0.45833333   -0.12500000    0.00000000          1/144
   5:    -0.45833333   -0.04166667    0.00000000          1/144
   6:    -0.45833333    0.04166667    0.00000000          1/144
   7:    -0.45833333    0.12500000    0.00000000          1/144
   8:    -0.45833333    0.20833333    0.00000000          1/144
   9:    -0.45833333    0.29166667    0.00000000          1/144
          ...
 143:     0.45833333    0.45833333    0.00000000          1/144

Wave functions: Plane wave expansion
  Cutoff energy: 600.000 eV
  Number of coefficients (min, max): 39797, 39902
  Pulay-stress correction: 0.000000 eV/Ang^3 (de/decut=0.000000)
  Using FFTW library
  ScaLapack parameters: grid=1x1, blocksize=None
  Wavefunction extrapolation:
    Improved wavefunction reuse through dual PAW basis 

Occupation numbers: Fermi-Dirac: width=0.0010 eV
 

Eigensolver
   Davidson(niter=2) 

Densities:
  Coarse grid: 42*42*160 grid
  Fine grid: 84*84*320 grid
  Total Charge: 0.000000 

Density mixing:
  Method: difference
  Backend: pulay
  Linear mixing parameter: 0.05
  Mixing with 5 old densities
  Damping of long wave oscillations: 50 

Hamiltonian:
  XC and Coulomb potentials evaluated on a 84*84*320 grid
  Using the LDA Exchange-Correlation functional
  External potential:
    <gpaw.external.NoExternalPotential object at 0x2b8965304850>
 

Memory estimate:
  Process memory now: 40121.89 MiB
  Calculator: 580.26 MiB
    Density: 158.40 MiB
      Arrays: 75.37 MiB
      Localized functions: 52.88 MiB
      Mixer: 30.15 MiB
    Hamiltonian: 57.28 MiB
      Arrays: 55.99 MiB
      XC: 0.00 MiB
      Poisson: 0.00 MiB
      vbar: 1.29 MiB
    Wavefunctions: 364.58 MiB
      Arrays psit_nG: 281.29 MiB
      Eigensolver: 50.83 MiB
      Projections: 1.61 MiB
      Projectors: 18.26 MiB
      PW-descriptor: 12.59 MiB

Total number of cores used: 40
Parallelization over k-points: 40

Number of atoms: 16
Number of atomic orbitals: 84
Number of bands in calculation: 77
Number of valence electrons: 108
Bands to converge: occupied

... initialized

Initializing position-dependent things.

Density initialized from atomic densities
Creating initial wave functions:
  77 bands from LCAO basis set

                                       
                                       
                                       
                                       
                      I                
                            I          
                   I                   
                       Cr  I           
             Cr                        
                 I                     
                         I             
                     I                 
                             I         
               Cr                      
                   I   Cr              
          I                            
                 I                     
                        I              
                                       
                                       
                                       
                                       

Positions:
   0 Cr     0.889135    0.000185   -3.063135    ( 0.0000,  0.0000,  3.4336)
   1 Cr    -2.666158    2.052642   -3.080223    ( 0.0000,  0.0000,  3.4336)
   2 I      1.822012   -2.046247   -4.559876    ( 0.0000,  0.0000, -0.1299)
   3 I     -1.348662    0.216415   -4.560605    ( 0.0000,  0.0000, -0.1299)
   4 I     -4.915070    1.830062   -4.560598    ( 0.0000,  0.0000, -0.1299)
   5 I     -0.074828   -2.063434   -1.594960    ( 0.0000,  0.0000, -0.1299)
   6 I     -0.416551    1.865690   -1.594231    ( 0.0000,  0.0000, -0.1299)
   7 I      3.157525    0.197989   -1.594234    ( 0.0000,  0.0000, -0.1299)
   8 Cr    -2.666887   -2.052642    3.080226    ( 0.0000,  0.0000,  3.4336)
   9 Cr     0.888546   -0.000185    3.063139    ( 0.0000,  0.0000,  3.4336)
  10 I      1.852510    2.063434    1.594959    ( 0.0000,  0.0000, -0.1299)
  11 I      2.194233   -1.865690    1.594230    ( 0.0000,  0.0000, -0.1299)
  12 I     -1.369843   -0.197989    1.594233    ( 0.0000,  0.0000, -0.1299)
  13 I     -0.044330    2.046247    4.559875    ( 0.0000,  0.0000, -0.1299)
  14 I      3.126343   -0.216415    4.560604    ( 0.0000,  0.0000, -0.1299)
  15 I     -0.417976   -1.830062    4.560597    ( 0.0000,  0.0000, -0.1299)

Unit cell:
           periodic     x           y           z      points  spacing
  1. axis:    yes    7.110727   -0.000000    0.000000    42     0.1466
  2. axis:    yes   -3.555363    6.158070    0.000000    42     0.1466
  3. axis:    no     0.000000   -0.000000   27.269192   160     0.1704

  Lengths:   7.110727   7.110727  27.269192
  Angles:   90.000000  90.000000 120.000000

Effective grid spacing dv^(1/3) = 0.1617

                     log10-error:           total        iterations:
           time      wfs    density  force  energy       poisson  magmom
iter:   1  04:26:30                        -76.904254             +12.1076
iter:   2  04:27:21  -0.99  -0.91          -70.502896             +9.9574
iter:   3  04:28:13  -1.83  -1.33          -70.496917             +11.0126
iter:   4  04:29:05  -1.58  -1.38          -70.967967             +12.0928
iter:   5  04:29:57  -2.53  -1.51          -70.628740             +12.0160
iter:   6  04:30:48  -1.91  -1.83          -70.402257             +12.0006
iter:   7  04:31:40  -2.97  -2.20          -70.395271             +12.0039
iter:   8  04:32:32  -3.31  -2.31          -70.390028             +12.0056
iter:   9  04:33:24  -3.68  -2.67          -70.391194             +12.0017
iter:  10  04:34:15  -3.86  -2.86          -70.391876             +11.9998
iter:  11  04:35:07  -3.99  -2.94          -70.392448             +12.0000
iter:  12  04:35:59  -3.99  -3.04          -70.392761             +12.0000
iter:  13  04:36:51  -4.05  -3.10          -70.392973             +12.0000
iter:  14  04:37:43  -4.09  -3.14          -70.393079             +12.0000
iter:  15  04:38:34  -4.18  -3.26          -70.393241             +12.0000
iter:  16  04:39:26  -4.34  -3.32          -70.393362             +12.0000
iter:  17  04:40:18  -4.58  -3.38          -70.393420             +12.0000
iter:  18  04:41:10  -4.75  -3.56          -70.393490             +12.0000
iter:  19  04:42:02  -4.89  -3.66          -70.393537             +12.0000
iter:  20  04:42:53  -5.00  -3.75          -70.393579             +12.0000
iter:  21  04:43:45  -5.17  -4.22          -70.393605             +12.0000
iter:  22  04:44:37  -5.16  -4.24          -70.393626             +12.0000
iter:  23  04:45:29  -5.31  -4.22          -70.393644             +12.0000
iter:  24  04:46:21  -5.51  -4.12          -70.393654             +12.0000
iter:  25  04:47:12  -5.60  -4.19          -70.393661             +12.0000
iter:  26  04:48:04  -5.75  -4.26          -70.393666             +12.0000
iter:  27  04:48:56  -5.91  -4.31          -70.393670             +12.0000
iter:  28  04:49:48  -6.04  -4.43          -70.393674             +12.0000
iter:  29  04:50:39  -6.15  -4.42          -70.393676             +12.0000
iter:  30  04:51:31  -6.14  -4.39          -70.393678             +12.0000
iter:  31  04:52:23  -6.43  -4.38          -70.393679             +12.0000
iter:  32  04:53:15  -6.43  -4.39          -70.393680             +12.0000
iter:  33  04:54:06  -6.54  -4.39          -70.393680             +12.0000
iter:  34  04:54:58  -6.63  -4.41          -70.393681             +12.0000
iter:  35  04:55:50  -6.68  -4.41          -70.393682             +12.0000
iter:  36  04:56:42  -6.96  -4.22          -70.393682             +12.0000
iter:  37  04:57:33  -7.26  -4.51          -70.393682             +12.0000
iter:  38  04:58:25  -7.29  -4.54          -70.393682             +12.0000
iter:  39  04:59:27  -7.55  -4.74          -70.393682             +12.0000
iter:  40  05:00:29  -7.67  -4.80    -3.22 -70.393682             +12.0000
iter:  41  05:01:32  -7.83  -4.92    -3.53 -70.393682             +12.0000
iter:  42  05:02:34  -7.91  -4.98    -3.05 -70.393682             +12.0000
iter:  43  05:03:37  -8.06  -5.04    -3.48 -70.393682             +12.0000
iter:  44  05:04:40  -8.19  -5.14    -3.65 -70.393682             +12.0000
iter:  45  05:05:42  -8.29  -5.21    -3.70 -70.393682             +12.0000
iter:  46  05:06:45  -8.28  -5.31    -3.92 -70.393682             +12.0000
iter:  47  05:07:47  -8.39  -5.66    -4.13 -70.393682             +12.0000

Converged after 47 iterations.

Dipole moment: (-31.520513, 0.000226, -0.000588) |e|*Ang

Total magnetic moment: (0.000000, 0.000000, 12.000000)
Local magnetic moments:
   0 Cr ( 0.000000,  0.000000,  2.911271)
   1 Cr ( 0.000000,  0.000000,  2.915501)
   2 I  ( 0.000000,  0.000000, -0.046970)
   3 I  ( 0.000000,  0.000000, -0.046932)
   4 I  ( 0.000000,  0.000000, -0.046948)
   5 I  ( 0.000000,  0.000000, -0.049658)
   6 I  ( 0.000000,  0.000000, -0.049670)
   7 I  ( 0.000000,  0.000000, -0.049639)
   8 Cr ( 0.000000,  0.000000,  2.916825)
   9 Cr ( 0.000000,  0.000000,  2.909140)
  10 I  ( 0.000000,  0.000000, -0.049719)
  11 I  ( 0.000000,  0.000000, -0.049563)
  12 I  ( 0.000000,  0.000000, -0.049525)
  13 I  ( 0.000000,  0.000000, -0.047061)
  14 I  ( 0.000000,  0.000000, -0.046600)
  15 I  ( 0.000000,  0.000000, -0.047013)

Energy contributions relative to reference atoms: (reference = -2434708.556191)

Kinetic:        +23.365694
Potential:      -37.322779
External:        +0.000000
XC:             -56.613559
Entropy (-ST):   -0.000000
Local:           +0.176962
--------------------------
Free energy:    -70.393682
Extrapolated:   -70.393682

Spin contamination: 1.119063 electrons
Showing only first 2 kpts
                      Up                     Down
 Kpt  Band  Eigenvalues  Occupancy  Eigenvalues  Occupancy
  0    52     -2.13822    1.00000     -0.01208    0.00000
  0    53     -2.10251    1.00000      0.00301    0.00000
  0    54     -2.01949    1.00000      0.18034    0.00000
  0    55     -2.01793    1.00000      0.21109    0.00000

  1    52     -2.11751    1.00000     -0.01877    0.00000
  1    53     -2.07409    1.00000      0.01877    0.00000
  1    54     -2.01957    1.00000      0.17018    0.00000
  1    55     -1.98922    1.00000      0.20890    0.00000


Fermi level: -1.20309

Gap: 0.970 eV
Transition (v -> c):
  (s=0, k=132, n=59, [0.46, -0.46, 0.00]) -> (s=0, k=133, n=60, [0.46, -0.38, 0.00])
Writing to born-0.01-12x+.gpw (mode='all')

Timing:                              incl.     excl.
-----------------------------------------------------------
Hamiltonian:                         2.843     0.011   0.0% |
 Atomic:                             1.353     1.353   0.0% |
  XC Correction:                     0.000     0.000   0.0% |
 Calculate atomic Hamiltonians:      0.326     0.326   0.0% |
 Communicate:                        0.000     0.000   0.0% |
 Initialize Hamiltonian:             0.004     0.004   0.0% |
 Poisson:                            0.014     0.014   0.0% |
 XC 3D grid:                         1.136     1.136   0.0% |
LCAO initialization:                20.399     0.141   0.0% |
 LCAO eigensolver:                   3.061     0.001   0.0% |
  Calculate projections:             0.004     0.004   0.0% |
  DenseAtomicCorrection:             0.005     0.005   0.0% |
  Distribute overlap matrix:         0.000     0.000   0.0% |
  Orbital Layouts:                   0.016     0.016   0.0% |
  Potential matrix:                  3.025     3.025   0.1% |
  Sum over cells:                    0.011     0.011   0.0% |
 LCAO to grid:                      16.919    16.919   0.3% |
 Set positions (LCAO WFS):           0.278     0.050   0.0% |
  Basic WFS set positions:           0.001     0.001   0.0% |
  Basis functions set positions:     0.000     0.000   0.0% |
  P tci:                             0.122     0.122   0.0% |
  ST tci:                            0.063     0.063   0.0% |
  mktci:                             0.042     0.042   0.0% |
PWDescriptor:                        0.086     0.086   0.0% |
SCF-cycle:                        2530.484   545.853   9.5% |---|
 Davidson:                        1548.577   243.899   4.3% |-|
  Apply H:                         270.857   262.799   4.6% |-|
   HMM T:                            8.058     8.058   0.1% |
  Subspace diag:                   327.021     0.070   0.0% |
   calc_h_matrix:                  290.466    20.984   0.4% |
    Apply H:                       269.483   261.377   4.6% |-|
     HMM T:                          8.106     8.106   0.1% |
   diagonalize:                      0.584     0.584   0.0% |
   rotate_psi:                      35.900    35.900   0.6% |
  calc. matrices:                  636.349   117.034   2.0% ||
   Apply H:                        519.315   504.034   8.8% |---|
    HMM T:                          15.281    15.281   0.3% |
  diagonalize:                       5.534     5.534   0.1% |
  rotate_psi:                       64.916    64.916   1.1% |
 Density:                          252.894     0.002   0.0% |
  Atomic density matrices:           0.320     0.320   0.0% |
  Mix:                              43.082    43.082   0.8% |
  Multipole moments:                 0.022     0.022   0.0% |
  Pseudo density:                  209.469   209.466   3.7% ||
   Symmetrize density:               0.003     0.003   0.0% |
 Forces:                            88.375    88.375   1.5% ||
 Hamiltonian:                       93.089     0.569   0.0% |
  Atomic:                            5.391     5.390   0.1% |
   XC Correction:                    0.000     0.000   0.0% |
  Calculate atomic Hamiltonians:    31.159    31.159   0.5% |
  Communicate:                       0.009     0.009   0.0% |
  Poisson:                           0.605     0.605   0.0% |
  XC 3D grid:                       55.357    55.357   1.0% |
 Orthonormalize:                     1.696     0.002   0.0% |
  calc_s_matrix:                     0.221     0.221   0.0% |
  inverse-cholesky:                  0.004     0.004   0.0% |
  projections:                       1.034     1.034   0.0% |
  rotate_psi_s:                      0.435     0.435   0.0% |
Set symmetry:                        0.000     0.000   0.0% |
Other:                            3166.148  3166.148  55.4% |---------------------|
-----------------------------------------------------------
Total:                                      5719.961 100.0%

Memory usage: 39.22 GiB
Date: Wed Jun 29 06:00:29 2022
