
  ___ ___ ___ _ _ _  
 |   |   |_  | | | | 
 | | | | | . | | | | 
 |__ |  _|___|_____|  21.6.1b1
 |___|_|             

User:   madkru@c007.nifl.fysik.dtu.dk
Date:   Wed Jun 29 06:12:39 2022
Arch:   x86_64
Pid:    215850
Python: 3.8.6
gpaw:   /home/niflheim/madkru/new_venv/gpaw/gpaw (1f0dfc9eae)
_gpaw:  /home/niflheim/madkru/new_venv/gpaw/build/lib.linux-x86_64-skylake-3.8/
        _gpaw.cpython-38-x86_64-linux-gnu.so (c1e45bfab3)
ase:    /home/niflheim/madkru/new_venv/ase/ase (version 3.23.0b1-ca38c75a67)
numpy:  /home/modules/software/SciPy-bundle/2020.11-foss-2020b/lib/python3.8/site-packages/numpy (version 1.19.4)
scipy:  /home/modules/software/SciPy-bundle/2020.11-foss-2020b/lib/python3.8/site-packages/scipy (version 1.5.4)
libxc:  4.3.4
units:  Angstrom and eV
cores: 40
OpenMP: False
OMP_NUM_THREADS: 1

Input parameters:
  convergence: {bands: occupied,
                density: 0.0001,
                eigenstates: 4e-08,
                energy: 0.0005,
                forces: 0.0001}
  kpts: [12 12  1]
  mode: {ecut: 600.0,
         gammacentered: False,
         name: pw}
  occupations: {fixmagmom: False,
                name: fermi-dirac,
                width: 0.001}
  symmetry: {point_group: False,
             time_reversal: False}

System changes: positions, numbers, cell, pbc, initial_charges, initial_magmoms 

Initialize ...

Cr-setup:
  name: Chromium
  id: 444e8044bc0f91048286c984738d87f5
  Z: 24.0
  valence: 6
  core: 18
  charge: 0.0
  file: /home/modules/software/GPAW-setups/0.9.20000/Cr.LDA.gz
  compensation charges: gauss, rc=0.35, lmax=2
  cutoffs: 2.14(filt), 3.04(core),
  valence states:
                energy  radius
    4s(1.00)    -4.191   1.164
    4p(0.00)    -1.079   1.217
    3d(5.00)    -3.128   1.111
    *s          23.021   1.164
    *p          26.132   1.217
    *d          24.083   1.111

  Using partial waves for Cr as LCAO basis

I-setup:
  name: Iodine
  id: b559721c0c096a7b4c8fc0e0f4de5cf4
  Z: 53.0
  valence: 7
  core: 46
  charge: 0.0
  file: /home/modules/software/GPAW-setups/0.9.20000/I.LDA.gz
  compensation charges: gauss, rc=0.37, lmax=2
  cutoffs: 2.06(filt), 2.90(core),
  valence states:
                energy  radius
    5s(2.00)   -17.626   1.164
    5p(5.00)    -7.241   1.164
    *s           9.585   1.164
    *p          19.970   1.164
    *d           0.000   1.164

  Using partial waves for I as LCAO basis

Reference energy: -2434708.556191

Spin-polarized calculation.
Magnetic moment: 12.175341

Convergence criteria:
  Maximum total energy change: 0.0005 eV / electron
  Maximum integral of absolute density change: 0.0001 electrons
  Maximum integral of absolute eigenstate change: 4e-08 eV^2
  Maximum change in atomic force: 0.0001 eV / Ang
  Maximum number of iterations: 333

Symmetries present (total): 1

  ( 1  0  0)
  ( 0  1  0)
  ( 0  0  1)

144 k-points: 12 x 12 x 1 Monkhorst-Pack grid
144 k-points in the irreducible part of the Brillouin zone
       k-points in crystal coordinates                weights
   0:    -0.45833333   -0.45833333    0.00000000          1/144
   1:    -0.45833333   -0.37500000    0.00000000          1/144
   2:    -0.45833333   -0.29166667    0.00000000          1/144
   3:    -0.45833333   -0.20833333    0.00000000          1/144
   4:    -0.45833333   -0.12500000    0.00000000          1/144
   5:    -0.45833333   -0.04166667    0.00000000          1/144
   6:    -0.45833333    0.04166667    0.00000000          1/144
   7:    -0.45833333    0.12500000    0.00000000          1/144
   8:    -0.45833333    0.20833333    0.00000000          1/144
   9:    -0.45833333    0.29166667    0.00000000          1/144
          ...
 143:     0.45833333    0.45833333    0.00000000          1/144

Wave functions: Plane wave expansion
  Cutoff energy: 600.000 eV
  Number of coefficients (min, max): 39797, 39902
  Pulay-stress correction: 0.000000 eV/Ang^3 (de/decut=0.000000)
  Using FFTW library
  ScaLapack parameters: grid=1x1, blocksize=None
  Wavefunction extrapolation:
    Improved wavefunction reuse through dual PAW basis 

Occupation numbers: Fermi-Dirac: width=0.0010 eV
 

Eigensolver
   Davidson(niter=2) 

Densities:
  Coarse grid: 42*42*160 grid
  Fine grid: 84*84*320 grid
  Total Charge: 0.000000 

Density mixing:
  Method: difference
  Backend: pulay
  Linear mixing parameter: 0.05
  Mixing with 5 old densities
  Damping of long wave oscillations: 50 

Hamiltonian:
  XC and Coulomb potentials evaluated on a 84*84*320 grid
  Using the LDA Exchange-Correlation functional
  External potential:
    <gpaw.external.NoExternalPotential object at 0x2b8964ff6340>
 

Memory estimate:
  Process memory now: 40164.96 MiB
  Calculator: 580.26 MiB
    Density: 158.40 MiB
      Arrays: 75.37 MiB
      Localized functions: 52.88 MiB
      Mixer: 30.15 MiB
    Hamiltonian: 57.28 MiB
      Arrays: 55.99 MiB
      XC: 0.00 MiB
      Poisson: 0.00 MiB
      vbar: 1.29 MiB
    Wavefunctions: 364.58 MiB
      Arrays psit_nG: 281.29 MiB
      Eigensolver: 50.83 MiB
      Projections: 1.61 MiB
      Projectors: 18.26 MiB
      PW-descriptor: 12.59 MiB

Total number of cores used: 40
Parallelization over k-points: 40

Number of atoms: 16
Number of atomic orbitals: 84
Number of bands in calculation: 77
Number of valence electrons: 108
Bands to converge: occupied

... initialized

Initializing position-dependent things.

Density initialized from atomic densities
Creating initial wave functions:
  77 bands from LCAO basis set

                                       
                                       
                                       
                                       
                      I                
                            I          
                   I                   
                       Cr  I           
             Cr                        
                 I                     
                         I             
                     I                 
                             I         
               Cr                      
                   I   Cr              
          I                            
                 I                     
                        I              
                                       
                                       
                                       
                                       

Positions:
   0 Cr     0.889135    0.000185   -3.063135    ( 0.0000,  0.0000,  3.4336)
   1 Cr    -2.666158    2.052642   -3.080223    ( 0.0000,  0.0000,  3.4336)
   2 I      1.822012   -2.046247   -4.559876    ( 0.0000,  0.0000, -0.1299)
   3 I     -1.348662    0.216415   -4.560605    ( 0.0000,  0.0000, -0.1299)
   4 I     -4.915070    1.830062   -4.560598    ( 0.0000,  0.0000, -0.1299)
   5 I     -0.074828   -2.063434   -1.594960    ( 0.0000,  0.0000, -0.1299)
   6 I     -0.416551    1.865690   -1.594231    ( 0.0000,  0.0000, -0.1299)
   7 I      3.157525    0.197989   -1.594234    ( 0.0000,  0.0000, -0.1299)
   8 Cr    -2.666887   -2.052642    3.080226    ( 0.0000,  0.0000,  3.4336)
   9 Cr     0.888546   -0.000185    3.063139    ( 0.0000,  0.0000,  3.4336)
  10 I      1.852510    2.063434    1.594959    ( 0.0000,  0.0000, -0.1299)
  11 I      2.194233   -1.865690    1.594230    ( 0.0000,  0.0000, -0.1299)
  12 I     -1.379843   -0.187989    1.594233    ( 0.0000,  0.0000, -0.1299)
  13 I     -0.044330    2.046247    4.559875    ( 0.0000,  0.0000, -0.1299)
  14 I      3.126343   -0.216415    4.560604    ( 0.0000,  0.0000, -0.1299)
  15 I     -0.417976   -1.830062    4.560597    ( 0.0000,  0.0000, -0.1299)

Unit cell:
           periodic     x           y           z      points  spacing
  1. axis:    yes    7.110727   -0.000000    0.000000    42     0.1466
  2. axis:    yes   -3.555363    6.158070    0.000000    42     0.1466
  3. axis:    no     0.000000   -0.000000   27.269192   160     0.1704

  Lengths:   7.110727   7.110727  27.269192
  Angles:   90.000000  90.000000 120.000000

Effective grid spacing dv^(1/3) = 0.1617

                     log10-error:           total        iterations:
           time      wfs    density  force  energy       poisson  magmom
iter:   1  06:14:00                        -76.894586             +12.1076
iter:   2  06:14:52  -0.99  -0.91          -70.503578             +9.9646
iter:   3  06:15:44  -1.83  -1.33          -70.497282             +11.0163
iter:   4  06:16:36  -1.59  -1.38          -70.966252             +12.0927
iter:   5  06:17:28  -2.54  -1.51          -70.628523             +12.0159
iter:   6  06:18:20  -1.91  -1.83          -70.402220             +12.0005
iter:   7  06:19:12  -2.97  -2.20          -70.395201             +12.0039
iter:   8  06:20:04  -3.31  -2.32          -70.390078             +12.0056
iter:   9  06:20:57  -3.68  -2.67          -70.391243             +12.0017
iter:  10  06:21:49  -3.86  -2.86          -70.391928             +11.9998
iter:  11  06:22:41  -3.99  -2.94          -70.392502             +12.0000
iter:  12  06:23:33  -3.99  -3.03          -70.392820             +12.0000
iter:  13  06:24:25  -4.06  -3.10          -70.393028             +12.0000
iter:  14  06:25:17  -4.10  -3.15          -70.393125             +12.0000
iter:  15  06:26:09  -4.20  -3.28          -70.393284             +12.0000
iter:  16  06:27:01  -4.34  -3.32          -70.393406             +12.0000
iter:  17  06:27:53  -4.62  -3.38          -70.393467             +12.0000
iter:  18  06:28:45  -4.77  -3.55          -70.393538             +12.0000
iter:  19  06:29:37  -4.90  -3.65          -70.393586             +12.0000
iter:  20  06:30:29  -5.01  -3.72          -70.393627             +12.0000
iter:  21  06:31:22  -5.19  -4.14          -70.393653             +12.0000
iter:  22  06:32:14  -5.16  -4.19          -70.393674             +12.0000
iter:  23  06:33:06  -5.22  -4.17          -70.393689             +12.0000
iter:  24  06:33:58  -5.45  -4.14          -70.393700             +12.0000
iter:  25  06:34:50  -5.63  -4.13          -70.393709             +12.0000
iter:  26  06:35:42  -5.70  -4.13          -70.393716             +12.0000
iter:  27  06:36:34  -5.80  -4.11          -70.393719             +12.0000
iter:  28  06:37:26  -5.95  -4.18          -70.393722             +12.0000
iter:  29  06:38:18  -6.17  -4.13          -70.393725             +12.0000
iter:  30  06:39:10  -6.20  -4.06          -70.393729             +12.0000
iter:  31  06:40:02  -6.44  -4.02          -70.393731             +12.0000
iter:  32  06:40:54  -6.54  -4.02          -70.393729             +12.0000
iter:  33  06:41:46  -6.69  -4.09          -70.393732             +12.0000
iter:  34  06:42:38  -6.71  -4.02          -70.393732             +12.0000
iter:  35  06:43:30  -6.75  -4.04          -70.393730             +12.0000
iter:  36  06:44:23  -7.08  -4.15          -70.393730             +12.0000
iter:  37  06:45:15  -7.18  -4.21          -70.393730             +12.0000
iter:  38  06:46:07  -7.34  -4.25          -70.393729             +12.0000
iter:  39  06:47:09  -7.55  -4.28          -70.393730             +12.0000
iter:  40  06:48:11  -7.70  -4.33    -2.85 -70.393730             +12.0000
iter:  41  06:49:15  -7.66  -4.42    -2.93 -70.393729             +12.0000
iter:  42  06:50:17  -7.85  -4.55    -3.24 -70.393729             +12.0000
iter:  43  06:51:20  -7.96  -4.60    -3.38 -70.393729             +12.0000
iter:  44  06:52:23  -8.19  -5.24    -3.54 -70.393729             +12.0000
iter:  45  06:53:26  -8.18  -5.38    -3.82 -70.393729             +12.0000
iter:  46  06:54:29  -8.26  -5.47    -3.93 -70.393729             +12.0000
iter:  47  06:55:32  -8.40  -5.54    -4.44 -70.393729             +12.0000

Converged after 47 iterations.

Dipole moment: (-31.340696, -0.350739, 0.004925) |e|*Ang

Total magnetic moment: (0.000000, 0.000000, 12.000000)
Local magnetic moments:
   0 Cr ( 0.000000,  0.000000,  2.911190)
   1 Cr ( 0.000000,  0.000000,  2.915313)
   2 I  ( 0.000000,  0.000000, -0.046974)
   3 I  ( 0.000000,  0.000000, -0.046953)
   4 I  ( 0.000000,  0.000000, -0.046953)
   5 I  ( 0.000000,  0.000000, -0.049685)
   6 I  ( 0.000000,  0.000000, -0.049672)
   7 I  ( 0.000000,  0.000000, -0.049684)
   8 Cr ( 0.000000,  0.000000,  2.917194)
   9 Cr ( 0.000000,  0.000000,  2.910982)
  10 I  ( 0.000000,  0.000000, -0.049721)
  11 I  ( 0.000000,  0.000000, -0.049631)
  12 I  ( 0.000000,  0.000000, -0.049910)
  13 I  ( 0.000000,  0.000000, -0.047264)
  14 I  ( 0.000000,  0.000000, -0.047005)
  15 I  ( 0.000000,  0.000000, -0.046865)

Energy contributions relative to reference atoms: (reference = -2434708.556191)

Kinetic:        +23.115828
Potential:      -37.114953
External:        +0.000000
XC:             -56.570162
Entropy (-ST):   -0.000000
Local:           +0.175558
--------------------------
Free energy:    -70.393729
Extrapolated:   -70.393729

Spin contamination: 1.120590 electrons
Showing only first 2 kpts
                      Up                     Down
 Kpt  Band  Eigenvalues  Occupancy  Eigenvalues  Occupancy
  0    52     -2.13936    1.00000     -0.01200    0.00000
  0    53     -2.10290    1.00000      0.00393    0.00000
  0    54     -2.01951    1.00000      0.18064    0.00000
  0    55     -2.01855    1.00000      0.21128    0.00000

  1    52     -2.11875    1.00000     -0.01923    0.00000
  1    53     -2.07367    1.00000      0.01934    0.00000
  1    54     -2.02021    1.00000      0.17027    0.00000
  1    55     -1.99001    1.00000      0.20905    0.00000


Fermi level: -1.19451

Gap: 0.970 eV
Transition (v -> c):
  (s=0, k=132, n=59, [0.46, -0.46, 0.00]) -> (s=0, k=71, n=60, [-0.04, 0.46, 0.00])
Writing to born-0.01-12y+.gpw (mode='all')

Timing:                              incl.     excl.
-----------------------------------------------------------
Hamiltonian:                         2.909     0.011   0.0% |
 Atomic:                             1.415     1.415   0.0% |
  XC Correction:                     0.000     0.000   0.0% |
 Calculate atomic Hamiltonians:      0.327     0.327   0.0% |
 Communicate:                        0.000     0.000   0.0% |
 Initialize Hamiltonian:             0.004     0.004   0.0% |
 Poisson:                            0.013     0.013   0.0% |
 XC 3D grid:                         1.139     1.139   0.0% |
LCAO initialization:                20.404     0.141   0.0% |
 LCAO eigensolver:                   3.079     0.001   0.0% |
  Calculate projections:             0.004     0.004   0.0% |
  DenseAtomicCorrection:             0.005     0.005   0.0% |
  Distribute overlap matrix:         0.000     0.000   0.0% |
  Orbital Layouts:                   0.016     0.016   0.0% |
  Potential matrix:                  3.042     3.042   0.1% |
  Sum over cells:                    0.011     0.011   0.0% |
 LCAO to grid:                      16.905    16.905   0.3% |
 Set positions (LCAO WFS):           0.279     0.050   0.0% |
  Basic WFS set positions:           0.001     0.001   0.0% |
  Basis functions set positions:     0.000     0.000   0.0% |
  P tci:                             0.122     0.122   0.0% |
  ST tci:                            0.063     0.063   0.0% |
  mktci:                             0.042     0.042   0.0% |
PWDescriptor:                        0.088     0.088   0.0% |
SCF-cycle:                        2544.971   554.858   9.4% |---|
 Davidson:                        1554.041   242.345   4.1% |-|
  Apply H:                         273.067   264.410   4.5% |-|
   HMM T:                            8.657     8.657   0.1% |
  Subspace diag:                   328.892     0.072   0.0% |
   calc_h_matrix:                  291.553    20.489   0.3% |
    Apply H:                       271.064   262.221   4.4% |-|
     HMM T:                          8.843     8.843   0.1% |
   diagonalize:                      0.584     0.584   0.0% |
   rotate_psi:                      36.683    36.683   0.6% |
  calc. matrices:                  639.182   115.455   2.0% ||
   Apply H:                        523.727   507.320   8.6% |--|
    HMM T:                          16.406    16.406   0.3% |
  diagonalize:                       5.557     5.557   0.1% |
  rotate_psi:                       64.997    64.997   1.1% |
 Density:                          252.009     0.002   0.0% |
  Atomic density matrices:           0.332     0.332   0.0% |
  Mix:                              42.805    42.805   0.7% |
  Multipole moments:                 0.022     0.022   0.0% |
  Pseudo density:                  208.847   208.843   3.5% ||
   Symmetrize density:               0.004     0.004   0.0% |
 Forces:                            88.820    88.820   1.5% ||
 Hamiltonian:                       93.558     0.588   0.0% |
  Atomic:                            6.196     6.196   0.1% |
   XC Correction:                    0.000     0.000   0.0% |
  Calculate atomic Hamiltonians:    31.067    31.067   0.5% |
  Communicate:                       0.009     0.009   0.0% |
  Poisson:                           0.610     0.610   0.0% |
  XC 3D grid:                       55.088    55.088   0.9% |
 Orthonormalize:                     1.685     0.002   0.0% |
  calc_s_matrix:                     0.226     0.226   0.0% |
  inverse-cholesky:                  0.004     0.004   0.0% |
  projections:                       1.023     1.023   0.0% |
  rotate_psi_s:                      0.430     0.430   0.0% |
Set symmetry:                        0.000     0.000   0.0% |
Other:                            3342.512  3342.512  56.5% |----------------------|
-----------------------------------------------------------
Total:                                      5910.884 100.0%

Memory usage: 39.22 GiB
Date: Wed Jun 29 07:51:10 2022
