
  ___ ___ ___ _ _ _  
 |   |   |_  | | | | 
 | | | | | . | | | | 
 |__ |  _|___|_____|  21.6.1b1
 |___|_|             

User:   madkru@c153.nifl.fysik.dtu.dk
Date:   Sun Jun 26 16:01:38 2022
Arch:   x86_64
Pid:    48887
Python: 3.8.6
gpaw:   /home/niflheim/madkru/new_venv/gpaw/gpaw (1f0dfc9eae)
_gpaw:  /home/niflheim/madkru/new_venv/gpaw/build/lib.linux-x86_64-skylake-3.8/
        _gpaw.cpython-38-x86_64-linux-gnu.so (c1e45bfab3)
ase:    /home/niflheim/madkru/new_venv/ase/ase (version 3.23.0b1-ca38c75a67)
numpy:  /home/modules/software/SciPy-bundle/2020.11-foss-2020b/lib/python3.8/site-packages/numpy (version 1.19.4)
scipy:  /home/modules/software/SciPy-bundle/2020.11-foss-2020b/lib/python3.8/site-packages/scipy (version 1.5.4)
libxc:  4.3.4
units:  Angstrom and eV
cores: 40
OpenMP: False
OMP_NUM_THREADS: 1

Input parameters:
  convergence: {bands: occupied,
                density: 0.0001,
                eigenstates: 4e-08,
                energy: 0.0005,
                forces: 0.0001}
  kpts: [12 12  1]
  mode: {ecut: 600.0,
         gammacentered: False,
         name: pw}
  occupations: {fixmagmom: False,
                name: fermi-dirac,
                width: 0.001}
  symmetry: {point_group: False,
             time_reversal: False}

System changes: positions, numbers, cell, pbc, initial_charges, initial_magmoms 

Initialize ...

Cr-setup:
  name: Chromium
  id: 444e8044bc0f91048286c984738d87f5
  Z: 24.0
  valence: 6
  core: 18
  charge: 0.0
  file: /home/modules/software/GPAW-setups/0.9.20000/Cr.LDA.gz
  compensation charges: gauss, rc=0.35, lmax=2
  cutoffs: 2.14(filt), 3.04(core),
  valence states:
                energy  radius
    4s(1.00)    -4.191   1.164
    4p(0.00)    -1.079   1.217
    3d(5.00)    -3.128   1.111
    *s          23.021   1.164
    *p          26.132   1.217
    *d          24.083   1.111

  Using partial waves for Cr as LCAO basis

I-setup:
  name: Iodine
  id: b559721c0c096a7b4c8fc0e0f4de5cf4
  Z: 53.0
  valence: 7
  core: 46
  charge: 0.0
  file: /home/modules/software/GPAW-setups/0.9.20000/I.LDA.gz
  compensation charges: gauss, rc=0.37, lmax=2
  cutoffs: 2.06(filt), 2.90(core),
  valence states:
                energy  radius
    5s(2.00)   -17.626   1.164
    5p(5.00)    -7.241   1.164
    *s           9.585   1.164
    *p          19.970   1.164
    *d           0.000   1.164

  Using partial waves for I as LCAO basis

Reference energy: -2434708.556191

Spin-polarized calculation.
Magnetic moment: 12.175341

Convergence criteria:
  Maximum total energy change: 0.0005 eV / electron
  Maximum integral of absolute density change: 0.0001 electrons
  Maximum integral of absolute eigenstate change: 4e-08 eV^2
  Maximum change in atomic force: 0.0001 eV / Ang
  Maximum number of iterations: 333

Symmetries present (total): 1

  ( 1  0  0)
  ( 0  1  0)
  ( 0  0  1)

144 k-points: 12 x 12 x 1 Monkhorst-Pack grid
144 k-points in the irreducible part of the Brillouin zone
       k-points in crystal coordinates                weights
   0:    -0.45833333   -0.45833333    0.00000000          1/144
   1:    -0.45833333   -0.37500000    0.00000000          1/144
   2:    -0.45833333   -0.29166667    0.00000000          1/144
   3:    -0.45833333   -0.20833333    0.00000000          1/144
   4:    -0.45833333   -0.12500000    0.00000000          1/144
   5:    -0.45833333   -0.04166667    0.00000000          1/144
   6:    -0.45833333    0.04166667    0.00000000          1/144
   7:    -0.45833333    0.12500000    0.00000000          1/144
   8:    -0.45833333    0.20833333    0.00000000          1/144
   9:    -0.45833333    0.29166667    0.00000000          1/144
          ...
 143:     0.45833333    0.45833333    0.00000000          1/144

Wave functions: Plane wave expansion
  Cutoff energy: 600.000 eV
  Number of coefficients (min, max): 39797, 39902
  Pulay-stress correction: 0.000000 eV/Ang^3 (de/decut=0.000000)
  Using FFTW library
  ScaLapack parameters: grid=1x1, blocksize=None
  Wavefunction extrapolation:
    Improved wavefunction reuse through dual PAW basis 

Occupation numbers: Fermi-Dirac: width=0.0010 eV
 

Eigensolver
   Davidson(niter=2) 

Densities:
  Coarse grid: 42*42*160 grid
  Fine grid: 84*84*320 grid
  Total Charge: 0.000000 

Density mixing:
  Method: difference
  Backend: pulay
  Linear mixing parameter: 0.05
  Mixing with 5 old densities
  Damping of long wave oscillations: 50 

Hamiltonian:
  XC and Coulomb potentials evaluated on a 84*84*320 grid
  Using the LDA Exchange-Correlation functional
  External potential:
    <gpaw.external.NoExternalPotential object at 0x2b3331ff59a0>
 

Memory estimate:
  Process memory now: 40029.57 MiB
  Calculator: 580.26 MiB
    Density: 158.40 MiB
      Arrays: 75.37 MiB
      Localized functions: 52.88 MiB
      Mixer: 30.15 MiB
    Hamiltonian: 57.28 MiB
      Arrays: 55.99 MiB
      XC: 0.00 MiB
      Poisson: 0.00 MiB
      vbar: 1.29 MiB
    Wavefunctions: 364.58 MiB
      Arrays psit_nG: 281.29 MiB
      Eigensolver: 50.83 MiB
      Projections: 1.61 MiB
      Projectors: 18.26 MiB
      PW-descriptor: 12.59 MiB

Total number of cores used: 40
Parallelization over k-points: 40

Number of atoms: 16
Number of atomic orbitals: 84
Number of bands in calculation: 77
Number of valence electrons: 108
Bands to converge: occupied

... initialized

Initializing position-dependent things.

Density initialized from atomic densities
Creating initial wave functions:
  77 bands from LCAO basis set

                                       
                                       
                                       
                                       
                      I                
                            I          
                   I                   
                       Cr  I           
             Cr                        
                 I                     
                         I             
                     I                 
                             I         
               Cr                      
                   I   Cr              
          I                            
                 I                     
                        I              
                                       
                                       
                                       
                                       

Positions:
   0 Cr     0.889135    0.000185   -3.063135    ( 0.0000,  0.0000,  3.4336)
   1 Cr    -2.666158    2.052642   -3.080223    ( 0.0000,  0.0000,  3.4336)
   2 I      1.822012   -2.046247   -4.559876    ( 0.0000,  0.0000, -0.1299)
   3 I     -1.348662    0.216415   -4.560605    ( 0.0000,  0.0000, -0.1299)
   4 I     -4.925070    1.830062   -4.560598    ( 0.0000,  0.0000, -0.1299)
   5 I     -0.074828   -2.063434   -1.594960    ( 0.0000,  0.0000, -0.1299)
   6 I     -0.416551    1.865690   -1.594231    ( 0.0000,  0.0000, -0.1299)
   7 I      3.157525    0.197989   -1.594234    ( 0.0000,  0.0000, -0.1299)
   8 Cr    -2.666887   -2.052642    3.080226    ( 0.0000,  0.0000,  3.4336)
   9 Cr     0.888546   -0.000185    3.063139    ( 0.0000,  0.0000,  3.4336)
  10 I      1.852510    2.063434    1.594959    ( 0.0000,  0.0000, -0.1299)
  11 I      2.194233   -1.865690    1.594230    ( 0.0000,  0.0000, -0.1299)
  12 I     -1.379843   -0.197989    1.594233    ( 0.0000,  0.0000, -0.1299)
  13 I     -0.044330    2.046247    4.559875    ( 0.0000,  0.0000, -0.1299)
  14 I      3.126343   -0.216415    4.560604    ( 0.0000,  0.0000, -0.1299)
  15 I     -0.417976   -1.830062    4.560597    ( 0.0000,  0.0000, -0.1299)

Unit cell:
           periodic     x           y           z      points  spacing
  1. axis:    yes    7.110727   -0.000000    0.000000    42     0.1466
  2. axis:    yes   -3.555363    6.158070    0.000000    42     0.1466
  3. axis:    no     0.000000   -0.000000   27.269192   160     0.1704

  Lengths:   7.110727   7.110727  27.269192
  Angles:   90.000000  90.000000 120.000000

Effective grid spacing dv^(1/3) = 0.1617

                     log10-error:           total        iterations:
           time      wfs    density  force  energy       poisson  magmom
iter:   1  16:02:58                        -76.895860             +12.1076
iter:   2  16:03:50  -0.99  -0.91          -70.503653             +9.9639
iter:   3  16:04:41  -1.83  -1.33          -70.497248             +11.0161
iter:   4  16:05:33  -1.58  -1.38          -70.968226             +12.0927
iter:   5  16:06:25  -2.53  -1.51          -70.628444             +12.0159
iter:   6  16:07:16  -1.91  -1.83          -70.402332             +12.0005
iter:   7  16:08:08  -2.97  -2.20          -70.395228             +12.0039
iter:   8  16:08:59  -3.31  -2.32          -70.390034             +12.0055
iter:   9  16:09:51  -3.68  -2.67          -70.391195             +12.0017
iter:  10  16:10:42  -3.86  -2.86          -70.391879             +11.9998
iter:  11  16:11:34  -3.99  -2.94          -70.392451             +12.0000
iter:  12  16:12:25  -3.99  -3.04          -70.392764             +12.0000
iter:  13  16:13:17  -4.06  -3.11          -70.392974             +12.0000
iter:  14  16:14:08  -4.09  -3.15          -70.393081             +12.0000
iter:  15  16:15:00  -4.18  -3.27          -70.393241             +12.0000
iter:  16  16:15:51  -4.33  -3.32          -70.393363             +12.0000
iter:  17  16:16:43  -4.60  -3.36          -70.393421             +12.0000
iter:  18  16:17:34  -4.74  -3.57          -70.393491             +12.0000
iter:  19  16:18:26  -4.89  -3.65          -70.393538             +12.0000
iter:  20  16:19:17  -5.00  -3.75          -70.393580             +12.0000
iter:  21  16:20:09  -5.20  -4.13          -70.393609             +12.0000
iter:  22  16:21:00  -5.33  -4.14          -70.393631             +12.0000
iter:  23  16:21:52  -5.35  -4.18          -70.393644             +12.0000
iter:  24  16:22:43  -5.48  -4.38          -70.393654             +12.0000
iter:  25  16:23:35  -5.72  -4.51          -70.393663             +12.0000
iter:  26  16:24:26  -5.77  -4.48          -70.393669             +12.0000
iter:  27  16:25:17  -5.83  -4.43          -70.393673             +12.0000
iter:  28  16:26:09  -5.90  -4.46          -70.393676             +12.0000
iter:  29  16:27:00  -6.06  -4.45          -70.393678             +12.0000
iter:  30  16:27:52  -6.18  -4.40          -70.393680             +12.0000
iter:  31  16:28:43  -6.24  -4.39          -70.393682             +12.0000
iter:  32  16:29:34  -6.54  -4.38          -70.393683             +12.0000
iter:  33  16:30:26  -6.75  -4.42          -70.393683             +12.0000
iter:  34  16:31:17  -6.98  -4.54          -70.393683             +12.0000
iter:  35  16:32:08  -6.92  -4.55          -70.393684             +12.0000
iter:  36  16:33:00  -7.06  -4.69          -70.393684             +12.0000
iter:  37  16:33:51  -7.31  -4.85          -70.393684             +12.0000
iter:  38  16:34:52  -7.48  -4.85          -70.393684             +12.0000
iter:  39  16:35:55  -7.63  -4.85    -3.16 -70.393684             +12.0000
iter:  40  16:36:57  -7.63  -4.94    -3.16 -70.393684             +12.0000
iter:  41  16:37:59  -7.81  -5.00    -3.41 -70.393684             +12.0000
iter:  42  16:39:01  -7.87  -4.98    -3.35 -70.393684             +12.0000
iter:  43  16:40:03  -8.20  -4.98    -4.07 -70.393684             +12.0000

Converged after 43 iterations.

Dipole moment: (-31.572453, 0.001110, -0.000705) |e|*Ang

Total magnetic moment: (0.000000, 0.000000, 12.000000)
Local magnetic moments:
   0 Cr ( 0.000000,  0.000000,  2.909950)
   1 Cr ( 0.000000,  0.000000,  2.917425)
   2 I  ( 0.000000,  0.000000, -0.046925)
   3 I  ( 0.000000,  0.000000, -0.047021)
   4 I  ( 0.000000,  0.000000, -0.047055)
   5 I  ( 0.000000,  0.000000, -0.049562)
   6 I  ( 0.000000,  0.000000, -0.049984)
   7 I  ( 0.000000,  0.000000, -0.049598)
   8 Cr ( 0.000000,  0.000000,  2.915415)
   9 Cr ( 0.000000,  0.000000,  2.911263)
  10 I  ( 0.000000,  0.000000, -0.049729)
  11 I  ( 0.000000,  0.000000, -0.049642)
  12 I  ( 0.000000,  0.000000, -0.049659)
  13 I  ( 0.000000,  0.000000, -0.046971)
  14 I  ( 0.000000,  0.000000, -0.046931)
  15 I  ( 0.000000,  0.000000, -0.046947)

Energy contributions relative to reference atoms: (reference = -2434708.556191)

Kinetic:        +23.233401
Potential:      -37.214629
External:        +0.000000
XC:             -56.585744
Entropy (-ST):   -0.000000
Local:           +0.173287
--------------------------
Free energy:    -70.393684
Extrapolated:   -70.393684

Spin contamination: 1.120038 electrons
Showing only first 2 kpts
                      Up                     Down
 Kpt  Band  Eigenvalues  Occupancy  Eigenvalues  Occupancy
  0    52     -2.13905    1.00000     -0.01268    0.00000
  0    53     -2.10341    1.00000      0.00313    0.00000
  0    54     -2.02002    1.00000      0.18024    0.00000
  0    55     -2.01881    1.00000      0.21114    0.00000

  1    52     -2.11834    1.00000     -0.01986    0.00000
  1    53     -2.07430    1.00000      0.01850    0.00000
  1    54     -2.02071    1.00000      0.16988    0.00000
  1    55     -1.99014    1.00000      0.20855    0.00000


Fermi level: -1.19469

Gap: 0.971 eV
Transition (v -> c):
  (s=0, k=132, n=59, [0.46, -0.46, 0.00]) -> (s=0, k=17, n=60, [-0.38, -0.04, 0.00])
Writing to born-0.01-4x-.gpw (mode='all')

Timing:                              incl.     excl.
-----------------------------------------------------------
Hamiltonian:                         2.728     0.011   0.0% |
 Atomic:                             1.233     1.233   0.0% |
  XC Correction:                     0.000     0.000   0.0% |
 Calculate atomic Hamiltonians:      0.328     0.328   0.0% |
 Communicate:                        0.000     0.000   0.0% |
 Initialize Hamiltonian:             0.004     0.004   0.0% |
 Poisson:                            0.012     0.012   0.0% |
 XC 3D grid:                         1.140     1.140   0.0% |
LCAO initialization:                21.112     0.141   0.0% |
 LCAO eigensolver:                   3.328     0.001   0.0% |
  Calculate projections:             0.004     0.004   0.0% |
  DenseAtomicCorrection:             0.006     0.006   0.0% |
  Distribute overlap matrix:         0.000     0.000   0.0% |
  Orbital Layouts:                   0.016     0.016   0.0% |
  Potential matrix:                  3.291     3.291   0.1% |
  Sum over cells:                    0.012     0.012   0.0% |
 LCAO to grid:                      17.337    17.337   0.3% |
 Set positions (LCAO WFS):           0.306     0.051   0.0% |
  Basic WFS set positions:           0.001     0.001   0.0% |
  Basis functions set positions:     0.000     0.000   0.0% |
  P tci:                             0.147     0.147   0.0% |
  ST tci:                            0.064     0.064   0.0% |
  mktci:                             0.043     0.043   0.0% |
PWDescriptor:                        0.087     0.087   0.0% |
SCF-cycle:                        2277.315   517.358   8.7% |--|
 Davidson:                        1386.557   226.070   3.8% |-|
  Apply H:                         233.893   226.838   3.8% |-|
   HMM T:                            7.055     7.055   0.1% |
  Subspace diag:                   287.332     0.058   0.0% |
   calc_h_matrix:                  254.209    20.325   0.3% |
    Apply H:                       233.884   226.577   3.8% |-|
     HMM T:                          7.306     7.306   0.1% |
   diagonalize:                      0.530     0.530   0.0% |
   rotate_psi:                      32.535    32.535   0.5% |
  calc. matrices:                  577.717   114.018   1.9% ||
   Apply H:                        463.699   449.649   7.6% |--|
    HMM T:                          14.050    14.050   0.2% |
  diagonalize:                       4.997     4.997   0.1% |
  rotate_psi:                       56.548    56.548   1.0% |
 Density:                          226.328     0.002   0.0% |
  Atomic density matrices:           0.290     0.290   0.0% |
  Mix:                              37.749    37.749   0.6% |
  Multipole moments:                 0.020     0.020   0.0% |
  Pseudo density:                  188.267   188.264   3.2% ||
   Symmetrize density:               0.003     0.003   0.0% |
 Forces:                            59.011    59.011   1.0% |
 Hamiltonian:                       86.455     0.704   0.0% |
  Atomic:                            6.340     6.339   0.1% |
   XC Correction:                    0.000     0.000   0.0% |
  Calculate atomic Hamiltonians:    27.468    27.468   0.5% |
  Communicate:                       0.030     0.030   0.0% |
  Poisson:                           0.511     0.511   0.0% |
  XC 3D grid:                       51.402    51.402   0.9% |
 Orthonormalize:                     1.606     0.002   0.0% |
  calc_s_matrix:                     0.227     0.227   0.0% |
  inverse-cholesky:                  0.004     0.004   0.0% |
  projections:                       0.975     0.975   0.0% |
  rotate_psi_s:                      0.398     0.398   0.0% |
Set symmetry:                        0.000     0.000   0.0% |
Other:                            3635.866  3635.866  61.2% |-----------------------|
-----------------------------------------------------------
Total:                                      5937.107 100.0%

Memory usage: 39.09 GiB
Date: Sun Jun 26 17:40:35 2022
