
  ___ ___ ___ _ _ _  
 |   |   |_  | | | | 
 | | | | | . | | | | 
 |__ |  _|___|_____|  21.6.1b1
 |___|_|             

User:   madkru@c007.nifl.fysik.dtu.dk
Date:   Tue Jun 28 11:46:42 2022
Arch:   x86_64
Pid:    215850
Python: 3.8.6
gpaw:   /home/niflheim/madkru/new_venv/gpaw/gpaw (1f0dfc9eae)
_gpaw:  /home/niflheim/madkru/new_venv/gpaw/build/lib.linux-x86_64-skylake-3.8/
        _gpaw.cpython-38-x86_64-linux-gnu.so (c1e45bfab3)
ase:    /home/niflheim/madkru/new_venv/ase/ase (version 3.23.0b1-ca38c75a67)
numpy:  /home/modules/software/SciPy-bundle/2020.11-foss-2020b/lib/python3.8/site-packages/numpy (version 1.19.4)
scipy:  /home/modules/software/SciPy-bundle/2020.11-foss-2020b/lib/python3.8/site-packages/scipy (version 1.5.4)
libxc:  4.3.4
units:  Angstrom and eV
cores: 40
OpenMP: False
OMP_NUM_THREADS: 1

Input parameters:
  convergence: {bands: occupied,
                density: 0.0001,
                eigenstates: 4e-08,
                energy: 0.0005,
                forces: 0.0001}
  kpts: [12 12  1]
  mode: {ecut: 600.0,
         gammacentered: False,
         name: pw}
  occupations: {fixmagmom: False,
                name: fermi-dirac,
                width: 0.001}
  symmetry: {point_group: False,
             time_reversal: False}

System changes: positions, numbers, cell, pbc, initial_charges, initial_magmoms 

Initialize ...

Cr-setup:
  name: Chromium
  id: 444e8044bc0f91048286c984738d87f5
  Z: 24.0
  valence: 6
  core: 18
  charge: 0.0
  file: /home/modules/software/GPAW-setups/0.9.20000/Cr.LDA.gz
  compensation charges: gauss, rc=0.35, lmax=2
  cutoffs: 2.14(filt), 3.04(core),
  valence states:
                energy  radius
    4s(1.00)    -4.191   1.164
    4p(0.00)    -1.079   1.217
    3d(5.00)    -3.128   1.111
    *s          23.021   1.164
    *p          26.132   1.217
    *d          24.083   1.111

  Using partial waves for Cr as LCAO basis

I-setup:
  name: Iodine
  id: b559721c0c096a7b4c8fc0e0f4de5cf4
  Z: 53.0
  valence: 7
  core: 46
  charge: 0.0
  file: /home/modules/software/GPAW-setups/0.9.20000/I.LDA.gz
  compensation charges: gauss, rc=0.37, lmax=2
  cutoffs: 2.06(filt), 2.90(core),
  valence states:
                energy  radius
    5s(2.00)   -17.626   1.164
    5p(5.00)    -7.241   1.164
    *s           9.585   1.164
    *p          19.970   1.164
    *d           0.000   1.164

  Using partial waves for I as LCAO basis

Reference energy: -2434708.556191

Spin-polarized calculation.
Magnetic moment: 12.175341

Convergence criteria:
  Maximum total energy change: 0.0005 eV / electron
  Maximum integral of absolute density change: 0.0001 electrons
  Maximum integral of absolute eigenstate change: 4e-08 eV^2
  Maximum change in atomic force: 0.0001 eV / Ang
  Maximum number of iterations: 333

Symmetries present (total): 1

  ( 1  0  0)
  ( 0  1  0)
  ( 0  0  1)

144 k-points: 12 x 12 x 1 Monkhorst-Pack grid
144 k-points in the irreducible part of the Brillouin zone
       k-points in crystal coordinates                weights
   0:    -0.45833333   -0.45833333    0.00000000          1/144
   1:    -0.45833333   -0.37500000    0.00000000          1/144
   2:    -0.45833333   -0.29166667    0.00000000          1/144
   3:    -0.45833333   -0.20833333    0.00000000          1/144
   4:    -0.45833333   -0.12500000    0.00000000          1/144
   5:    -0.45833333   -0.04166667    0.00000000          1/144
   6:    -0.45833333    0.04166667    0.00000000          1/144
   7:    -0.45833333    0.12500000    0.00000000          1/144
   8:    -0.45833333    0.20833333    0.00000000          1/144
   9:    -0.45833333    0.29166667    0.00000000          1/144
          ...
 143:     0.45833333    0.45833333    0.00000000          1/144

Wave functions: Plane wave expansion
  Cutoff energy: 600.000 eV
  Number of coefficients (min, max): 39797, 39902
  Pulay-stress correction: 0.000000 eV/Ang^3 (de/decut=0.000000)
  Using FFTW library
  ScaLapack parameters: grid=1x1, blocksize=None
  Wavefunction extrapolation:
    Improved wavefunction reuse through dual PAW basis 

Occupation numbers: Fermi-Dirac: width=0.0010 eV
 

Eigensolver
   Davidson(niter=2) 

Densities:
  Coarse grid: 42*42*160 grid
  Fine grid: 84*84*320 grid
  Total Charge: 0.000000 

Density mixing:
  Method: difference
  Backend: pulay
  Linear mixing parameter: 0.05
  Mixing with 5 old densities
  Damping of long wave oscillations: 50 

Hamiltonian:
  XC and Coulomb potentials evaluated on a 84*84*320 grid
  Using the LDA Exchange-Correlation functional
  External potential:
    <gpaw.external.NoExternalPotential object at 0x2b89650d9850>
 

Memory estimate:
  Process memory now: 393.65 MiB
  Calculator: 580.26 MiB
    Density: 158.40 MiB
      Arrays: 75.37 MiB
      Localized functions: 52.88 MiB
      Mixer: 30.15 MiB
    Hamiltonian: 57.28 MiB
      Arrays: 55.99 MiB
      XC: 0.00 MiB
      Poisson: 0.00 MiB
      vbar: 1.29 MiB
    Wavefunctions: 364.58 MiB
      Arrays psit_nG: 281.29 MiB
      Eigensolver: 50.83 MiB
      Projections: 1.61 MiB
      Projectors: 18.26 MiB
      PW-descriptor: 12.59 MiB

Total number of cores used: 40
Parallelization over k-points: 40

Number of atoms: 16
Number of atomic orbitals: 84
Number of bands in calculation: 77
Number of valence electrons: 108
Bands to converge: occupied

... initialized

Initializing position-dependent things.

Density initialized from atomic densities
Creating initial wave functions:
  77 bands from LCAO basis set

                                       
                                       
                                       
                                       
                      I                
                            I          
                   I                   
                       Cr  I           
             Cr                        
                 I                     
                         I             
                     I                 
                             I         
               Cr                      
                   I   Cr              
          I                            
                 I                     
                        I              
                                       
                                       
                                       
                                       

Positions:
   0 Cr     0.889135    0.000185   -3.063135    ( 0.0000,  0.0000,  3.4336)
   1 Cr    -2.666158    2.052642   -3.080223    ( 0.0000,  0.0000,  3.4336)
   2 I      1.822012   -2.046247   -4.559876    ( 0.0000,  0.0000, -0.1299)
   3 I     -1.348662    0.216415   -4.560605    ( 0.0000,  0.0000, -0.1299)
   4 I     -4.915070    1.830062   -4.560598    ( 0.0000,  0.0000, -0.1299)
   5 I     -0.074828   -2.063434   -1.594960    ( 0.0000,  0.0000, -0.1299)
   6 I     -0.416551    1.865690   -1.594231    ( 0.0000,  0.0000, -0.1299)
   7 I      3.157525    0.197989   -1.594234    ( 0.0000,  0.0000, -0.1299)
   8 Cr    -2.666887   -2.052642    3.080226    ( 0.0000,  0.0000,  3.4336)
   9 Cr     0.878546   -0.000185    3.063139    ( 0.0000,  0.0000,  3.4336)
  10 I      1.852510    2.063434    1.594959    ( 0.0000,  0.0000, -0.1299)
  11 I      2.194233   -1.865690    1.594230    ( 0.0000,  0.0000, -0.1299)
  12 I     -1.379843   -0.197989    1.594233    ( 0.0000,  0.0000, -0.1299)
  13 I     -0.044330    2.046247    4.559875    ( 0.0000,  0.0000, -0.1299)
  14 I      3.126343   -0.216415    4.560604    ( 0.0000,  0.0000, -0.1299)
  15 I     -0.417976   -1.830062    4.560597    ( 0.0000,  0.0000, -0.1299)

Unit cell:
           periodic     x           y           z      points  spacing
  1. axis:    yes    7.110727   -0.000000    0.000000    42     0.1466
  2. axis:    yes   -3.555363    6.158070    0.000000    42     0.1466
  3. axis:    no     0.000000   -0.000000   27.269192   160     0.1704

  Lengths:   7.110727   7.110727  27.269192
  Angles:   90.000000  90.000000 120.000000

Effective grid spacing dv^(1/3) = 0.1617

                     log10-error:           total        iterations:
           time      wfs    density  force  energy       poisson  magmom
iter:   1  11:48:02                        -76.899599             +12.1076
iter:   2  11:48:54  -0.99  -0.91          -70.502448             +9.9586
iter:   3  11:49:45  -1.83  -1.33          -70.496780             +11.0132
iter:   4  11:50:37  -1.58  -1.38          -70.967843             +12.0928
iter:   5  11:51:29  -2.53  -1.51          -70.628349             +12.0160
iter:   6  11:52:20  -1.91  -1.83          -70.402071             +12.0006
iter:   7  11:53:12  -2.97  -2.20          -70.395091             +12.0039
iter:   8  11:54:03  -3.31  -2.32          -70.389857             +12.0056
iter:   9  11:54:55  -3.68  -2.67          -70.391017             +12.0017
iter:  10  11:55:46  -3.86  -2.86          -70.391701             +11.9998
iter:  11  11:56:38  -3.99  -2.94          -70.392274             +12.0000
iter:  12  11:57:29  -3.99  -3.04          -70.392587             +12.0000
iter:  13  11:58:21  -4.06  -3.11          -70.392797             +12.0000
iter:  14  11:59:12  -4.09  -3.15          -70.392903             +12.0000
iter:  15  12:00:04  -4.19  -3.27          -70.393065             +12.0000
iter:  16  12:00:56  -4.33  -3.32          -70.393184             +12.0000
iter:  17  12:01:47  -4.60  -3.37          -70.393242             +12.0000
iter:  18  12:02:39  -4.75  -3.56          -70.393313             +12.0000
iter:  19  12:03:30  -4.89  -3.65          -70.393360             +12.0000
iter:  20  12:04:21  -5.00  -3.74          -70.393402             +12.0000
iter:  21  12:05:13  -5.18  -4.25          -70.393429             +12.0000
iter:  22  12:06:05  -5.17  -4.26          -70.393451             +12.0000
iter:  23  12:06:56  -5.17  -4.27          -70.393465             +12.0000
iter:  24  12:07:48  -5.36  -4.14          -70.393477             +12.0000
iter:  25  12:08:39  -5.49  -4.23          -70.393485             +12.0000
iter:  26  12:09:30  -5.61  -4.22          -70.393491             +12.0000
iter:  27  12:10:22  -5.71  -4.20          -70.393495             +12.0000
iter:  28  12:11:13  -5.90  -4.25          -70.393502             +12.0000
iter:  29  12:12:05  -6.30  -4.13          -70.393502             +12.0000
iter:  30  12:12:56  -6.39  -4.25          -70.393504             +12.0000
iter:  31  12:13:48  -6.51  -4.25          -70.393506             +12.0000
iter:  32  12:14:39  -6.70  -4.22          -70.393505             +12.0000
iter:  33  12:15:31  -6.89  -4.39          -70.393505             +12.0000
iter:  34  12:16:22  -7.01  -4.41          -70.393505             +12.0000
iter:  35  12:17:13  -7.22  -4.51          -70.393505             +12.0000
iter:  36  12:18:05  -7.23  -4.60          -70.393505             +12.0000
iter:  37  12:19:06  -7.44  -4.82          -70.393506             +12.0000
iter:  38  12:20:09  -7.54  -5.02    -3.55 -70.393506             +12.0000
iter:  39  12:21:11  -7.68  -5.09    -3.13 -70.393506             +12.0000
iter:  40  12:22:13  -7.82  -5.45    -3.66 -70.393506             +12.0000
iter:  41  12:23:16  -7.93  -5.52    -4.31 -70.393506             +12.0000

Converged after 41 iterations.

Dipole moment: (-31.654092, 0.000031, -0.000043) |e|*Ang

Total magnetic moment: (0.000000, 0.000000, 12.000000)
Local magnetic moments:
   0 Cr ( 0.000000,  0.000000,  2.911286)
   1 Cr ( 0.000000,  0.000000,  2.915437)
   2 I  ( 0.000000,  0.000000, -0.046961)
   3 I  ( 0.000000,  0.000000, -0.046960)
   4 I  ( 0.000000,  0.000000, -0.046943)
   5 I  ( 0.000000,  0.000000, -0.049673)
   6 I  ( 0.000000,  0.000000, -0.049677)
   7 I  ( 0.000000,  0.000000, -0.049636)
   8 Cr ( 0.000000,  0.000000,  2.915443)
   9 Cr ( 0.000000,  0.000000,  2.911229)
  10 I  ( 0.000000,  0.000000, -0.049804)
  11 I  ( 0.000000,  0.000000, -0.050002)
  12 I  ( 0.000000,  0.000000, -0.049168)
  13 I  ( 0.000000,  0.000000, -0.046835)
  14 I  ( 0.000000,  0.000000, -0.047426)
  15 I  ( 0.000000,  0.000000, -0.046589)

Energy contributions relative to reference atoms: (reference = -2434708.556191)

Kinetic:        +23.267616
Potential:      -37.239608
External:        +0.000000
XC:             -56.596646
Entropy (-ST):   -0.000000
Local:           +0.175131
--------------------------
Free energy:    -70.393506
Extrapolated:   -70.393506

Spin contamination: 1.119593 electrons
Showing only first 2 kpts
                      Up                     Down
 Kpt  Band  Eigenvalues  Occupancy  Eigenvalues  Occupancy
  0    52     -2.13747    1.00000     -0.01104    0.00000
  0    53     -2.10384    1.00000      0.00451    0.00000
  0    54     -2.01914    1.00000      0.17975    0.00000
  0    55     -2.01739    1.00000      0.21031    0.00000

  1    52     -2.11722    1.00000     -0.01782    0.00000
  1    53     -2.07550    1.00000      0.01979    0.00000
  1    54     -2.01914    1.00000      0.16947    0.00000
  1    55     -1.98847    1.00000      0.20785    0.00000


Fermi level: -1.18821

Gap: 0.969 eV
Transition (v -> c):
  (s=0, k=5, n=59, [-0.46, -0.04, 0.00]) -> (s=0, k=133, n=60, [0.46, -0.38, 0.00])
Writing to born-0.01-9x-.gpw (mode='all')

Timing:                              incl.     excl.
-----------------------------------------------------------
Hamiltonian:                         2.206     0.011   0.0% |
 Atomic:                             0.339     0.339   0.0% |
  XC Correction:                     0.000     0.000   0.0% |
 Calculate atomic Hamiltonians:      0.654     0.654   0.0% |
 Communicate:                        0.000     0.000   0.0% |
 Initialize Hamiltonian:             0.003     0.003   0.0% |
 Poisson:                            0.012     0.012   0.0% |
 XC 3D grid:                         1.187     1.187   0.0% |
LCAO initialization:                20.198     0.143   0.0% |
 LCAO eigensolver:                   3.068     0.001   0.0% |
  Calculate projections:             0.004     0.004   0.0% |
  DenseAtomicCorrection:             0.005     0.005   0.0% |
  Distribute overlap matrix:         0.000     0.000   0.0% |
  Orbital Layouts:                   0.017     0.017   0.0% |
  Potential matrix:                  3.030     3.030   0.1% |
  Sum over cells:                    0.011     0.011   0.0% |
 LCAO to grid:                      16.688    16.688   0.3% |
 Set positions (LCAO WFS):           0.300     0.050   0.0% |
  Basic WFS set positions:           0.001     0.001   0.0% |
  Basis functions set positions:     0.000     0.000   0.0% |
  P tci:                             0.138     0.138   0.0% |
  ST tci:                            0.066     0.066   0.0% |
  mktci:                             0.045     0.045   0.0% |
PWDescriptor:                        0.091     0.091   0.0% |
SCF-cycle:                        2166.686   468.472   9.0% |---|
 Davidson:                        1349.377   210.838   4.0% |-|
  Apply H:                         235.226   228.055   4.4% |-|
   HMM T:                            7.171     7.171   0.1% |
  Subspace diag:                   284.050     0.059   0.0% |
   calc_h_matrix:                  252.375    18.836   0.4% |
    Apply H:                       233.539   226.067   4.3% |-|
     HMM T:                          7.472     7.472   0.1% |
   diagonalize:                      0.519     0.519   0.0% |
   rotate_psi:                      31.097    31.097   0.6% |
  calc. matrices:                  556.880   107.991   2.1% ||
   Apply H:                        448.889   435.385   8.3% |--|
    HMM T:                          13.504    13.504   0.3% |
  diagonalize:                       4.920     4.920   0.1% |
  rotate_psi:                       57.463    57.463   1.1% |
 Density:                          216.579     0.002   0.0% |
  Atomic density matrices:           0.285     0.285   0.0% |
  Mix:                              37.594    37.594   0.7% |
  Multipole moments:                 0.019     0.019   0.0% |
  Pseudo density:                  178.679   178.676   3.4% ||
   Symmetrize density:               0.002     0.002   0.0% |
 Forces:                            50.165    50.165   1.0% |
 Hamiltonian:                       80.429     0.570   0.0% |
  Atomic:                            3.647     3.647   0.1% |
   XC Correction:                    0.000     0.000   0.0% |
  Calculate atomic Hamiltonians:    26.909    26.909   0.5% |
  Communicate:                       0.008     0.008   0.0% |
  Poisson:                           0.516     0.516   0.0% |
  XC 3D grid:                       48.780    48.780   0.9% |
 Orthonormalize:                     1.664     0.002   0.0% |
  calc_s_matrix:                     0.238     0.238   0.0% |
  inverse-cholesky:                  0.005     0.005   0.0% |
  projections:                       1.002     1.002   0.0% |
  rotate_psi_s:                      0.418     0.418   0.0% |
Set symmetry:                        0.000     0.000   0.0% |
Other:                            3030.497  3030.497  58.1% |----------------------|
-----------------------------------------------------------
Total:                                      5219.678 100.0%

Memory usage: 38.35 GiB
Date: Tue Jun 28 13:13:41 2022
