
  ___ ___ ___ _ _ _  
 |   |   |_  | | | | 
 | | | | | . | | | | 
 |__ |  _|___|_____|  21.6.1b1
 |___|_|             

User:   madkru@c061.nifl.fysik.dtu.dk
Date:   Fri Jun 24 15:31:22 2022
Arch:   x86_64
Pid:    97057
Python: 3.8.6
gpaw:   /home/niflheim/madkru/new_venv/gpaw/gpaw (1f0dfc9eae)
_gpaw:  /home/niflheim/madkru/new_venv/gpaw/build/lib.linux-x86_64-skylake-3.8/
        _gpaw.cpython-38-x86_64-linux-gnu.so (c1e45bfab3)
ase:    /home/niflheim/madkru/new_venv/ase/ase (version 3.23.0b1-ca38c75a67)
numpy:  /home/modules/software/SciPy-bundle/2020.11-foss-2020b/lib/python3.8/site-packages/numpy (version 1.19.4)
scipy:  /home/modules/software/SciPy-bundle/2020.11-foss-2020b/lib/python3.8/site-packages/scipy (version 1.5.4)
libxc:  4.3.4
units:  Angstrom and eV
cores: 40
OpenMP: False
OMP_NUM_THREADS: 1

Input parameters:
  convergence: {forces: 0.0001}
  kpts: [12 12  1]
  mode: {ecut: 600.0,
         gammacentered: False,
         name: pw}
  occupations: {fixmagmom: False,
                name: fermi-dirac,
                width: 0.001}
  symmetry: off

System changes: positions, numbers, cell, pbc, initial_charges, initial_magmoms 

Initialize ...

Cr-setup:
  name: Chromium
  id: 444e8044bc0f91048286c984738d87f5
  Z: 24.0
  valence: 6
  core: 18
  charge: 0.0
  file: /home/modules/software/GPAW-setups/0.9.20000/Cr.LDA.gz
  compensation charges: gauss, rc=0.35, lmax=2
  cutoffs: 2.14(filt), 3.04(core),
  valence states:
                energy  radius
    4s(1.00)    -4.191   1.164
    4p(0.00)    -1.079   1.217
    3d(5.00)    -3.128   1.111
    *s          23.021   1.164
    *p          26.132   1.217
    *d          24.083   1.111

  Using partial waves for Cr as LCAO basis

I-setup:
  name: Iodine
  id: b559721c0c096a7b4c8fc0e0f4de5cf4
  Z: 53.0
  valence: 7
  core: 46
  charge: 0.0
  file: /home/modules/software/GPAW-setups/0.9.20000/I.LDA.gz
  compensation charges: gauss, rc=0.37, lmax=2
  cutoffs: 2.06(filt), 2.90(core),
  valence states:
                energy  radius
    5s(2.00)   -17.626   1.164
    5p(5.00)    -7.241   1.164
    *s           9.585   1.164
    *p          19.970   1.164
    *d           0.000   1.164

  Using partial waves for I as LCAO basis

Reference energy: -2434708.556191

Spin-polarized calculation.
Magnetic moment: 12.175341

Convergence criteria:
  Maximum total energy change: 0.0005 eV / electron
  Maximum integral of absolute density change: 0.0001 electrons
  Maximum integral of absolute eigenstate change: 4e-08 eV^2
  Maximum change in atomic force: 0.0001 eV / Ang
  Maximum number of iterations: 333

Symmetries present (total): 1

  ( 1  0  0)
  ( 0  1  0)
  ( 0  0  1)

144 k-points: 12 x 12 x 1 Monkhorst-Pack grid
144 k-points in the irreducible part of the Brillouin zone
       k-points in crystal coordinates                weights
   0:    -0.45833333   -0.45833333    0.00000000          1/144
   1:    -0.45833333   -0.37500000    0.00000000          1/144
   2:    -0.45833333   -0.29166667    0.00000000          1/144
   3:    -0.45833333   -0.20833333    0.00000000          1/144
   4:    -0.45833333   -0.12500000    0.00000000          1/144
   5:    -0.45833333   -0.04166667    0.00000000          1/144
   6:    -0.45833333    0.04166667    0.00000000          1/144
   7:    -0.45833333    0.12500000    0.00000000          1/144
   8:    -0.45833333    0.20833333    0.00000000          1/144
   9:    -0.45833333    0.29166667    0.00000000          1/144
          ...
 143:     0.45833333    0.45833333    0.00000000          1/144

Wave functions: Plane wave expansion
  Cutoff energy: 600.000 eV
  Number of coefficients (min, max): 39797, 39902
  Pulay-stress correction: 0.000000 eV/Ang^3 (de/decut=0.000000)
  Using FFTW library
  ScaLapack parameters: grid=1x1, blocksize=None
  Wavefunction extrapolation:
    Improved wavefunction reuse through dual PAW basis 

Occupation numbers: Fermi-Dirac: width=0.0010 eV
 

Eigensolver
   Davidson(niter=2) 

Densities:
  Coarse grid: 42*42*160 grid
  Fine grid: 84*84*320 grid
  Total Charge: 0.000000 

Density mixing:
  Method: difference
  Backend: pulay
  Linear mixing parameter: 0.05
  Mixing with 5 old densities
  Damping of long wave oscillations: 50 

Hamiltonian:
  XC and Coulomb potentials evaluated on a 84*84*320 grid
  Using the LDA Exchange-Correlation functional
  External potential:
    <gpaw.external.NoExternalPotential object at 0x2b8d1bdf1910>
 

Memory estimate:
  Process memory now: 290.85 MiB
  Calculator: 580.26 MiB
    Density: 158.40 MiB
      Arrays: 75.37 MiB
      Localized functions: 52.88 MiB
      Mixer: 30.15 MiB
    Hamiltonian: 57.28 MiB
      Arrays: 55.99 MiB
      XC: 0.00 MiB
      Poisson: 0.00 MiB
      vbar: 1.29 MiB
    Wavefunctions: 364.58 MiB
      Arrays psit_nG: 281.29 MiB
      Eigensolver: 50.83 MiB
      Projections: 1.61 MiB
      Projectors: 18.26 MiB
      PW-descriptor: 12.59 MiB

Total number of cores used: 40
Parallelization over k-points: 40

Number of atoms: 16
Number of atomic orbitals: 84
Number of bands in calculation: 77
Number of valence electrons: 108
Bands to converge: occupied

... initialized

Initializing position-dependent things.

Density initialized from atomic densities
Creating initial wave functions:
  77 bands from LCAO basis set

                                       
                                       
                                       
                                       
                      I                
                            I          
                   I                   
                       Cr              
             Cr            I           
                 I                     
                         I             
                                       
                     I                 
                             I         
               Cr  I                   
                       Cr              
          I                            
                 I                     
                        I              
                                       
                                       
                                       
                                       

Positions:
   0 Cr     3.555363    2.052690    9.031768    ( 0.0000,  0.0000,  3.4336)
   1 Cr     0.000000    4.105380    9.031768    ( 0.0000,  0.0000,  3.4336)
   2 I      4.561629   -0.000000    7.428941    ( 0.0000,  0.0000, -0.1299)
   3 I      1.274549    2.207584    7.428941    ( 0.0000,  0.0000, -0.1299)
   4 I     -2.280814    3.950487    7.428941    ( 0.0000,  0.0000, -0.1299)
   5 I      2.549098    0.000002   10.634596    ( 0.0000,  0.0000, -0.1299)
   6 I      2.280816    3.950486   10.634596    ( 0.0000,  0.0000, -0.1299)
   7 I      5.836176    2.207582   10.634596    ( 0.0000,  0.0000, -0.1299)
   8 Cr    -0.000000   -0.000000   15.759285    ( 0.0000,  0.0000,  3.4336)
   9 Cr     3.555363    2.052690   15.759284    ( 0.0000,  0.0000,  3.4336)
  10 I      4.561629    4.105380   14.156457    ( 0.0000,  0.0000, -0.1299)
  11 I      4.829912    0.154894   14.156457    ( 0.0000,  0.0000, -0.1299)
  12 I      1.274549    1.897796   14.156457    ( 0.0000,  0.0000, -0.1299)
  13 I      2.549098    4.105382   17.362112    ( 0.0000,  0.0000, -0.1299)
  14 I      5.836180    1.897796   17.362112    ( 0.0000,  0.0000, -0.1299)
  15 I      2.280813    0.154892   17.362112    ( 0.0000,  0.0000, -0.1299)

Unit cell:
           periodic     x           y           z      points  spacing
  1. axis:    yes    7.110727   -0.000000    0.000000    42     0.1466
  2. axis:    yes   -3.555363    6.158070    0.000000    42     0.1466
  3. axis:    no     0.000000   -0.000000   27.269192   160     0.1704

  Lengths:   7.110727   7.110727  27.269192
  Angles:   90.000000  90.000000 120.000000

Effective grid spacing dv^(1/3) = 0.1617

                     log10-error:           total        iterations:
           time      wfs    density  force  energy       poisson  magmom
iter:   1  15:32:45                        -74.373182             +12.1076
iter:   2  15:33:37  -1.40  -1.02          -70.258978             +11.8864
iter:   3  15:34:28  -2.11  -1.32          -69.818357             +11.9565
iter:   4  15:35:19  -1.68  -1.39          -70.087834             +12.0045
iter:   5  15:36:11  -2.80  -1.51          -69.727426             +11.9980
iter:   6  15:37:02  -2.23  -2.02          -69.624454             +11.9991
iter:   7  15:37:53  -3.19  -2.17          -69.615853             +11.9995
iter:   8  15:38:45  -3.47  -2.39          -69.615022             +12.0002
iter:   9  15:39:36  -3.70  -2.70          -69.613265             +12.0001
iter:  10  15:40:27  -3.90  -3.04          -69.613986             +12.0000
iter:  11  15:41:19  -3.95  -3.08          -69.614408             +12.0000
iter:  12  15:42:10  -4.19  -3.36          -69.614575             +12.0000
iter:  13  15:43:01  -4.30  -3.50          -69.614822             +12.0000
iter:  14  15:43:53  -4.30  -3.52          -69.615006             +12.0000
iter:  15  15:44:44  -4.54  -3.46          -69.615134             +12.0000
iter:  16  15:45:35  -4.65  -3.56          -69.615242             +12.0000
iter:  17  15:46:26  -4.73  -3.57          -69.615318             +12.0000
iter:  18  15:47:18  -4.85  -3.55          -69.615375             +12.0000
iter:  19  15:48:09  -4.96  -3.60          -69.615418             +12.0000
iter:  20  15:49:00  -5.00  -3.60          -69.615457             +12.0000
iter:  21  15:49:51  -5.28  -3.59          -69.615488             +12.0000
iter:  22  15:50:43  -5.44  -3.64          -69.615514             +12.0000
iter:  23  15:51:34  -5.60  -3.63          -69.615527             +12.0000
iter:  24  15:52:25  -5.73  -3.62          -69.615527             +12.0000
iter:  25  15:53:17  -5.78  -3.63          -69.615524             +12.0000
iter:  26  15:54:08  -6.01  -3.80          -69.615526             +12.0000
iter:  27  15:54:59  -6.03  -3.90          -69.615525             +12.0000
iter:  28  15:55:51  -6.31  -4.03          -69.615527             +12.0000
iter:  29  15:56:42  -6.40  -4.27          -69.615529             +12.0000
iter:  30  15:57:33  -6.53  -4.28          -69.615530             +12.0000
iter:  31  15:58:25  -6.53  -4.38          -69.615530             +12.0000
iter:  32  15:59:16  -6.80  -4.50          -69.615531             +12.0000
iter:  33  16:00:07  -6.93  -4.58          -69.615531             +12.0000
iter:  34  16:00:59  -7.05  -4.74          -69.615532             +12.0000
iter:  35  16:01:50  -7.05  -4.84          -69.615532             +12.0000
iter:  36  16:02:41  -7.15  -5.01          -69.615532             +12.0000
iter:  37  16:03:42  -7.41  -5.06          -69.615532             +12.0000
iter:  38  16:04:44  -7.47  -5.16    -4.18 -69.615532             +12.0000

Converged after 38 iterations.

Dipole moment: (27.751126, -16.022028, -0.000258) |e|*Ang

Total magnetic moment: (0.000000, 0.000000, 12.000000)
Local magnetic moments:
   0 Cr ( 0.000000,  0.000000,  3.015121)
   1 Cr ( 0.000000,  0.000000,  3.020600)
   2 I  ( 0.000000,  0.000000, -0.065669)
   3 I  ( 0.000000,  0.000000, -0.065663)
   4 I  ( 0.000000,  0.000000, -0.065668)
   5 I  ( 0.000000,  0.000000, -0.068350)
   6 I  ( 0.000000,  0.000000, -0.068347)
   7 I  ( 0.000000,  0.000000, -0.068354)
   8 Cr ( 0.000000,  0.000000,  3.020598)
   9 Cr ( 0.000000,  0.000000,  3.015123)
  10 I  ( 0.000000,  0.000000, -0.068350)
  11 I  ( 0.000000,  0.000000, -0.068347)
  12 I  ( 0.000000,  0.000000, -0.068354)
  13 I  ( 0.000000,  0.000000, -0.065670)
  14 I  ( 0.000000,  0.000000, -0.065663)
  15 I  ( 0.000000,  0.000000, -0.065668)

Energy contributions relative to reference atoms: (reference = -2434708.556191)

Kinetic:        -27.118687
Potential:       +4.132583
External:        +0.000000
XC:             -46.777874
Entropy (-ST):   -0.000000
Local:           +0.148445
--------------------------
Free energy:    -69.615532
Extrapolated:   -69.615532

Spin contamination: 1.454488 electrons
Showing only first 2 kpts
                      Up                     Down
 Kpt  Band  Eigenvalues  Occupancy  Eigenvalues  Occupancy
  0    52     -2.29185    1.00000      0.02505    0.00000
  0    53     -2.26690    1.00000      0.04392    0.00000
  0    54     -2.14912    1.00000      0.15061    0.00000
  0    55     -2.13934    1.00000      0.17466    0.00000

  1    52     -2.27325    1.00000      0.02960    0.00000
  1    53     -2.22481    1.00000      0.04382    0.00000
  1    54     -2.14925    1.00000      0.10377    0.00000
  1    55     -2.12759    1.00000      0.12480    0.00000


Fermi level: -1.49189

Gap: 0.917 eV
Transition (v -> c):
  (s=0, k=72, n=59, [0.04, -0.46, 0.00]) -> (s=0, k=45, n=60, [-0.21, 0.29, 0.00])

Forces in eV/Ang:
  0 Cr   -0.00003    0.00062   -0.00261
  1 Cr   -0.00002   -0.00061   -0.00803
  2 I    -0.39623    0.00705    0.74851
  3 I     0.20509    0.34048    0.74777
  4 I     0.19289   -0.34754    0.74781
  5 I     0.37996   -0.01305   -0.65455
  6 I    -0.20217   -0.32345   -0.65380
  7 I    -0.17957    0.33650   -0.65374
  8 Cr    0.00002    0.00061    0.00804
  9 Cr    0.00003   -0.00062    0.00262
 10 I    -0.37996    0.01304    0.65455
 11 I     0.20216    0.32345    0.65379
 12 I     0.17957   -0.33650    0.65374
 13 I     0.39623   -0.00706   -0.74852
 14 I    -0.20510   -0.34047   -0.74777
 15 I    -0.19288    0.34755   -0.74782

System changes: positions 

Initializing position-dependent things.

Density initialized from wave functions
                                       
                                       
                                       
                                       
                      I                
                            I          
                   I                   
                       Cr              
             Cr            I           
                 I                     
                         I             
                                       
                     I                 
                             I         
               Cr  I                   
                       Cr              
          I                            
                 I                     
                        I              
                                       
                                       
                                       
                                       

Positions:
   0 Cr     3.555363    2.052699    9.031731    ( 0.0000,  0.0000,  3.4336)
   1 Cr    -0.000000    4.105371    9.031653    ( 0.0000,  0.0000,  3.4336)
   2 I      4.555968    0.000101    7.439634    ( 0.0000,  0.0000, -0.1299)
   3 I      1.277479    2.212448    7.439623    ( 0.0000,  0.0000, -0.1299)
   4 I     -2.278059    3.945522    7.439624    ( 0.0000,  0.0000, -0.1299)
   5 I      2.554526   -0.000184   10.625245    ( 0.0000,  0.0000, -0.1299)
   6 I      2.277928    3.945865   10.625256    ( 0.0000,  0.0000, -0.1299)
   7 I      5.833611    2.212390   10.625257    ( 0.0000,  0.0000, -0.1299)
   8 Cr     0.000000    0.000009   15.759399    ( 0.0000,  0.0000,  3.4336)
   9 Cr     3.555364    2.052681   15.759322    ( 0.0000,  0.0000,  3.4336)
  10 I      4.556201    4.105566   14.165808    ( 0.0000,  0.0000, -0.1299)
  11 I      4.832800    0.159514   14.165797    ( 0.0000,  0.0000, -0.1299)
  12 I      1.277114    1.892989   14.165797    ( 0.0000,  0.0000, -0.1299)
  13 I      2.554758    4.105281   17.351419    ( 0.0000,  0.0000, -0.1299)
  14 I      5.833250    1.892932   17.351430    ( 0.0000,  0.0000, -0.1299)
  15 I      2.278057    0.159857   17.351429    ( 0.0000,  0.0000, -0.1299)

Unit cell:
           periodic     x           y           z      points  spacing
  1. axis:    yes    7.110727   -0.000000    0.000000    42     0.1466
  2. axis:    yes   -3.555363    6.158070    0.000000    42     0.1466
  3. axis:    no     0.000000   -0.000000   27.269192   160     0.1704

  Lengths:   7.110727   7.110727  27.269192
  Angles:   90.000000  90.000000 120.000000

Effective grid spacing dv^(1/3) = 0.1617

                     log10-error:           total        iterations:
           time      wfs    density  force  energy       poisson  magmom
iter:   1  16:05:57  -3.55                 -69.722840             +11.9964
iter:   2  16:06:48  -4.59  -2.94          -69.722740             +11.9989
iter:   3  16:07:39  -4.69  -2.99          -69.722373             +12.0003
iter:   4  16:08:30  -5.40  -3.21          -69.722300             +12.0000
iter:   5  16:09:22  -5.52  -3.34          -69.722254             +12.0000
iter:   6  16:10:13  -6.41  -3.63          -69.722230             +12.0000
iter:   7  16:11:05  -6.35  -3.75          -69.722219             +12.0000
iter:   8  16:11:57  -6.33  -4.02          -69.722215             +12.0000
iter:   9  16:12:48  -7.35  -4.32          -69.722214             +12.0000
iter:  10  16:13:40  -7.37  -4.41          -69.722214             +12.0000
iter:  11  16:14:41  -7.66  -4.53          -69.722214             +12.0000
iter:  12  16:15:44  -7.79  -4.72    -2.98 -69.722214             +12.0000
iter:  13  16:16:46  -7.82  -4.89    -3.04 -69.722214             +12.0000
iter:  14  16:17:48  -7.99  -4.96    -3.62 -69.722214             +12.0000
iter:  15  16:18:51  -8.04  -4.98    -3.72 -69.722214             +12.0000
iter:  16  16:19:53  -8.20  -4.97    -3.97 -69.722214             +12.0000
iter:  17  16:20:56  -8.42  -4.98    -3.42 -69.722214             +12.0000
iter:  18  16:21:58  -8.51  -4.94    -3.35 -69.722214             +12.0000
iter:  19  16:23:01  -8.55  -4.99    -3.23 -69.722214             +12.0000
iter:  20  16:24:03  -8.80  -4.97    -3.15 -69.722214             +12.0000
iter:  21  16:25:05  -8.78  -4.95    -3.26 -69.722214             +12.0000
iter:  22  16:26:07  -9.23  -5.08    -4.59 -69.722214             +12.0000

Converged after 22 iterations.

Dipole moment: (28.439595, -16.420057, -0.000257) |e|*Ang

Total magnetic moment: (0.000000, 0.000000, 12.000000)
Local magnetic moments:
   0 Cr ( 0.000000,  0.000000,  3.005957)
   1 Cr ( 0.000000,  0.000000,  3.011053)
   2 I  ( 0.000000,  0.000000, -0.063936)
   3 I  ( 0.000000,  0.000000, -0.063927)
   4 I  ( 0.000000,  0.000000, -0.063932)
   5 I  ( 0.000000,  0.000000, -0.066590)
   6 I  ( 0.000000,  0.000000, -0.066586)
   7 I  ( 0.000000,  0.000000, -0.066593)
   8 Cr ( 0.000000,  0.000000,  3.011051)
   9 Cr ( 0.000000,  0.000000,  3.005959)
  10 I  ( 0.000000,  0.000000, -0.066590)
  11 I  ( 0.000000,  0.000000, -0.066586)
  12 I  ( 0.000000,  0.000000, -0.066593)
  13 I  ( 0.000000,  0.000000, -0.063936)
  14 I  ( 0.000000,  0.000000, -0.063928)
  15 I  ( 0.000000,  0.000000, -0.063932)

Energy contributions relative to reference atoms: (reference = -2434708.556191)

Kinetic:        -23.772054
Potential:       +1.329457
External:        +0.000000
XC:             -47.422491
Entropy (-ST):   -0.000000
Local:           +0.142874
--------------------------
Free energy:    -69.722214
Extrapolated:   -69.722214

Spin contamination: 1.422636 electrons
Showing only first 2 kpts
                      Up                     Down
 Kpt  Band  Eigenvalues  Occupancy  Eigenvalues  Occupancy
  0    52     -2.27674    1.00000      0.01941    0.00000
  0    53     -2.25407    1.00000      0.03941    0.00000
  0    54     -2.13791    1.00000      0.15568    0.00000
  0    55     -2.13043    1.00000      0.18028    0.00000

  1    52     -2.25829    1.00000      0.02327    0.00000
  1    53     -2.21349    1.00000      0.03928    0.00000
  1    54     -2.13956    1.00000      0.10984    0.00000
  1    55     -2.11609    1.00000      0.13279    0.00000


Fermi level: -1.49189

Gap: 0.933 eV
Transition (v -> c):
  (s=0, k=5, n=59, [-0.46, -0.04, 0.00]) -> (s=0, k=66, n=60, [-0.04, 0.04, 0.00])

Forces in eV/Ang:
  0 Cr   -0.00002    0.00058    0.00537
  1 Cr   -0.00002   -0.00057   -0.00097
  2 I    -0.36861    0.00638    0.69530
  3 I     0.19067    0.31688    0.69454
  4 I     0.17963   -0.32327    0.69458
  5 I     0.35440   -0.01161   -0.60574
  6 I    -0.18811   -0.30201   -0.60497
  7 I    -0.16801    0.31363   -0.60492
  8 Cr    0.00002    0.00057    0.00098
  9 Cr    0.00002   -0.00058   -0.00537
 10 I    -0.35440    0.01160    0.60573
 11 I     0.18810    0.30202    0.60497
 12 I     0.16801   -0.31362    0.60492
 13 I     0.36861   -0.00639   -0.69530
 14 I    -0.19067   -0.31688   -0.69454
 15 I    -0.17963    0.32328   -0.69458

System changes: positions 

Initializing position-dependent things.

Density initialized from wave functions
                                       
                                       
                                       
                                       
                      I                
                            I          
                   I                   
                       Cr  I           
             Cr                        
                 I                     
                         I             
                                       
                     I                 
                             I         
               Cr                      
                   I   Cr              
          I                            
                 I                     
                        I              
                                       
                                       
                                       
                                       

Positions:
   0 Cr     3.555358    2.052815    9.032801    ( 0.0000,  0.0000,  3.4336)
   1 Cr    -0.000003    4.105257    9.031460    ( 0.0000,  0.0000,  3.4336)
   2 I      4.482490    0.001372    7.578232    ( 0.0000,  0.0000, -0.1299)
   3 I      1.315485    2.275614    7.578070    ( 0.0000,  0.0000, -0.1299)
   4 I     -2.242252    3.881082    7.578079    ( 0.0000,  0.0000, -0.1299)
   5 I      2.625171   -0.002498   10.504499    ( 0.0000,  0.0000, -0.1299)
   6 I      2.240431    3.885662   10.504663    ( 0.0000,  0.0000, -0.1299)
   7 I      5.800121    2.274907   10.504673    ( 0.0000,  0.0000, -0.1299)
   8 Cr     0.000003    0.000123   15.759594    ( 0.0000,  0.0000,  3.4336)
   9 Cr     3.555369    2.052565   15.758252    ( 0.0000,  0.0000,  3.4336)
  10 I      4.485555    4.107878   14.286554    ( 0.0000,  0.0000, -0.1299)
  11 I      4.870296    0.219718   14.286390    ( 0.0000,  0.0000, -0.1299)
  12 I      1.310606    1.830473   14.286379    ( 0.0000,  0.0000, -0.1299)
  13 I      2.628236    4.104008   17.212821    ( 0.0000,  0.0000, -0.1299)
  14 I      5.795241    1.829766   17.212982    ( 0.0000,  0.0000, -0.1299)
  15 I      2.242252    0.224298   17.212974    ( 0.0000,  0.0000, -0.1299)

Unit cell:
           periodic     x           y           z      points  spacing
  1. axis:    yes    7.110727   -0.000000    0.000000    42     0.1466
  2. axis:    yes   -3.555363    6.158070    0.000000    42     0.1466
  3. axis:    no     0.000000   -0.000000   27.269192   160     0.1704

  Lengths:   7.110727   7.110727  27.269192
  Angles:   90.000000  90.000000 120.000000

Effective grid spacing dv^(1/3) = 0.1617

                     log10-error:           total        iterations:
           time      wfs    density  force  energy       poisson  magmom
iter:   1  16:27:19  -1.31                 -70.322192             +11.9543
iter:   2  16:28:11  -2.34  -1.87          -70.315825             +11.9863
iter:   3  16:29:02  -2.51  -1.92          -70.267453             +12.0023
iter:   4  16:29:53  -3.30  -2.22          -70.260539             +12.0005
iter:   5  16:30:44  -3.61  -2.35          -70.255312             +11.9997
iter:   6  16:31:35  -3.95  -2.48          -70.252889             +12.0000
iter:   7  16:32:26  -4.42  -2.82          -70.251146             +12.0000
iter:   8  16:33:18  -4.79  -3.19          -70.250878             +12.0000
iter:   9  16:34:09  -5.20  -3.24          -70.250830             +12.0000
iter:  10  16:35:01  -5.41  -3.29          -70.250776             +12.0000
iter:  11  16:35:52  -5.58  -3.52          -70.250754             +12.0000
iter:  12  16:36:43  -5.69  -3.69          -70.250745             +12.0000
iter:  13  16:37:35  -5.81  -3.94          -70.250750             +12.0000
iter:  14  16:38:26  -5.92  -3.96          -70.250755             +12.0000
iter:  15  16:39:17  -5.90  -3.96          -70.250759             +12.0000
iter:  16  16:40:09  -6.12  -3.92          -70.250759             +12.0000
iter:  17  16:41:00  -6.31  -4.04          -70.250762             +12.0000
iter:  18  16:41:51  -6.29  -4.03          -70.250762             +12.0000
iter:  19  16:42:43  -6.38  -4.04          -70.250763             +12.0000
iter:  20  16:43:34  -6.42  -4.00          -70.250763             +12.0000
iter:  21  16:44:25  -6.51  -4.05          -70.250764             +12.0000
iter:  22  16:45:16  -6.70  -4.05          -70.250765             +12.0000
iter:  23  16:46:07  -6.88  -4.06          -70.250765             +12.0000
iter:  24  16:46:59  -7.13  -4.05          -70.250765             +12.0000
iter:  25  16:47:50  -7.10  -4.04          -70.250765             +12.0000
iter:  26  16:48:41  -7.01  -4.06          -70.250766             +12.0000
iter:  27  16:49:32  -7.04  -4.08          -70.250765             +12.0000
iter:  28  16:50:23  -7.25  -4.05          -70.250765             +12.0000
iter:  29  16:51:14  -6.79  -4.15          -70.250762             +12.0000
iter:  30  16:52:16  -7.45  -4.45          -70.250762             +12.0000
iter:  31  16:53:18  -7.68  -4.58    -3.05 -70.250762             +12.0000
iter:  32  16:54:19  -7.78  -4.62    -2.40 -70.250762             +12.0000
iter:  33  16:55:21  -8.24  -4.86    -3.40 -70.250762             +12.0000
iter:  34  16:56:23  -8.41  -4.91    -3.19 -70.250762             +12.0000
iter:  35  16:57:25  -8.17  -4.97    -2.93 -70.250762             +12.0000
iter:  36  16:58:27  -8.45  -5.08    -3.73 -70.250762             +12.0000
iter:  37  16:59:29  -8.56  -5.11    -3.36 -70.250762             +12.0000
iter:  38  17:00:31  -8.60  -5.22    -3.43 -70.250762             +12.0000
iter:  39  17:01:33  -8.81  -5.32    -3.41 -70.250762             +12.0000
iter:  40  17:02:35  -9.04  -5.41    -4.45 -70.250762             +12.0000

Converged after 40 iterations.

Dipole moment: (36.141123, -20.872869, -0.000264) |e|*Ang

Total magnetic moment: (0.000000, 0.000000, 12.000000)
Local magnetic moments:
   0 Cr ( 0.000000,  0.000000,  2.890979)
   1 Cr ( 0.000000,  0.000000,  2.892139)
   2 I  ( 0.000000,  0.000000, -0.043211)
   3 I  ( 0.000000,  0.000000, -0.043172)
   4 I  ( 0.000000,  0.000000, -0.043174)
   5 I  ( 0.000000,  0.000000, -0.045753)
   6 I  ( 0.000000,  0.000000, -0.045723)
   7 I  ( 0.000000,  0.000000, -0.045726)
   8 Cr ( 0.000000,  0.000000,  2.892139)
   9 Cr ( 0.000000,  0.000000,  2.890979)
  10 I  ( 0.000000,  0.000000, -0.045753)
  11 I  ( 0.000000,  0.000000, -0.045723)
  12 I  ( 0.000000,  0.000000, -0.045726)
  13 I  ( 0.000000,  0.000000, -0.043211)
  14 I  ( 0.000000,  0.000000, -0.043172)
  15 I  ( 0.000000,  0.000000, -0.043173)

Energy contributions relative to reference atoms: (reference = -2434708.556191)

Kinetic:        +31.332654
Potential:      -44.443291
External:        +0.000000
XC:             -57.322706
Entropy (-ST):   -0.000000
Local:           +0.182582
--------------------------
Free energy:    -70.250762
Extrapolated:   -70.250762

Spin contamination: 1.067748 electrons
Showing only first 2 kpts
                      Up                     Down
 Kpt  Band  Eigenvalues  Occupancy  Eigenvalues  Occupancy
  0    52     -2.08125    1.00000     -0.02330    0.00000
  0    53     -2.05230    1.00000     -0.02127    0.00000
  0    54     -2.00037    1.00000      0.18815    0.00000
  0    55     -1.99965    1.00000      0.20980    0.00000

  1    52     -2.07276    1.00000     -0.01195    0.00000
  1    53     -2.03364    1.00000      0.00710    0.00000
  1    54     -2.00775    1.00000      0.18293    0.00000
  1    55     -1.96093    1.00000      0.21385    0.00000


Fermi level: -1.49189

Gap: 1.094 eV
Transition (v -> c):
  (s=0, k=5, n=59, [-0.46, -0.04, 0.00]) -> (s=0, k=48, n=60, [-0.12, -0.46, 0.00])

Forces in eV/Ang:
  0 Cr    0.00006   -0.00028    0.12161
  1 Cr    0.00005    0.00025    0.09572
  2 I     0.10513   -0.00246   -0.20635
  3 I    -0.05445   -0.08927   -0.20758
  4 I    -0.05019    0.09174   -0.20759
  5 I    -0.08374    0.00850    0.22145
  6 I     0.04895    0.06773    0.22256
  7 I     0.03419   -0.07622    0.22253
  8 Cr   -0.00005   -0.00025   -0.09573
  9 Cr   -0.00006    0.00028   -0.12162
 10 I     0.08374   -0.00850   -0.22144
 11 I    -0.04895   -0.06773   -0.22255
 12 I    -0.03419    0.07622   -0.22253
 13 I    -0.10513    0.00246    0.20635
 14 I     0.05445    0.08927    0.20759
 15 I     0.05019   -0.09174    0.20760

System changes: positions 

Initializing position-dependent things.

Density initialized from wave functions
                                       
                                       
                                       
                                       
                      I                
                            I          
                   I                   
                       Cr  I           
             Cr                        
                 I                     
                         I             
                                       
                     I                 
                             I         
               Cr                      
                   I   Cr              
          I                            
                 I                     
                        I              
                                       
                                       
                                       
                                       

Positions:
   0 Cr     3.555360    2.052786    9.033889    ( 0.0000,  0.0000,  3.4336)
   1 Cr    -0.000002    4.105285    9.032545    ( 0.0000,  0.0000,  3.4336)
   2 I      4.499819    0.001065    7.545459    ( 0.0000,  0.0000, -0.1299)
   3 I      1.306521    2.260729    7.545317    ( 0.0000,  0.0000, -0.1299)
   4 I     -2.250685    3.896274    7.545324    ( 0.0000,  0.0000, -0.1299)
   5 I      2.608699   -0.001896   10.533505    ( 0.0000,  0.0000, -0.1299)
   6 I      2.249223    3.899660   10.533648    ( 0.0000,  0.0000, -0.1299)
   7 I      5.807870    2.260307   10.533655    ( 0.0000,  0.0000, -0.1299)
   8 Cr     0.000002    0.000095   15.758509    ( 0.0000,  0.0000,  3.4336)
   9 Cr     3.555367    2.052594   15.757164    ( 0.0000,  0.0000,  3.4336)
  10 I      4.502027    4.107276   14.257548    ( 0.0000,  0.0000, -0.1299)
  11 I      4.861504    0.205720   14.257406    ( 0.0000,  0.0000, -0.1299)
  12 I      1.302857    1.845072   14.257398    ( 0.0000,  0.0000, -0.1299)
  13 I      2.610908    4.104315   17.245595    ( 0.0000,  0.0000, -0.1299)
  14 I      5.804206    1.844651   17.245736    ( 0.0000,  0.0000, -0.1299)
  15 I      2.250684    0.209106   17.245730    ( 0.0000,  0.0000, -0.1299)

Unit cell:
           periodic     x           y           z      points  spacing
  1. axis:    yes    7.110727   -0.000000    0.000000    42     0.1466
  2. axis:    yes   -3.555363    6.158070    0.000000    42     0.1466
  3. axis:    no     0.000000   -0.000000   27.269192   160     0.1704

  Lengths:   7.110727   7.110727  27.269192
  Angles:   90.000000  90.000000 120.000000

Effective grid spacing dv^(1/3) = 0.1617

                     log10-error:           total        iterations:
           time      wfs    density  force  energy       poisson  magmom
iter:   1  17:03:46  -2.50                 -70.295259             +12.0147
iter:   2  17:04:37  -3.56  -2.46          -70.294442             +12.0044
iter:   3  17:05:28  -3.69  -2.51          -70.291081             +11.9995
iter:   4  17:06:19  -4.64  -2.79          -70.290384             +12.0002
iter:   5  17:07:10  -4.77  -2.91          -70.290082             +12.0002
iter:   6  17:08:01  -4.95  -3.08          -70.289954             +12.0001
iter:   7  17:08:52  -5.71  -3.43          -70.289837             +12.0000
iter:   8  17:09:44  -6.15  -3.71          -70.289813             +12.0000
iter:   9  17:10:35  -6.22  -3.80          -70.289797             +12.0000
iter:  10  17:11:26  -6.40  -3.87          -70.289795             +12.0000
iter:  11  17:12:17  -6.34  -3.98          -70.289791             +12.0000
iter:  12  17:13:08  -6.61  -4.27          -70.289791             +12.0000
iter:  13  17:14:00  -6.93  -4.40          -70.289791             +12.0000
iter:  14  17:14:51  -6.93  -4.51          -70.289791             +12.0000
iter:  15  17:15:42  -7.02  -4.58          -70.289791             +12.0000
iter:  16  17:16:33  -7.34  -4.67          -70.289791             +12.0000
iter:  17  17:17:24  -7.31  -4.86          -70.289791             +12.0000
iter:  18  17:18:25  -7.43  -5.17          -70.289791             +12.0000
iter:  19  17:19:27  -7.49  -5.22    -4.24 -70.289791             +12.0000

Converged after 19 iterations.

Dipole moment: (34.560893, -19.959315, -0.000264) |e|*Ang

Total magnetic moment: (0.000000, 0.000000, 12.000000)
Local magnetic moments:
   0 Cr ( 0.000000,  0.000000,  2.917534)
   1 Cr ( 0.000000,  0.000000,  2.919553)
   2 I  ( 0.000000,  0.000000, -0.047966)
   3 I  ( 0.000000,  0.000000, -0.047935)
   4 I  ( 0.000000,  0.000000, -0.047938)
   5 I  ( 0.000000,  0.000000, -0.050283)
   6 I  ( 0.000000,  0.000000, -0.050258)
   7 I  ( 0.000000,  0.000000, -0.050263)
   8 Cr ( 0.000000,  0.000000,  2.919552)
   9 Cr ( 0.000000,  0.000000,  2.917534)
  10 I  ( 0.000000,  0.000000, -0.050283)
  11 I  ( 0.000000,  0.000000, -0.050259)
  12 I  ( 0.000000,  0.000000, -0.050263)
  13 I  ( 0.000000,  0.000000, -0.047966)
  14 I  ( 0.000000,  0.000000, -0.047935)
  15 I  ( 0.000000,  0.000000, -0.047938)

Energy contributions relative to reference atoms: (reference = -2434708.556191)

Kinetic:        +16.271501
Potential:      -32.027456
External:        +0.000000
XC:             -54.710098
Entropy (-ST):   -0.000000
Local:           +0.176261
--------------------------
Free energy:    -70.289791
Extrapolated:   -70.289791

Spin contamination: 1.142235 electrons
Showing only first 2 kpts
                      Up                     Down
 Kpt  Band  Eigenvalues  Occupancy  Eigenvalues  Occupancy
  0    52     -2.12449    1.00000     -0.02846    0.00000
  0    53     -2.10493    1.00000     -0.01033    0.00000
  0    54     -2.03429    1.00000      0.18268    0.00000
  0    55     -2.03363    1.00000      0.20534    0.00000

  1    52     -2.11838    1.00000     -0.03338    0.00000
  1    53     -2.07862    1.00000      0.00236    0.00000
  1    54     -2.04283    1.00000      0.16964    0.00000
  1    55     -2.00148    1.00000      0.20124    0.00000


Fermi level: -1.49189

Gap: 1.060 eV
Transition (v -> c):
  (s=0, k=138, n=59, [0.46, 0.04, 0.00]) -> (s=0, k=48, n=60, [-0.12, -0.46, 0.00])

Forces in eV/Ang:
  0 Cr    0.00003    0.00001    0.07891
  1 Cr    0.00002   -0.00003    0.06178
  2 I    -0.03096    0.00016    0.05155
  3 I     0.01604    0.02737    0.05055
  4 I     0.01576   -0.02753    0.05055
  5 I     0.03928    0.00280   -0.00954
  6 I    -0.01765   -0.03606   -0.00859
  7 I    -0.02253    0.03327   -0.00860
  8 Cr   -0.00002    0.00003   -0.06178
  9 Cr   -0.00003   -0.00001   -0.07891
 10 I    -0.03928   -0.00280    0.00954
 11 I     0.01765    0.03606    0.00859
 12 I     0.02253   -0.03327    0.00860
 13 I     0.03096   -0.00016   -0.05155
 14 I    -0.01604   -0.02737   -0.05054
 15 I    -0.01576    0.02753   -0.05054

System changes: positions 

Initializing position-dependent things.

Density initialized from wave functions
                                       
                                       
                                       
                                       
                      I                
                            I          
                   I                   
                       Cr  I           
             Cr                        
                 I                     
                         I             
                                       
                     I                 
                             I         
               Cr                      
                   I   Cr              
          I                            
                 I                     
                        I              
                                       
                                       
                                       
                                       

Positions:
   0 Cr     3.555360    2.052790    9.034950    ( 0.0000,  0.0000,  3.4336)
   1 Cr    -0.000002    4.105280    9.033339    ( 0.0000,  0.0000,  3.4336)
   2 I      4.496937    0.001110    7.550807    ( 0.0000,  0.0000, -0.1299)
   3 I      1.308012    2.263217    7.550647    ( 0.0000,  0.0000, -0.1299)
   4 I     -2.249272    3.893742    7.550655    ( 0.0000,  0.0000, -0.1299)
   5 I      2.611595   -0.001938   10.529296    ( 0.0000,  0.0000, -0.1299)
   6 I      2.247727    3.897159   10.529456    ( 0.0000,  0.0000, -0.1299)
   7 I      5.806447    2.262851   10.529464    ( 0.0000,  0.0000, -0.1299)
   8 Cr     0.000002    0.000100   15.757715    ( 0.0000,  0.0000,  3.4336)
   9 Cr     3.555367    2.052590   15.756104    ( 0.0000,  0.0000,  3.4336)
  10 I      4.499132    4.107318   14.261757    ( 0.0000,  0.0000, -0.1299)
  11 I      4.863000    0.208221   14.261597    ( 0.0000,  0.0000, -0.1299)
  12 I      1.304280    1.842529   14.261589    ( 0.0000,  0.0000, -0.1299)
  13 I      2.613790    4.104270   17.240246    ( 0.0000,  0.0000, -0.1299)
  14 I      5.802715    1.842163   17.240406    ( 0.0000,  0.0000, -0.1299)
  15 I      2.249271    0.211638   17.240399    ( 0.0000,  0.0000, -0.1299)

Unit cell:
           periodic     x           y           z      points  spacing
  1. axis:    yes    7.110727   -0.000000    0.000000    42     0.1466
  2. axis:    yes   -3.555363    6.158070    0.000000    42     0.1466
  3. axis:    no     0.000000   -0.000000   27.269192   160     0.1704

  Lengths:   7.110727   7.110727  27.269192
  Angles:   90.000000  90.000000 120.000000

Effective grid spacing dv^(1/3) = 0.1617

                     log10-error:           total        iterations:
           time      wfs    density  force  energy       poisson  magmom
iter:   1  17:20:39  -4.07                 -70.291908             +11.9978
iter:   2  17:21:30  -5.16  -3.27          -70.291891             +11.9993
iter:   3  17:22:21  -5.31  -3.31          -70.291809             +12.0001
iter:   4  17:23:12  -6.13  -3.61          -70.291793             +12.0000
iter:   5  17:24:04  -6.55  -3.77          -70.291787             +12.0000
iter:   6  17:24:55  -6.90  -3.87          -70.291781             +12.0000
iter:   7  17:25:46  -7.14  -4.36          -70.291779             +12.0000
iter:   8  17:26:48  -7.92  -4.51          -70.291779             +12.0000
iter:   9  17:27:50  -8.20  -4.66    -3.12 -70.291779             +12.0000
iter:  10  17:28:52  -8.33  -4.71    -2.62 -70.291779             +12.0000
iter:  11  17:29:54  -8.52  -5.09    -3.36 -70.291779             +12.0000
iter:  12  17:30:56  -8.81  -5.20    -3.66 -70.291779             +12.0000
iter:  13  17:31:59  -8.93  -5.27    -3.68 -70.291779             +12.0000
iter:  14  17:33:01  -9.02  -5.34    -3.55 -70.291779             +12.0000
iter:  15  17:34:03  -9.28  -5.43    -3.48 -70.291779             +12.0000
iter:  16  17:35:05  -9.54  -5.64    -4.48 -70.291779             +12.0000

Converged after 16 iterations.

Dipole moment: (34.848392, -20.125653, -0.000262) |e|*Ang

Total magnetic moment: (0.000000, 0.000000, 12.000000)
Local magnetic moments:
   0 Cr ( 0.000000,  0.000000,  2.913290)
   1 Cr ( 0.000000,  0.000000,  2.915227)
   2 I  ( 0.000000,  0.000000, -0.047278)
   3 I  ( 0.000000,  0.000000, -0.047246)
   4 I  ( 0.000000,  0.000000, -0.047248)
   5 I  ( 0.000000,  0.000000, -0.049481)
   6 I  ( 0.000000,  0.000000, -0.049456)
   7 I  ( 0.000000,  0.000000, -0.049460)
   8 Cr ( 0.000000,  0.000000,  2.915226)
   9 Cr ( 0.000000,  0.000000,  2.913290)
  10 I  ( 0.000000,  0.000000, -0.049481)
  11 I  ( 0.000000,  0.000000, -0.049456)
  12 I  ( 0.000000,  0.000000, -0.049460)
  13 I  ( 0.000000,  0.000000, -0.047278)
  14 I  ( 0.000000,  0.000000, -0.047246)
  15 I  ( 0.000000,  0.000000, -0.047248)

Energy contributions relative to reference atoms: (reference = -2434708.556191)

Kinetic:        +18.550152
Potential:      -33.907060
External:        +0.000000
XC:             -55.112259
Entropy (-ST):   -0.000000
Local:           +0.177388
--------------------------
Free energy:    -70.291779
Extrapolated:   -70.291779

Spin contamination: 1.130011 electrons
Showing only first 2 kpts
                      Up                     Down
 Kpt  Band  Eigenvalues  Occupancy  Eigenvalues  Occupancy
  0    52     -2.11749    1.00000     -0.02903    0.00000
  0    53     -2.09677    1.00000     -0.01283    0.00000
  0    54     -2.02960    1.00000      0.18333    0.00000
  0    55     -2.02904    1.00000      0.20577    0.00000

  1    52     -2.11137    1.00000     -0.03020    0.00000
  1    53     -2.07149    1.00000      0.00209    0.00000
  1    54     -2.03801    1.00000      0.17175    0.00000
  1    55     -1.99581    1.00000      0.20333    0.00000


Fermi level: -1.49189

Gap: 1.065 eV
Transition (v -> c):
  (s=0, k=5, n=59, [-0.46, -0.04, 0.00]) -> (s=0, k=48, n=60, [-0.12, -0.46, 0.00])

Forces in eV/Ang:
  0 Cr    0.00002   -0.00001    0.07577
  1 Cr    0.00002   -0.00001    0.05953
  2 I    -0.01109   -0.00001    0.01611
  3 I     0.00594    0.01024    0.01512
  4 I     0.00595   -0.01023    0.01512
  5 I     0.01904    0.00298    0.02774
  6 I    -0.00735   -0.01861    0.02867
  7 I    -0.01254    0.01564    0.02867
  8 Cr   -0.00002    0.00001   -0.05953
  9 Cr   -0.00002    0.00001   -0.07577
 10 I    -0.01904   -0.00298   -0.02773
 11 I     0.00735    0.01861   -0.02867
 12 I     0.01254   -0.01564   -0.02866
 13 I     0.01108    0.00000   -0.01611
 14 I    -0.00594   -0.01024   -0.01512
 15 I    -0.00595    0.01023   -0.01512

System changes: positions 

Initializing position-dependent things.

Density initialized from wave functions
                                       
                                       
                                       
                                       
                      I                
                            I          
                   I                   
                       Cr  I           
             Cr                        
                 I                     
                         I             
                                       
                     I                 
                             I         
               Cr                      
                   I   Cr              
          I                            
                 I                     
                        I              
                                       
                                       
                                       
                                       

Positions:
   0 Cr     3.555361    2.052791    9.036405    ( 0.0000,  0.0000,  3.4336)
   1 Cr    -0.000002    4.105279    9.034474    ( 0.0000,  0.0000,  3.4336)
   2 I      4.496181    0.001119    7.552139    ( 0.0000,  0.0000, -0.1299)
   3 I      1.308407    2.263880    7.551960    ( 0.0000,  0.0000, -0.1299)
   4 I     -2.248892    3.893069    7.551967    ( 0.0000,  0.0000, -0.1299)
   5 I      2.612484   -0.001898   10.528917    ( 0.0000,  0.0000, -0.1299)
   6 I      2.247308    3.896355   10.529095    ( 0.0000,  0.0000, -0.1299)
   7 I      5.805958    2.263614   10.529103    ( 0.0000,  0.0000, -0.1299)
   8 Cr     0.000002    0.000101   15.756580    ( 0.0000,  0.0000,  3.4336)
   9 Cr     3.555366    2.052589   15.754649    ( 0.0000,  0.0000,  3.4336)
  10 I      4.498242    4.107278   14.262136    ( 0.0000,  0.0000, -0.1299)
  11 I      4.863419    0.209024   14.261958    ( 0.0000,  0.0000, -0.1299)
  12 I      1.304769    1.841766   14.261950    ( 0.0000,  0.0000, -0.1299)
  13 I      2.614546    4.104261   17.238914    ( 0.0000,  0.0000, -0.1299)
  14 I      5.802320    1.841500   17.239093    ( 0.0000,  0.0000, -0.1299)
  15 I      2.248892    0.212311   17.239086    ( 0.0000,  0.0000, -0.1299)

Unit cell:
           periodic     x           y           z      points  spacing
  1. axis:    yes    7.110727   -0.000000    0.000000    42     0.1466
  2. axis:    yes   -3.555363    6.158070    0.000000    42     0.1466
  3. axis:    no     0.000000   -0.000000   27.269192   160     0.1704

  Lengths:   7.110727   7.110727  27.269192
  Angles:   90.000000  90.000000 120.000000

Effective grid spacing dv^(1/3) = 0.1617

                     log10-error:           total        iterations:
           time      wfs    density  force  energy       poisson  magmom
iter:   1  17:36:17  -4.79                 -70.292330             +11.9995
iter:   2  17:37:08  -5.93  -3.60          -70.292310             +11.9999
iter:   3  17:37:59  -5.84  -3.70          -70.292289             +12.0000
iter:   4  17:38:50  -6.98  -3.96          -70.292286             +12.0000
iter:   5  17:39:42  -6.76  -4.05          -70.292284             +12.0000
iter:   6  17:40:33  -6.98  -4.44          -70.292284             +12.0000
iter:   7  17:41:34  -7.74  -4.47          -70.292283             +12.0000
iter:   8  17:42:36  -8.34  -4.70    -3.14 -70.292283             +12.0000
iter:   9  17:43:39  -8.25  -4.87    -2.98 -70.292283             +12.0000
iter:  10  17:44:41  -8.66  -5.07    -3.20 -70.292283             +12.0000
iter:  11  17:45:43  -8.79  -5.10    -3.45 -70.292283             +12.0000
iter:  12  17:46:46  -8.42  -5.17    -3.01 -70.292283             +12.0000
iter:  13  17:47:48  -8.85  -5.61    -3.97 -70.292283             +12.0000
iter:  14  17:48:50  -9.10  -5.63    -4.06 -70.292283             +12.0000

Converged after 14 iterations.

Dipole moment: (34.936394, -20.176729, -0.000261) |e|*Ang

Total magnetic moment: (0.000000, 0.000000, 12.000000)
Local magnetic moments:
   0 Cr ( 0.000000,  0.000000,  2.912365)
   1 Cr ( 0.000000,  0.000000,  2.914357)
   2 I  ( 0.000000,  0.000000, -0.047199)
   3 I  ( 0.000000,  0.000000, -0.047167)
   4 I  ( 0.000000,  0.000000, -0.047169)
   5 I  ( 0.000000,  0.000000, -0.049250)
   6 I  ( 0.000000,  0.000000, -0.049224)
   7 I  ( 0.000000,  0.000000, -0.049228)
   8 Cr ( 0.000000,  0.000000,  2.914356)
   9 Cr ( 0.000000,  0.000000,  2.912366)
  10 I  ( 0.000000,  0.000000, -0.049250)
  11 I  ( 0.000000,  0.000000, -0.049224)
  12 I  ( 0.000000,  0.000000, -0.049228)
  13 I  ( 0.000000,  0.000000, -0.047199)
  14 I  ( 0.000000,  0.000000, -0.047167)
  15 I  ( 0.000000,  0.000000, -0.047169)

Energy contributions relative to reference atoms: (reference = -2434708.556191)

Kinetic:        +19.032197
Potential:      -34.306240
External:        +0.000000
XC:             -55.197038
Entropy (-ST):   -0.000000
Local:           +0.178799
--------------------------
Free energy:    -70.292283
Extrapolated:   -70.292283

Spin contamination: 1.127361 electrons
Showing only first 2 kpts
                      Up                     Down
 Kpt  Band  Eigenvalues  Occupancy  Eigenvalues  Occupancy
  0    52     -2.11609    1.00000     -0.02937    0.00000
  0    53     -2.09508    1.00000     -0.01364    0.00000
  0    54     -2.02914    1.00000      0.18337    0.00000
  0    55     -2.02862    1.00000      0.20575    0.00000

  1    52     -2.11006    1.00000     -0.02981    0.00000
  1    53     -2.07013    1.00000      0.00176    0.00000
  1    54     -2.03732    1.00000      0.17211    0.00000
  1    55     -1.99506    1.00000      0.20353    0.00000


Fermi level: -1.49189

Gap: 1.066 eV
Transition (v -> c):
  (s=0, k=5, n=59, [-0.46, -0.04, 0.00]) -> (s=0, k=48, n=60, [-0.12, -0.46, 0.00])

Forces in eV/Ang:
  0 Cr    0.00001    0.00000    0.06656
  1 Cr    0.00001   -0.00002    0.05244
  2 I    -0.00781    0.00021    0.01141
  3 I     0.00449    0.00731    0.01048
  4 I     0.00413   -0.00752    0.01047
  5 I     0.01369    0.00250    0.03772
  6 I    -0.00509   -0.01375    0.03862
  7 I    -0.00944    0.01125    0.03861
  8 Cr   -0.00001    0.00002   -0.05244
  9 Cr   -0.00001   -0.00000   -0.06657
 10 I    -0.01369   -0.00251   -0.03771
 11 I     0.00509    0.01375   -0.03861
 12 I     0.00945   -0.01125   -0.03861
 13 I     0.00781   -0.00021   -0.01141
 14 I    -0.00450   -0.00731   -0.01047
 15 I    -0.00413    0.00752   -0.01047

System changes: positions 

Initializing position-dependent things.

Density initialized from wave functions
                                       
                                       
                                       
                                       
                      I                
                            I          
                   I                   
                       Cr  I           
             Cr                        
                 I                     
                         I             
                                       
                     I                 
                             I         
               Cr                      
                   I   Cr              
          I                            
                 I                     
                        I              
                                       
                                       
                                       
                                       

Positions:
   0 Cr     3.555362    2.052793    9.044271    ( 0.0000,  0.0000,  3.4336)
   1 Cr    -0.000000    4.105276    9.040641    ( 0.0000,  0.0000,  3.4336)
   2 I      4.493698    0.001154    7.556356    ( 0.0000,  0.0000, -0.1299)
   3 I      1.309726    2.266087    7.556068    ( 0.0000,  0.0000, -0.1299)
   4 I     -2.247633    3.890828    7.556075    ( 0.0000,  0.0000, -0.1299)
   5 I      2.615684   -0.001638   10.530082    ( 0.0000,  0.0000, -0.1299)
   6 I      2.245885    3.893381   10.530364    ( 0.0000,  0.0000, -0.1299)
   7 I      5.804082    2.266329   10.530372    ( 0.0000,  0.0000, -0.1299)
   8 Cr     0.000000    0.000104   15.750412    ( 0.0000,  0.0000,  3.4336)
   9 Cr     3.555364    2.052587   15.746782    ( 0.0000,  0.0000,  3.4336)
  10 I      4.495043    4.107018   14.260971    ( 0.0000,  0.0000, -0.1299)
  11 I      4.864842    0.211999   14.260689    ( 0.0000,  0.0000, -0.1299)
  12 I      1.306645    1.839050   14.260682    ( 0.0000,  0.0000, -0.1299)
  13 I      2.617029    4.104226   17.234697    ( 0.0000,  0.0000, -0.1299)
  14 I      5.801001    1.839293   17.234985    ( 0.0000,  0.0000, -0.1299)
  15 I      2.247633    0.214552   17.234978    ( 0.0000,  0.0000, -0.1299)

Unit cell:
           periodic     x           y           z      points  spacing
  1. axis:    yes    7.110727   -0.000000    0.000000    42     0.1466
  2. axis:    yes   -3.555363    6.158070    0.000000    42     0.1466
  3. axis:    no     0.000000   -0.000000   27.269192   160     0.1704

  Lengths:   7.110727   7.110727  27.269192
  Angles:   90.000000  90.000000 120.000000

Effective grid spacing dv^(1/3) = 0.1617

                     log10-error:           total        iterations:
           time      wfs    density  force  energy       poisson  magmom
iter:   1  17:50:02  -3.45                 -70.295255             +11.9988
iter:   2  17:50:54  -4.60  -2.94          -70.294784             +11.9996
iter:   3  17:51:45  -4.39  -3.04          -70.294294             +12.0000
iter:   4  17:52:36  -5.62  -3.29          -70.294252             +11.9999
iter:   5  17:53:27  -5.31  -3.37          -70.294189             +12.0000
iter:   6  17:54:18  -5.65  -3.82          -70.294189             +12.0000
iter:   7  17:55:09  -6.42  -3.83          -70.294186             +12.0000
iter:   8  17:56:00  -6.83  -3.97          -70.294184             +12.0000
iter:   9  17:56:52  -6.69  -4.15          -70.294181             +12.0000
iter:  10  17:57:43  -7.12  -4.48          -70.294181             +12.0000
iter:  11  17:58:34  -7.21  -4.49          -70.294181             +12.0000
iter:  12  17:59:25  -7.15  -4.59          -70.294181             +12.0000
iter:  13  18:00:26  -7.49  -4.82          -70.294181             +12.0000
iter:  14  18:01:28  -7.82  -4.98    -3.38 -70.294181             +12.0000
iter:  15  18:02:30  -8.10  -5.01    -3.31 -70.294181             +12.0000
iter:  16  18:03:32  -8.39  -5.10    -3.28 -70.294181             +12.0000
iter:  17  18:04:34  -8.68  -5.28    -3.60 -70.294181             +12.0000
iter:  18  18:05:36  -8.89  -5.51    -3.96 -70.294181             +12.0000
iter:  19  18:06:39  -8.98  -5.66    -3.75 -70.294181             +12.0000
iter:  20  18:07:41  -9.20  -5.78    -4.29 -70.294181             +12.0000

Converged after 20 iterations.

Dipole moment: (35.255718, -20.362527, -0.000264) |e|*Ang

Total magnetic moment: (0.000000, 0.000000, 12.000000)
Local magnetic moments:
   0 Cr ( 0.000000,  0.000000,  2.910006)
   1 Cr ( 0.000000,  0.000000,  2.912382)
   2 I  ( 0.000000,  0.000000, -0.047215)
   3 I  ( 0.000000,  0.000000, -0.047184)
   4 I  ( 0.000000,  0.000000, -0.047186)
   5 I  ( 0.000000,  0.000000, -0.048492)
   6 I  ( 0.000000,  0.000000, -0.048462)
   7 I  ( 0.000000,  0.000000, -0.048466)
   8 Cr ( 0.000000,  0.000000,  2.912382)
   9 Cr ( 0.000000,  0.000000,  2.910006)
  10 I  ( 0.000000,  0.000000, -0.048492)
  11 I  ( 0.000000,  0.000000, -0.048462)
  12 I  ( 0.000000,  0.000000, -0.048466)
  13 I  ( 0.000000,  0.000000, -0.047215)
  14 I  ( 0.000000,  0.000000, -0.047184)
  15 I  ( 0.000000,  0.000000, -0.047186)

Energy contributions relative to reference atoms: (reference = -2434708.556191)

Kinetic:        +20.199309
Potential:      -35.269677
External:        +0.000000
XC:             -55.404704
Entropy (-ST):   -0.000000
Local:           +0.180891
--------------------------
Free energy:    -70.294181
Extrapolated:   -70.294181

Spin contamination: 1.120854 electrons
Showing only first 2 kpts
                      Up                     Down
 Kpt  Band  Eigenvalues  Occupancy  Eigenvalues  Occupancy
  0    52     -2.11268    1.00000     -0.03093    0.00000
  0    53     -2.09078    1.00000     -0.01651    0.00000
  0    54     -2.02957    1.00000      0.18330    0.00000
  0    55     -2.02913    1.00000      0.20549    0.00000

  1    52     -2.10724    1.00000     -0.02970    0.00000
  1    53     -2.06709    1.00000      0.00010    0.00000
  1    54     -2.03651    1.00000      0.17286    0.00000
  1    55     -1.99447    1.00000      0.20340    0.00000


Fermi level: -1.49189

Gap: 1.067 eV
Transition (v -> c):
  (s=0, k=5, n=59, [-0.46, -0.04, 0.00]) -> (s=0, k=48, n=60, [-0.12, -0.46, 0.00])

Forces in eV/Ang:
  0 Cr   -0.00003    0.00008    0.01682
  1 Cr   -0.00002   -0.00009    0.01500
  2 I    -0.00183    0.00164    0.00972
  3 I     0.00277    0.00147    0.00909
  4 I    -0.00008   -0.00311    0.00908
  5 I    -0.00492   -0.00076    0.06823
  6 I     0.00140    0.00396    0.06892
  7 I     0.00271   -0.00320    0.06892
  8 Cr    0.00002    0.00009   -0.01500
  9 Cr    0.00003   -0.00008   -0.01682
 10 I     0.00492    0.00076   -0.06823
 11 I    -0.00140   -0.00396   -0.06892
 12 I    -0.00271    0.00320   -0.06892
 13 I     0.00183   -0.00164   -0.00972
 14 I    -0.00277   -0.00147   -0.00909
 15 I     0.00008    0.00311   -0.00908

System changes: positions 

Initializing position-dependent things.

Density initialized from wave functions
                                       
                                       
                                       
                                       
                      I                
                            I          
                   I                   
                       Cr  I           
             Cr                        
                 I                     
                         I             
                                       
                     I                 
                             I         
               Cr                      
                   I   Cr              
          I                            
                 I                     
                        I              
                                       
                                       
                                       
                                       

Positions:
   0 Cr     3.555364    2.052795    9.053745    ( 0.0000,  0.0000,  3.4336)
   1 Cr     0.000001    4.105271    9.048124    ( 0.0000,  0.0000,  3.4336)
   2 I      4.491708    0.001210    7.559693    ( 0.0000,  0.0000, -0.1299)
   3 I      1.310830    2.267879    7.559268    ( 0.0000,  0.0000, -0.1299)
   4 I     -2.246626    3.888981    7.559275    ( 0.0000,  0.0000, -0.1299)
   5 I      2.618406   -0.001321   10.534297    ( 0.0000,  0.0000, -0.1299)
   6 I      2.244735    3.890770   10.534711    ( 0.0000,  0.0000, -0.1299)
   7 I      5.802382    2.268626   10.534718    ( 0.0000,  0.0000, -0.1299)
   8 Cr    -0.000001    0.000109   15.742929    ( 0.0000,  0.0000,  3.4336)
   9 Cr     3.555363    2.052585   15.737308    ( 0.0000,  0.0000,  3.4336)
  10 I      4.492321    4.106701   14.256756    ( 0.0000,  0.0000, -0.1299)
  11 I      4.865992    0.214610   14.256343    ( 0.0000,  0.0000, -0.1299)
  12 I      1.308345    1.836754   14.256336    ( 0.0000,  0.0000, -0.1299)
  13 I      2.619018    4.104169   17.231361    ( 0.0000,  0.0000, -0.1299)
  14 I      5.799896    1.837501   17.231785    ( 0.0000,  0.0000, -0.1299)
  15 I      2.246626    0.216399   17.231779    ( 0.0000,  0.0000, -0.1299)

Unit cell:
           periodic     x           y           z      points  spacing
  1. axis:    yes    7.110727   -0.000000    0.000000    42     0.1466
  2. axis:    yes   -3.555363    6.158070    0.000000    42     0.1466
  3. axis:    no     0.000000   -0.000000   27.269192   160     0.1704

  Lengths:   7.110727   7.110727  27.269192
  Angles:   90.000000  90.000000 120.000000

Effective grid spacing dv^(1/3) = 0.1617

                     log10-error:           total        iterations:
           time      wfs    density  force  energy       poisson  magmom
iter:   1  18:08:53  -3.32                 -70.297157             +11.9995
iter:   2  18:09:44  -4.46  -2.92          -70.296699             +11.9999
iter:   3  18:10:35  -4.33  -3.02          -70.296189             +12.0000
iter:   4  18:11:26  -5.48  -3.24          -70.296140             +12.0000
iter:   5  18:12:17  -5.27  -3.32          -70.296067             +12.0000
iter:   6  18:13:08  -5.66  -3.79          -70.296065             +12.0000
iter:   7  18:13:59  -6.40  -3.80          -70.296062             +12.0000
iter:   8  18:14:50  -6.67  -3.90          -70.296059             +12.0000
iter:   9  18:15:41  -6.59  -4.13          -70.296056             +12.0000
iter:  10  18:16:32  -6.94  -4.48          -70.296057             +12.0000
iter:  11  18:17:23  -7.14  -4.51          -70.296057             +12.0000
iter:  12  18:18:14  -7.12  -4.62          -70.296057             +12.0000
iter:  13  18:19:05  -7.31  -4.84          -70.296057             +12.0000
iter:  14  18:20:06  -7.58  -5.05          -70.296057             +12.0000
iter:  15  18:21:08  -7.78  -5.06    -3.60 -70.296057             +12.0000
iter:  16  18:22:10  -7.90  -5.06    -3.67 -70.296057             +12.0000
iter:  17  18:23:13  -7.96  -5.06    -3.35 -70.296057             +12.0000
iter:  18  18:24:14  -8.38  -5.02    -3.18 -70.296057             +12.0000
iter:  19  18:25:16  -8.64  -5.13    -3.64 -70.296057             +12.0000
iter:  20  18:26:18  -8.60  -5.23    -3.41 -70.296057             +12.0000
iter:  21  18:27:20  -8.67  -5.32    -3.37 -70.296057             +12.0000
iter:  22  18:28:22  -8.95  -5.42    -3.69 -70.296057             +12.0000
iter:  23  18:29:23  -9.12  -5.47    -4.04 -70.296057             +12.0000

Converged after 23 iterations.

Dipole moment: (35.536114, -20.526305, -0.000262) |e|*Ang

Total magnetic moment: (0.000000, 0.000000, 12.000000)
Local magnetic moments:
   0 Cr ( 0.000000,  0.000000,  2.909027)
   1 Cr ( 0.000000,  0.000000,  2.911944)
   2 I  ( 0.000000,  0.000000, -0.047508)
   3 I  ( 0.000000,  0.000000, -0.047477)
   4 I  ( 0.000000,  0.000000, -0.047480)
   5 I  ( 0.000000,  0.000000, -0.047968)
   6 I  ( 0.000000,  0.000000, -0.047935)
   7 I  ( 0.000000,  0.000000, -0.047939)
   8 Cr ( 0.000000,  0.000000,  2.911944)
   9 Cr ( 0.000000,  0.000000,  2.909026)
  10 I  ( 0.000000,  0.000000, -0.047968)
  11 I  ( 0.000000,  0.000000, -0.047935)
  12 I  ( 0.000000,  0.000000, -0.047939)
  13 I  ( 0.000000,  0.000000, -0.047508)
  14 I  ( 0.000000,  0.000000, -0.047477)
  15 I  ( 0.000000,  0.000000, -0.047480)

Energy contributions relative to reference atoms: (reference = -2434708.556191)

Kinetic:        +20.573259
Potential:      -35.574050
External:        +0.000000
XC:             -55.475581
Entropy (-ST):   -0.000000
Local:           +0.180315
--------------------------
Free energy:    -70.296057
Extrapolated:   -70.296057

Spin contamination: 1.118652 electrons
Showing only first 2 kpts
                      Up                     Down
 Kpt  Band  Eigenvalues  Occupancy  Eigenvalues  Occupancy
  0    52     -2.11145    1.00000     -0.03255    0.00000
  0    53     -2.08885    1.00000     -0.01876    0.00000
  0    54     -2.03172    1.00000      0.18318    0.00000
  0    55     -2.03132    1.00000      0.20527    0.00000

  1    52     -2.10669    1.00000     -0.03083    0.00000
  1    53     -2.06636    1.00000     -0.00172    0.00000
  1    54     -2.03730    1.00000      0.17307    0.00000
  1    55     -1.99579    1.00000      0.20261    0.00000


Fermi level: -1.49189

Gap: 1.066 eV
Transition (v -> c):
  (s=0, k=5, n=59, [-0.46, -0.04, 0.00]) -> (s=0, k=60, n=60, [-0.04, -0.46, 0.00])

Forces in eV/Ang:
  0 Cr   -0.00007    0.00019   -0.03913
  1 Cr   -0.00006   -0.00018   -0.02605
  2 I    -0.00248    0.00322    0.02290
  3 I     0.00450    0.00128    0.02263
  4 I    -0.00110   -0.00451    0.02262
  5 I    -0.01803   -0.00503    0.08656
  6 I     0.00426    0.01742    0.08696
  7 I     0.01299   -0.01238    0.08698
  8 Cr    0.00006    0.00018    0.02605
  9 Cr    0.00007   -0.00019    0.03913
 10 I     0.01804    0.00504   -0.08656
 11 I    -0.00426   -0.01742   -0.08696
 12 I    -0.01299    0.01238   -0.08698
 13 I     0.00248   -0.00322   -0.02290
 14 I    -0.00450   -0.00129   -0.02264
 15 I     0.00110    0.00451   -0.02263

System changes: positions 

Initializing position-dependent things.

Density initialized from wave functions
                                       
                                       
                                       
                                       
                      I                
                            I          
                   I                   
                       Cr  I           
             Cr                        
                 I                     
                         I             
                                       
                     I                 
                             I         
               Cr                      
                   I   Cr              
          I                            
                 I                     
                        I              
                                       
                                       
                                       
                                       

Positions:
   0 Cr     3.555366    2.052801    9.067149    ( 0.0000,  0.0000,  3.4336)
   1 Cr     0.000001    4.105262    9.058835    ( 0.0000,  0.0000,  3.4336)
   2 I      4.489431    0.001345    7.563746    ( 0.0000,  0.0000, -0.1299)
   3 I      1.312185    2.269943    7.563114    ( 0.0000,  0.0000, -0.1299)
   4 I     -2.245504    3.886784    7.563120    ( 0.0000,  0.0000, -0.1299)
   5 I      2.621403   -0.000928   10.543530    ( 0.0000,  0.0000, -0.1299)
   6 I      2.243477    3.887822   10.544147    ( 0.0000,  0.0000, -0.1299)
   7 I      5.800440    2.271183   10.544153    ( 0.0000,  0.0000, -0.1299)
   8 Cr    -0.000001    0.000118   15.732217    ( 0.0000,  0.0000,  3.4336)
   9 Cr     3.555361    2.052579   15.723903    ( 0.0000,  0.0000,  3.4336)
  10 I      4.489324    4.106308   14.247524    ( 0.0000,  0.0000, -0.1299)
  11 I      4.867249    0.217558   14.246907    ( 0.0000,  0.0000, -0.1299)
  12 I      1.310287    1.834197   14.246901    ( 0.0000,  0.0000, -0.1299)
  13 I      2.621295    4.104034   17.227308    ( 0.0000,  0.0000, -0.1299)
  14 I      5.798541    1.835438   17.227940    ( 0.0000,  0.0000, -0.1299)
  15 I      2.245505    0.218596   17.227934    ( 0.0000,  0.0000, -0.1299)

Unit cell:
           periodic     x           y           z      points  spacing
  1. axis:    yes    7.110727   -0.000000    0.000000    42     0.1466
  2. axis:    yes   -3.555363    6.158070    0.000000    42     0.1466
  3. axis:    no     0.000000   -0.000000   27.269192   160     0.1704

  Lengths:   7.110727   7.110727  27.269192
  Angles:   90.000000  90.000000 120.000000

Effective grid spacing dv^(1/3) = 0.1617

                     log10-error:           total        iterations:
           time      wfs    density  force  energy       poisson  magmom
iter:   1  18:30:35  -3.01                 -70.299824             +12.0000
iter:   2  18:31:26  -4.15  -2.87          -70.299471             +12.0000
iter:   3  18:32:17  -4.29  -2.94          -70.298924             +12.0000
iter:   4  18:33:08  -5.27  -3.13          -70.298831             +12.0000
iter:   5  18:33:59  -5.17  -3.23          -70.298734             +12.0000
iter:   6  18:34:50  -5.60  -3.68          -70.298729             +12.0000
iter:   7  18:35:41  -6.20  -3.70          -70.298723             +12.0000
iter:   8  18:36:33  -6.37  -3.87          -70.298720             +12.0000
iter:   9  18:37:24  -6.45  -4.11          -70.298717             +12.0000
iter:  10  18:38:15  -6.73  -4.35          -70.298718             +12.0000
iter:  11  18:39:06  -6.98  -4.38          -70.298718             +12.0000
iter:  12  18:39:57  -6.96  -4.51          -70.298718             +12.0000
iter:  13  18:40:49  -7.00  -4.70          -70.298718             +12.0000
iter:  14  18:41:40  -7.31  -4.80          -70.298718             +12.0000
iter:  15  18:42:41  -7.52  -4.83          -70.298718             +12.0000
iter:  16  18:43:43  -7.76  -4.86    -3.19 -70.298718             +12.0000
iter:  17  18:44:45  -8.09  -4.97    -3.36 -70.298718             +12.0000
iter:  18  18:45:47  -8.32  -5.27    -3.36 -70.298718             +12.0000
iter:  19  18:46:49  -8.48  -5.40    -3.92 -70.298718             +12.0000
iter:  20  18:47:51  -8.42  -5.44    -3.54 -70.298718             +12.0000
iter:  21  18:48:54  -8.65  -5.65    -4.14 -70.298718             +12.0000

Converged after 21 iterations.

Dipole moment: (35.863766, -20.718633, -0.000264) |e|*Ang

Total magnetic moment: (0.000000, 0.000000, 12.000000)
Local magnetic moments:
   0 Cr ( 0.000000,  0.000000,  2.909150)
   1 Cr ( 0.000000,  0.000000,  2.912965)
   2 I  ( 0.000000,  0.000000, -0.048073)
   3 I  ( 0.000000,  0.000000, -0.048042)
   4 I  ( 0.000000,  0.000000, -0.048045)
   5 I  ( 0.000000,  0.000000, -0.047627)
   6 I  ( 0.000000,  0.000000, -0.047589)
   7 I  ( 0.000000,  0.000000, -0.047593)
   8 Cr ( 0.000000,  0.000000,  2.912966)
   9 Cr ( 0.000000,  0.000000,  2.909149)
  10 I  ( 0.000000,  0.000000, -0.047627)
  11 I  ( 0.000000,  0.000000, -0.047589)
  12 I  ( 0.000000,  0.000000, -0.047593)
  13 I  ( 0.000000,  0.000000, -0.048074)
  14 I  ( 0.000000,  0.000000, -0.048042)
  15 I  ( 0.000000,  0.000000, -0.048045)

Energy contributions relative to reference atoms: (reference = -2434708.556191)

Kinetic:        +20.270871
Potential:      -35.317418
External:        +0.000000
XC:             -55.432504
Entropy (-ST):   -0.000000
Local:           +0.180333
--------------------------
Free energy:    -70.298718
Extrapolated:   -70.298718

Spin contamination: 1.120190 electrons
Showing only first 2 kpts
                      Up                     Down
 Kpt  Band  Eigenvalues  Occupancy  Eigenvalues  Occupancy
  0    52     -2.11182    1.00000     -0.03415    0.00000
  0    53     -2.08830    1.00000     -0.02044    0.00000
  0    54     -2.03517    1.00000      0.18341    0.00000
  0    55     -2.03479    1.00000      0.20552    0.00000

  1    52     -2.10783    1.00000     -0.03300    0.00000
  1    53     -2.06740    1.00000     -0.00363    0.00000
  1    54     -2.03911    1.00000      0.17327    0.00000
  1    55     -1.99843    1.00000      0.20152    0.00000


Fermi level: -1.49189

Gap: 1.060 eV
Transition (v -> c):
  (s=0, k=5, n=59, [-0.46, -0.04, 0.00]) -> (s=0, k=60, n=60, [-0.04, -0.46, 0.00])

Forces in eV/Ang:
  0 Cr   -0.00010    0.00031   -0.10351
  1 Cr   -0.00008   -0.00028   -0.07155
  2 I    -0.00814    0.00493    0.05161
  3 I     0.00884    0.00536    0.05185
  4 I     0.00028   -0.01030    0.05184
  5 I    -0.02784   -0.01071    0.09423
  6 I     0.00426    0.02873    0.09422
  7 I     0.02282   -0.01802    0.09425
  8 Cr    0.00008    0.00028    0.07156
  9 Cr    0.00010   -0.00031    0.10352
 10 I     0.02784    0.01072   -0.09423
 11 I    -0.00425   -0.02874   -0.09423
 12 I    -0.02283    0.01802   -0.09425
 13 I     0.00814   -0.00492   -0.05161
 14 I    -0.00884   -0.00536   -0.05185
 15 I    -0.00029    0.01030   -0.05184

System changes: positions 

Initializing position-dependent things.

Density initialized from wave functions
                                       
                                       
                                       
                                       
                      I                
                            I          
                   I                   
                       Cr  I           
             Cr                        
                 I                     
                         I             
                                       
                     I                 
                             I         
               Cr                      
                   I   Cr              
          I                            
                 I                     
                        I              
                                       
                                       
                                       
                                       

Positions:
   0 Cr     3.555366    2.052815    9.084076    ( 0.0000,  0.0000,  3.4336)
   1 Cr     0.000001    4.105244    9.072609    ( 0.0000,  0.0000,  3.4336)
   2 I      4.486337    0.001624    7.569998    ( 0.0000,  0.0000, -0.1299)
   3 I      1.314123    2.272721    7.569079    ( 0.0000,  0.0000, -0.1299)
   4 I     -2.244051    3.883728    7.569084    ( 0.0000,  0.0000, -0.1299)
   5 I      2.624826   -0.000581   10.558832    ( 0.0000,  0.0000, -0.1299)
   6 I      2.241918    3.884451   10.559734    ( 0.0000,  0.0000, -0.1299)
   7 I      5.798276    2.274211   10.559740    ( 0.0000,  0.0000, -0.1299)
   8 Cr    -0.000001    0.000136   15.718443    ( 0.0000,  0.0000,  3.4336)
   9 Cr     3.555361    2.052565   15.706975    ( 0.0000,  0.0000,  3.4336)
  10 I      4.485901    4.105961   14.232222    ( 0.0000,  0.0000, -0.1299)
  11 I      4.868808    0.220930   14.231320    ( 0.0000,  0.0000, -0.1299)
  12 I      1.312452    1.831169   14.231314    ( 0.0000,  0.0000, -0.1299)
  13 I      2.624389    4.103754   17.221057    ( 0.0000,  0.0000, -0.1299)
  14 I      5.796602    1.832661   17.221975    ( 0.0000,  0.0000, -0.1299)
  15 I      2.244052    0.221653   17.221970    ( 0.0000,  0.0000, -0.1299)

Unit cell:
           periodic     x           y           z      points  spacing
  1. axis:    yes    7.110727   -0.000000    0.000000    42     0.1466
  2. axis:    yes   -3.555363    6.158070    0.000000    42     0.1466
  3. axis:    no     0.000000   -0.000000   27.269192   160     0.1704

  Lengths:   7.110727   7.110727  27.269192
  Angles:   90.000000  90.000000 120.000000

Effective grid spacing dv^(1/3) = 0.1617

                     log10-error:           total        iterations:
           time      wfs    density  force  energy       poisson  magmom
iter:   1  18:50:05  -2.79                 -70.302680             +12.0004
iter:   2  18:50:56  -3.90  -2.91          -70.302822             +12.0001
iter:   3  18:51:47  -4.51  -2.94          -70.302514             +12.0000
iter:   4  18:52:39  -4.90  -3.10          -70.302397             +12.0000
iter:   5  18:53:30  -5.24  -3.31          -70.302332             +12.0000
iter:   6  18:54:21  -5.87  -3.62          -70.302328             +12.0000
iter:   7  18:55:12  -5.84  -3.73          -70.302323             +12.0000
iter:   8  18:56:04  -6.00  -3.97          -70.302322             +12.0000
iter:   9  18:56:55  -6.36  -4.23          -70.302323             +12.0000
iter:  10  18:57:46  -6.55  -4.25          -70.302323             +12.0000
iter:  11  18:58:37  -6.69  -4.30          -70.302323             +12.0000
iter:  12  18:59:28  -6.90  -4.50          -70.302323             +12.0000
iter:  13  19:00:19  -7.05  -4.79          -70.302324             +12.0000
iter:  14  19:01:10  -7.20  -4.83          -70.302324             +12.0000
iter:  15  19:02:11  -7.40  -4.82          -70.302324             +12.0000
iter:  16  19:03:13  -7.55  -4.83    -3.41 -70.302324             +12.0000
iter:  17  19:04:15  -7.79  -4.82    -3.04 -70.302324             +12.0000
iter:  18  19:05:17  -8.01  -4.97    -3.43 -70.302324             +12.0000
iter:  19  19:06:18  -8.15  -4.99    -3.55 -70.302324             +12.0000
iter:  20  19:07:20  -8.23  -5.02    -3.32 -70.302324             +12.0000
iter:  21  19:08:22  -8.06  -5.14    -3.16 -70.302324             +12.0000
iter:  22  19:09:24  -8.36  -5.36    -3.80 -70.302324             +12.0000
iter:  23  19:10:26  -8.56  -5.37    -3.59 -70.302324             +12.0000
iter:  24  19:11:28  -8.61  -5.44    -3.77 -70.302324             +12.0000
iter:  25  19:12:30  -8.67  -5.47    -3.78 -70.302324             +12.0000
iter:  26  19:13:32  -9.03  -5.54    -3.97 -70.302324             +12.0000
iter:  27  19:14:33  -9.23  -5.65    -4.34 -70.302324             +12.0000

Converged after 27 iterations.

Dipole moment: (36.262970, -20.953960, -0.000263) |e|*Ang

Total magnetic moment: (0.000000, 0.000000, 12.000000)
Local magnetic moments:
   0 Cr ( 0.000000,  0.000000,  2.910159)
   1 Cr ( 0.000000,  0.000000,  2.915129)
   2 I  ( 0.000000,  0.000000, -0.048732)
   3 I  ( 0.000000,  0.000000, -0.048698)
   4 I  ( 0.000000,  0.000000, -0.048702)
   5 I  ( 0.000000,  0.000000, -0.047562)
   6 I  ( 0.000000,  0.000000, -0.047519)
   7 I  ( 0.000000,  0.000000, -0.047523)
   8 Cr ( 0.000000,  0.000000,  2.915130)
   9 Cr ( 0.000000,  0.000000,  2.910157)
  10 I  ( 0.000000,  0.000000, -0.047562)
  11 I  ( 0.000000,  0.000000, -0.047519)
  12 I  ( 0.000000,  0.000000, -0.047523)
  13 I  ( 0.000000,  0.000000, -0.048732)
  14 I  ( 0.000000,  0.000000, -0.048698)
  15 I  ( 0.000000,  0.000000, -0.048702)

Energy contributions relative to reference atoms: (reference = -2434708.556191)

Kinetic:        +19.460422
Potential:      -34.634720
External:        +0.000000
XC:             -55.307624
Entropy (-ST):   -0.000000
Local:           +0.179598
--------------------------
Free energy:    -70.302324
Extrapolated:   -70.302324

Spin contamination: 1.125178 electrons
Showing only first 2 kpts
                      Up                     Down
 Kpt  Band  Eigenvalues  Occupancy  Eigenvalues  Occupancy
  0    52     -2.11304    1.00000     -0.03466    0.00000
  0    53     -2.08786    1.00000     -0.02064    0.00000
  0    54     -2.03812    1.00000      0.18484    0.00000
  0    55     -2.03763    1.00000      0.20709    0.00000

  1    52     -2.10957    1.00000     -0.03502    0.00000
  1    53     -2.06905    1.00000     -0.00454    0.00000
  1    54     -2.04045    1.00000      0.17430    0.00000
  1    55     -2.00054    1.00000      0.20121    0.00000


Fermi level: -1.49189

Gap: 1.051 eV
Transition (v -> c):
  (s=0, k=138, n=59, [0.46, 0.04, 0.00]) -> (s=0, k=83, n=60, [0.04, 0.46, 0.00])

Forces in eV/Ang:
  0 Cr   -0.00012    0.00040   -0.16037
  1 Cr   -0.00010   -0.00035   -0.10757
  2 I    -0.01502    0.00625    0.08793
  3 I     0.01343    0.01061    0.08879
  4 I     0.00258   -0.01688    0.08878
  5 I    -0.03382   -0.01733    0.08754
  6 I     0.00154    0.03726    0.08699
  7 I     0.03158   -0.01993    0.08703
  8 Cr    0.00010    0.00035    0.10759
  9 Cr    0.00012   -0.00040    0.16039
 10 I     0.03383    0.01734   -0.08754
 11 I    -0.00154   -0.03726   -0.08700
 12 I    -0.03159    0.01993   -0.08704
 13 I     0.01502   -0.00624   -0.08794
 14 I    -0.01343   -0.01062   -0.08880
 15 I    -0.00259    0.01688   -0.08879

System changes: positions 

Initializing position-dependent things.

Density initialized from wave functions
                                       
                                       
                                       
                                       
                      I                
                            I          
                   I                   
                       Cr  I           
             Cr                        
                 I                     
                         I             
                                       
                     I                 
                             I         
               Cr                      
                   I   Cr              
          I                            
                 I                     
                        I              
                                       
                                       
                                       
                                       

Positions:
   0 Cr     3.555364    2.052845    9.107391    ( 0.0000,  0.0000,  3.4336)
   1 Cr    -0.000002    4.105209    9.092085    ( 0.0000,  0.0000,  3.4336)
   2 I      4.480948    0.002194    7.582112    ( 0.0000,  0.0000, -0.1299)
   3 I      1.317557    2.277493    7.580762    ( 0.0000,  0.0000, -0.1299)
   4 I     -2.241605    3.878388    7.580764    ( 0.0000,  0.0000, -0.1299)
   5 I      2.629731   -0.000413   10.584206    ( 0.0000,  0.0000, -0.1299)
   6 I      2.239372    3.879736   10.585543    ( 0.0000,  0.0000, -0.1299)
   7 I      5.795430    2.278761   10.585550    ( 0.0000,  0.0000, -0.1299)
   8 Cr     0.000002    0.000171   15.698966    ( 0.0000,  0.0000,  3.4336)
   9 Cr     3.555363    2.052535   15.683660    ( 0.0000,  0.0000,  3.4336)
  10 I      4.480995    4.105792   14.206849    ( 0.0000,  0.0000, -0.1299)
  11 I      4.871354    0.225644   14.205511    ( 0.0000,  0.0000, -0.1299)
  12 I      1.315298    1.826619   14.205504    ( 0.0000,  0.0000, -0.1299)
  13 I      2.629779    4.103184   17.208943    ( 0.0000,  0.0000, -0.1299)
  14 I      5.793168    1.827889   17.210293    ( 0.0000,  0.0000, -0.1299)
  15 I      2.241607    0.226993   17.210290    ( 0.0000,  0.0000, -0.1299)

Unit cell:
           periodic     x           y           z      points  spacing
  1. axis:    yes    7.110727   -0.000000    0.000000    42     0.1466
[...]
iter:   7  04:12:34  -9.54  -5.33    -3.82 -70.393895             +12.0000
iter:   8  04:13:37  -9.64  -5.41    -3.45 -70.393895             +12.0000
iter:   9  04:14:39  -9.97  -5.86    -3.99 -70.393895             +12.0000
iter:  10  04:15:41 -10.43  -6.06    -4.89 -70.393895             +12.0000

Converged after 10 iterations.

Dipole moment: (33.801636, -19.548236, -0.000248) |e|*Ang

Total magnetic moment: (0.000000, 0.000000, 12.000000)
Local magnetic moments:
   0 Cr ( 0.000000,  0.000000,  2.911262)
   1 Cr ( 0.000000,  0.000000,  2.915465)
   2 I  ( 0.000000,  0.000000, -0.046980)
   3 I  ( 0.000000,  0.000000, -0.046931)
   4 I  ( 0.000000,  0.000000, -0.046953)
   5 I  ( 0.000000,  0.000000, -0.049673)
   6 I  ( 0.000000,  0.000000, -0.049642)
   7 I  ( 0.000000,  0.000000, -0.049654)
   8 Cr ( 0.000000,  0.000000,  2.915465)
   9 Cr ( 0.000000,  0.000000,  2.911262)
  10 I  ( 0.000000,  0.000000, -0.049674)
  11 I  ( 0.000000,  0.000000, -0.049642)
  12 I  ( 0.000000,  0.000000, -0.049655)
  13 I  ( 0.000000,  0.000000, -0.046979)
  14 I  ( 0.000000,  0.000000, -0.046930)
  15 I  ( 0.000000,  0.000000, -0.046952)

Energy contributions relative to reference atoms: (reference = -2434708.556191)

Kinetic:        +23.265002
Potential:      -37.240233
External:        +0.000000
XC:             -56.595502
Entropy (-ST):   -0.000000
Local:           +0.176839
--------------------------
Free energy:    -70.393895
Extrapolated:   -70.393895

Spin contamination: 1.119540 electrons
Showing only first 2 kpts
                      Up                     Down
 Kpt  Band  Eigenvalues  Occupancy  Eigenvalues  Occupancy
  0    52     -2.13850    1.00000     -0.01223    0.00000
  0    53     -2.10285    1.00000      0.00327    0.00000
  0    54     -2.01942    1.00000      0.18047    0.00000
  0    55     -2.01856    1.00000      0.21117    0.00000

  1    52     -2.11787    1.00000     -0.01914    0.00000
  1    53     -2.07396    1.00000      0.01888    0.00000
  1    54     -2.02018    1.00000      0.17012    0.00000
  1    55     -1.98970    1.00000      0.20897    0.00000


Fermi level: -1.49189

Gap: 0.971 eV
Transition (v -> c):
  (s=0, k=132, n=59, [0.46, -0.46, 0.00]) -> (s=0, k=17, n=60, [-0.38, -0.04, 0.00])

Forces in eV/Ang:
  0 Cr    0.00054   -0.00089    0.00001
  1 Cr   -0.00050    0.00111   -0.00042
  2 I    -0.00091   -0.00029    0.00128
  3 I    -0.00053   -0.00018   -0.00066
  4 I     0.00033    0.00032   -0.00024
  5 I     0.00069   -0.00004   -0.00094
  6 I     0.00050    0.00043    0.00095
  7 I     0.00010   -0.00051    0.00056
  8 Cr    0.00050   -0.00111    0.00033
  9 Cr   -0.00054    0.00089   -0.00010
 10 I    -0.00070    0.00004    0.00097
 11 I    -0.00049   -0.00042   -0.00092
 12 I    -0.00009    0.00050   -0.00053
 13 I     0.00090    0.00029   -0.00125
 14 I     0.00054    0.00019    0.00069
 15 I    -0.00032   -0.00033    0.00027

System changes: positions 

Initializing position-dependent things.

Density initialized from wave functions
                                       
                                       
                                       
                                       
                      I                
                            I          
                   I                   
                       Cr  I           
             Cr                        
                 I                     
                         I             
                     I                 
                             I         
               Cr                      
                   I   Cr              
          I                            
                 I                     
                        I              
                                       
                                       
                                       
                                       

Positions:
   0 Cr     3.555646    2.052892    9.332338    ( 0.0000,  0.0000,  3.4336)
   1 Cr     0.000375    4.105310    9.315282    ( 0.0000,  0.0000,  3.4336)
   2 I      4.488561    0.006434    7.835584    ( 0.0000,  0.0000, -0.1299)
   3 I      1.317859    2.269115    7.834896    ( 0.0000,  0.0000, -0.1299)
   4 I     -2.248541    3.882754    7.834895    ( 0.0000,  0.0000, -0.1299)
   5 I      2.591691   -0.010733   10.800546    ( 0.0000,  0.0000, -0.1299)
   6 I      2.249960    3.918352   10.801234    ( 0.0000,  0.0000, -0.1299)
   7 I      5.824027    2.250698   10.801238    ( 0.0000,  0.0000, -0.1299)
   8 Cr    -0.000375    0.000070   15.475781    ( 0.0000,  0.0000,  3.4336)
   9 Cr     3.555081    2.052488   15.458726    ( 0.0000,  0.0000,  3.4336)
  10 I      4.519036    4.116113   13.990511    ( 0.0000,  0.0000, -0.1299)
  11 I      4.860767    0.187028   13.989823    ( 0.0000,  0.0000, -0.1299)
  12 I      1.286700    1.854682   13.989818    ( 0.0000,  0.0000, -0.1299)
  13 I      2.622166    4.098947   16.955473    ( 0.0000,  0.0000, -0.1299)
  14 I      5.792868    1.836265   16.956160    ( 0.0000,  0.0000, -0.1299)
  15 I      2.248541    0.222626   16.956162    ( 0.0000,  0.0000, -0.1299)

Unit cell:
           periodic     x           y           z      points  spacing
  1. axis:    yes    7.110727   -0.000000    0.000000    42     0.1466
  2. axis:    yes   -3.555363    6.158070    0.000000    42     0.1466
  3. axis:    no     0.000000   -0.000000   27.269192   160     0.1704

  Lengths:   7.110727   7.110727  27.269192
  Angles:   90.000000  90.000000 120.000000

Effective grid spacing dv^(1/3) = 0.1617

                     log10-error:           total        iterations:
           time      wfs    density  force  energy       poisson  magmom
iter:   1  04:16:53  -6.49                 -70.393896             +12.0000
iter:   2  04:17:44  -7.58  -4.52          -70.393896             +12.0000
iter:   3  04:18:45  -7.42  -4.61          -70.393896             +12.0000
iter:   4  04:19:48  -8.73  -4.88    -3.16 -70.393896             +12.0000
iter:   5  04:20:50  -8.49  -4.97    -2.87 -70.393896             +12.0000
iter:   6  04:21:53  -8.80  -5.27    -3.41 -70.393896             +12.0000
iter:   7  04:22:55  -9.32  -5.34    -3.71 -70.393895             +12.0000
iter:   8  04:23:58  -9.35  -5.48    -3.71 -70.393895             +12.0000
iter:   9  04:25:00  -9.56  -5.63    -3.70 -70.393895             +12.0000
iter:  10  04:26:03  -9.86  -5.89    -4.20 -70.393895             +12.0000

Converged after 10 iterations.

Dipole moment: (33.791519, -19.540585, -0.000243) |e|*Ang

Total magnetic moment: (0.000000, 0.000000, 12.000000)
Local magnetic moments:
   0 Cr ( 0.000000,  0.000000,  2.911292)
   1 Cr ( 0.000000,  0.000000,  2.915444)
   2 I  ( 0.000000,  0.000000, -0.046977)
   3 I  ( 0.000000,  0.000000, -0.046932)
   4 I  ( 0.000000,  0.000000, -0.046952)
   5 I  ( 0.000000,  0.000000, -0.049674)
   6 I  ( 0.000000,  0.000000, -0.049647)
   7 I  ( 0.000000,  0.000000, -0.049658)
   8 Cr ( 0.000000,  0.000000,  2.915444)
   9 Cr ( 0.000000,  0.000000,  2.911292)
  10 I  ( 0.000000,  0.000000, -0.049674)
  11 I  ( 0.000000,  0.000000, -0.049647)
  12 I  ( 0.000000,  0.000000, -0.049659)
  13 I  ( 0.000000,  0.000000, -0.046977)
  14 I  ( 0.000000,  0.000000, -0.046932)
  15 I  ( 0.000000,  0.000000, -0.046952)

Energy contributions relative to reference atoms: (reference = -2434708.556191)

Kinetic:        +23.266240
Potential:      -37.240598
External:        +0.000000
XC:             -56.596432
Entropy (-ST):   -0.000000
Local:           +0.176894
--------------------------
Free energy:    -70.393895
Extrapolated:   -70.393895

Spin contamination: 1.119570 electrons
Showing only first 2 kpts
                      Up                     Down
 Kpt  Band  Eigenvalues  Occupancy  Eigenvalues  Occupancy
  0    52     -2.13852    1.00000     -0.01215    0.00000
  0    53     -2.10283    1.00000      0.00333    0.00000
  0    54     -2.01937    1.00000      0.18048    0.00000
  0    55     -2.01850    1.00000      0.21118    0.00000

  1    52     -2.11786    1.00000     -0.01908    0.00000
  1    53     -2.07393    1.00000      0.01893    0.00000
  1    54     -2.02011    1.00000      0.17014    0.00000
  1    55     -1.98966    1.00000      0.20900    0.00000


Fermi level: -1.49189

Gap: 0.971 eV
Transition (v -> c):
  (s=0, k=11, n=59, [-0.46, 0.46, 0.00]) -> (s=0, k=17, n=60, [-0.38, -0.04, 0.00])

Forces in eV/Ang:
  0 Cr    0.00040   -0.00055   -0.00033
  1 Cr   -0.00036    0.00071    0.00038
  2 I    -0.00072    0.00020    0.00097
  3 I    -0.00010   -0.00035   -0.00065
  4 I    -0.00012    0.00005   -0.00033
  5 I     0.00062   -0.00008   -0.00097
  6 I     0.00035    0.00029    0.00059
  7 I     0.00011   -0.00030    0.00029
  8 Cr    0.00036   -0.00071   -0.00044
  9 Cr   -0.00040    0.00055    0.00027
 10 I    -0.00063    0.00008    0.00100
 11 I    -0.00035   -0.00028   -0.00057
 12 I    -0.00010    0.00029   -0.00027
 13 I     0.00071   -0.00020   -0.00095
 14 I     0.00010    0.00036    0.00067
 15 I     0.00012   -0.00006    0.00034

System changes: positions 

Initializing position-dependent things.

Density initialized from wave functions
                                       
                                       
                                       
                                       
                      I                
                            I          
                   I                   
                       Cr  I           
             Cr                        
                 I                     
                         I             
                     I                 
                             I         
               Cr                      
                   I   Cr              
          I                            
                 I                     
                        I              
                                       
                                       
                                       
                                       

Positions:
   0 Cr     3.555658    2.052875    9.332394    ( 0.0000,  0.0000,  3.4336)
   1 Cr     0.000365    4.105332    9.315306    ( 0.0000,  0.0000,  3.4336)
   2 I      4.488535    0.006443    7.835654    ( 0.0000,  0.0000, -0.1299)
   3 I      1.317861    2.269105    7.834924    ( 0.0000,  0.0000, -0.1299)
   4 I     -2.248547    3.882752    7.834931    ( 0.0000,  0.0000, -0.1299)
   5 I      2.591694   -0.010744   10.800570    ( 0.0000,  0.0000, -0.1299)
   6 I      2.249971    3.918380   10.801298    ( 0.0000,  0.0000, -0.1299)
   7 I      5.824047    2.250679   10.801295    ( 0.0000,  0.0000, -0.1299)
   8 Cr    -0.000365    0.000048   15.475755    ( 0.0000,  0.0000,  3.4336)
   9 Cr     3.555069    2.052505   15.458668    ( 0.0000,  0.0000,  3.4336)
  10 I      4.519033    4.116124   13.990488    ( 0.0000,  0.0000, -0.1299)
  11 I      4.860755    0.187000   13.989759    ( 0.0000,  0.0000, -0.1299)
  12 I      1.286680    1.854701   13.989762    ( 0.0000,  0.0000, -0.1299)
  13 I      2.622192    4.098937   16.955404    ( 0.0000,  0.0000, -0.1299)
  14 I      5.792866    1.836275   16.956134    ( 0.0000,  0.0000, -0.1299)
  15 I      2.248547    0.222628   16.956126    ( 0.0000,  0.0000, -0.1299)

Unit cell:
           periodic     x           y           z      points  spacing
  1. axis:    yes    7.110727   -0.000000    0.000000    42     0.1466
  2. axis:    yes   -3.555363    6.158070    0.000000    42     0.1466
  3. axis:    no     0.000000   -0.000000   27.269192   160     0.1704

  Lengths:   7.110727   7.110727  27.269192
  Angles:   90.000000  90.000000 120.000000

Effective grid spacing dv^(1/3) = 0.1617

                     log10-error:           total        iterations:
           time      wfs    density  force  energy       poisson  magmom
iter:   1  04:27:14  -7.51                 -70.393896             +12.0000
iter:   2  04:28:06  -8.71  -5.00          -70.393896             +12.0000
iter:   3  04:29:07  -8.70  -5.05          -70.393896             +12.0000
iter:   4  04:30:08  -9.65  -5.37    -3.94 -70.393896             +12.0000
iter:   5  04:31:10  -9.53  -5.50    -3.54 -70.393896             +12.0000
iter:   6  04:32:12  -9.63  -5.69    -3.65 -70.393896             +12.0000
iter:   7  04:33:14 -10.11  -5.83    -3.95 -70.393896             +12.0000
iter:   8  04:34:16 -10.43  -6.00    -4.56 -70.393896             +12.0000

Converged after 8 iterations.

Dipole moment: (33.790272, -19.538836, -0.000226) |e|*Ang

Total magnetic moment: (0.000000, 0.000000, 12.000000)
Local magnetic moments:
   0 Cr ( 0.000000,  0.000000,  2.911295)
   1 Cr ( 0.000000,  0.000000,  2.915448)
   2 I  ( 0.000000,  0.000000, -0.046976)
   3 I  ( 0.000000,  0.000000, -0.046934)
   4 I  ( 0.000000,  0.000000, -0.046952)
   5 I  ( 0.000000,  0.000000, -0.049674)
   6 I  ( 0.000000,  0.000000, -0.049649)
   7 I  ( 0.000000,  0.000000, -0.049660)
   8 Cr ( 0.000000,  0.000000,  2.915449)
   9 Cr ( 0.000000,  0.000000,  2.911295)
  10 I  ( 0.000000,  0.000000, -0.049674)
  11 I  ( 0.000000,  0.000000, -0.049650)
  12 I  ( 0.000000,  0.000000, -0.049660)
  13 I  ( 0.000000,  0.000000, -0.046976)
  14 I  ( 0.000000,  0.000000, -0.046934)
  15 I  ( 0.000000,  0.000000, -0.046952)

Energy contributions relative to reference atoms: (reference = -2434708.556191)

Kinetic:        +23.264657
Potential:      -37.239207
External:        +0.000000
XC:             -56.596509
Entropy (-ST):   -0.000000
Local:           +0.177163
--------------------------
Free energy:    -70.393896
Extrapolated:   -70.393896

Spin contamination: 1.119582 electrons
Showing only first 2 kpts
                      Up                     Down
 Kpt  Band  Eigenvalues  Occupancy  Eigenvalues  Occupancy
  0    52     -2.13853    1.00000     -0.01210    0.00000
  0    53     -2.10281    1.00000      0.00337    0.00000
  0    54     -2.01933    1.00000      0.18049    0.00000
  0    55     -2.01846    1.00000      0.21119    0.00000

  1    52     -2.11784    1.00000     -0.01904    0.00000
  1    53     -2.07391    1.00000      0.01897    0.00000
  1    54     -2.02006    1.00000      0.17015    0.00000
  1    55     -1.98963    1.00000      0.20903    0.00000


Fermi level: -1.49189

Gap: 0.971 eV
Transition (v -> c):
  (s=0, k=11, n=59, [-0.46, 0.46, 0.00]) -> (s=0, k=17, n=60, [-0.38, -0.04, 0.00])

Forces in eV/Ang:
  0 Cr    0.00026   -0.00027   -0.00025
  1 Cr   -0.00022    0.00038    0.00051
  2 I    -0.00049    0.00018    0.00069
  3 I    -0.00008   -0.00026   -0.00052
  4 I    -0.00019    0.00001   -0.00031
  5 I     0.00049   -0.00005   -0.00078
  6 I     0.00026    0.00013    0.00038
  7 I     0.00013   -0.00015    0.00020
  8 Cr    0.00022   -0.00038   -0.00054
  9 Cr   -0.00026    0.00027    0.00021
 10 I    -0.00050    0.00005    0.00079
 11 I    -0.00025   -0.00013   -0.00037
 12 I    -0.00012    0.00015   -0.00019
 13 I     0.00048   -0.00018   -0.00067
 14 I     0.00008    0.00026    0.00053
 15 I     0.00019   -0.00002    0.00032

Writing to CrI3_AB_relaxed.gpw (mode='')

Timing:                                      incl.     excl.
-------------------------------------------------------------------
Density initialized from wave functions:   240.116   240.113   0.5% |
 Symmetrize density:                         0.003     0.003   0.0% |
Forces:                                    428.483   428.483   0.9% |
Hamiltonian:                                86.847     0.577   0.0% |
 Atomic:                                     4.793     4.793   0.0% |
  XC Correction:                             0.000     0.000   0.0% |
 Calculate atomic Hamiltonians:             28.748    28.748   0.1% |
 Communicate:                                0.008     0.008   0.0% |
 Initialize Hamiltonian:                     0.003     0.003   0.0% |
 Poisson:                                    0.538     0.538   0.0% |
 XC 3D grid:                                52.181    52.181   0.1% |
LCAO initialization:                        19.763     0.143   0.0% |
 LCAO eigensolver:                           2.932     0.001   0.0% |
  Calculate projections:                     0.004     0.004   0.0% |
  DenseAtomicCorrection:                     0.005     0.005   0.0% |
  Distribute overlap matrix:                 0.000     0.000   0.0% |
  Orbital Layouts:                           0.026     0.026   0.0% |
  Potential matrix:                          2.893     2.893   0.0% |
  Sum over cells:                            0.003     0.003   0.0% |
 LCAO to grid:                              16.417    16.417   0.0% |
 Set positions (LCAO WFS):                   0.270     0.047   0.0% |
  Basic WFS set positions:                   0.001     0.001   0.0% |
  Basis functions set positions:             0.000     0.000   0.0% |
  P tci:                                     0.118     0.118   0.0% |
  ST tci:                                    0.062     0.062   0.0% |
  mktci:                                     0.042     0.042   0.0% |
PWDescriptor:                                0.640     0.640   0.0% |
Redistribute:                                0.189     0.189   0.0% |
SCF-cycle:                               45847.522  9538.749  20.3% |-------|
 Davidson:                               26361.658  4231.121   9.0% |---|
  Apply H:                                4560.518  4419.305   9.4% |---|
   HMM T:                                  141.213   141.213   0.3% |
  Subspace diag:                          5529.952     1.052   0.0% |
   calc_h_matrix:                         4912.770   361.332   0.8% |
    Apply H:                              4551.439  4406.447   9.4% |---|
     HMM T:                                144.992   144.992   0.3% |
   diagonalize:                              9.942     9.942   0.0% |
   rotate_psi:                             606.188   606.188   1.3% ||
  calc. matrices:                        10883.962  2034.786   4.3% |-|
   Apply H:                               8849.176  8580.581  18.3% |------|
    HMM T:                                 268.595   268.595   0.6% |
  diagonalize:                              93.757    93.757   0.2% |
  rotate_psi:                             1062.347  1062.347   2.3% ||
 Density:                                 4405.456     0.027   0.0% |
  Atomic density matrices:                   5.408     5.408   0.0% |
  Mix:                                     718.417   718.417   1.5% ||
  Multipole moments:                         0.346     0.346   0.0% |
  Pseudo density:                         3681.258  3681.207   7.8% |--|
   Symmetrize density:                       0.051     0.051   0.0% |
 Forces:                                  3909.579  3909.579   8.3% |--|
 Hamiltonian:                             1562.260     9.995   0.0% |
  Atomic:                                   92.102    92.098   0.2% |
   XC Correction:                            0.004     0.004   0.0% |
  Calculate atomic Hamiltonians:           515.802   515.802   1.1% |
  Communicate:                               0.153     0.153   0.0% |
  Poisson:                                   9.569     9.569   0.0% |
  XC 3D grid:                              934.639   934.639   2.0% ||
 Orthonormalize:                            69.821     0.061   0.0% |
  calc_s_matrix:                             9.275     9.275   0.0% |
  inverse-cholesky:                          0.167     0.167   0.0% |
  projections:                              42.676    42.676   0.1% |
  rotate_psi_s:                             17.642    17.642   0.0% |
Set symmetry:                                0.000     0.000   0.0% |
Other:                                     367.508   367.508   0.8% |
-------------------------------------------------------------------
Total:                                             46991.068 100.0%

Memory usage: 1.69 GiB
Date: Sat Jun 25 04:34:33 2022
