
  ___ ___ ___ _ _ _  
 |   |   |_  | | | | 
 | | | | | . | | | | 
 |__ |  _|___|_____|  21.6.1b1
 |___|_|             

User:   madkru@a085.nifl.fysik.dtu.dk
Date:   Fri Jul  8 16:27:31 2022
Arch:   x86_64
Pid:    13669
Python: 3.8.6
gpaw:   /home/niflheim/madkru/new_venv/gpaw/gpaw (1f0dfc9eae)
_gpaw:  /home/niflheim/madkru/new_venv/gpaw/build/lib.linux-x86_64-skylake-3.8/
        _gpaw.cpython-38-x86_64-linux-gnu.so (c1e45bfab3)
ase:    /home/niflheim/madkru/new_venv/ase/ase (version 3.23.0b1-ca38c75a67)
numpy:  /home/modules/software/SciPy-bundle/2020.11-foss-2020b/lib/python3.8/site-packages/numpy (version 1.19.4)
scipy:  /home/modules/software/SciPy-bundle/2020.11-foss-2020b/lib/python3.8/site-packages/scipy (version 1.5.4)
libxc:  4.3.4
units:  Angstrom and eV
cores: 40
OpenMP: False
OMP_NUM_THREADS: 1

Input parameters:
  convergence: {density: 1e-09}
  experimental: {magmoms: [[0. 0. 3.]
 [0. 0. 3.]
 [0. 0. 0.]
 ...
 [0. 0. 0.]
 [0. 0. 0.]
 [0. 0. 0.]],
                 soc: True}
  kpts: [8 8 1]
  maxiter: 5000
  mixer: {backend: pulay,
          beta: 0.02,
          method: difference,
          nmaxold: 5,
          weight: 100}
  mode: {ecut: 800.0,
         gammacentered: False,
         name: pw}
  occupations: {name: fermi-dirac,
                width: 0.001}
  symmetry: off

System changes: positions, numbers, cell, pbc, initial_charges, initial_magmoms 

Initialize ...

Cr-setup:
  name: Chromium
  id: 444e8044bc0f91048286c984738d87f5
  Z: 24.0
  valence: 6
  core: 18
  charge: 0.0
  file: /home/modules/software/GPAW-setups/0.9.20000/Cr.LDA.gz
  compensation charges: gauss, rc=0.35, lmax=2
  cutoffs: 2.14(filt), 3.04(core),
  valence states:
                energy  radius
    4s(1.00)    -4.191   1.164
    4p(0.00)    -1.079   1.217
    3d(5.00)    -3.128   1.111
    *s          23.021   1.164
    *p          26.132   1.217
    *d          24.083   1.111

  Using partial waves for Cr as LCAO basis

I-setup:
  name: Iodine
  id: b559721c0c096a7b4c8fc0e0f4de5cf4
  Z: 53.0
  valence: 7
  core: 46
  charge: 0.0
  file: /home/modules/software/GPAW-setups/0.9.20000/I.LDA.gz
  compensation charges: gauss, rc=0.37, lmax=2
  cutoffs: 2.06(filt), 2.90(core),
  valence states:
                energy  radius
    5s(2.00)   -17.626   1.164
    5p(5.00)    -7.241   1.164
    *s           9.585   1.164
    *p          19.970   1.164
    *d           0.000   1.164

  Using partial waves for I as LCAO basis

Reference energy: -2434708.556191

Non-collinear calculation.
Magnetic moment: (0.000000, 0.000000, 12.000000)

Convergence criteria:
  Maximum total energy change: 0.0005 eV / electron
  Maximum integral of absolute density change: 1e-09 electrons
  Maximum integral of absolute eigenstate change: 4e-08 eV^2
  Maximum number of iterations: 5000

Symmetries present (total): 1

  ( 1  0  0)
  ( 0  1  0)
  ( 0  0  1)

64 k-points: 8 x 8 x 1 Monkhorst-Pack grid
64 k-points in the irreducible part of the Brillouin zone
       k-points in crystal coordinates                weights
   0:    -0.43750000   -0.43750000    0.00000000          1/64
   1:    -0.43750000   -0.31250000    0.00000000          1/64
   2:    -0.43750000   -0.18750000    0.00000000          1/64
   3:    -0.43750000   -0.06250000    0.00000000          1/64
   4:    -0.43750000    0.06250000    0.00000000          1/64
   5:    -0.43750000    0.18750000    0.00000000          1/64
   6:    -0.43750000    0.31250000    0.00000000          1/64
   7:    -0.43750000    0.43750000    0.00000000          1/64
   8:    -0.31250000   -0.43750000    0.00000000          1/64
   9:    -0.31250000   -0.31250000    0.00000000          1/64
          ...
  63:     0.43750000    0.43750000    0.00000000          1/64

Wave functions: Plane wave expansion
  Cutoff energy: 800.000 eV
  Number of coefficients (min, max): 61276, 61425
  Pulay-stress correction: 0.000000 eV/Ang^3 (de/decut=0.000000)
  Using FFTW library
  ScaLapack parameters: grid=1x1, blocksize=None
  Wavefunction extrapolation:
    Improved wavefunction reuse through dual PAW basis 

Occupation numbers: Fermi-Dirac: width=0.0010 eV
 

Eigensolver
   Davidson(niter=2) 

Densities:
  Coarse grid: 48*48*180 grid
  Fine grid: 96*96*360 grid
  Total Charge: 0.000000 

Density mixing:
  Method: difference
  Backend: pulay
  Linear mixing parameter: 0.02
  Mixing with 5 old densities
  Damping of long wave oscillations: 100 

Hamiltonian:
  XC and Coulomb potentials evaluated on a 96*96*360 grid
  Using the LDA Exchange-Correlation functional
  External potential:
    <gpaw.external.NoExternalPotential object at 0x2b45e6f09bb0>
 

Memory estimate:
  Process memory now: 2292.68 MiB
  Calculator: 608.88 MiB
    Density: 233.32 MiB
      Arrays: 82.27 MiB
      Localized functions: 81.44 MiB
      Mixer: 69.61 MiB
    Hamiltonian: 55.77 MiB
      Arrays: 53.79 MiB
      XC: 0.00 MiB
      Poisson: 0.00 MiB
      vbar: 1.99 MiB
    Wavefunctions: 319.78 MiB
      Arrays psit_nG: 142.47 MiB
      Eigensolver: 150.68 MiB
      Projections: 0.53 MiB
      Projectors: 9.35 MiB
      PW-descriptor: 16.76 MiB

Total number of cores used: 40
Parallelization over k-points: 40

Number of atoms: 16
Number of atomic orbitals: 84
Number of bands in calculation: 152
Number of valence electrons: 108
Bands to converge: occupied

... initialized

Initializing position-dependent things.

Density initialized from atomic densities
Creating initial wave functions:
  84 bands from LCAO basis set
  68 bands from random numbers

                                       
                                       
                                       
                                       
                      I                
                            I          
                   I                   
                       Cr  I           
             Cr                        
                 I                     
                         I             
                     I                 
                             I         
               Cr                      
                   I   Cr              
          I                            
                 I                     
                        I              
                                       
                                       
                                       
                                       

Positions:
   0 Cr     3.546906    2.052776    9.332323    ( 0.0000,  0.0000,  3.0000)
   1 Cr    -0.007904    4.104886    9.315253    ( 0.0000,  0.0000,  3.0000)
   2 I      4.489220    0.006151    7.837792    ( 0.0000,  0.0000,  0.0000)
   3 I      1.321981    2.266703    7.833571    ( 0.0000,  0.0000,  0.0000)
   4 I     -2.244235    3.884414    7.833961    ( 0.0000,  0.0000,  0.0000)
   5 I      2.592018   -0.010840   10.802718    ( 0.0000,  0.0000,  0.0000)
   6 I      2.253731    3.915794   10.799694    ( 0.0000,  0.0000,  0.0000)
   7 I      5.828289    2.252342   10.800589    ( 0.0000,  0.0000,  0.0000)
   8 Cr    -0.008735    0.000270   15.475799    ( 0.0000,  0.0000,  3.0000)
   9 Cr     3.546074    2.053138   15.458740    ( 0.0000,  0.0000,  3.0000)
  10 I      4.519248    4.116645   13.992727    ( 0.0000,  0.0000,  0.0000)
  11 I      4.864435    0.185108   13.988316    ( 0.0000,  0.0000,  0.0000)
  12 I      1.290869    1.856865   13.989058    ( 0.0000,  0.0000,  0.0000)
  13 I      2.622751    4.099358   16.957664    ( 0.0000,  0.0000,  0.0000)
  14 I      5.796907    1.834578   16.954892    ( 0.0000,  0.0000,  0.0000)
  15 I      2.252806    0.224879   16.955255    ( 0.0000,  0.0000,  0.0000)

Unit cell:
           periodic     x           y           z      points  spacing
  1. axis:    yes    7.110727   -0.000000    0.000000    48     0.1283
  2. axis:    yes   -3.555363    6.158070    0.000000    48     0.1283
  3. axis:    no     0.000000   -0.000000   27.269192   180     0.1515

  Lengths:   7.110727   7.110727  27.269192
  Angles:   90.000000  90.000000 120.000000

Effective grid spacing dv^(1/3) = 0.1423

                     log10-error:    total        iterations:
           time      wfs    density  energy       poisson
iter:   1  16:30:05                 -80.697069            +0.0,+0.0,+11.9
iter:   2  16:32:19  -1.10  -0.86   -75.811196            -0.0,+0.0,+9.4
iter:   3  16:34:33  -1.46  -1.05   -72.997156            +0.0,+0.0,+9.9
iter:   4  16:36:45  -1.47  -1.35   -72.623959            +0.0,+0.0,+9.9
iter:   5  16:38:58  -1.72  -1.41   -73.882919            -0.0,-0.0,+11.4
iter:   6  16:41:11  -2.32  -1.41   -73.532435            -0.0,-0.0,+12.0
iter:   7  16:43:25  -1.41  -1.64   -72.995569            -0.0,-0.0,+12.1
iter:   8  16:45:38  -2.41  -2.05   -73.004554            -0.0,-0.0,+12.1
iter:   9  16:47:52  -3.26  -2.08   -72.995088            -0.0,-0.0,+12.1
iter:  10  16:50:05  -2.98  -2.09   -72.974991            -0.0,-0.0,+12.1
iter:  11  16:52:19  -3.59  -2.39   -72.973349            -0.0,-0.0,+12.1
iter:  12  16:54:33  -3.79  -2.48   -72.970400            -0.0,-0.0,+12.1
iter:  13  16:56:46  -3.79  -2.63   -72.970545            -0.0,-0.0,+12.1
iter:  14  16:58:59  -4.20  -2.70   -72.970093            -0.0,-0.0,+12.1
iter:  15  17:01:12  -4.36  -2.74   -72.970228            -0.0,-0.0,+12.1
iter:  16  17:03:25  -4.13  -2.75   -72.970809            -0.0,-0.0,+12.1
iter:  17  17:05:38  -4.55  -2.86   -72.970588            -0.0,-0.0,+12.1
iter:  18  17:07:52  -4.25  -2.90   -72.970077            -0.0,-0.0,+12.1
iter:  19  17:10:05  -4.73  -3.15   -72.970240            -0.0,-0.0,+12.1
iter:  20  17:12:19  -5.01  -3.24   -72.970125            -0.0,-0.0,+12.1
iter:  21  17:14:32  -4.94  -3.30   -72.969984            -0.0,-0.0,+12.1
iter:  22  17:16:45  -5.20  -3.42   -72.970002            -0.0,-0.0,+12.1
iter:  23  17:18:59  -5.28  -3.45   -72.970002            -0.0,-0.0,+12.1
iter:  24  17:21:13  -5.41  -3.70   -72.969982            -0.0,-0.0,+12.1
iter:  25  17:23:26  -5.61  -3.81   -72.969995            -0.0,-0.0,+12.1
iter:  26  17:25:40  -5.63  -3.80   -72.970002            -0.0,-0.0,+12.1
iter:  27  17:27:53  -5.89  -3.79   -72.970016            -0.0,-0.0,+12.1
iter:  28  17:30:07  -5.97  -3.75   -72.970016            -0.0,-0.0,+12.1
iter:  29  17:32:20  -6.09  -3.77   -72.970017            -0.0,-0.0,+12.1
iter:  30  17:34:33  -5.93  -3.70   -72.970031            -0.0,-0.0,+12.1
iter:  31  17:36:46  -6.25  -3.80   -72.970024            -0.0,-0.0,+12.1
iter:  32  17:39:00  -6.30  -3.78   -72.970033            -0.0,-0.0,+12.1
iter:  33  17:41:13  -6.46  -3.78   -72.970031            -0.0,-0.0,+12.1
iter:  34  17:43:27  -6.06  -3.80   -72.970017            -0.0,-0.0,+12.1
iter:  35  17:45:41  -6.48  -4.36   -72.970017            -0.0,-0.0,+12.1
iter:  36  17:47:54  -6.80  -4.45   -72.970017            -0.0,-0.0,+12.1
iter:  37  17:50:08  -7.02  -4.50   -72.970017            -0.0,-0.0,+12.1
iter:  38  17:52:21  -7.20  -4.53   -72.970017            -0.0,-0.0,+12.1
iter:  39  17:54:35  -7.23  -4.54   -72.970017            -0.0,-0.0,+12.1
iter:  40  17:56:48  -7.42  -4.62   -72.970018            -0.0,-0.0,+12.1
iter:  41  17:59:02  -7.44  -4.67   -72.970018            -0.0,-0.0,+12.1
iter:  42  18:01:15  -7.53  -4.72   -72.970018            -0.0,-0.0,+12.1
iter:  43  18:03:29  -6.94  -4.76   -72.970018            -0.0,-0.0,+12.1
iter:  44  18:05:43  -7.43  -4.78   -72.970018            -0.0,-0.0,+12.1
iter:  45  18:07:56  -7.67  -4.93   -72.970018            -0.0,-0.0,+12.1
iter:  46  18:10:09  -7.88  -5.05   -72.970018            -0.0,-0.0,+12.1
iter:  47  18:12:23  -8.00  -5.20   -72.970018            -0.0,-0.0,+12.1
iter:  48  18:14:36  -8.28  -5.22   -72.970018            -0.0,-0.0,+12.1
iter:  49  18:16:49  -8.38  -5.25   -72.970018            -0.0,-0.0,+12.1
iter:  50  18:19:03  -8.43  -5.38   -72.970018            -0.0,-0.0,+12.1
iter:  51  18:21:16  -8.58  -5.47   -72.970018            -0.0,-0.0,+12.1
iter:  52  18:23:29  -8.55  -5.51   -72.970018            -0.0,-0.0,+12.1
iter:  53  18:25:42  -8.54  -5.46   -72.970018            -0.0,-0.0,+12.1
iter:  54  18:27:56  -8.09  -5.45   -72.970018            -0.0,-0.0,+12.1
iter:  55  18:30:09  -7.60  -5.49   -72.970019            -0.0,-0.0,+12.1
iter:  56  18:32:22  -7.28  -5.46   -72.970019            -0.0,-0.0,+12.1
iter:  57  18:34:36  -7.64  -5.47   -72.970019            -0.0,-0.0,+12.1
iter:  58  18:36:49  -8.70  -5.41   -72.970019            -0.0,-0.0,+12.1
iter:  59  18:39:02  -8.66  -5.46   -72.970019            -0.0,-0.0,+12.1
iter:  60  18:41:16  -8.70  -5.48   -72.970019            -0.0,-0.0,+12.1
iter:  61  18:43:30  -8.97  -5.46   -72.970019            -0.0,-0.0,+12.1
iter:  62  18:45:43  -8.15  -5.44   -72.970019            -0.0,-0.0,+12.1
iter:  63  18:47:57  -8.24  -5.42   -72.970019            -0.0,-0.0,+12.1
iter:  64  18:50:10  -8.96  -5.57   -72.970019            -0.0,-0.0,+12.1
iter:  65  18:52:23  -8.17  -5.50   -72.970019            -0.0,-0.0,+12.1
iter:  66  18:54:37  -8.89  -5.49   -72.970019            -0.0,-0.0,+12.1
iter:  67  18:56:50  -9.17  -5.55   -72.970018            -0.0,-0.0,+12.1
iter:  68  18:59:03  -9.42  -5.55   -72.970018            -0.0,-0.0,+12.1
iter:  69  19:01:16  -9.69  -5.51   -72.970018            -0.0,-0.0,+12.1
iter:  70  19:03:30  -9.78  -5.53   -72.970019            -0.0,-0.0,+12.1
iter:  71  19:05:43  -9.73  -5.54   -72.970019            -0.0,-0.0,+12.1
iter:  72  19:07:55  -8.94  -5.58   -72.970021            -0.0,-0.0,+12.1
iter:  73  19:10:08  -8.32  -5.56   -72.970026            -0.0,-0.0,+12.1
iter:  74  19:12:21  -9.01  -5.56   -72.970042            -0.0,-0.0,+12.1
iter:  75  19:14:35  -9.32  -5.55   -72.969875            -0.0,-0.0,+12.1
iter:  76  19:16:48  -9.75  -5.59   -72.969521            -0.0,-0.0,+12.1
iter:  77  19:19:01  -9.67  -5.87   -72.969601            -0.0,-0.0,+12.1
iter:  78  19:21:14  -9.00  -5.92   -72.969739            -0.0,-0.0,+12.1
iter:  79  19:23:27  -9.26  -5.86   -72.969706            -0.0,-0.0,+12.1
iter:  80  19:25:41 -10.17  -5.94   -72.969864            -0.0,-0.0,+12.1
iter:  81  19:27:54  -8.89  -6.03   -72.970069            -0.0,-0.0,+12.1
iter:  82  19:30:07  -8.25  -5.99   -72.969928            -0.0,-0.0,+12.1
iter:  83  19:32:20  -8.94  -6.01   -72.969989            -0.0,-0.0,+12.1
iter:  84  19:34:33  -9.42  -6.01   -72.970053            -0.0,-0.0,+12.1
iter:  85  19:36:46  -8.52  -6.06   -72.969908            -0.0,-0.0,+12.1
