
  ___ ___ ___ _ _ _  
 |   |   |_  | | | | 
 | | | | | . | | | | 
 |__ |  _|___|_____|  21.6.1b1
 |___|_|             

User:   madkru@a085.nifl.fysik.dtu.dk
Date:   Thu Jul  7 22:48:59 2022
Arch:   x86_64
Pid:    13669
Python: 3.8.6
gpaw:   /home/niflheim/madkru/new_venv/gpaw/gpaw (1f0dfc9eae)
_gpaw:  /home/niflheim/madkru/new_venv/gpaw/build/lib.linux-x86_64-skylake-3.8/
        _gpaw.cpython-38-x86_64-linux-gnu.so (c1e45bfab3)
ase:    /home/niflheim/madkru/new_venv/ase/ase (version 3.23.0b1-ca38c75a67)
numpy:  /home/modules/software/SciPy-bundle/2020.11-foss-2020b/lib/python3.8/site-packages/numpy (version 1.19.4)
scipy:  /home/modules/software/SciPy-bundle/2020.11-foss-2020b/lib/python3.8/site-packages/scipy (version 1.5.4)
libxc:  4.3.4
units:  Angstrom and eV
cores: 40
OpenMP: False
OMP_NUM_THREADS: 1

Input parameters:
  convergence: {density: 1e-09}
  experimental: {magmoms: [[0. 0. 3.]
 [0. 0. 3.]
 [0. 0. 0.]
 ...
 [0. 0. 0.]
 [0. 0. 0.]
 [0. 0. 0.]],
                 soc: True}
  kpts: [8 8 1]
  maxiter: 5000
  mixer: {backend: pulay,
          beta: 0.02,
          method: difference,
          nmaxold: 5,
          weight: 100}
  mode: {ecut: 800.0,
         gammacentered: False,
         name: pw}
  occupations: {name: fermi-dirac,
                width: 0.001}
  symmetry: off

System changes: positions, numbers, cell, pbc, initial_charges, initial_magmoms 

Initialize ...

Cr-setup:
  name: Chromium
  id: 444e8044bc0f91048286c984738d87f5
  Z: 24.0
  valence: 6
  core: 18
  charge: 0.0
  file: /home/modules/software/GPAW-setups/0.9.20000/Cr.LDA.gz
  compensation charges: gauss, rc=0.35, lmax=2
  cutoffs: 2.14(filt), 3.04(core),
  valence states:
                energy  radius
    4s(1.00)    -4.191   1.164
    4p(0.00)    -1.079   1.217
    3d(5.00)    -3.128   1.111
    *s          23.021   1.164
    *p          26.132   1.217
    *d          24.083   1.111

  Using partial waves for Cr as LCAO basis

I-setup:
  name: Iodine
  id: b559721c0c096a7b4c8fc0e0f4de5cf4
  Z: 53.0
  valence: 7
  core: 46
  charge: 0.0
  file: /home/modules/software/GPAW-setups/0.9.20000/I.LDA.gz
  compensation charges: gauss, rc=0.37, lmax=2
  cutoffs: 2.06(filt), 2.90(core),
  valence states:
                energy  radius
    5s(2.00)   -17.626   1.164
    5p(5.00)    -7.241   1.164
    *s           9.585   1.164
    *p          19.970   1.164
    *d           0.000   1.164

  Using partial waves for I as LCAO basis

Reference energy: -2434708.556191

Non-collinear calculation.
Magnetic moment: (0.000000, 0.000000, 12.000000)

Convergence criteria:
  Maximum total energy change: 0.0005 eV / electron
  Maximum integral of absolute density change: 1e-09 electrons
  Maximum integral of absolute eigenstate change: 4e-08 eV^2
  Maximum number of iterations: 5000

Symmetries present (total): 1

  ( 1  0  0)
  ( 0  1  0)
  ( 0  0  1)

64 k-points: 8 x 8 x 1 Monkhorst-Pack grid
64 k-points in the irreducible part of the Brillouin zone
       k-points in crystal coordinates                weights
   0:    -0.43750000   -0.43750000    0.00000000          1/64
   1:    -0.43750000   -0.31250000    0.00000000          1/64
   2:    -0.43750000   -0.18750000    0.00000000          1/64
   3:    -0.43750000   -0.06250000    0.00000000          1/64
   4:    -0.43750000    0.06250000    0.00000000          1/64
   5:    -0.43750000    0.18750000    0.00000000          1/64
   6:    -0.43750000    0.31250000    0.00000000          1/64
   7:    -0.43750000    0.43750000    0.00000000          1/64
   8:    -0.31250000   -0.43750000    0.00000000          1/64
   9:    -0.31250000   -0.31250000    0.00000000          1/64
          ...
  63:     0.43750000    0.43750000    0.00000000          1/64

Wave functions: Plane wave expansion
  Cutoff energy: 800.000 eV
  Number of coefficients (min, max): 61276, 61425
  Pulay-stress correction: 0.000000 eV/Ang^3 (de/decut=0.000000)
  Using FFTW library
  ScaLapack parameters: grid=1x1, blocksize=None
  Wavefunction extrapolation:
    Improved wavefunction reuse through dual PAW basis 

Occupation numbers: Fermi-Dirac: width=0.0010 eV
 

Eigensolver
   Davidson(niter=2) 

Densities:
  Coarse grid: 48*48*180 grid
  Fine grid: 96*96*360 grid
  Total Charge: 0.000000 

Density mixing:
  Method: difference
  Backend: pulay
  Linear mixing parameter: 0.02
  Mixing with 5 old densities
  Damping of long wave oscillations: 100 

Hamiltonian:
  XC and Coulomb potentials evaluated on a 96*96*360 grid
  Using the LDA Exchange-Correlation functional
  External potential:
    <gpaw.external.NoExternalPotential object at 0x2b45de27bf10>
 

Memory estimate:
  Process memory now: 2260.98 MiB
  Calculator: 608.88 MiB
    Density: 233.32 MiB
      Arrays: 82.27 MiB
      Localized functions: 81.44 MiB
      Mixer: 69.61 MiB
    Hamiltonian: 55.77 MiB
      Arrays: 53.79 MiB
      XC: 0.00 MiB
      Poisson: 0.00 MiB
      vbar: 1.99 MiB
    Wavefunctions: 319.78 MiB
      Arrays psit_nG: 142.47 MiB
      Eigensolver: 150.68 MiB
      Projections: 0.53 MiB
      Projectors: 9.35 MiB
      PW-descriptor: 16.76 MiB

Total number of cores used: 40
Parallelization over k-points: 40

Number of atoms: 16
Number of atomic orbitals: 84
Number of bands in calculation: 152
Number of valence electrons: 108
Bands to converge: occupied

... initialized

Initializing position-dependent things.

Density initialized from atomic densities
Creating initial wave functions:
  84 bands from LCAO basis set
  68 bands from random numbers

                                       
                                       
                                       
                                       
                      I                
                            I          
                   I                   
                       Cr  I           
             Cr                        
                 I                     
                         I             
                     I                 
                             I         
               Cr                      
                   I   Cr              
          I                            
                 I                     
                        I              
                                       
                                       
                                       
                                       

Positions:
   0 Cr     3.543989    2.052742    9.332299    ( 0.0000,  0.0000,  3.0000)
   1 Cr    -0.010660    4.104738    9.315236    ( 0.0000,  0.0000,  3.0000)
   2 I      4.489448    0.006054    7.838505    ( 0.0000,  0.0000,  0.0000)
   3 I      1.323355    2.265902    7.833120    ( 0.0000,  0.0000,  0.0000)
   4 I     -2.242798    3.884968    7.833638    ( 0.0000,  0.0000,  0.0000)
   5 I      2.592126   -0.010872   10.803434    ( 0.0000,  0.0000,  0.0000)
   6 I      2.254984    3.914932   10.799159    ( 0.0000,  0.0000,  0.0000)
   7 I      5.829702    2.252896   10.800353    ( 0.0000,  0.0000,  0.0000)
   8 Cr    -0.011525    0.000344   15.475814    ( 0.0000,  0.0000,  3.0000)
   9 Cr     3.543076    2.053349   15.458764    ( 0.0000,  0.0000,  3.0000)
  10 I      4.519320    4.116819   13.993473    ( 0.0000,  0.0000,  0.0000)
  11 I      4.865662    0.184477   13.987835    ( 0.0000,  0.0000,  0.0000)
  12 I      1.292265    1.857586   13.988823    ( 0.0000,  0.0000,  0.0000)
  13 I      2.622937    4.099498   16.958417    ( 0.0000,  0.0000,  0.0000)
  14 I      5.798254    1.834012   16.954478    ( 0.0000,  0.0000,  0.0000)
  15 I      2.254226    0.225629   16.954964    ( 0.0000,  0.0000,  0.0000)

Unit cell:
           periodic     x           y           z      points  spacing
  1. axis:    yes    7.110727   -0.000000    0.000000    48     0.1283
  2. axis:    yes   -3.555363    6.158070    0.000000    48     0.1283
  3. axis:    no     0.000000   -0.000000   27.269192   180     0.1515

  Lengths:   7.110727   7.110727  27.269192
  Angles:   90.000000  90.000000 120.000000

Effective grid spacing dv^(1/3) = 0.1423

                     log10-error:    total        iterations:
           time      wfs    density  energy       poisson
iter:   1  22:51:34                 -80.697062            +0.0,+0.0,+11.9
iter:   2  22:53:48  -1.10  -0.86   -75.810380            +0.0,+0.0,+9.4
iter:   3  22:56:01  -1.46  -1.05   -72.995095            +0.0,+0.0,+9.9
iter:   4  22:58:14  -1.47  -1.35   -72.622199            +0.0,+0.0,+9.9
iter:   5  23:00:26  -1.72  -1.41   -73.881022            -0.0,-0.0,+11.4
iter:   6  23:02:40  -2.32  -1.41   -73.530632            -0.0,-0.0,+12.0
iter:   7  23:04:54  -1.41  -1.64   -72.994007            -0.0,-0.0,+12.1
iter:   8  23:07:08  -2.42  -2.05   -73.002938            -0.0,-0.0,+12.1
iter:   9  23:09:21  -3.26  -2.08   -72.993514            -0.0,-0.0,+12.1
iter:  10  23:11:35  -2.98  -2.09   -72.973449            -0.0,-0.0,+12.1
iter:  11  23:13:48  -3.59  -2.39   -72.971704            -0.0,-0.0,+12.1
iter:  12  23:16:02  -3.79  -2.48   -72.968744            -0.0,-0.0,+12.1
iter:  13  23:18:16  -3.79  -2.63   -72.968935            -0.0,-0.0,+12.1
iter:  14  23:20:30  -4.19  -2.70   -72.968464            -0.0,-0.0,+12.1
iter:  15  23:22:43  -4.36  -2.75   -72.968612            -0.0,-0.0,+12.1
iter:  16  23:24:57  -4.13  -2.76   -72.969160            -0.0,-0.0,+12.1
iter:  17  23:27:11  -4.55  -2.88   -72.968960            -0.0,-0.0,+12.1
iter:  18  23:29:25  -4.24  -2.91   -72.968443            -0.0,-0.0,+12.1
iter:  19  23:31:38  -4.73  -3.17   -72.968600            -0.0,-0.0,+12.1
iter:  20  23:33:52  -5.01  -3.26   -72.968495            -0.0,-0.0,+12.1
iter:  21  23:36:06  -4.98  -3.32   -72.968382            -0.0,-0.0,+12.1
iter:  22  23:38:20  -5.21  -3.42   -72.968397            -0.0,-0.0,+12.1
iter:  23  23:40:33  -5.32  -3.45   -72.968389            -0.0,-0.0,+12.1
iter:  24  23:42:47  -5.42  -3.63   -72.968378            -0.0,-0.0,+12.1
iter:  25  23:45:00  -5.53  -3.73   -72.968398            -0.0,-0.0,+12.1
iter:  26  23:47:15  -5.78  -3.68   -72.968413            -0.0,-0.0,+12.1
iter:  27  23:49:28  -5.85  -3.67   -72.968410            -0.0,-0.0,+12.1
iter:  28  23:51:42  -5.99  -3.70   -72.968413            -0.0,-0.0,+12.1
iter:  29  23:53:56  -5.98  -3.70   -72.968432            -0.0,-0.0,+12.1
iter:  30  23:56:10  -5.89  -3.59   -72.968436            -0.0,-0.0,+12.1
iter:  31  23:58:23  -6.22  -3.67   -72.968428            -0.0,-0.0,+12.1
iter:  32  00:00:38  -6.41  -3.72   -72.968419            -0.0,-0.0,+12.1
iter:  33  00:02:51  -6.41  -3.71   -72.968434            -0.0,-0.0,+12.1
iter:  34  00:05:05  -6.79  -3.70   -72.968436            -0.0,-0.0,+12.1
iter:  35  00:07:19  -6.69  -3.71   -72.968432            -0.0,-0.0,+12.1
iter:  36  00:09:33  -6.12  -3.80   -72.968414            -0.0,-0.0,+12.1
iter:  37  00:11:46  -6.67  -4.01   -72.968412            -0.0,-0.0,+12.1
iter:  38  00:14:00  -6.74  -4.08   -72.968408            -0.0,-0.0,+12.1
iter:  39  00:16:14  -7.09  -4.26   -72.968408            -0.0,-0.0,+12.1
iter:  40  00:18:28  -7.29  -4.26   -72.968408            -0.0,-0.0,+12.1
iter:  41  00:20:42  -7.41  -4.31   -72.968408            -0.0,-0.0,+12.1
iter:  42  00:22:55  -7.64  -4.35   -72.968408            -0.0,-0.0,+12.1
iter:  43  00:25:08  -7.66  -4.37   -72.968408            -0.0,-0.0,+12.1
iter:  44  00:27:22  -7.20  -4.42   -72.968408            -0.0,-0.0,+12.1
iter:  45  00:29:35  -6.98  -4.53   -72.968409            -0.0,-0.0,+12.1
iter:  46  00:31:49  -6.94  -4.60   -72.968409            -0.0,-0.0,+12.1
iter:  47  00:34:03  -7.42  -4.74   -72.968409            -0.0,-0.0,+12.1
iter:  48  00:36:16  -7.80  -4.82   -72.968409            -0.0,-0.0,+12.1
iter:  49  00:38:30  -7.41  -4.83   -72.968409            -0.0,-0.0,+12.1
iter:  50  00:40:43  -7.45  -4.85   -72.968409            -0.0,-0.0,+12.1
iter:  51  00:42:56  -8.19  -5.04   -72.968409            -0.0,-0.0,+12.1
iter:  52  00:45:10  -8.20  -5.13   -72.968409            -0.0,-0.0,+12.1
iter:  53  00:47:23  -8.51  -5.16   -72.968409            -0.0,-0.0,+12.1
iter:  54  00:49:37  -8.55  -5.26   -72.968409            -0.0,-0.0,+12.1
iter:  55  00:51:50  -8.68  -5.41   -72.968409            -0.0,-0.0,+12.1
iter:  56  00:54:04  -8.67  -5.61   -72.968409            -0.0,-0.0,+12.1
iter:  57  00:56:17  -8.39  -5.75   -72.968409            -0.0,-0.0,+12.1
iter:  58  00:58:30  -8.08  -5.73   -72.968409            -0.0,-0.0,+12.1
iter:  59  01:00:44  -6.74  -5.73   -72.968410            -0.0,-0.0,+12.1
iter:  60  01:02:58  -7.51  -5.70   -72.968410            -0.0,-0.0,+12.1
iter:  61  01:05:11  -8.40  -5.69   -72.968410            -0.0,-0.0,+12.1
iter:  62  01:07:25  -8.15  -5.69   -72.968410            -0.0,-0.0,+12.1
iter:  63  01:09:38  -8.92  -5.69   -72.968410            -0.0,-0.0,+12.1
iter:  64  01:11:52  -9.15  -5.69   -72.968410            -0.0,-0.0,+12.1
iter:  65  01:14:05  -8.62  -5.64   -72.968410            -0.0,-0.0,+12.1
iter:  66  01:16:18  -8.77  -5.68   -72.968410            -0.0,-0.0,+12.1
iter:  67  01:18:31  -8.04  -5.63   -72.968410            -0.0,-0.0,+12.1
iter:  68  01:20:44  -8.14  -5.68   -72.968410            -0.0,-0.0,+12.1
iter:  69  01:22:57  -9.35  -5.66   -72.968410            -0.0,-0.0,+12.1
iter:  70  01:25:11  -9.00  -5.69   -72.968410            -0.0,-0.0,+12.1
iter:  71  01:27:23  -8.59  -5.70   -72.968410            -0.0,-0.0,+12.1
iter:  72  01:29:36  -7.63  -5.82   -72.968411            -0.0,-0.0,+12.1
iter:  73  01:31:49  -8.15  -5.87   -72.968411            -0.0,-0.0,+12.1
iter:  74  01:34:03  -8.04  -5.98   -72.968410            -0.0,-0.0,+12.1
iter:  75  01:36:17  -8.14  -5.98   -72.968405            -0.0,-0.0,+12.1
iter:  76  01:38:30  -9.28  -6.14   -72.968403            -0.0,-0.0,+12.1
iter:  77  01:40:43  -7.88  -6.31   -72.968404            -0.0,-0.0,+12.1
iter:  78  01:42:56  -8.20  -6.29   -72.968404            -0.0,-0.0,+12.1
iter:  79  01:45:09  -8.55  -6.31   -72.968404            -0.0,-0.0,+12.1
iter:  80  01:47:22  -8.56  -6.30   -72.968404            -0.0,-0.0,+12.1
iter:  81  01:49:35  -9.40  -6.31   -72.968403            -0.0,-0.0,+12.1
iter:  82  01:51:47  -9.31  -6.31   -72.968403            -0.0,-0.0,+12.1
iter:  83  01:54:00  -8.30  -6.31   -72.968403            -0.0,-0.0,+12.1
iter:  84  01:56:14  -8.27  -6.29   -72.968403            -0.0,-0.0,+12.1
iter:  85  01:58:27  -8.18  -6.28   -72.968404            -0.0,-0.0,+12.1
iter:  86  02:00:40  -8.35  -6.26   -72.968403            -0.0,-0.0,+12.1
iter:  87  02:02:53  -9.89  -6.28   -72.968403            -0.0,-0.0,+12.1
iter:  88  02:05:06 -10.18  -6.28   -72.968403            -0.0,-0.0,+12.1
iter:  89  02:07:19  -9.66  -6.27   -72.968400            -0.0,-0.0,+12.1
iter:  90  02:09:33  -8.42  -6.31   -72.968403            -0.0,-0.0,+12.1
iter:  91  02:11:45  -7.68  -6.33   -72.968410            -0.0,-0.0,+12.1
iter:  92  02:13:58  -9.00  -6.28   -72.968428            -0.0,-0.0,+12.1
iter:  93  02:16:11  -9.42  -6.29   -72.968455            -0.0,-0.0,+12.1
iter:  94  02:18:24  -9.48  -6.30   -72.968469            -0.0,-0.0,+12.1
iter:  95  02:20:37  -9.26  -6.39   -72.968489            -0.0,-0.0,+12.1
iter:  96  02:22:51 -10.10  -6.45   -72.968481            -0.0,-0.0,+12.1
iter:  97  02:25:04 -10.29  -6.48   -72.968452            -0.0,-0.0,+12.1
iter:  98  02:27:17  -8.59  -6.48   -72.968467            -0.0,-0.0,+12.1
iter:  99  02:29:30  -9.22  -6.46   -72.968448            -0.0,-0.0,+12.1
iter: 100  02:31:43  -9.14  -6.44   -72.968453            -0.0,-0.0,+12.1
iter: 101  02:33:57  -8.70  -6.44   -72.968470            -0.0,-0.0,+12.1
iter: 102  02:36:09  -9.91  -6.46   -72.968474            -0.0,-0.0,+12.1
iter: 103  02:38:23  -9.78  -6.45   -72.968431            -0.0,-0.0,+12.1
iter: 104  02:40:35  -8.05  -6.49   -72.968479            -0.0,-0.0,+12.1
iter: 105  02:42:48  -9.24  -6.51   -72.968416            -0.0,-0.0,+12.1
iter: 106  02:45:02  -9.45  -6.51   -72.968394            -0.0,-0.0,+12.1
iter: 107  02:47:15 -10.25  -6.48   -72.968399            -0.0,-0.0,+12.1
iter: 108  02:49:28  -8.96  -6.48   -72.968356            -0.0,-0.0,+12.1
iter: 109  02:51:41  -8.90  -6.47   -72.968438            -0.0,-0.0,+12.1
iter: 110  02:53:55  -8.34  -6.55   -72.968508            -0.0,-0.0,+12.1
iter: 111  02:56:08  -8.63  -6.57   -72.968483            -0.0,-0.0,+12.1
iter: 112  02:58:20  -8.87  -6.55   -72.968486            -0.0,-0.0,+12.1
iter: 113  03:00:34  -8.68  -6.52   -72.968489            -0.0,-0.0,+12.1
iter: 114  03:02:47  -9.28  -6.56   -72.968437            -0.0,-0.0,+12.1
iter: 115  03:05:00 -10.02  -6.51   -72.968444            -0.0,-0.0,+12.1
iter: 116  03:07:13 -10.44  -6.55   -72.968463            -0.0,-0.0,+12.1
iter: 117  03:09:26  -9.27  -6.56   -72.968442            -0.0,-0.0,+12.1
iter: 118  03:11:40  -9.00  -6.56   -72.968443            -0.0,-0.0,+12.1
iter: 119  03:13:53  -8.68  -6.58   -72.968435            -0.0,-0.0,+12.1
iter: 120  03:16:06  -8.66  -6.53   -72.968403            -0.0,-0.0,+12.1
iter: 121  03:18:19 -10.07  -6.49   -72.968392            -0.0,-0.0,+12.1
iter: 122  03:20:32  -9.58  -6.49   -72.968423            -0.0,-0.0,+12.1
iter: 123  03:22:45 -10.23  -6.48   -72.968381            -0.0,-0.0,+12.1
iter: 124  03:24:58 -10.53  -6.48   -72.968411            -0.0,-0.0,+12.1
iter: 125  03:27:11 -10.11  -6.45   -72.968392            -0.0,-0.0,+12.1
iter: 126  03:29:24  -9.20  -6.53   -72.968398            -0.0,-0.0,+12.1
iter: 127  03:31:37  -9.01  -6.51   -72.968484            -0.0,-0.0,+12.1
iter: 128  03:33:51  -9.75  -6.44   -72.968337            -0.0,-0.0,+12.1
iter: 129  03:36:03 -10.43  -6.45   -72.968420            -0.0,-0.0,+12.1
iter: 130  03:38:16 -10.75  -6.43   -72.968401            -0.0,-0.0,+12.1
iter: 131  03:40:29 -10.62  -6.47   -72.968372            -0.0,-0.0,+12.1
iter: 132  03:42:41 -10.02  -6.60   -72.968363            -0.0,-0.0,+12.1
iter: 133  03:44:54 -10.84  -6.85   -72.968324            -0.0,-0.0,+12.1
iter: 134  03:47:07 -10.80  -6.99   -72.968312            -0.0,-0.0,+12.1
iter: 135  03:49:21  -9.17  -6.98   -72.968321            -0.0,-0.0,+12.1
iter: 136  03:51:34  -9.94  -6.98   -72.968337            -0.0,-0.0,+12.1
iter: 137  03:53:47  -9.36  -6.95   -72.968405            -0.0,-0.0,+12.1
iter: 138  03:56:00  -9.23  -6.95   -72.968435            -0.0,-0.0,+12.1
iter: 139  03:58:13  -8.69  -6.93   -72.968432            -0.0,-0.0,+12.1
iter: 140  04:00:27  -8.04  -6.88   -72.968419            -0.0,-0.0,+12.1
iter: 141  04:02:40  -8.60  -6.73   -72.968412            -0.0,-0.0,+12.1
iter: 142  04:04:53  -8.70  -6.66   -72.968393            -0.0,-0.0,+12.1
iter: 143  04:07:06  -8.92  -6.75   -72.968401            -0.0,-0.0,+12.1
iter: 144  04:09:19  -9.43  -6.74   -72.968396            -0.0,-0.0,+12.1
iter: 145  04:11:33 -10.04  -6.76   -72.968413            -0.0,-0.0,+12.1
iter: 146  04:13:46  -9.44  -6.73   -72.968391            -0.0,-0.0,+12.1
iter: 147  04:15:59 -10.60  -6.71   -72.968389            -0.0,-0.0,+12.1
iter: 148  04:18:13  -9.67  -6.71   -72.968405            -0.0,-0.0,+12.1
iter: 149  04:20:25 -10.71  -6.71   -72.968395            -0.0,-0.0,+12.1
iter: 150  04:22:39 -10.78  -6.68   -72.968401            -0.0,-0.0,+12.1
iter: 151  04:24:52  -9.25  -6.72   -72.968405            -0.0,-0.0,+12.1
iter: 152  04:27:04  -8.84  -6.80   -72.968409            -0.0,-0.0,+12.1
iter: 153  04:29:17  -9.80  -6.88   -72.968424            -0.0,-0.0,+12.1
iter: 154  04:31:30 -10.33  -6.85   -72.968427            -0.0,-0.0,+12.1
iter: 155  04:33:44  -9.38  -6.85   -72.968404            -0.0,-0.0,+12.1
iter: 156  04:35:57  -9.40  -6.86   -72.968398            -0.0,-0.0,+12.1
iter: 157  04:38:10  -9.17  -6.86   -72.968423            -0.0,-0.0,+12.1
iter: 158  04:40:24 -10.24  -6.84   -72.968422            -0.0,-0.0,+12.1
iter: 159  04:42:37 -10.34  -6.83   -72.968415            -0.0,-0.0,+12.1
iter: 160  04:44:49 -11.12  -6.81   -72.968410            -0.0,-0.0,+12.1
iter: 161  04:47:02 -11.20  -6.82   -72.968401            -0.0,-0.0,+12.1
iter: 162  04:49:16  -9.98  -6.96   -72.968401            -0.0,-0.0,+12.1
iter: 163  04:51:29  -9.62  -7.29   -72.968397            -0.0,-0.0,+12.1
iter: 164  04:53:41 -10.31  -7.34   -72.968403            -0.0,-0.0,+12.1
iter: 165  04:55:54 -10.21  -7.31   -72.968404            -0.0,-0.0,+12.1
iter: 166  04:58:07  -9.09  -7.39   -72.968400            -0.0,-0.0,+12.1
iter: 167  05:00:20 -10.34  -7.36   -72.968399            -0.0,-0.0,+12.1
iter: 168  05:02:34 -10.60  -7.33   -72.968408            -0.0,-0.0,+12.1
iter: 169  05:04:46  -9.65  -7.35   -72.968407            -0.0,-0.0,+12.1
iter: 170  05:07:00  -9.42  -7.26   -72.968406            -0.0,-0.0,+12.1
iter: 171  05:09:13 -10.74  -7.40   -72.968408            -0.0,-0.0,+12.1
iter: 172  05:11:25 -10.37  -7.39   -72.968409            -0.0,-0.0,+12.1
iter: 173  05:13:38  -8.75  -7.49   -72.968424            -0.0,-0.0,+12.1
iter: 174  05:15:51 -10.51  -7.21   -72.968421            -0.0,-0.0,+12.1
iter: 175  05:18:04 -10.34  -7.28   -72.968419            -0.0,-0.0,+12.1
iter: 176  05:20:18  -9.85  -7.26   -72.968415            -0.0,-0.0,+12.1
iter: 177  05:22:31  -9.79  -7.20   -72.968419            -0.0,-0.0,+12.1
iter: 178  05:24:44 -10.16  -7.26   -72.968418            -0.0,-0.0,+12.1
iter: 179  05:26:57  -9.91  -7.25   -72.968427            -0.0,-0.0,+12.1
iter: 180  05:29:10  -9.87  -7.25   -72.968425            -0.0,-0.0,+12.1
iter: 181  05:31:22 -10.73  -7.20   -72.968425            -0.0,-0.0,+12.1
iter: 182  05:33:36 -11.46  -7.25   -72.968419            -0.0,-0.0,+12.1
iter: 183  05:35:49  -9.71  -7.28   -72.968421            -0.0,-0.0,+12.1
iter: 184  05:38:02  -9.65  -7.27   -72.968422            -0.0,-0.0,+12.1
iter: 185  05:40:14  -8.89  -7.21   -72.968419            -0.0,-0.0,+12.1
iter: 186  05:42:27  -9.37  -7.09   -72.968420            -0.0,-0.0,+12.1
iter: 187  05:44:40  -9.47  -7.19   -72.968417            -0.0,-0.0,+12.1
iter: 188  05:46:53  -9.24  -7.12   -72.968418            -0.0,-0.0,+12.1
iter: 189  05:49:05  -9.82  -7.02   -72.968404            -0.0,-0.0,+12.1
iter: 190  05:51:18  -9.53  -7.01   -72.968396            -0.0,-0.0,+12.1
iter: 191  05:53:31  -9.79  -7.05   -72.968391            -0.0,-0.0,+12.1
iter: 192  05:55:45 -10.75  -6.99   -72.968391            -0.0,-0.0,+12.1
iter: 193  05:57:57  -9.61  -7.02   -72.968401            -0.0,-0.0,+12.1
iter: 194  06:00:11 -10.27  -6.93   -72.968398            -0.0,-0.0,+12.1
iter: 195  06:02:24 -10.80  -6.96   -72.968400            -0.0,-0.0,+12.1
iter: 196  06:04:37  -9.74  -6.99   -72.968378            -0.0,-0.0,+12.1
iter: 197  06:06:50  -9.33  -6.93   -72.968402            -0.0,-0.0,+12.1
iter: 198  06:09:04  -9.60  -6.94   -72.968392            -0.0,-0.0,+12.1
iter: 199  06:11:16 -10.40  -6.85   -72.968405            -0.0,-0.0,+12.1
iter: 200  06:13:29  -9.47  -7.07   -72.968405            -0.0,-0.0,+12.1
iter: 201  06:15:42  -9.08  -7.06   -72.968407            -0.0,-0.0,+12.1
iter: 202  06:17:55  -8.93  -7.14   -72.968411            -0.0,-0.0,+12.1
iter: 203  06:20:08  -9.62  -7.01   -72.968400            -0.0,-0.0,+12.1
iter: 204  06:22:21 -10.00  -6.98   -72.968400            -0.0,-0.0,+12.1
iter: 205  06:24:34 -10.52  -6.98   -72.968384            -0.0,-0.0,+12.1
iter: 206  06:26:46 -10.45  -7.04   -72.968381            -0.0,-0.0,+12.1
iter: 207  06:28:59 -10.22  -6.93   -72.968376            -0.0,-0.0,+12.1
iter: 208  06:31:12 -11.36  -7.22   -72.968372            -0.0,-0.0,+12.1
iter: 209  06:33:25 -10.89  -7.20   -72.968374            -0.0,-0.0,+12.1
iter: 210  06:35:38  -8.86  -7.22   -72.968373            -0.0,-0.0,+12.1
iter: 211  06:37:51 -10.29  -7.14   -72.968373            -0.0,-0.0,+12.1
iter: 212  06:40:04  -9.97  -7.05   -72.968370            -0.0,-0.0,+12.1
iter: 213  06:42:17  -9.77  -7.04   -72.968366            -0.0,-0.0,+12.1
iter: 214  06:44:31 -10.66  -7.07   -72.968375            -0.0,-0.0,+12.1
iter: 215  06:46:44 -11.16  -7.08   -72.968380            -0.0,-0.0,+12.1
iter: 216  06:48:57 -10.59  -7.15   -72.968390            -0.0,-0.0,+12.1
iter: 217  06:51:10  -9.95  -7.14   -72.968376            -0.0,-0.0,+12.1
iter: 218  06:53:24  -9.58  -7.15   -72.968373            -0.0,-0.0,+12.1
iter: 219  06:55:36  -8.85  -7.08   -72.968385            -0.0,-0.0,+12.1
iter: 220  06:57:50 -10.28  -6.89   -72.968381            -0.0,-0.0,+12.1
iter: 221  07:00:03 -10.21  -7.04   -72.968379            -0.0,-0.0,+12.1
iter: 222  07:02:16 -10.04  -7.00   -72.968378            -0.0,-0.0,+12.1
iter: 223  07:04:29 -11.01  -6.99   -72.968369            -0.0,-0.0,+12.1
iter: 224  07:06:43 -10.15  -7.13   -72.968367            -0.0,-0.0,+12.1
iter: 225  07:08:55 -11.21  -7.15   -72.968370            -0.0,-0.0,+12.1
iter: 226  07:11:09 -11.26  -7.14   -72.968376            -0.0,-0.0,+12.1
iter: 227  07:13:22 -10.27  -7.17   -72.968382            -0.0,-0.0,+12.1
iter: 228  07:15:35  -9.92  -7.18   -72.968386            -0.0,-0.0,+12.1
iter: 229  07:17:48  -9.66  -7.24   -72.968392            -0.0,-0.0,+12.1
iter: 230  07:20:01  -9.83  -7.23   -72.968386            -0.0,-0.0,+12.1
iter: 231  07:22:14 -10.87  -7.13   -72.968395            -0.0,-0.0,+12.1
iter: 232  07:24:27 -10.59  -7.24   -72.968394            -0.0,-0.0,+12.1
iter: 233  07:26:40 -10.39  -7.20   -72.968393            -0.0,-0.0,+12.1
iter: 234  07:28:52  -9.07  -7.26   -72.968403            -0.0,-0.0,+12.1
iter: 235  07:31:06 -10.54  -7.20   -72.968404            -0.0,-0.0,+12.1
iter: 236  07:33:19 -10.26  -7.24   -72.968401            -0.0,-0.0,+12.1
iter: 237  07:35:32  -9.47  -7.26   -72.968399            -0.0,-0.0,+12.1
iter: 238  07:37:45 -10.16  -7.28   -72.968400            -0.0,-0.0,+12.1
iter: 239  07:39:58 -10.86  -7.37   -72.968404            -0.0,-0.0,+12.1
iter: 240  07:42:12 -10.66  -7.50   -72.968407            -0.0,-0.0,+12.1
iter: 241  07:44:25 -11.11  -7.52   -72.968408            -0.0,-0.0,+12.1
iter: 242  07:46:38 -11.65  -7.50   -72.968406            -0.0,-0.0,+12.1
iter: 243  07:48:51 -11.83  -7.52   -72.968402            -0.0,-0.0,+12.1
iter: 244  07:51:04 -11.39  -7.55   -72.968413            -0.0,-0.0,+12.1
iter: 245  07:53:17 -10.31  -7.47   -72.968408            -0.0,-0.0,+12.1
iter: 246  07:55:30 -10.38  -7.47   -72.968408            -0.0,-0.0,+12.1
iter: 247  07:57:43 -10.42  -7.46   -72.968409            -0.0,-0.0,+12.1
iter: 248  07:59:56 -10.62  -7.46   -72.968410            -0.0,-0.0,+12.1
iter: 249  08:02:08 -11.17  -7.46   -72.968412            -0.0,-0.0,+12.1
iter: 250  08:04:22  -9.66  -7.47   -72.968412            -0.0,-0.0,+12.1
iter: 251  08:06:34 -10.50  -7.39   -72.968409            -0.0,-0.0,+12.1
iter: 252  08:08:48 -11.17  -7.38   -72.968413            -0.0,-0.0,+12.1
iter: 253  08:11:01 -10.65  -7.37   -72.968412            -0.0,-0.0,+12.1
iter: 254  08:13:14 -11.33  -7.34   -72.968413            -0.0,-0.0,+12.1
iter: 255  08:15:27 -11.50  -7.35   -72.968413            -0.0,-0.0,+12.1
iter: 256  08:17:41 -12.28  -7.36   -72.968415            -0.0,-0.0,+12.1
iter: 257  08:19:54 -10.87  -7.34   -72.968420            -0.0,-0.0,+12.1
iter: 258  08:22:07 -11.31  -7.39   -72.968422            -0.0,-0.0,+12.1
iter: 259  08:24:20 -12.08  -7.40   -72.968422            -0.0,-0.0,+12.1
iter: 260  08:26:33 -12.71  -7.40   -72.968421            -0.0,-0.0,+12.1
iter: 261  08:28:45 -13.07  -7.40   -72.968420            -0.0,-0.0,+12.1
iter: 262  08:30:59 -12.76  -7.41   -72.968420            -0.0,-0.0,+12.1
iter: 263  08:33:12 -11.10  -7.40   -72.968423            -0.0,-0.0,+12.1
iter: 264  08:35:25 -11.85  -7.42   -72.968423            -0.0,-0.0,+12.1
iter: 265  08:37:38 -10.93  -7.43   -72.968421            -0.0,-0.0,+12.1
iter: 266  08:39:51 -11.22  -7.45   -72.968420            -0.0,-0.0,+12.1
iter: 267  08:42:04 -11.27  -7.50   -72.968420            -0.0,-0.0,+12.1
iter: 268  08:44:17 -10.78  -7.55   -72.968419            -0.0,-0.0,+12.1
iter: 269  08:46:30 -10.68  -7.57   -72.968420            -0.0,-0.0,+12.1
iter: 270  08:48:43 -10.55  -7.92   -72.968420            -0.0,-0.0,+12.1
iter: 271  08:50:55 -11.17  -7.92   -72.968419            -0.0,-0.0,+12.1
iter: 272  08:53:08 -11.32  -7.92   -72.968418            -0.0,-0.0,+12.1
iter: 273  08:55:21 -10.91  -7.88   -72.968418            -0.0,-0.0,+12.1
iter: 274  08:57:34 -10.35  -7.86   -72.968416            -0.0,-0.0,+12.1
iter: 275  08:59:47 -11.69  -7.82   -72.968417            -0.0,-0.0,+12.1
iter: 276  09:02:00 -11.78  -7.88   -72.968419            -0.0,-0.0,+12.1
iter: 277  09:04:13 -11.42  -7.94   -72.968419            -0.0,-0.0,+12.1
iter: 278  09:06:26 -11.39  -7.95   -72.968419            -0.0,-0.0,+12.1
iter: 279  09:08:39 -12.17  -7.96   -72.968419            -0.0,-0.0,+12.1
iter: 280  09:10:51 -12.01  -7.96   -72.968417            -0.0,-0.0,+12.1
iter: 281  09:13:04 -10.32  -7.96   -72.968417            -0.0,-0.0,+12.1
iter: 282  09:15:17 -11.80  -7.90   -72.968419            -0.0,-0.0,+12.1
iter: 283  09:17:30 -11.73  -7.91   -72.968419            -0.0,-0.0,+12.1
iter: 284  09:19:43 -11.30  -7.89   -72.968419            -0.0,-0.0,+12.1
iter: 285  09:21:56 -11.60  -7.84   -72.968418            -0.0,-0.0,+12.1
iter: 286  09:24:09 -11.09  -7.79   -72.968419            -0.0,-0.0,+12.1
iter: 287  09:26:22 -10.91  -7.71   -72.968419            -0.0,-0.0,+12.1
iter: 288  09:28:34 -11.53  -7.76   -72.968417            -0.0,-0.0,+12.1
iter: 289  09:30:47 -11.71  -7.82   -72.968419            -0.0,-0.0,+12.1
iter: 290  09:33:01 -11.71  -7.83   -72.968419            -0.0,-0.0,+12.1
iter: 291  09:35:14 -12.61  -7.91   -72.968419            -0.0,-0.0,+12.1
iter: 292  09:37:27 -11.77  -7.94   -72.968420            -0.0,-0.0,+12.1
iter: 293  09:39:40 -12.10  -7.90   -72.968419            -0.0,-0.0,+12.1
iter: 294  09:41:53 -11.08  -7.94   -72.968418            -0.0,-0.0,+12.1
iter: 295  09:44:06  -9.41  -7.98   -72.968419            -0.0,-0.0,+12.1
iter: 296  09:46:18 -10.52  -7.65   -72.968419            -0.0,-0.0,+12.1
iter: 297  09:48:31 -10.48  -7.66   -72.968419            -0.0,-0.0,+12.1
iter: 298  09:50:44 -11.17  -7.66   -72.968418            -0.0,-0.0,+12.1
iter: 299  09:52:57 -11.82  -7.64   -72.968419            -0.0,-0.0,+12.1
iter: 300  09:55:11 -12.47  -7.65   -72.968422            -0.0,-0.0,+12.1
iter: 301  09:57:23 -12.66  -7.72   -72.968422            -0.0,-0.0,+12.1
iter: 302  09:59:36 -12.02  -7.73   -72.968422            -0.0,-0.0,+12.1
iter: 303  10:01:49 -11.46  -7.77   -72.968420            -0.0,-0.0,+12.1
iter: 304  10:04:03 -10.74  -7.98   -72.968419            -0.0,-0.0,+12.1
iter: 305  10:06:16 -10.49  -7.93   -72.968418            -0.0,-0.0,+12.1
iter: 306  10:08:29 -10.48  -7.86   -72.968417            -0.0,-0.0,+12.1
iter: 307  10:10:42  -9.77  -7.78   -72.968416            -0.0,-0.0,+12.1
iter: 308  10:12:55 -10.32  -7.57   -72.968415            -0.0,-0.0,+12.1
iter: 309  10:15:08 -10.83  -7.67   -72.968416            -0.0,-0.0,+12.1
iter: 310  10:17:21  -9.91  -7.60   -72.968416            -0.0,-0.0,+12.1
iter: 311  10:19:33 -10.34  -7.55   -72.968416            -0.0,-0.0,+12.1
iter: 312  10:21:46 -11.25  -7.64   -72.968413            -0.0,-0.0,+12.1
iter: 313  10:23:59 -11.60  -7.64   -72.968415            -0.0,-0.0,+12.1
iter: 314  10:26:12 -11.16  -7.65   -72.968415            -0.0,-0.0,+12.1
iter: 315  10:28:25 -11.68  -7.64   -72.968411            -0.0,-0.0,+12.1
iter: 316  10:30:38 -10.95  -7.63   -72.968410            -0.0,-0.0,+12.1
iter: 317  10:32:51 -11.82  -7.70   -72.968412            -0.0,-0.0,+12.1
iter: 318  10:35:04 -12.08  -7.67   -72.968414            -0.0,-0.0,+12.1
iter: 319  10:37:17 -10.44  -7.70   -72.968414            -0.0,-0.0,+12.1
iter: 320  10:39:30 -10.92  -7.61   -72.968414            -0.0,-0.0,+12.1
iter: 321  10:41:43 -10.96  -7.60   -72.968414            -0.0,-0.0,+12.1
iter: 322  10:43:56 -10.48  -7.63   -72.968413            -0.0,-0.0,+12.1
iter: 323  10:46:09 -10.83  -7.55   -72.968414            -0.0,-0.0,+12.1
iter: 324  10:48:22 -10.45  -7.53   -72.968414            -0.0,-0.0,+12.1
iter: 325  10:50:35 -10.23  -7.58   -72.968417            -0.0,-0.0,+12.1
iter: 326  10:52:48 -10.95  -7.46   -72.968416            -0.0,-0.0,+12.1
iter: 327  10:55:01 -11.46  -7.48   -72.968416            -0.0,-0.0,+12.1
iter: 328  10:57:14 -11.70  -7.58   -72.968412            -0.0,-0.0,+12.1
iter: 329  10:59:27 -12.54  -7.57   -72.968412            -0.0,-0.0,+12.1
iter: 330  11:01:40 -11.66  -7.53   -72.968404            -0.0,-0.0,+12.1
iter: 331  11:03:53 -11.87  -7.63   -72.968404            -0.0,-0.0,+12.1
iter: 332  11:06:06 -13.01  -7.69   -72.968407            -0.0,-0.0,+12.1
iter: 333  11:08:19 -12.53  -7.74   -72.968408            -0.0,-0.0,+12.1
iter: 334  11:10:32 -12.71  -7.80   -72.968407            -0.0,-0.0,+12.1
iter: 335  11:12:45 -11.98  -7.79   -72.968408            -0.0,-0.0,+12.1
iter: 336  11:14:59 -10.42  -7.83   -72.968406            -0.0,-0.0,+12.1
iter: 337  11:17:12 -10.88  -7.77   -72.968405            -0.0,-0.0,+12.1
iter: 338  11:19:25 -12.06  -7.72   -72.968407            -0.0,-0.0,+12.1
iter: 339  11:21:38 -11.48  -7.81   -72.968409            -0.0,-0.0,+12.1
iter: 340  11:23:51 -11.17  -7.83   -72.968409            -0.0,-0.0,+12.1
iter: 341  11:26:04 -12.47  -7.82   -72.968409            -0.0,-0.0,+12.1
iter: 342  11:28:16 -11.35  -7.82   -72.968409            -0.0,-0.0,+12.1
iter: 343  11:30:29 -12.39  -7.81   -72.968408            -0.0,-0.0,+12.1
iter: 344  11:32:42 -12.75  -7.82   -72.968408            -0.0,-0.0,+12.1
iter: 345  11:34:55 -11.87  -7.73   -72.968407            -0.0,-0.0,+12.1
iter: 346  11:37:08 -11.63  -7.80   -72.968408            -0.0,-0.0,+12.1
iter: 347  11:39:21 -11.80  -7.81   -72.968411            -0.0,-0.0,+12.1
iter: 348  11:41:34 -11.67  -7.89   -72.968412            -0.0,-0.0,+12.1
iter: 349  11:43:48 -10.69  -7.91   -72.968412            -0.0,-0.0,+12.1
iter: 350  11:46:01 -11.64  -7.84   -72.968409            -0.0,-0.0,+12.1
iter: 351  11:48:14 -12.66  -7.75   -72.968408            -0.0,-0.0,+12.1
iter: 352  11:50:27 -12.41  -7.83   -72.968409            -0.0,-0.0,+12.1
iter: 353  11:52:40 -13.25  -7.81   -72.968411            -0.0,-0.0,+12.1
iter: 354  11:54:53 -12.43  -7.76   -72.968411            -0.0,-0.0,+12.1
iter: 355  11:57:06 -12.22  -7.97   -72.968411            -0.0,-0.0,+12.1
iter: 356  11:59:19 -11.78  -8.10   -72.968411            -0.0,-0.0,+12.1
iter: 357  12:01:32 -10.71  -8.27   -72.968410            -0.0,-0.0,+12.1
iter: 358  12:03:45 -11.30  -8.15   -72.968409            -0.0,-0.0,+12.1
iter: 359  12:05:58 -11.69  -8.13   -72.968410            -0.0,-0.0,+12.1
iter: 360  12:08:12 -11.20  -8.12   -72.968409            -0.0,-0.0,+12.1
iter: 361  12:10:25 -11.53  -8.10   -72.968409            -0.0,-0.0,+12.1
iter: 362  12:12:37 -12.63  -8.06   -72.968409            -0.0,-0.0,+12.1
iter: 363  12:14:50 -11.93  -8.05   -72.968410            -0.0,-0.0,+12.1
iter: 364  12:17:03 -11.67  -8.03   -72.968410            -0.0,-0.0,+12.1
iter: 365  12:19:16 -12.00  -7.94   -72.968409            -0.0,-0.0,+12.1
iter: 366  12:21:30 -11.31  -8.16   -72.968409            -0.0,-0.0,+12.1
iter: 367  12:23:43 -12.17  -8.14   -72.968409            -0.0,-0.0,+12.1
iter: 368  12:25:56 -12.69  -8.09   -72.968411            -0.0,-0.0,+12.1
iter: 369  12:28:09 -12.49  -8.13   -72.968411            -0.0,-0.0,+12.1
iter: 370  12:30:22 -12.60  -8.11   -72.968411            -0.0,-0.0,+12.1
iter: 371  12:32:35 -12.78  -8.12   -72.968411            -0.0,-0.0,+12.1
iter: 372  12:34:48 -13.18  -8.15   -72.968411            -0.0,-0.0,+12.1
iter: 373  12:37:01 -12.56  -8.17   -72.968412            -0.0,-0.0,+12.1
iter: 374  12:39:14 -11.06  -8.17   -72.968413            -0.0,-0.0,+12.1
iter: 375  12:41:27 -11.91  -8.10   -72.968413            -0.0,-0.0,+12.1
iter: 376  12:43:40 -13.01  -8.11   -72.968412            -0.0,-0.0,+12.1
iter: 377  12:45:53 -12.95  -8.20   -72.968414            -0.0,-0.0,+12.1
iter: 378  12:48:06 -11.81  -8.16   -72.968413            -0.0,-0.0,+12.1
iter: 379  12:50:18 -12.18  -8.17   -72.968412            -0.0,-0.0,+12.1
iter: 380  12:52:32 -13.34  -8.17   -72.968411            -0.0,-0.0,+12.1
iter: 381  12:54:45 -12.14  -8.23   -72.968411            -0.0,-0.0,+12.1
iter: 382  12:56:58 -11.13  -8.34   -72.968410            -0.0,-0.0,+12.1
iter: 383  12:59:11 -11.55  -8.36   -72.968410            -0.0,-0.0,+12.1
iter: 384  13:01:24 -12.17  -8.28   -72.968409            -0.0,-0.0,+12.1
iter: 385  13:03:37 -11.65  -8.33   -72.968409            -0.0,-0.0,+12.1
iter: 386  13:05:51 -11.65  -8.24   -72.968409            -0.0,-0.0,+12.1
iter: 387  13:08:03 -11.67  -8.21   -72.968409            -0.0,-0.0,+12.1
iter: 388  13:10:16 -12.60  -8.26   -72.968408            -0.0,-0.0,+12.1
iter: 389  13:12:29 -12.86  -8.22   -72.968409            -0.0,-0.0,+12.1
iter: 390  13:14:43 -11.96  -8.26   -72.968409            -0.0,-0.0,+12.1
iter: 391  13:16:55 -11.30  -8.25   -72.968409            -0.0,-0.0,+12.1
iter: 392  13:19:08 -12.11  -8.12   -72.968409            -0.0,-0.0,+12.1
iter: 393  13:21:21 -12.43  -8.19   -72.968408            -0.0,-0.0,+12.1
iter: 394  13:23:34 -11.69  -8.17   -72.968409            -0.0,-0.0,+12.1
iter: 395  13:25:46 -11.14  -8.13   -72.968408            -0.0,-0.0,+12.1
iter: 396  13:27:59 -11.35  -8.00   -72.968408            -0.0,-0.0,+12.1
iter: 397  13:30:12 -12.04  -7.95   -72.968408            -0.0,-0.0,+12.1
iter: 398  13:32:25 -11.37  -7.97   -72.968409            -0.0,-0.0,+12.1
iter: 399  13:34:38 -11.04  -7.95   -72.968410            -0.0,-0.0,+12.1
iter: 400  13:36:51 -11.54  -7.96   -72.968410            -0.0,-0.0,+12.1
iter: 401  13:39:04 -11.56  -7.88   -72.968408            -0.0,-0.0,+12.1
iter: 402  13:41:17 -11.72  -7.95   -72.968408            -0.0,-0.0,+12.1
iter: 403  13:43:30 -11.65  -7.91   -72.968407            -0.0,-0.0,+12.1
iter: 404  13:45:43 -11.38  -7.93   -72.968410            -0.0,-0.0,+12.1
iter: 405  13:47:56 -11.99  -7.88   -72.968410            -0.0,-0.0,+12.1
iter: 406  13:50:10 -12.23  -7.89   -72.968406            -0.0,-0.0,+12.1
iter: 407  13:52:23 -12.11  -7.94   -72.968406            -0.0,-0.0,+12.1
iter: 408  13:54:36 -12.67  -7.94   -72.968406            -0.0,-0.0,+12.1
iter: 409  13:56:49 -12.68  -7.95   -72.968406            -0.0,-0.0,+12.1
iter: 410  13:59:01 -11.82  -7.94   -72.968406            -0.0,-0.0,+12.1
iter: 411  14:01:14 -12.31  -7.92   -72.968407            -0.0,-0.0,+12.1
iter: 412  14:03:26 -11.97  -7.89   -72.968408            -0.0,-0.0,+12.1
iter: 413  14:05:39 -12.01  -7.92   -72.968409            -0.0,-0.0,+12.1
iter: 414  14:07:52 -12.63  -7.89   -72.968408            -0.0,-0.0,+12.1
iter: 415  14:10:05 -11.37  -7.90   -72.968408            -0.0,-0.0,+12.1
iter: 416  14:12:18 -12.75  -7.93   -72.968406            -0.0,-0.0,+12.1
iter: 417  14:14:31 -12.77  -7.97   -72.968406            -0.0,-0.0,+12.1
iter: 418  14:16:44 -12.65  -7.97   -72.968406            -0.0,-0.0,+12.1
iter: 419  14:18:57 -13.66  -7.97   -72.968406            -0.0,-0.0,+12.1
iter: 420  14:21:10 -12.78  -7.94   -72.968406            -0.0,-0.0,+12.1
iter: 421  14:23:23 -12.23  -8.07   -72.968407            -0.0,-0.0,+12.1
iter: 422  14:25:36 -12.70  -8.09   -72.968407            -0.0,-0.0,+12.1
iter: 423  14:27:49 -11.70  -8.10   -72.968406            -0.0,-0.0,+12.1
iter: 424  14:30:02 -12.27  -8.06   -72.968408            -0.0,-0.0,+12.1
iter: 425  14:32:15 -13.21  -8.19   -72.968409            -0.0,-0.0,+12.1
iter: 426  14:34:29 -13.09  -8.26   -72.968409            -0.0,-0.0,+12.1
iter: 427  14:36:42 -11.79  -8.30   -72.968409            -0.0,-0.0,+12.1
iter: 428  14:38:55 -11.72  -8.31   -72.968410            -0.0,-0.0,+12.1
iter: 429  14:41:07 -13.40  -8.31   -72.968410            -0.0,-0.0,+12.1
iter: 430  14:43:21 -13.13  -8.34   -72.968410            -0.0,-0.0,+12.1
iter: 431  14:45:33 -11.94  -8.36   -72.968411            -0.0,-0.0,+12.1
iter: 432  14:47:47 -12.11  -8.33   -72.968411            -0.0,-0.0,+12.1
iter: 433  14:50:00 -11.30  -8.29   -72.968410            -0.0,-0.0,+12.1
iter: 434  14:52:12 -12.28  -8.20   -72.968410            -0.0,-0.0,+12.1
iter: 435  14:54:25 -12.65  -8.24   -72.968410            -0.0,-0.0,+12.1
iter: 436  14:56:37 -12.79  -8.27   -72.968411            -0.0,-0.0,+12.1
iter: 437  14:58:50 -13.67  -8.25   -72.968411            -0.0,-0.0,+12.1
iter: 438  15:01:03 -12.45  -8.31   -72.968412            -0.0,-0.0,+12.1
iter: 439  15:03:16 -13.77  -8.30   -72.968412            -0.0,-0.0,+12.1
iter: 440  15:05:30 -13.59  -8.30   -72.968412            -0.0,-0.0,+12.1
iter: 441  15:07:42 -12.73  -8.29   -72.968411            -0.0,-0.0,+12.1
iter: 442  15:09:55 -12.94  -8.26   -72.968412            -0.0,-0.0,+12.1
iter: 443  15:12:07 -12.24  -8.27   -72.968412            -0.0,-0.0,+12.1
iter: 444  15:14:20 -13.21  -8.27   -72.968413            -0.0,-0.0,+12.1
iter: 445  15:16:33 -13.63  -8.45   -72.968412            -0.0,-0.0,+12.1
iter: 446  15:18:46 -13.07  -8.40   -72.968412            -0.0,-0.0,+12.1
iter: 447  15:20:59 -11.68  -8.38   -72.968412            -0.0,-0.0,+12.1
iter: 448  15:23:13 -11.11  -8.48   -72.968412            -0.0,-0.0,+12.1
iter: 449  15:25:25 -12.36  -8.28   -72.968412            -0.0,-0.0,+12.1
iter: 450  15:27:38 -12.64  -8.25   -72.968412            -0.0,-0.0,+12.1
iter: 451  15:29:51 -12.95  -8.32   -72.968411            -0.0,-0.0,+12.1
iter: 452  15:32:04 -13.56  -8.33   -72.968412            -0.0,-0.0,+12.1
iter: 453  15:34:17 -14.16  -8.32   -72.968411            -0.0,-0.0,+12.1
iter: 454  15:36:30 -13.44  -8.46   -72.968411            -0.0,-0.0,+12.1
iter: 455  15:38:44 -13.91  -8.50   -72.968411            -0.0,-0.0,+12.1
iter: 456  15:40:57 -14.13  -8.57   -72.968411            -0.0,-0.0,+12.1
iter: 457  15:43:10 -14.13  -8.56   -72.968411            -0.0,-0.0,+12.1
iter: 458  15:45:23 -13.48  -8.60   -72.968411            -0.0,-0.0,+12.1
iter: 459  15:47:36 -12.84  -8.64   -72.968411            -0.0,-0.0,+12.1
iter: 460  15:49:49 -13.64  -8.66   -72.968410            -0.0,-0.0,+12.1
iter: 461  15:52:02 -12.74  -8.70   -72.968410            -0.0,-0.0,+12.1
iter: 462  15:54:16 -12.88  -8.75   -72.968410            -0.0,-0.0,+12.1
iter: 463  15:56:29 -13.65  -8.77   -72.968410            -0.0,-0.0,+12.1
iter: 464  15:58:42 -14.21  -8.82   -72.968409            -0.0,-0.0,+12.1
iter: 465  16:00:55 -13.96  -8.86   -72.968410            -0.0,-0.0,+12.1
iter: 466  16:03:07 -14.09  -8.85   -72.968410            -0.0,-0.0,+12.1
iter: 467  16:05:20 -13.29  -8.83   -72.968410            -0.0,-0.0,+12.1
iter: 468  16:07:33 -13.09  -8.83   -72.968410            -0.0,-0.0,+12.1
iter: 469  16:09:46 -13.20  -8.83   -72.968410            -0.0,-0.0,+12.1
iter: 470  16:12:00 -12.75  -8.81   -72.968410            -0.0,-0.0,+12.1
iter: 471  16:14:12 -12.69  -8.93   -72.968410            -0.0,-0.0,+12.1
iter: 472  16:16:26 -13.41  -8.88   -72.968410            -0.0,-0.0,+12.1
iter: 473  16:18:38 -14.47  -8.95   -72.968410            -0.0,-0.0,+12.1
iter: 474  16:20:52 -13.26  -8.97   -72.968410            -0.0,-0.0,+12.1
iter: 475  16:23:04 -13.08  -8.94   -72.968410            -0.0,-0.0,+12.1
iter: 476  16:25:18 -13.51  -8.97   -72.968410            -0.0,-0.0,+12.1
iter: 477  16:27:31 -12.31  -9.07   -72.968410            -0.0,-0.0,+12.1

Converged after 477 iterations.

Dipole moment: (33.193482, -19.510423, -0.000286) |e|*Ang

Total magnetic moment: (-0.000052, -0.001540, 12.071702)
Local magnetic moments:
   0 Cr ( 0.000847,  0.030178,  2.919774)
   1 Cr (-0.008559, -0.013778,  2.924123)
   2 I  ( 0.001506, -0.000310, -0.045150)
   3 I  (-0.000798, -0.001257, -0.045180)
   4 I  (-0.000544,  0.001147, -0.045163)
   5 I  ( 0.001403, -0.000427, -0.048085)
   6 I  (-0.000860, -0.001173, -0.047672)
   7 I  (-0.000336,  0.001231, -0.047638)
   8 Cr ( 0.008423,  0.012877,  2.924191)
   9 Cr (-0.000805, -0.030768,  2.919705)
  10 I  ( 0.001332, -0.000170, -0.047611)
  11 I  (-0.001013, -0.000864, -0.047880)
  12 I  (-0.000493,  0.001441, -0.047916)
  13 I  ( 0.001346,  0.000002, -0.045276)
  14 I  (-0.000884, -0.001029, -0.045087)
  15 I  (-0.000593,  0.001481, -0.045123)

Energy contributions relative to reference atoms: (reference = -2434708.556191)

Kinetic:        +50.802972
Potential:      -66.055766
External:        +0.000000
XC:             -58.396466
Entropy (-ST):   -0.000000
Local:           +0.680849
--------------------------
Free energy:    -72.968410
Extrapolated:   -72.968410

Showing only first 2 kpts
 Kpt  Band  Eigenvalues  Occupancy
  0    52     -4.56896    1.00000
  0    53     -4.53731    1.00000
  0    54     -4.46914    1.00000
  0    55     -4.43249    1.00000

  1    52     -4.60019    1.00000
  1    53     -4.54276    1.00000
  1    54     -4.49248    1.00000
  1    55     -4.45258    1.00000


Fermi level: -0.81571

Gap: 0.859 eV
Transition (v -> c):
  (s=0, k=29, n=107, [-0.06, 0.19, 0.00]) -> (s=0, k=35, n=108, [0.06, -0.06, 0.00])
Timing:                              incl.     excl.
-----------------------------------------------------------
Hamiltonian:                         5.126     0.023   0.0% |
 Atomic:                             2.118     2.118   0.0% |
  XC Correction:                     0.000     0.000   0.0% |
 Calculate atomic Hamiltonians:      0.815     0.815   0.0% |
 Communicate:                        0.000     0.000   0.0% |
 Initialize Hamiltonian:             0.007     0.007   0.0% |
 Poisson:                            0.022     0.022   0.0% |
 XC 3D grid:                         2.141     2.141   0.0% |
LCAO initialization:                16.641     0.108   0.0% |
 LCAO eigensolver:                   2.428     0.000   0.0% |
  DenseAtomicCorrection:             0.003     0.003   0.0% |
  Distribute overlap matrix:         0.000     0.000   0.0% |
  Orbital Layouts:                   0.008     0.008   0.0% |
  Potential matrix:                  2.415     2.415   0.0% |
  Sum over cells:                    0.002     0.002   0.0% |
 LCAO to grid:                      13.933    13.933   0.0% |
 Set positions (LCAO WFS):           0.172     0.035   0.0% |
  Basic WFS set positions:           0.000     0.000   0.0% |
  Basis functions set positions:     0.000     0.000   0.0% |
  P tci:                             0.058     0.058   0.0% |
  ST tci:                            0.046     0.046   0.0% |
  mktci:                             0.032     0.032   0.0% |
PWDescriptor:                        0.080     0.080   0.0% |
SCF-cycle:                       63484.145 26019.425  41.0% |---------------|
 Davidson:                       26383.853  1560.606   2.5% ||
  Apply H:                        5509.494  5509.494   8.7% |--|
  Subspace diag:                  6332.789     0.096   0.0% |
   calc_h_matrix:                 5847.387   279.903   0.4% |
    Apply H:                      5567.484  5567.484   8.8% |---|
   diagonalize:                      3.261     3.261   0.0% |
   rotate_psi:                     482.044   482.044   0.8% |
  calc. matrices:                12133.265  1534.813   2.4% ||
   Apply H:                      10598.453 10598.453  16.7% |------|
  diagonalize:                      45.530    45.530   0.1% |
  rotate_psi:                      802.169   802.169   1.3% ||
 Density:                         9329.821     0.020   0.0% |
  Atomic density matrices:          19.746    19.746   0.0% |
  Mix:                             757.082   757.082   1.2% |
  Multipole moments:                 0.184     0.184   0.0% |
  Pseudo density:                 8552.789  8552.744  13.5% |----|
   Symmetrize density:               0.045     0.045   0.0% |
 Hamiltonian:                     1749.668    11.079   0.0% |
  Atomic:                          195.345   195.343   0.3% |
   XC Correction:                    0.002     0.002   0.0% |
  Calculate atomic Hamiltonians:   436.680   436.680   0.7% |
  Communicate:                       0.201     0.201   0.0% |
  Poisson:                           8.729     8.729   0.0% |
  XC 3D grid:                     1097.635  1097.635   1.7% ||
 Orthonormalize:                     1.378     0.000   0.0% |
  calc_s_matrix:                     0.249     0.249   0.0% |
  inverse-cholesky:                  0.002     0.002   0.0% |
  projections:                       0.543     0.543   0.0% |
  rotate_psi_s:                      0.584     0.584   0.0% |
Set symmetry:                        0.000     0.000   0.0% |
Other:                               5.900     5.900   0.0% |
-----------------------------------------------------------
Total:                                     63511.891 100.0%

Memory usage: 2.24 GiB
Date: Fri Jul  8 16:27:31 2022
