
  ___ ___ ___ _ _ _  
 |   |   |_  | | | | 
 | | | | | . | | | | 
 |__ |  _|___|_____|  21.6.1b1
 |___|_|             

User:   madkru@x187.nifl.fysik.dtu.dk
Date:   Sun Jul 10 22:06:26 2022
Arch:   x86_64
Pid:    25602
Python: 3.8.6
gpaw:   /home/niflheim/madkru/new_venv/gpaw/gpaw (1f0dfc9eae)
_gpaw:  /home/niflheim/madkru/new_venv/gpaw/build/lib.linux-x86_64-broadwell-3.8/
        _gpaw.cpython-38-x86_64-linux-gnu.so (c1e45bfab3)
ase:    /home/niflheim/madkru/new_venv/ase/ase (version 3.23.0b1-ca38c75a67)
numpy:  /home/modules/software/SciPy-bundle/2020.11-foss-2020b/lib/python3.8/site-packages/numpy (version 1.19.4)
scipy:  /home/modules/software/SciPy-bundle/2020.11-foss-2020b/lib/python3.8/site-packages/scipy (version 1.5.4)
libxc:  4.3.4
units:  Angstrom and eV
cores: 48
OpenMP: False
OMP_NUM_THREADS: 1

Input parameters:
  convergence: {density: 1e-09}
  experimental: {magmoms: [[0. 0. 3.]
 [0. 0. 3.]
 [0. 0. 0.]
 ...
 [0. 0. 0.]
 [0. 0. 0.]
 [0. 0. 0.]],
                 soc: True}
  kpts: [8 8 1]
  maxiter: 5000
  mixer: {backend: pulay,
          beta: 0.02,
          method: difference,
          nmaxold: 5,
          weight: 100}
  mode: {ecut: 800.0,
         gammacentered: False,
         name: pw}
  occupations: {fixmagmom: False,
                name: fermi-dirac,
                width: 0.001}
  symmetry: off

System changes: positions, numbers, cell, pbc, initial_charges, initial_magmoms 

Initialize ...

Cr-setup:
  name: Chromium
  id: 444e8044bc0f91048286c984738d87f5
  Z: 24.0
  valence: 6
  core: 18
  charge: 0.0
  file: /home/modules/software/GPAW-setups/0.9.20000/Cr.LDA.gz
  compensation charges: gauss, rc=0.35, lmax=2
  cutoffs: 2.14(filt), 3.04(core),
  valence states:
                energy  radius
    4s(1.00)    -4.191   1.164
    4p(0.00)    -1.079   1.217
    3d(5.00)    -3.128   1.111
    *s          23.021   1.164
    *p          26.132   1.217
    *d          24.083   1.111

  Using partial waves for Cr as LCAO basis

I-setup:
  name: Iodine
  id: b559721c0c096a7b4c8fc0e0f4de5cf4
  Z: 53.0
  valence: 7
  core: 46
  charge: 0.0
  file: /home/modules/software/GPAW-setups/0.9.20000/I.LDA.gz
  compensation charges: gauss, rc=0.37, lmax=2
  cutoffs: 2.06(filt), 2.90(core),
  valence states:
                energy  radius
    5s(2.00)   -17.626   1.164
    5p(5.00)    -7.241   1.164
    *s           9.585   1.164
    *p          19.970   1.164
    *d           0.000   1.164

  Using partial waves for I as LCAO basis

Reference energy: -2434708.556191

Non-collinear calculation.
Magnetic moment: (0.000000, 0.000000, 12.000000)

Convergence criteria:
  Maximum total energy change: 0.0005 eV / electron
  Maximum integral of absolute density change: 1e-09 electrons
  Maximum integral of absolute eigenstate change: 4e-08 eV^2
  Maximum number of iterations: 5000

Symmetries present (total): 1

  ( 1  0  0)
  ( 0  1  0)
  ( 0  0  1)

64 k-points: 8 x 8 x 1 Monkhorst-Pack grid
64 k-points in the irreducible part of the Brillouin zone
       k-points in crystal coordinates                weights
   0:    -0.43750000   -0.43750000    0.00000000          1/64
   1:    -0.43750000   -0.31250000    0.00000000          1/64
   2:    -0.43750000   -0.18750000    0.00000000          1/64
   3:    -0.43750000   -0.06250000    0.00000000          1/64
   4:    -0.43750000    0.06250000    0.00000000          1/64
   5:    -0.43750000    0.18750000    0.00000000          1/64
   6:    -0.43750000    0.31250000    0.00000000          1/64
   7:    -0.43750000    0.43750000    0.00000000          1/64
   8:    -0.31250000   -0.43750000    0.00000000          1/64
   9:    -0.31250000   -0.31250000    0.00000000          1/64
          ...
  63:     0.43750000    0.43750000    0.00000000          1/64

Wave functions: Plane wave expansion
  Cutoff energy: 800.000 eV
  Number of coefficients (min, max): 61276, 61425
  Pulay-stress correction: 0.000000 eV/Ang^3 (de/decut=0.000000)
  Using FFTW library
  ScaLapack parameters: grid=1x1, blocksize=None
  Wavefunction extrapolation:
    Improved wavefunction reuse through dual PAW basis 

Occupation numbers: Fermi-Dirac: width=0.0010 eV
 

Eigensolver
   Davidson(niter=2) 

Densities:
  Coarse grid: 48*48*180 grid
  Fine grid: 96*96*360 grid
  Total Charge: 0.000000 

Density mixing:
  Method: difference
  Backend: pulay
  Linear mixing parameter: 0.02
  Mixing with 5 old densities
  Damping of long wave oscillations: 100 

Hamiltonian:
  XC and Coulomb potentials evaluated on a 96*96*360 grid
  Using the LDA Exchange-Correlation functional
  External potential:
    <gpaw.external.NoExternalPotential object at 0x2b5ed4d3c580>
 

Memory estimate:
  Process memory now: 492.14 MiB
  Calculator: 608.88 MiB
    Density: 233.32 MiB
      Arrays: 82.27 MiB
      Localized functions: 81.44 MiB
      Mixer: 69.61 MiB
    Hamiltonian: 55.77 MiB
      Arrays: 53.79 MiB
      XC: 0.00 MiB
      Poisson: 0.00 MiB
      vbar: 1.99 MiB
    Wavefunctions: 319.78 MiB
      Arrays psit_nG: 142.47 MiB
      Eigensolver: 150.68 MiB
      Projections: 0.53 MiB
      Projectors: 9.35 MiB
      PW-descriptor: 16.76 MiB

Total number of cores used: 48
Parallelization over k-points: 48

Number of atoms: 16
Number of atomic orbitals: 84
Number of bands in calculation: 152
Number of valence electrons: 108
Bands to converge: occupied

... initialized

Initializing position-dependent things.

Density initialized from atomic densities
Creating initial wave functions:
  84 bands from LCAO basis set
  68 bands from random numbers

                                       
                                       
                                       
                                       
                      I                
                            I          
                   I                   
                       Cr  I           
             Cr                        
                 I                     
                         I             
                     I                 
                             I         
               Cr                      
                   I   Cr              
          I                            
                 I                     
                        I              
                                       
                                       
                                       
                                       

Positions:
   0 Cr     3.541071    2.052709    9.332275    ( 0.0000,  0.0000,  3.0000)
   1 Cr    -0.013416    4.104590    9.315218    ( 0.0000,  0.0000,  3.0000)
   2 I      4.489677    0.005957    7.839218    ( 0.0000,  0.0000,  0.0000)
   3 I      1.324728    2.265102    7.832669    ( 0.0000,  0.0000,  0.0000)
   4 I     -2.241360    3.885522    7.833314    ( 0.0000,  0.0000,  0.0000)
   5 I      2.592234   -0.010904   10.804151    ( 0.0000,  0.0000,  0.0000)
   6 I      2.256237    3.914070   10.798624    ( 0.0000,  0.0000,  0.0000)
   7 I      5.831116    2.253451   10.800117    ( 0.0000,  0.0000,  0.0000)
   8 Cr    -0.014315    0.000417   15.475829    ( 0.0000,  0.0000,  3.0000)
   9 Cr     3.540077    2.053560   15.458788    ( 0.0000,  0.0000,  3.0000)
  10 I      4.519392    4.116992   13.994219    ( 0.0000,  0.0000,  0.0000)
  11 I      4.866888    0.183846   13.987354    ( 0.0000,  0.0000,  0.0000)
  12 I      1.293661    1.858307   13.988589    ( 0.0000,  0.0000,  0.0000)
  13 I      2.623123    4.099639   16.959170    ( 0.0000,  0.0000,  0.0000)
  14 I      5.799601    1.833446   16.954064    ( 0.0000,  0.0000,  0.0000)
  15 I      2.255646    0.226379   16.954674    ( 0.0000,  0.0000,  0.0000)

Unit cell:
           periodic     x           y           z      points  spacing
  1. axis:    yes    7.110727   -0.000000    0.000000    48     0.1283
  2. axis:    yes   -3.555363    6.158070    0.000000    48     0.1283
  3. axis:    no     0.000000   -0.000000   27.269192   180     0.1515

  Lengths:   7.110727   7.110727  27.269192
  Angles:   90.000000  90.000000 120.000000

Effective grid spacing dv^(1/3) = 0.1423

                     log10-error:    total        iterations:
           time      wfs    density  energy       poisson
iter:   1  22:09:44                 -80.697069            +0.0,+0.0,+11.9
iter:   2  22:12:25  -1.10  -0.86   -75.809324            +0.0,+0.0,+9.4
iter:   3  22:15:06  -1.46  -1.05   -72.992464            +0.0,+0.0,+9.9
iter:   4  22:17:47  -1.47  -1.35   -72.619926            +0.0,+0.0,+9.9
iter:   5  22:20:29  -1.72  -1.41   -73.878535            -0.0,-0.0,+11.4
iter:   6  22:23:11  -2.32  -1.41   -73.528318            -0.0,-0.0,+12.0
iter:   7  22:25:53  -1.41  -1.64   -72.991999            -0.0,-0.0,+12.1
iter:   8  22:28:34  -2.42  -2.05   -73.000865            -0.0,-0.0,+12.1
iter:   9  22:31:16  -3.26  -2.08   -72.991491            -0.0,-0.0,+12.1
iter:  10  22:33:58  -2.97  -2.09   -72.971472            -0.0,-0.0,+12.1
iter:  11  22:36:40  -3.59  -2.39   -72.969593            -0.0,-0.0,+12.1
iter:  12  22:39:22  -3.79  -2.48   -72.966617            -0.0,-0.0,+12.1
iter:  13  22:42:04  -3.79  -2.64   -72.966865            -0.0,-0.0,+12.1
iter:  14  22:44:46  -4.18  -2.71   -72.966370            -0.0,-0.0,+12.1
iter:  15  22:47:28  -4.36  -2.76   -72.966532            -0.0,-0.0,+12.1
iter:  16  22:50:10  -4.13  -2.77   -72.967024            -0.0,-0.0,+12.1
iter:  17  22:52:52  -4.56  -2.90   -72.966863            -0.0,-0.0,+12.1
iter:  18  22:55:34  -4.28  -2.93   -72.966329            -0.0,-0.0,+12.1
iter:  19  22:58:16  -4.73  -3.19   -72.966468            -0.0,-0.0,+12.1
iter:  20  23:00:58  -5.02  -3.28   -72.966402            -0.0,-0.0,+12.1
iter:  21  23:03:40  -4.98  -3.34   -72.966302            -0.0,-0.0,+12.1
iter:  22  23:06:22  -5.18  -3.45   -72.966315            -0.0,-0.0,+12.1
iter:  23  23:09:04  -5.31  -3.47   -72.966353            -0.0,-0.0,+12.1
iter:  24  23:11:46  -5.29  -3.43   -72.966328            -0.0,-0.0,+12.1
iter:  25  23:14:28  -5.65  -3.46   -72.966347            -0.0,-0.0,+12.1
iter:  26  23:17:10  -5.60  -3.52   -72.966368            -0.0,-0.0,+12.1
iter:  27  23:19:52  -5.78  -3.50   -72.966348            -0.0,-0.0,+12.1
iter:  28  23:22:34  -5.74  -3.49   -72.966363            -0.0,-0.0,+12.1
iter:  29  23:25:16  -5.77  -3.54   -72.966355            -0.0,-0.0,+12.1
iter:  30  23:27:58  -5.81  -3.61   -72.966365            -0.0,-0.0,+12.1
iter:  31  23:30:40  -6.22  -3.59   -72.966378            -0.0,-0.0,+12.1
iter:  32  23:33:22  -6.47  -3.61   -72.966377            -0.0,-0.0,+12.1
iter:  33  23:36:04  -5.82  -3.63   -72.966365            -0.0,-0.0,+12.1
iter:  34  23:38:46  -6.44  -3.75   -72.966348            -0.0,-0.0,+12.1
iter:  35  23:41:28  -6.42  -3.93   -72.966345            -0.0,-0.0,+12.1
iter:  36  23:44:09  -6.75  -3.91   -72.966347            -0.0,-0.0,+12.1
iter:  37  23:46:51  -6.60  -4.00   -72.966351            -0.0,-0.0,+12.1
iter:  38  23:49:33  -6.47  -3.97   -72.966338            -0.0,-0.0,+12.1
iter:  39  23:52:15  -7.07  -4.23   -72.966339            -0.0,-0.0,+12.1
iter:  40  23:54:57  -7.06  -4.23   -72.966339            -0.0,-0.0,+12.1
iter:  41  23:57:39  -7.29  -4.33   -72.966339            -0.0,-0.0,+12.1
iter:  42  00:00:21  -7.71  -4.39   -72.966339            -0.0,-0.0,+12.1
iter:  43  00:03:03  -7.52  -4.42   -72.966339            -0.0,-0.0,+12.1
iter:  44  00:05:45  -7.50  -4.50   -72.966339            -0.0,-0.0,+12.1
iter:  45  00:08:27  -7.58  -4.49   -72.966339            -0.0,-0.0,+12.1
iter:  46  00:11:09  -7.85  -4.50   -72.966339            -0.0,-0.0,+12.1
iter:  47  00:13:52  -7.33  -4.49   -72.966339            -0.0,-0.0,+12.1
iter:  48  00:16:33  -6.91  -4.55   -72.966340            -0.0,-0.0,+12.1
iter:  49  00:19:16  -7.34  -4.57   -72.966340            -0.0,-0.0,+12.1
iter:  50  00:21:58  -7.93  -4.77   -72.966340            -0.0,-0.0,+12.1
iter:  51  00:24:40  -8.33  -4.91   -72.966339            -0.0,-0.0,+12.1
iter:  52  00:27:22  -8.36  -4.94   -72.966341            -0.0,-0.0,+12.1
iter:  53  00:30:04  -8.14  -4.87   -72.966337            -0.0,-0.0,+12.1
iter:  54  00:32:45  -8.79  -4.95   -72.966342            -0.0,-0.0,+12.1
iter:  55  00:35:28  -8.40  -4.96   -72.966363            -0.0,-0.0,+12.1
iter:  56  00:38:09  -8.63  -5.03   -72.966341            -0.0,-0.0,+12.1
iter:  57  00:40:51  -8.44  -5.12   -72.966340            -0.0,-0.0,+12.1
iter:  58  00:43:33  -7.62  -5.14   -72.966338            -0.0,-0.0,+12.1
iter:  59  00:46:15  -7.36  -5.16   -72.966317            -0.0,-0.0,+12.1
iter:  60  00:48:57  -7.05  -5.37   -72.966346            -0.0,-0.0,+12.1
iter:  61  00:51:40  -6.86  -5.39   -72.966378            -0.0,-0.0,+12.1
iter:  62  00:54:22  -8.16  -5.46   -72.966348            -0.0,-0.0,+12.1
iter:  63  00:57:04  -7.66  -5.68   -72.966384            -0.0,-0.0,+12.1
iter:  64  00:59:46  -7.12  -5.69   -72.966395            -0.0,-0.0,+12.1
iter:  65  01:02:28  -7.94  -5.70   -72.966390            -0.0,-0.0,+12.1
iter:  66  01:05:10  -8.61  -5.71   -72.966325            -0.0,-0.0,+12.1
iter:  67  01:07:52  -9.30  -5.77   -72.966156            -0.0,-0.0,+12.1
iter:  68  01:10:34  -9.24  -6.02   -72.966230            -0.0,-0.0,+12.1
iter:  69  01:13:16  -9.03  -6.14   -72.966350            -0.0,-0.0,+12.1
iter:  70  01:15:58  -7.73  -6.30   -72.966403            -0.0,-0.0,+12.1
iter:  71  01:18:40  -7.92  -6.27   -72.966380            -0.0,-0.0,+12.1
iter:  72  01:21:22  -8.07  -6.22   -72.966421            -0.0,-0.0,+12.1
iter:  73  01:24:04  -8.47  -6.22   -72.966456            -0.0,-0.0,+12.1
iter:  74  01:26:46  -8.94  -6.23   -72.966456            -0.0,-0.0,+12.1
iter:  75  01:29:28  -9.33  -6.23   -72.966424            -0.0,-0.0,+12.1
iter:  76  01:32:10  -9.14  -6.23   -72.966269            -0.0,-0.0,+12.1
iter:  77  01:34:52  -9.28  -6.23   -72.966236            -0.0,-0.0,+12.1
iter:  78  01:37:34  -9.85  -6.22   -72.966251            -0.0,-0.0,+12.1
iter:  79  01:40:16  -9.64  -6.22   -72.966785            -0.0,-0.0,+12.1
iter:  80  01:42:58  -8.27  -6.23   -72.966899            -0.0,-0.0,+12.1
iter:  81  01:45:40  -9.42  -6.24   -72.967120            -0.0,-0.0,+12.1
iter:  82  01:48:22  -8.38  -6.28   -72.967571            -0.0,-0.0,+12.1
iter:  83  01:51:04  -8.02  -6.31   -72.967125            -0.0,-0.0,+12.1
iter:  84  01:53:46  -8.84  -6.24   -72.967469            -0.0,-0.0,+12.1
iter:  85  01:56:28  -9.06  -6.30   -72.967564            -0.0,-0.0,+12.1
iter:  86  01:59:10  -9.17  -6.47   -72.967258            -0.0,-0.0,+12.1
iter:  87  02:01:52  -9.85  -6.42   -72.967306            -0.0,-0.0,+12.1
iter:  88  02:04:33  -9.87  -6.47   -72.967408            -0.0,-0.0,+12.1
iter:  89  02:07:16  -9.85  -6.46   -72.967461            -0.0,-0.0,+12.1
iter:  90  02:09:58  -7.34  -6.43   -72.967545            -0.0,-0.0,+12.1
iter:  91  02:12:40  -8.03  -6.35   -72.967504            -0.0,-0.0,+12.1
iter:  92  02:15:21  -8.82  -6.31   -72.967603            -0.0,-0.0,+12.1
iter:  93  02:18:04  -9.00  -6.31   -72.967517            -0.0,-0.0,+12.1
iter:  94  02:20:45  -9.42  -6.33   -72.967449            -0.0,-0.0,+12.1
iter:  95  02:23:27  -9.45  -6.32   -72.967545            -0.0,-0.0,+12.1
iter:  96  02:26:09  -8.62  -6.32   -72.967378            -0.0,-0.0,+12.1
iter:  97  02:28:51  -8.82  -6.33   -72.967298            -0.0,-0.0,+12.1
iter:  98  02:31:33  -9.68  -6.34   -72.967230            -0.0,-0.0,+12.1
iter:  99  02:34:15  -8.82  -6.30   -72.967321            -0.0,-0.0,+12.1
iter: 100  02:36:57  -8.75  -6.30   -72.967391            -0.0,-0.0,+12.1
iter: 101  02:39:40  -9.49  -6.25   -72.967068            -0.0,-0.0,+12.1
iter: 102  02:42:21  -8.65  -6.30   -72.967043            -0.0,-0.0,+12.1
iter: 103  02:45:04  -9.33  -6.23   -72.966859            -0.0,-0.0,+12.1
iter: 104  02:47:46  -9.63  -6.36   -72.966615            -0.0,-0.0,+12.1
iter: 105  02:50:28  -9.03  -6.45   -72.966327            -0.0,-0.0,+12.1
iter: 106  02:53:09  -9.37  -6.44   -72.966426            -0.0,-0.0,+12.1
iter: 107  02:55:52  -8.90  -6.31   -72.966173            -0.0,-0.0,+12.1
iter: 108  02:58:33  -9.54  -6.43   -72.966203            -0.0,-0.0,+12.1
iter: 109  03:01:16  -9.15  -6.41   -72.966562            -0.0,-0.0,+12.1
iter: 110  03:03:57  -7.72  -6.44   -72.966461            -0.0,-0.0,+12.1
iter: 111  03:06:40  -9.25  -6.39   -72.966619            -0.0,-0.0,+12.1
iter: 112  03:09:21  -9.28  -6.42   -72.966475            -0.0,-0.0,+12.1
iter: 113  03:12:03  -9.30  -6.41   -72.966614            -0.0,-0.0,+12.1
iter: 114  03:14:45  -9.09  -6.40   -72.966681            -0.0,-0.0,+12.1
iter: 115  03:17:27  -9.18  -6.39   -72.966604            -0.0,-0.0,+12.1
iter: 116  03:20:09  -9.01  -6.39   -72.966667            -0.0,-0.0,+12.1
iter: 117  03:22:51  -8.96  -6.38   -72.966701            -0.0,-0.0,+12.1
iter: 118  03:25:33  -9.49  -6.34   -72.966594            -0.0,-0.0,+12.1
iter: 119  03:28:15  -9.26  -6.35   -72.966300            -0.0,-0.0,+12.1
iter: 120  03:30:57  -9.05  -6.35   -72.966163            -0.0,-0.0,+12.1
iter: 121  03:33:39  -9.72  -6.33   -72.966521            -0.0,-0.0,+12.1
iter: 122  03:36:21  -9.51  -6.30   -72.966766            -0.0,-0.0,+12.1
iter: 123  03:39:03 -10.39  -6.24   -72.966068            -0.0,-0.0,+12.1
iter: 124  03:41:45 -10.32  -6.35   -72.966073            -0.0,-0.0,+12.1
iter: 125  03:44:27  -8.46  -6.36   -72.965680            -0.0,-0.0,+12.1
iter: 126  03:47:09  -9.89  -6.38   -72.965788            -0.0,-0.0,+12.1
iter: 127  03:49:52  -9.98  -6.37   -72.965721            -0.0,-0.0,+12.1
iter: 128  03:52:34  -9.31  -6.36   -72.965708            -0.0,-0.0,+12.1
iter: 129  03:55:16  -8.61  -6.37   -72.965769            -0.0,-0.0,+12.1
iter: 130  03:57:58  -8.18  -6.40   -72.965837            -0.0,-0.0,+12.1
iter: 131  04:00:40  -9.21  -6.34   -72.965923            -0.0,-0.0,+12.1
iter: 132  04:03:22 -10.42  -6.34   -72.965654            -0.0,-0.0,+12.1
iter: 133  04:06:04  -9.79  -6.33   -72.965956            -0.0,-0.0,+12.1
iter: 134  04:08:46 -10.14  -6.35   -72.965989            -0.0,-0.0,+12.1
iter: 135  04:11:28 -10.58  -6.35   -72.965739            -0.0,-0.0,+12.1
iter: 136  04:14:10 -10.61  -6.36   -72.965751            -0.0,-0.0,+12.1
iter: 137  04:16:52 -10.21  -6.37   -72.966037            -0.0,-0.0,+12.1
iter: 138  04:19:34  -9.73  -6.49   -72.965727            -0.0,-0.0,+12.1
iter: 139  04:22:16  -9.05  -6.70   -72.965745            -0.0,-0.0,+12.1
iter: 140  04:24:58  -9.29  -6.72   -72.965749            -0.0,-0.0,+12.1
iter: 141  04:27:40 -10.35  -6.75   -72.965668            -0.0,-0.0,+12.1
iter: 142  04:30:22 -10.99  -6.76   -72.965685            -0.0,-0.0,+12.1
iter: 143  04:33:04  -8.92  -6.73   -72.965864            -0.0,-0.0,+12.1
iter: 144  04:35:46  -9.11  -6.56   -72.965767            -0.0,-0.0,+12.1
iter: 145  04:38:28  -8.67  -6.62   -72.965722            -0.0,-0.0,+12.1
iter: 146  04:41:10  -9.80  -6.59   -72.965646            -0.0,-0.0,+12.1
iter: 147  04:43:52  -9.47  -6.64   -72.965639            -0.0,-0.0,+12.1
iter: 148  04:46:34  -9.85  -6.69   -72.965744            -0.0,-0.0,+12.1
iter: 149  04:49:16 -10.56  -6.58   -72.965766            -0.0,-0.0,+12.1
iter: 150  04:51:58 -10.46  -6.59   -72.965745            -0.0,-0.0,+12.1
iter: 151  04:54:40 -11.17  -6.57   -72.965824            -0.0,-0.0,+12.1
iter: 152  04:57:22 -10.86  -6.57   -72.965884            -0.0,-0.0,+12.1
iter: 153  05:00:04  -9.87  -6.60   -72.965771            -0.0,-0.0,+12.1
iter: 154  05:02:46 -10.41  -6.65   -72.965775            -0.0,-0.0,+12.1
iter: 155  05:05:28  -9.57  -6.67   -72.965782            -0.0,-0.0,+12.1
iter: 156  05:08:10  -9.50  -6.63   -72.965892            -0.0,-0.0,+12.1
iter: 157  05:10:52  -8.94  -6.65   -72.965952            -0.0,-0.0,+12.1
iter: 158  05:13:34  -8.89  -6.62   -72.965943            -0.0,-0.0,+12.1
iter: 159  05:16:16 -10.26  -6.67   -72.965976            -0.0,-0.0,+12.1
iter: 160  05:18:58 -10.02  -6.70   -72.966095            -0.0,-0.0,+12.1
iter: 161  05:21:40  -8.65  -6.78   -72.966143            -0.0,-0.0,+12.1
iter: 162  05:24:22  -8.66  -6.85   -72.966113            -0.0,-0.0,+12.1
iter: 163  05:27:04  -9.81  -6.80   -72.966186            -0.0,-0.0,+12.1
iter: 164  05:29:46  -9.88  -6.78   -72.966144            -0.0,-0.0,+12.1
iter: 165  05:32:28  -9.51  -6.80   -72.966147            -0.0,-0.0,+12.1
iter: 166  05:35:10  -8.48  -6.80   -72.966148            -0.0,-0.0,+12.1
iter: 167  05:37:52  -9.44  -6.78   -72.966135            -0.0,-0.0,+12.1
iter: 168  05:40:34 -10.43  -6.76   -72.966233            -0.0,-0.0,+12.1
iter: 169  05:43:16 -10.05  -6.82   -72.966223            -0.0,-0.0,+12.1
iter: 170  05:45:58  -9.98  -6.81   -72.966231            -0.0,-0.0,+12.1
iter: 171  05:48:40 -10.03  -6.80   -72.966267            -0.0,-0.0,+12.1
iter: 172  05:51:22 -10.19  -6.79   -72.966252            -0.0,-0.0,+12.1
iter: 173  05:54:05 -10.21  -6.76   -72.966224            -0.0,-0.0,+12.1
iter: 174  05:56:46  -8.88  -6.74   -72.966272            -0.0,-0.0,+12.1
iter: 175  05:59:29  -9.98  -6.74   -72.966231            -0.0,-0.0,+12.1
iter: 176  06:02:10 -10.15  -6.72   -72.966285            -0.0,-0.0,+12.1
iter: 177  06:04:53 -10.31  -6.76   -72.966306            -0.0,-0.0,+12.1
iter: 178  06:07:35  -9.94  -6.74   -72.966347            -0.0,-0.0,+12.1
iter: 179  06:10:17  -8.69  -6.77   -72.966277            -0.0,-0.0,+12.1
iter: 180  06:12:59 -10.23  -6.77   -72.966273            -0.0,-0.0,+12.1
iter: 181  06:15:41  -9.79  -6.73   -72.966402            -0.0,-0.0,+12.1
iter: 182  06:18:23  -9.22  -6.82   -72.966393            -0.0,-0.0,+12.1
iter: 183  06:21:05  -9.42  -6.83   -72.966380            -0.0,-0.0,+12.1
iter: 184  06:23:47  -8.90  -6.83   -72.966311            -0.0,-0.0,+12.1
iter: 185  06:26:29 -10.28  -6.79   -72.966372            -0.0,-0.0,+12.1
iter: 186  06:29:11 -10.53  -6.76   -72.966332            -0.0,-0.0,+12.1
iter: 187  06:31:53 -11.02  -6.79   -72.966308            -0.0,-0.0,+12.1
iter: 188  06:34:35 -11.34  -6.78   -72.966300            -0.0,-0.0,+12.1
iter: 189  06:37:17 -11.37  -6.81   -72.966275            -0.0,-0.0,+12.1
iter: 190  06:39:59 -10.71  -6.73   -72.966323            -0.0,-0.0,+12.1
iter: 191  06:42:41  -9.43  -6.71   -72.966268            -0.0,-0.0,+12.1
iter: 192  06:45:23  -8.73  -6.68   -72.966203            -0.0,-0.0,+12.1
iter: 193  06:48:05  -9.18  -6.70   -72.966229            -0.0,-0.0,+12.1
iter: 194  06:50:47  -9.79  -6.72   -72.966203            -0.0,-0.0,+12.1
iter: 195  06:53:30  -9.60  -6.68   -72.966034            -0.0,-0.0,+12.1
iter: 196  06:56:11 -10.55  -6.84   -72.966128            -0.0,-0.0,+12.1
iter: 197  06:58:54 -11.10  -6.80   -72.966058            -0.0,-0.0,+12.1
iter: 198  07:01:35 -10.64  -6.79   -72.966055            -0.0,-0.0,+12.1
iter: 199  07:04:18 -10.57  -6.79   -72.966058            -0.0,-0.0,+12.1
iter: 200  07:07:00 -10.53  -6.79   -72.966055            -0.0,-0.0,+12.1
iter: 201  07:09:42  -9.99  -6.80   -72.966129            -0.0,-0.0,+12.1
iter: 202  07:12:23  -9.29  -6.76   -72.966099            -0.0,-0.0,+12.1
iter: 203  07:15:05 -10.16  -6.73   -72.966160            -0.0,-0.0,+12.1
iter: 204  07:17:47  -9.97  -6.72   -72.966135            -0.0,-0.0,+12.1
iter: 205  07:20:29 -10.29  -6.77   -72.966103            -0.0,-0.0,+12.1
iter: 206  07:23:11 -11.02  -6.77   -72.966166            -0.0,-0.0,+12.1
iter: 207  07:25:53 -10.07  -6.78   -72.966163            -0.0,-0.0,+12.1
iter: 208  07:28:35 -10.58  -6.76   -72.966190            -0.0,-0.0,+12.1
iter: 209  07:31:18 -10.27  -6.80   -72.966234            -0.0,-0.0,+12.1
iter: 210  07:34:00 -10.09  -6.82   -72.966263            -0.0,-0.0,+12.1
iter: 211  07:36:42 -11.15  -6.83   -72.966265            -0.0,-0.0,+12.1
iter: 212  07:39:24 -10.64  -6.87   -72.966201            +0.0,-0.0,+12.1
iter: 213  07:42:06 -10.36  -6.99   -72.966243            +0.0,-0.0,+12.1
iter: 214  07:44:48 -10.25  -6.96   -72.966225            +0.0,-0.0,+12.1
iter: 215  07:47:30 -10.66  -6.99   -72.966222            +0.0,-0.0,+12.1
iter: 216  07:50:12  -9.99  -6.94   -72.966239            -0.0,-0.0,+12.1
iter: 217  07:52:54 -10.53  -6.92   -72.966244            +0.0,-0.0,+12.1
iter: 218  07:55:36 -10.60  -6.92   -72.966242            +0.0,-0.0,+12.1
iter: 219  07:58:19  -9.26  -6.98   -72.966243            +0.0,-0.0,+12.1
iter: 220  08:01:01  -9.16  -7.01   -72.966278            +0.0,-0.0,+12.1
iter: 221  08:03:43 -10.00  -7.08   -72.966301            +0.0,-0.0,+12.1
iter: 222  08:06:25 -10.31  -7.08   -72.966293            +0.0,-0.0,+12.1
iter: 223  08:09:07 -11.24  -7.09   -72.966323            +0.0,-0.0,+12.1
iter: 224  08:11:49 -11.39  -7.11   -72.966312            +0.0,-0.0,+12.1
iter: 225  08:14:31 -11.44  -7.09   -72.966291            +0.0,-0.0,+12.1
iter: 226  08:17:13 -11.69  -7.12   -72.966299            +0.0,-0.0,+12.1
iter: 227  08:19:55 -11.31  -7.14   -72.966259            +0.0,-0.0,+12.1
iter: 228  08:22:37 -10.45  -7.15   -72.966227            +0.0,-0.0,+12.1
iter: 229  08:25:19 -10.58  -7.13   -72.966240            +0.0,-0.0,+12.1
iter: 230  08:28:01 -10.09  -7.17   -72.966239            +0.0,-0.0,+12.1
iter: 231  08:30:43  -8.72  -7.18   -72.966249            +0.0,-0.0,+12.1
iter: 232  08:33:25 -10.24  -7.21   -72.966236            +0.0,-0.0,+12.1
iter: 233  08:36:08 -10.09  -7.26   -72.966267            +0.0,-0.0,+12.1
iter: 234  08:38:49 -10.04  -7.31   -72.966281            -0.0,-0.0,+12.1
iter: 235  08:41:32 -10.38  -7.37   -72.966297            -0.0,-0.0,+12.1
iter: 236  08:44:13 -10.99  -7.36   -72.966299            -0.0,-0.0,+12.1
iter: 237  08:46:56  -9.70  -7.39   -72.966287            +0.0,-0.0,+12.1
iter: 238  08:49:37 -10.36  -7.39   -72.966277            +0.0,-0.0,+12.1
iter: 239  08:52:20 -11.03  -7.34   -72.966309            +0.0,-0.0,+12.1
iter: 240  08:55:02 -10.59  -7.35   -72.966292            +0.0,-0.0,+12.1
iter: 241  08:57:44 -10.51  -7.31   -72.966293            +0.0,-0.0,+12.1
iter: 242  09:00:26  -9.57  -7.30   -72.966295            +0.0,-0.0,+12.1
iter: 243  09:03:08  -9.76  -7.26   -72.966272            +0.0,-0.0,+12.1
iter: 244  09:05:50 -10.67  -7.20   -72.966285            +0.0,-0.0,+12.1
iter: 245  09:08:32 -10.86  -7.32   -72.966292            +0.0,-0.0,+12.1
iter: 246  09:11:14 -11.66  -7.28   -72.966311            +0.0,-0.0,+12.1
iter: 247  09:13:56 -11.76  -7.27   -72.966263            +0.0,-0.0,+12.1
iter: 248  09:16:38 -10.56  -7.26   -72.966251            +0.0,-0.0,+12.1
iter: 249  09:19:20 -10.02  -7.25   -72.966259            +0.0,-0.0,+12.1
iter: 250  09:22:02 -10.98  -7.32   -72.966268            +0.0,-0.0,+12.1
iter: 251  09:24:44 -11.88  -7.30   -72.966247            +0.0,-0.0,+12.1
iter: 252  09:27:25 -10.76  -7.27   -72.966297            +0.0,-0.0,+12.1
iter: 253  09:30:07 -10.24  -7.32   -72.966292            +0.0,-0.0,+12.1
iter: 254  09:32:49 -10.74  -7.27   -72.966295            +0.0,-0.0,+12.1
iter: 255  09:35:31 -11.37  -7.29   -72.966302            +0.0,-0.0,+12.1
iter: 256  09:38:13 -10.05  -7.27   -72.966315            +0.0,-0.0,+12.1
iter: 257  09:40:55 -10.46  -7.26   -72.966335            +0.0,-0.0,+12.1
iter: 258  09:43:37 -10.24  -7.21   -72.966265            +0.0,-0.0,+12.1
iter: 259  09:46:19  -9.80  -7.20   -72.966260            +0.0,-0.0,+12.1
iter: 260  09:49:01 -10.18  -7.19   -72.966255            +0.0,-0.0,+12.1
iter: 261  09:51:44 -10.52  -7.16   -72.966244            +0.0,-0.0,+12.1
iter: 262  09:54:25  -9.99  -7.20   -72.966259            +0.0,-0.0,+12.1
iter: 263  09:57:08 -10.60  -7.19   -72.966241            +0.0,-0.0,+12.1
iter: 264  09:59:49 -11.07  -7.15   -72.966193            +0.0,-0.0,+12.1
iter: 265  10:02:31 -10.91  -7.08   -72.966264            +0.0,-0.0,+12.1
iter: 266  10:05:13 -11.09  -7.17   -72.966335            +0.0,-0.0,+12.1
iter: 267  10:07:55 -11.22  -7.17   -72.966294            +0.0,-0.0,+12.1
iter: 268  10:10:37  -9.98  -7.22   -72.966288            +0.0,-0.0,+12.1
iter: 269  10:13:20 -11.33  -7.19   -72.966241            +0.0,-0.0,+12.1
iter: 270  10:16:01 -11.15  -7.18   -72.966206            +0.0,-0.0,+12.1
iter: 271  10:18:43  -9.56  -7.16   -72.966237            +0.0,-0.0,+12.1
iter: 272  10:21:25 -10.48  -7.14   -72.966272            +0.0,-0.0,+12.1
iter: 273  10:24:07  -9.50  -7.14   -72.966278            +0.0,-0.0,+12.1
iter: 274  10:26:49 -10.54  -7.11   -72.966301            +0.0,-0.0,+12.1
iter: 275  10:29:31 -11.13  -7.14   -72.966339            +0.0,-0.0,+12.1
iter: 276  10:32:13 -10.82  -7.14   -72.966340            +0.0,-0.0,+12.1
iter: 277  10:34:55 -10.46  -7.15   -72.966341            +0.0,-0.0,+12.1
iter: 278  10:37:37 -10.06  -7.14   -72.966334            +0.0,-0.0,+12.1
iter: 279  10:40:20  -9.41  -7.14   -72.966309            +0.0,-0.0,+12.1
iter: 280  10:43:02  -9.93  -7.07   -72.966349            +0.0,-0.0,+12.1
iter: 281  10:45:44 -11.29  -7.10   -72.966364            +0.0,-0.0,+12.1
iter: 282  10:48:26 -11.85  -7.11   -72.966361            +0.0,-0.0,+12.1
iter: 283  10:51:08 -11.98  -7.14   -72.966354            +0.0,-0.0,+12.1
iter: 284  10:53:50 -11.94  -7.21   -72.966311            +0.0,-0.0,+12.1
iter: 285  10:56:32 -11.03  -7.33   -72.966270            +0.0,-0.0,+12.1
iter: 286  10:59:14 -10.09  -7.37   -72.966277            +0.0,-0.0,+12.1
iter: 287  11:01:56  -9.67  -7.38   -72.966265            +0.0,-0.0,+12.1
iter: 288  11:04:38  -9.87  -7.38   -72.966276            +0.0,-0.0,+12.1
iter: 289  11:07:20 -10.06  -7.35   -72.966291            +0.0,-0.0,+12.1
iter: 290  11:10:02 -10.47  -7.34   -72.966317            +0.0,-0.0,+12.1
iter: 291  11:12:44 -10.42  -7.33   -72.966312            +0.0,-0.0,+12.1
iter: 292  11:15:26 -10.44  -7.31   -72.966270            +0.0,-0.0,+12.1
iter: 293  11:18:08 -10.64  -7.40   -72.966253            +0.0,-0.0,+12.1
iter: 294  11:20:50 -10.67  -7.41   -72.966262            +0.0,-0.0,+12.1
iter: 295  11:23:32 -11.45  -7.39   -72.966269            +0.0,-0.0,+12.1
iter: 296  11:26:14 -10.28  -7.37   -72.966269            +0.0,-0.0,+12.1
iter: 297  11:28:56 -11.59  -7.33   -72.966278            +0.0,-0.0,+12.1
iter: 298  11:31:38 -10.39  -7.35   -72.966273            +0.0,-0.0,+12.1
iter: 299  11:34:20 -11.38  -7.34   -72.966299            +0.0,-0.0,+12.1
iter: 300  11:37:02 -11.50  -7.32   -72.966301            +0.0,-0.0,+12.1
iter: 301  11:39:44 -10.99  -7.36   -72.966291            +0.0,-0.0,+12.1
iter: 302  11:42:26 -11.12  -7.38   -72.966279            +0.0,-0.0,+12.1
iter: 303  11:45:08 -10.38  -7.30   -72.966280            +0.0,-0.0,+12.1
iter: 304  11:47:50 -11.23  -7.28   -72.966289            +0.0,-0.0,+12.1
iter: 305  11:50:32 -10.61  -7.30   -72.966283            +0.0,-0.0,+12.1
iter: 306  11:53:14 -10.57  -7.32   -72.966288            +0.0,-0.0,+12.1
iter: 307  11:55:56 -11.24  -7.31   -72.966306            +0.0,-0.0,+12.1
iter: 308  11:58:38 -10.83  -7.27   -72.966287            +0.0,-0.0,+12.1
iter: 309  12:01:20 -11.27  -7.37   -72.966287            +0.0,-0.0,+12.1
iter: 310  12:04:02 -11.96  -7.44   -72.966319            +0.0,-0.0,+12.1
iter: 311  12:06:44 -10.62  -7.25   -72.966320            +0.0,-0.0,+12.1
iter: 312  12:09:25 -11.12  -7.41   -72.966298            +0.0,-0.0,+12.1
iter: 313  12:12:08 -11.01  -7.39   -72.966288            +0.0,-0.0,+12.1
iter: 314  12:14:49 -10.56  -7.40   -72.966294            +0.0,-0.0,+12.1
iter: 315  12:17:31 -10.88  -7.37   -72.966295            +0.0,-0.0,+12.1
iter: 316  12:20:13 -11.07  -7.37   -72.966304            +0.0,-0.0,+12.1
iter: 317  12:22:55 -10.46  -7.41   -72.966314            +0.0,-0.0,+12.1
iter: 318  12:25:37 -11.01  -7.46   -72.966313            +0.0,-0.0,+12.1
iter: 319  12:28:19 -11.25  -7.47   -72.966323            +0.0,-0.0,+12.1
iter: 320  12:31:01 -10.59  -7.59   -72.966318            +0.0,-0.0,+12.1
iter: 321  12:33:43 -10.82  -7.58   -72.966327            +0.0,-0.0,+12.1
iter: 322  12:36:25 -10.98  -7.55   -72.966333            +0.0,-0.0,+12.1
iter: 323  12:39:08 -10.61  -7.51   -72.966336            +0.0,-0.0,+12.1
iter: 324  12:41:49 -11.16  -7.49   -72.966314            +0.0,-0.0,+12.1
iter: 325  12:44:32 -10.03  -7.47   -72.966311            +0.0,-0.0,+12.1
iter: 326  12:47:13 -10.03  -7.52   -72.966310            +0.0,-0.0,+12.1
iter: 327  12:49:56 -11.69  -7.57   -72.966317            +0.0,-0.0,+12.1
iter: 328  12:52:37 -11.98  -7.54   -72.966315            +0.0,-0.0,+12.1
iter: 329  12:55:20 -11.68  -7.43   -72.966307            +0.0,-0.0,+12.1
iter: 330  12:58:01 -10.14  -7.50   -72.966306            +0.0,-0.0,+12.1
iter: 331  13:00:44 -10.61  -7.40   -72.966303            +0.0,-0.0,+12.1
iter: 332  13:03:25 -10.72  -7.34   -72.966316            +0.0,-0.0,+12.1
iter: 333  13:06:07 -10.60  -7.38   -72.966330            +0.0,-0.0,+12.1
iter: 334  13:08:49 -10.80  -7.37   -72.966340            +0.0,-0.0,+12.1
iter: 335  13:11:31 -10.84  -7.40   -72.966347            +0.0,-0.0,+12.1
iter: 336  13:14:13 -12.07  -7.41   -72.966349            +0.0,-0.0,+12.1
iter: 337  13:16:55 -11.77  -7.42   -72.966325            +0.0,-0.0,+12.1
iter: 338  13:19:37 -11.51  -7.47   -72.966320            +0.0,-0.0,+12.1
iter: 339  13:22:19 -11.37  -7.50   -72.966346            +0.0,-0.0,+12.1
iter: 340  13:25:01 -10.54  -7.68   -72.966346            +0.0,-0.0,+12.1
iter: 341  13:27:43 -10.31  -7.68   -72.966355            +0.0,-0.0,+12.1
iter: 342  13:30:25 -10.58  -7.62   -72.966349            +0.0,-0.0,+12.1
iter: 343  13:33:08 -10.92  -7.55   -72.966341            +0.0,-0.0,+12.1
iter: 344  13:35:50 -10.57  -7.50   -72.966349            +0.0,-0.0,+12.1
iter: 345  13:38:32 -12.01  -7.44   -72.966337            +0.0,-0.0,+12.1
iter: 346  13:41:14 -11.84  -7.43   -72.966342            +0.0,-0.0,+12.1
iter: 347  13:43:56 -11.35  -7.45   -72.966342            +0.0,-0.0,+12.1
iter: 348  13:46:38 -11.47  -7.47   -72.966337            +0.0,-0.0,+12.1
iter: 349  13:49:20 -11.54  -7.48   -72.966340            +0.0,-0.0,+12.1
iter: 350  13:52:02 -10.94  -7.47   -72.966331            +0.0,-0.0,+12.1
iter: 351  13:54:44 -10.80  -7.53   -72.966324            +0.0,-0.0,+12.1
iter: 352  13:57:26 -11.79  -7.54   -72.966324            +0.0,-0.0,+12.1
iter: 353  14:00:08 -12.37  -7.51   -72.966322            +0.0,-0.0,+12.1
iter: 354  14:02:50 -12.94  -7.54   -72.966330            +0.0,-0.0,+12.1
iter: 355  14:05:32 -12.93  -7.57   -72.966357            +0.0,-0.0,+12.1
iter: 356  14:08:14 -11.81  -7.63   -72.966358            +0.0,-0.0,+12.1
iter: 357  14:10:56 -10.81  -7.63   -72.966355            +0.0,-0.0,+12.1
iter: 358  14:13:38 -11.73  -7.58   -72.966359            +0.0,-0.0,+12.1
iter: 359  14:16:20 -12.45  -7.58   -72.966358            +0.0,-0.0,+12.1
iter: 360  14:19:02 -12.28  -7.57   -72.966355            +0.0,-0.0,+12.1
iter: 361  14:21:44 -10.11  -7.54   -72.966352            +0.0,-0.0,+12.1
iter: 362  14:24:26 -10.74  -7.48   -72.966351            +0.0,-0.0,+12.1
iter: 363  14:27:08 -11.56  -7.46   -72.966357            +0.0,-0.0,+12.1
iter: 364  14:29:50 -10.96  -7.50   -72.966354            +0.0,-0.0,+12.1
iter: 365  14:32:32 -11.19  -7.47   -72.966351            +0.0,-0.0,+12.1
iter: 366  14:35:14 -11.82  -7.40   -72.966362            +0.0,-0.0,+12.1
iter: 367  14:37:57 -10.93  -7.56   -72.966365            +0.0,-0.0,+12.1
iter: 368  14:40:39 -11.46  -7.57   -72.966370            +0.0,-0.0,+12.1
iter: 369  14:43:21 -11.89  -7.54   -72.966364            +0.0,-0.0,+12.1
iter: 370  14:46:03 -10.79  -7.58   -72.966366            +0.0,-0.0,+12.1
iter: 371  14:48:45 -11.25  -7.60   -72.966363            +0.0,-0.0,+12.1
iter: 372  14:51:27 -11.55  -7.56   -72.966369            +0.0,-0.0,+12.1
iter: 373  14:54:09 -10.82  -7.60   -72.966370            +0.0,-0.0,+12.1
iter: 374  14:56:51 -11.20  -7.57   -72.966367            +0.0,-0.0,+12.1
iter: 375  14:59:33 -11.63  -7.56   -72.966366            +0.0,-0.0,+12.1
iter: 376  15:02:15 -10.96  -7.61   -72.966363            +0.0,-0.0,+12.1
iter: 377  15:04:57 -11.59  -7.60   -72.966361            +0.0,-0.0,+12.1
iter: 378  15:07:39 -11.80  -7.63   -72.966361            +0.0,-0.0,+12.1
iter: 379  15:10:22 -12.06  -7.63   -72.966361            +0.0,-0.0,+12.1
iter: 380  15:13:04 -12.62  -7.65   -72.966357            +0.0,-0.0,+12.1
iter: 381  15:15:46 -12.47  -7.72   -72.966350            +0.0,-0.0,+12.1
iter: 382  15:18:28 -11.55  -7.71   -72.966349            +0.0,-0.0,+12.1
iter: 383  15:21:10 -11.41  -7.72   -72.966356            +0.0,-0.0,+12.1
iter: 384  15:23:51 -11.00  -7.91   -72.966361            +0.0,-0.0,+12.1
iter: 385  15:26:34 -11.50  -7.88   -72.966359            +0.0,-0.0,+12.1
iter: 386  15:29:15 -12.37  -7.85   -72.966362            +0.0,-0.0,+12.1
iter: 387  15:31:58 -12.52  -7.93   -72.966360            +0.0,-0.0,+12.1
iter: 388  15:34:39 -12.78  -7.94   -72.966356            +0.0,-0.0,+12.1
iter: 389  15:37:21 -11.96  -7.91   -72.966359            +0.0,-0.0,+12.1
iter: 390  15:40:03 -11.82  -7.91   -72.966356            +0.0,-0.0,+12.1
iter: 391  15:42:46 -10.22  -7.97   -72.966358            +0.0,-0.0,+12.1
iter: 392  15:45:27 -11.74  -7.86   -72.966360            +0.0,-0.0,+12.1
iter: 393  15:48:09 -11.89  -7.94   -72.966360            +0.0,-0.0,+12.1
iter: 394  15:50:51 -12.09  -7.91   -72.966366            +0.0,-0.0,+12.1
iter: 395  15:53:33 -12.57  -7.85   -72.966366            +0.0,-0.0,+12.1
iter: 396  15:56:15 -12.85  -7.85   -72.966367            +0.0,-0.0,+12.1
iter: 397  15:58:57 -13.30  -7.90   -72.966363            +0.0,-0.0,+12.1
iter: 398  16:01:39 -13.41  -7.90   -72.966362            +0.0,-0.0,+12.1
iter: 399  16:04:21 -11.90  -7.96   -72.966363            +0.0,-0.0,+12.1
iter: 400  16:07:03 -10.71  -8.01   -72.966358            +0.0,-0.0,+12.1
iter: 401  16:09:45 -10.98  -7.99   -72.966363            +0.0,-0.0,+12.1
iter: 402  16:12:27 -12.31  -8.08   -72.966366            +0.0,-0.0,+12.1
iter: 403  16:15:09 -12.02  -7.99   -72.966365            +0.0,-0.0,+12.1
iter: 404  16:17:51 -12.10  -8.01   -72.966366            +0.0,-0.0,+12.1
iter: 405  16:20:33 -12.32  -7.97   -72.966363            +0.0,-0.0,+12.1
iter: 406  16:23:15 -11.02  -8.06   -72.966361            +0.0,-0.0,+12.1
iter: 407  16:25:57 -12.00  -8.05   -72.966360            +0.0,-0.0,+12.1
iter: 408  16:28:39 -12.80  -8.04   -72.966361            +0.0,-0.0,+12.1
iter: 409  16:31:21 -12.43  -8.05   -72.966361            +0.0,-0.0,+12.1
iter: 410  16:34:03 -13.21  -8.07   -72.966359            +0.0,-0.0,+12.1
iter: 411  16:36:44 -11.88  -8.10   -72.966356            +0.0,-0.0,+12.1
iter: 412  16:39:26 -11.67  -8.12   -72.966350            +0.0,-0.0,+12.1
iter: 413  16:42:08 -11.27  -8.09   -72.966344            +0.0,-0.0,+12.1
iter: 414  16:44:50 -11.77  -7.93   -72.966344            +0.0,-0.0,+12.1
iter: 415  16:47:32 -12.70  -7.87   -72.966345            +0.0,-0.0,+12.1
iter: 416  16:50:14 -11.92  -7.93   -72.966348            +0.0,-0.0,+12.1
iter: 417  16:52:56 -12.86  -7.94   -72.966352            +0.0,-0.0,+12.1
iter: 418  16:55:38 -12.72  -8.00   -72.966353            +0.0,-0.0,+12.1
iter: 419  16:58:20 -13.09  -8.03   -72.966351            +0.0,-0.0,+12.1
iter: 420  17:01:02 -12.83  -7.99   -72.966350            +0.0,-0.0,+12.1
iter: 421  17:03:44 -12.19  -7.98   -72.966346            +0.0,-0.0,+12.1
iter: 422  17:06:25 -11.12  -7.97   -72.966349            +0.0,-0.0,+12.1
iter: 423  17:09:07 -11.89  -7.99   -72.966346            +0.0,-0.0,+12.1
iter: 424  17:11:49 -12.68  -7.96   -72.966344            +0.0,-0.0,+12.1
iter: 425  17:14:31 -13.00  -7.96   -72.966343            +0.0,-0.0,+12.1
iter: 426  17:17:13 -13.49  -7.96   -72.966344            +0.0,-0.0,+12.1
iter: 427  17:19:55 -13.44  -7.98   -72.966349            +0.0,-0.0,+12.1
iter: 428  17:22:37 -11.90  -8.06   -72.966351            +0.0,-0.0,+12.1
iter: 429  17:25:19 -11.03  -8.05   -72.966348            +0.0,-0.0,+12.1
iter: 430  17:28:01 -11.46  -8.02   -72.966343            +0.0,-0.0,+12.1
iter: 431  17:30:43 -10.93  -8.03   -72.966345            +0.0,-0.0,+12.1
iter: 432  17:33:25 -11.62  -7.97   -72.966348            +0.0,-0.0,+12.1
iter: 433  17:36:07 -11.61  -7.97   -72.966347            +0.0,-0.0,+12.1
iter: 434  17:38:49 -12.10  -8.02   -72.966349            +0.0,-0.0,+12.1
iter: 435  17:41:31 -12.21  -8.05   -72.966348            +0.0,-0.0,+12.1
iter: 436  17:44:13 -12.44  -7.98   -72.966346            +0.0,-0.0,+12.1
iter: 437  17:46:55 -12.60  -7.94   -72.966349            +0.0,-0.0,+12.1
iter: 438  17:49:37 -12.59  -7.89   -72.966348            +0.0,-0.0,+12.1
iter: 439  17:52:19 -12.03  -7.94   -72.966348            +0.0,-0.0,+12.1
iter: 440  17:55:01 -10.49  -7.98   -72.966349            +0.0,-0.0,+12.1
iter: 441  17:57:43 -11.85  -7.93   -72.966341            +0.0,-0.0,+12.1
iter: 442  18:00:25 -11.64  -7.90   -72.966347            +0.0,-0.0,+12.1
iter: 443  18:03:07 -12.90  -8.01   -72.966346            +0.0,-0.0,+12.1
iter: 444  18:05:49 -12.82  -7.95   -72.966350            +0.0,-0.0,+12.1
iter: 445  18:08:31 -12.44  -7.92   -72.966358            +0.0,-0.0,+12.1
iter: 446  18:11:13 -11.97  -7.91   -72.966357            +0.0,-0.0,+12.1
iter: 447  18:13:55 -11.24  -7.94   -72.966350            +0.0,-0.0,+12.1
iter: 448  18:16:37 -12.15  -7.96   -72.966347            +0.0,-0.0,+12.1
iter: 449  18:19:19 -12.22  -7.91   -72.966345            +0.0,-0.0,+12.1
iter: 450  18:22:01 -13.36  -7.99   -72.966348            +0.0,-0.0,+12.1
iter: 451  18:24:43 -12.90  -8.07   -72.966351            +0.0,-0.0,+12.1
iter: 452  18:27:24 -12.02  -8.07   -72.966352            +0.0,-0.0,+12.1
iter: 453  18:30:07 -12.62  -8.08   -72.966353            +0.0,-0.0,+12.1
iter: 454  18:32:48 -13.21  -8.04   -72.966352            +0.0,-0.0,+12.1
iter: 455  18:35:30 -13.28  -8.12   -72.966351            +0.0,-0.0,+12.1
iter: 456  18:38:12 -13.42  -8.16   -72.966350            +0.0,-0.0,+12.1
iter: 457  18:40:54 -13.03  -8.22   -72.966349            +0.0,-0.0,+12.1
iter: 458  18:43:36 -11.70  -8.19   -72.966350            +0.0,-0.0,+12.1
iter: 459  18:46:19 -11.78  -8.15   -72.966351            +0.0,-0.0,+12.1
iter: 460  18:49:00 -12.12  -8.13   -72.966352            +0.0,-0.0,+12.1
iter: 461  18:51:42 -11.88  -8.13   -72.966351            +0.0,-0.0,+12.1
iter: 462  18:54:24 -12.09  -8.14   -72.966352            +0.0,-0.0,+12.1
iter: 463  18:57:07 -13.45  -8.14   -72.966353            +0.0,-0.0,+12.1
iter: 464  18:59:48 -12.02  -8.13   -72.966352            +0.0,-0.0,+12.1
iter: 465  19:02:30 -12.86  -8.12   -72.966352            +0.0,-0.0,+12.1
iter: 466  19:05:12 -13.44  -8.17   -72.966350            +0.0,-0.0,+12.1
iter: 467  19:07:54 -12.13  -8.17   -72.966349            +0.0,-0.0,+12.1
iter: 468  19:10:36 -11.79  -8.13   -72.966349            +0.0,-0.0,+12.1
iter: 469  19:13:18 -12.16  -8.07   -72.966347            +0.0,-0.0,+12.1
iter: 470  19:16:00 -12.20  -8.18   -72.966349            +0.0,-0.0,+12.1
iter: 471  19:18:42 -12.99  -8.16   -72.966346            +0.0,-0.0,+12.1
iter: 472  19:21:24 -12.63  -8.20   -72.966343            +0.0,-0.0,+12.1
iter: 473  19:24:06 -12.62  -8.19   -72.966343            +0.0,-0.0,+12.1
iter: 474  19:26:48 -11.56  -8.19   -72.966341            +0.0,-0.0,+12.1
iter: 475  19:29:30 -13.09  -8.15   -72.966349            +0.0,-0.0,+12.1
iter: 476  19:32:11 -13.08  -8.07   -72.966345            +0.0,-0.0,+12.1
iter: 477  19:34:54 -12.38  -8.04   -72.966344            +0.0,-0.0,+12.1
iter: 478  19:37:35 -11.97  -8.09   -72.966347            +0.0,-0.0,+12.1
iter: 479  19:40:19 -12.20  -8.16   -72.966346            +0.0,-0.0,+12.1
iter: 480  19:43:01 -13.16  -8.19   -72.966347            +0.0,-0.0,+12.1
iter: 481  19:45:44 -12.06  -8.23   -72.966346            +0.0,-0.0,+12.1
iter: 482  19:48:26 -12.44  -8.22   -72.966346            +0.0,-0.0,+12.1
iter: 483  19:51:09 -11.63  -8.22   -72.966346            +0.0,-0.0,+12.1
iter: 484  19:53:51 -11.47  -8.27   -72.966346            +0.0,-0.0,+12.1
iter: 485  19:56:33 -12.93  -8.19   -72.966344            +0.0,-0.0,+12.1
iter: 486  19:59:15 -12.87  -8.24   -72.966344            +0.0,-0.0,+12.1
iter: 487  20:01:57 -11.80  -8.20   -72.966348            +0.0,-0.0,+12.1
iter: 488  20:04:39 -11.32  -8.14   -72.966344            +0.0,-0.0,+12.1
iter: 489  20:07:21 -11.71  -8.23   -72.966343            +0.0,-0.0,+12.1
iter: 490  20:10:03 -12.29  -8.25   -72.966341            +0.0,-0.0,+12.1
iter: 491  20:12:45 -11.02  -8.29   -72.966341            +0.0,-0.0,+12.1
iter: 492  20:15:27 -12.08  -8.19   -72.966347            +0.0,-0.0,+12.1
iter: 493  20:18:10 -12.87  -8.09   -72.966345            +0.0,-0.0,+12.1
iter: 494  20:20:51 -13.35  -8.10   -72.966341            +0.0,-0.0,+12.1
iter: 495  20:23:34 -13.26  -8.26   -72.966336            +0.0,-0.0,+12.1
iter: 496  20:26:16 -13.24  -8.29   -72.966333            +0.0,-0.0,+12.1
iter: 497  20:28:58 -12.60  -8.27   -72.966337            +0.0,-0.0,+12.1
iter: 498  20:31:39 -12.01  -8.27   -72.966336            +0.0,-0.0,+12.1
iter: 499  20:34:22 -12.17  -8.20   -72.966336            +0.0,-0.0,+12.1
iter: 500  20:37:04 -11.69  -8.06   -72.966336            +0.0,-0.0,+12.1
iter: 501  20:39:46 -12.17  -7.98   -72.966335            +0.0,-0.0,+12.1
iter: 502  20:42:28 -12.96  -7.96   -72.966338            +0.0,-0.0,+12.1
iter: 503  20:45:10 -12.88  -7.98   -72.966339            +0.0,-0.0,+12.1
iter: 504  20:47:52 -12.61  -8.10   -72.966339            +0.0,-0.0,+12.1
iter: 505  20:50:34 -12.68  -8.12   -72.966340            +0.0,-0.0,+12.1
iter: 506  20:53:16 -12.62  -8.08   -72.966341            +0.0,-0.0,+12.1
iter: 507  20:55:58 -12.49  -8.10   -72.966341            +0.0,-0.0,+12.1
iter: 508  20:58:40 -12.24  -8.11   -72.966341            +0.0,-0.0,+12.1
iter: 509  21:01:22 -13.14  -8.08   -72.966341            +0.0,-0.0,+12.1
iter: 510  21:04:04 -12.80  -8.10   -72.966342            +0.0,-0.0,+12.1
iter: 511  21:06:46 -12.50  -8.13   -72.966342            +0.0,-0.0,+12.1
iter: 512  21:09:27 -12.59  -8.11   -72.966342            +0.0,-0.0,+12.1
iter: 513  21:12:09 -12.32  -8.12   -72.966341            +0.0,-0.0,+12.1
iter: 514  21:14:51 -12.75  -8.32   -72.966341            +0.0,-0.0,+12.1
iter: 515  21:17:33 -11.77  -8.41   -72.966341            +0.0,-0.0,+12.1
iter: 516  21:20:15 -12.53  -8.40   -72.966342            +0.0,-0.0,+12.1
iter: 517  21:22:57 -12.81  -8.39   -72.966340            +0.0,-0.0,+12.1
iter: 518  21:25:39 -11.54  -8.37   -72.966340            +0.0,-0.0,+12.1
iter: 519  21:28:22 -11.61  -8.33   -72.966340            +0.0,-0.0,+12.1
iter: 520  21:31:03 -12.73  -8.33   -72.966340            +0.0,-0.0,+12.1
iter: 521  21:33:45 -12.78  -8.36   -72.966340            +0.0,-0.0,+12.1
iter: 522  21:36:27 -13.32  -8.33   -72.966340            +0.0,-0.0,+12.1
iter: 523  21:39:09 -12.86  -8.38   -72.966340            +0.0,-0.0,+12.1
iter: 524  21:41:51 -13.06  -8.41   -72.966340            +0.0,-0.0,+12.1
iter: 525  21:44:33 -13.63  -8.38   -72.966340            +0.0,-0.0,+12.1
iter: 526  21:47:15 -12.89  -8.37   -72.966340            +0.0,-0.0,+12.1
iter: 527  21:49:58 -14.11  -8.39   -72.966340            +0.0,-0.0,+12.1
iter: 528  21:52:40 -13.33  -8.42   -72.966340            +0.0,-0.0,+12.1
iter: 529  21:55:22 -13.43  -8.40   -72.966340            +0.0,-0.0,+12.1
iter: 530  21:58:04 -13.55  -8.39   -72.966340            +0.0,-0.0,+12.1
iter: 531  22:00:46 -12.66  -8.38   -72.966340            +0.0,-0.0,+12.1
iter: 532  22:03:28 -13.28  -8.34   -72.966340            +0.0,-0.0,+12.1
iter: 533  22:06:10 -13.53  -8.36   -72.966340            +0.0,-0.0,+12.1
iter: 534  22:08:52 -14.45  -8.34   -72.966339            +0.0,-0.0,+12.1
iter: 535  22:11:34 -12.66  -8.36   -72.966338            +0.0,-0.0,+12.1
iter: 536  22:14:16 -13.31  -8.36   -72.966339            +0.0,-0.0,+12.1
iter: 537  22:16:58 -14.39  -8.35   -72.966338            +0.0,-0.0,+12.1
iter: 538  22:19:40 -13.56  -8.31   -72.966338            +0.0,-0.0,+12.1
iter: 539  22:22:22 -12.54  -8.36   -72.966337            +0.0,-0.0,+12.1
iter: 540  22:25:04 -12.48  -8.40   -72.966338            +0.0,-0.0,+12.1
iter: 541  22:27:46 -12.68  -8.46   -72.966338            +0.0,-0.0,+12.1
iter: 542  22:30:28 -12.74  -8.48   -72.966338            +0.0,-0.0,+12.1
iter: 543  22:33:10 -13.17  -8.44   -72.966338            +0.0,-0.0,+12.1
iter: 544  22:35:52 -14.51  -8.47   -72.966338            +0.0,-0.0,+12.1
iter: 545  22:38:34 -13.27  -8.46   -72.966339            +0.0,-0.0,+12.1
iter: 546  22:41:16 -11.39  -8.49   -72.966339            +0.0,-0.0,+12.1
iter: 547  22:43:58 -12.69  -8.48   -72.966339            +0.0,-0.0,+12.1
iter: 548  22:46:40 -12.87  -8.48   -72.966339            +0.0,-0.0,+12.1
iter: 549  22:49:22 -13.86  -8.48   -72.966339            +0.0,-0.0,+12.1
iter: 550  22:52:04 -12.84  -8.48   -72.966339            +0.0,-0.0,+12.1
iter: 551  22:54:46 -13.13  -8.53   -72.966338            +0.0,-0.0,+12.1
iter: 552  22:57:28 -13.67  -8.56   -72.966338            +0.0,-0.0,+12.1
iter: 553  23:00:10 -13.11  -8.54   -72.966338            +0.0,-0.0,+12.1
iter: 554  23:02:52 -12.83  -8.58   -72.966338            +0.0,-0.0,+12.1
iter: 555  23:05:34 -12.46  -8.63   -72.966338            +0.0,-0.0,+12.1
iter: 556  23:08:16 -12.40  -8.69   -72.966338            +0.0,-0.0,+12.1
iter: 557  23:10:58 -12.40  -8.71   -72.966339            +0.0,-0.0,+12.1
iter: 558  23:13:40 -13.39  -8.70   -72.966338            +0.0,-0.0,+12.1
iter: 559  23:16:22 -12.87  -8.70   -72.966338            +0.0,-0.0,+12.1
iter: 560  23:19:04 -13.68  -8.67   -72.966338            +0.0,-0.0,+12.1
iter: 561  23:21:46 -13.64  -8.68   -72.966338            +0.0,-0.0,+12.1
iter: 562  23:24:28 -13.01  -8.71   -72.966339            +0.0,-0.0,+12.1
iter: 563  23:27:10 -11.83  -8.70   -72.966338            +0.0,-0.0,+12.1
iter: 564  23:29:52 -11.38  -8.57   -72.966339            +0.0,-0.0,+12.1
iter: 565  23:32:34 -12.50  -8.43   -72.966339            +0.0,-0.0,+12.1
iter: 566  23:35:16 -12.96  -8.44   -72.966339            +0.0,-0.0,+12.1
iter: 567  23:37:58 -13.33  -8.43   -72.966339            +0.0,-0.0,+12.1
iter: 568  23:40:40 -13.78  -8.46   -72.966339            +0.0,-0.0,+12.1
iter: 569  23:43:22 -13.35  -8.45   -72.966339            +0.0,-0.0,+12.1
iter: 570  23:46:04 -12.10  -8.49   -72.966339            +0.0,-0.0,+12.1
iter: 571  23:48:46 -11.99  -8.43   -72.966339            +0.0,-0.0,+12.1
iter: 572  23:51:28 -13.49  -8.36   -72.966339            +0.0,-0.0,+12.1
iter: 573  23:54:10 -12.45  -8.37   -72.966339            +0.0,-0.0,+12.1
iter: 574  23:56:52 -13.08  -8.34   -72.966340            +0.0,-0.0,+12.1
iter: 575  23:59:34 -12.45  -8.38   -72.966340            +0.0,-0.0,+12.1
iter: 576  00:02:16 -13.41  -8.38   -72.966339            +0.0,-0.0,+12.1
iter: 577  00:04:58 -13.91  -8.37   -72.966340            +0.0,-0.0,+12.1
iter: 578  00:07:39 -14.35  -8.36   -72.966341            +0.0,-0.0,+12.1
iter: 579  00:10:22 -14.04  -8.38   -72.966340            +0.0,-0.0,+12.1
iter: 580  00:13:03 -13.30  -8.44   -72.966341            +0.0,-0.0,+12.1
iter: 581  00:15:46 -12.69  -8.44   -72.966341            +0.0,-0.0,+12.1
iter: 582  00:18:28 -11.66  -8.46   -72.966341            +0.0,-0.0,+12.1
iter: 583  00:21:10 -11.78  -8.37   -72.966341            +0.0,-0.0,+12.1
iter: 584  00:23:52 -12.98  -8.31   -72.966340            +0.0,-0.0,+12.1
iter: 585  00:26:34 -12.94  -8.34   -72.966340            +0.0,-0.0,+12.1
iter: 586  00:29:16 -13.22  -8.33   -72.966340            +0.0,-0.0,+12.1
iter: 587  00:31:58 -14.03  -8.31   -72.966341            +0.0,-0.0,+12.1
iter: 588  00:34:40 -12.65  -8.29   -72.966340            +0.0,-0.0,+12.1
iter: 589  00:37:22 -11.75  -8.31   -72.966341            +0.0,-0.0,+12.1
iter: 590  00:40:04 -11.31  -8.23   -72.966339            +0.0,-0.0,+12.1
iter: 591  00:42:46 -11.44  -8.15   -72.966340            +0.0,-0.0,+12.1
iter: 592  00:45:28 -11.78  -8.10   -72.966340            +0.0,-0.0,+12.1
iter: 593  00:48:10 -11.50  -8.14   -72.966340            +0.0,-0.0,+12.1
iter: 594  00:50:52 -12.77  -8.12   -72.966340            +0.0,-0.0,+12.1
iter: 595  00:53:34 -13.03  -8.14   -72.966338            +0.0,-0.0,+12.1
iter: 596  00:56:16 -12.45  -8.15   -72.966339            +0.0,-0.0,+12.1
iter: 597  00:58:58 -12.17  -8.15   -72.966339            +0.0,-0.0,+12.1
iter: 598  01:01:40 -12.20  -8.19   -72.966340            +0.0,-0.0,+12.1
iter: 599  01:04:22 -12.63  -8.17   -72.966339            +0.0,-0.0,+12.1
iter: 600  01:07:04 -13.59  -8.16   -72.966340            +0.0,-0.0,+12.1
iter: 601  01:09:46 -13.30  -8.13   -72.966341            +0.0,-0.0,+12.1
iter: 602  01:12:28 -13.93  -8.14   -72.966341            +0.0,-0.0,+12.1
iter: 603  01:15:10 -14.12  -8.13   -72.966343            +0.0,-0.0,+12.1
iter: 604  01:17:52 -13.37  -8.13   -72.966342            +0.0,-0.0,+12.1
iter: 605  01:20:34 -12.87  -8.21   -72.966341            +0.0,-0.0,+12.1
iter: 606  01:23:16 -12.74  -8.27   -72.966341            +0.0,-0.0,+12.1
iter: 607  01:25:58 -12.16  -8.41   -72.966341            +0.0,-0.0,+12.1
iter: 608  01:28:40 -11.40  -8.43   -72.966342            +0.0,-0.0,+12.1
iter: 609  01:31:22 -12.56  -8.29   -72.966341            +0.0,-0.0,+12.1
iter: 610  01:34:04 -12.99  -8.32   -72.966341            +0.0,-0.0,+12.1
iter: 611  01:36:46 -13.54  -8.29   -72.966342            +0.0,-0.0,+12.1
iter: 612  01:39:28 -13.82  -8.36   -72.966343            +0.0,-0.0,+12.1
iter: 613  01:42:10 -13.40  -8.43   -72.966343            +0.0,-0.0,+12.1
iter: 614  01:44:52 -12.23  -8.51   -72.966342            +0.0,-0.0,+12.1
iter: 615  01:47:35 -12.12  -8.46   -72.966342            +0.0,-0.0,+12.1
iter: 616  01:50:16 -13.49  -8.38   -72.966343            +0.0,-0.0,+12.1
iter: 617  01:52:59 -12.24  -8.42   -72.966344            +0.0,-0.0,+12.1
iter: 618  01:55:41 -13.02  -8.34   -72.966344            +0.0,-0.0,+12.1
iter: 619  01:58:23 -13.77  -8.37   -72.966344            +0.0,-0.0,+12.1
iter: 620  02:01:05 -13.25  -8.43   -72.966344            +0.0,-0.0,+12.1
iter: 621  02:03:47 -14.11  -8.41   -72.966344            +0.0,-0.0,+12.1
iter: 622  02:06:29 -14.45  -8.40   -72.966344            +0.0,-0.0,+12.1
iter: 623  02:09:11 -12.06  -8.48   -72.966343            +0.0,-0.0,+12.1
iter: 624  02:11:53 -12.55  -8.45   -72.966343            +0.0,-0.0,+12.1
iter: 625  02:14:35 -12.53  -8.47   -72.966344            +0.0,-0.0,+12.1
iter: 626  02:17:17 -12.04  -8.49   -72.966343            +0.0,-0.0,+12.1
iter: 627  02:19:59 -12.22  -8.45   -72.966344            +0.0,-0.0,+12.1
iter: 628  02:22:41 -11.54  -8.41   -72.966344            +0.0,-0.0,+12.1
iter: 629  02:25:23 -11.37  -8.46   -72.966343            +0.0,-0.0,+12.1
iter: 630  02:28:04 -12.57  -8.40   -72.966343            +0.0,-0.0,+12.1
iter: 631  02:30:47 -13.16  -8.40   -72.966343            +0.0,-0.0,+12.1
iter: 632  02:33:28 -12.61  -8.42   -72.966343            +0.0,-0.0,+12.1
iter: 633  02:36:10 -12.65  -8.43   -72.966343            +0.0,-0.0,+12.1
iter: 634  02:38:52 -13.30  -8.41   -72.966343            +0.0,-0.0,+12.1
iter: 635  02:41:35 -11.87  -8.37   -72.966343            +0.0,-0.0,+12.1
iter: 636  02:44:17 -12.90  -8.37   -72.966343            +0.0,-0.0,+12.1
iter: 637  02:46:59 -13.65  -8.33   -72.966343            +0.0,-0.0,+12.1
iter: 638  02:49:41 -14.03  -8.37   -72.966343            +0.0,-0.0,+12.1
iter: 639  02:52:23 -14.38  -8.44   -72.966342            +0.0,-0.0,+12.1
iter: 640  02:55:04 -13.36  -8.48   -72.966342            +0.0,-0.0,+12.1
iter: 641  02:57:47 -12.89  -8.54   -72.966343            +0.0,-0.0,+12.1
iter: 642  03:00:29 -12.50  -8.59   -72.966343            +0.0,-0.0,+12.1
iter: 643  03:03:11 -11.73  -8.53   -72.966342            +0.0,-0.0,+12.1
iter: 644  03:05:52 -12.84  -8.48   -72.966343            +0.0,-0.0,+12.1
iter: 645  03:08:35 -12.61  -8.40   -72.966342            +0.0,-0.0,+12.1
iter: 646  03:11:17 -13.37  -8.48   -72.966342            +0.0,-0.0,+12.1
iter: 647  03:13:59 -14.17  -8.58   -72.966342            +0.0,-0.0,+12.1
iter: 648  03:16:40 -13.05  -8.51   -72.966342            +0.0,-0.0,+12.1
iter: 649  03:19:23 -13.52  -8.55   -72.966342            +0.0,-0.0,+12.1
iter: 650  03:22:05 -14.00  -8.57   -72.966342            +0.0,-0.0,+12.1
iter: 651  03:24:47 -13.52  -8.58   -72.966342            +0.0,-0.0,+12.1
iter: 652  03:27:29 -12.97  -8.48   -72.966341            +0.0,-0.0,+12.1
iter: 653  03:30:11 -12.75  -8.52   -72.966340            +0.0,-0.0,+12.1
iter: 654  03:32:53 -12.27  -8.52   -72.966340            +0.0,-0.0,+12.1
iter: 655  03:35:35 -11.66  -8.52   -72.966340            +0.0,-0.0,+12.1
iter: 656  03:38:17 -12.83  -8.54   -72.966339            +0.0,-0.0,+12.1
iter: 657  03:41:00 -13.15  -8.49   -72.966340            +0.0,-0.0,+12.1
iter: 658  03:43:41 -12.64  -8.51   -72.966341            +0.0,-0.0,+12.1
iter: 659  03:46:24 -12.70  -8.60   -72.966341            +0.0,-0.0,+12.1
iter: 660  03:49:05 -12.95  -8.62   -72.966341            +0.0,-0.0,+12.1
iter: 661  03:51:48 -12.37  -8.63   -72.966341            +0.0,-0.0,+12.1
iter: 662  03:54:30 -12.19  -8.64   -72.966341            +0.0,-0.0,+12.1
iter: 663  03:57:12 -13.06  -8.57   -72.966340            +0.0,-0.0,+12.1
iter: 664  03:59:54 -12.02  -8.58   -72.966341            +0.0,-0.0,+12.1
iter: 665  04:02:36 -12.96  -8.59   -72.966341            +0.0,-0.0,+12.1
iter: 666  04:05:18 -13.91  -8.58   -72.966341            +0.0,-0.0,+12.1
iter: 667  04:08:00 -13.94  -8.57   -72.966341            +0.0,-0.0,+12.1
iter: 668  04:10:42 -14.27  -8.61   -72.966341            +0.0,-0.0,+12.1
iter: 669  04:13:25 -14.49  -8.61   -72.966341            +0.0,-0.0,+12.1
iter: 670  04:16:06 -14.32  -8.58   -72.966342            +0.0,-0.0,+12.1
iter: 671  04:18:48 -13.21  -8.53   -72.966342            +0.0,-0.0,+12.1
iter: 672  04:21:30 -12.18  -8.52   -72.966341            +0.0,-0.0,+12.1
iter: 673  04:24:13 -11.55  -8.56   -72.966341            +0.0,-0.0,+12.1
iter: 674  04:26:55 -12.59  -8.51   -72.966341            +0.0,-0.0,+12.1
iter: 675  04:29:37 -12.17  -8.51   -72.966341            +0.0,-0.0,+12.1
iter: 676  04:32:18 -13.58  -8.40   -72.966341            +0.0,-0.0,+12.1
iter: 677  04:35:00 -13.22  -8.50   -72.966341            +0.0,-0.0,+12.1
iter: 678  04:37:42 -13.23  -8.57   -72.966341            +0.0,-0.0,+12.1
iter: 679  04:40:25 -13.40  -8.55   -72.966341            +0.0,-0.0,+12.1
iter: 680  04:43:06 -13.25  -8.52   -72.966340            +0.0,-0.0,+12.1
iter: 681  04:45:49 -12.68  -8.55   -72.966341            +0.0,-0.0,+12.1
iter: 682  04:48:30 -12.50  -8.58   -72.966341            +0.0,-0.0,+12.1
iter: 683  04:51:12 -13.17  -8.60   -72.966341            +0.0,-0.0,+12.1
iter: 684  04:53:54 -12.95  -8.62   -72.966341            +0.0,-0.0,+12.1
iter: 685  04:56:37 -13.29  -8.64   -72.966341            +0.0,-0.0,+12.1
iter: 686  04:59:19 -14.10  -8.66   -72.966341            +0.0,-0.0,+12.1
iter: 687  05:02:01 -13.24  -8.58   -72.966341            +0.0,-0.0,+12.1
iter: 688  05:04:43 -13.16  -8.61   -72.966341            +0.0,-0.0,+12.1
iter: 689  05:07:25 -13.11  -8.65   -72.966341            +0.0,-0.0,+12.1
iter: 690  05:10:07 -12.39  -8.66   -72.966340            +0.0,-0.0,+12.1
iter: 691  05:12:49 -13.39  -8.62   -72.966341            +0.0,-0.0,+12.1
iter: 692  05:15:31 -14.16  -8.63   -72.966341            +0.0,-0.0,+12.1
iter: 693  05:18:13 -13.72  -8.61   -72.966341            +0.0,-0.0,+12.1
iter: 694  05:20:55 -14.26  -8.62   -72.966341            +0.0,-0.0,+12.1
iter: 695  05:23:37 -13.76  -8.62   -72.966341            +0.0,-0.0,+12.1
iter: 696  05:26:19 -13.86  -8.61   -72.966341            +0.0,-0.0,+12.1
iter: 697  05:29:01 -12.37  -8.60   -72.966341            +0.0,-0.0,+12.1
iter: 698  05:31:43 -12.96  -8.56   -72.966341            +0.0,-0.0,+12.1
iter: 699  05:34:25 -13.97  -8.60   -72.966340            +0.0,-0.0,+12.1
iter: 700  05:37:07 -14.35  -8.60   -72.966340            +0.0,-0.0,+12.1
iter: 701  05:39:49 -14.44  -8.57   -72.966339            +0.0,-0.0,+12.1
iter: 702  05:42:31 -15.18  -8.57   -72.966339            +0.0,-0.0,+12.1
iter: 703  05:45:13 -14.10  -8.58   -72.966339            +0.0,-0.0,+12.1
iter: 704  05:47:55 -13.03  -8.59   -72.966339            +0.0,-0.0,+12.1
iter: 705  05:50:37 -11.85  -8.63   -72.966339            +0.0,-0.0,+12.1
iter: 706  05:53:19 -12.30  -8.58   -72.966339            +0.0,-0.0,+12.1
iter: 707  05:56:01 -12.72  -8.56   -72.966339            +0.0,-0.0,+12.1
iter: 708  05:58:43 -12.95  -8.59   -72.966339            +0.0,-0.0,+12.1
iter: 709  06:01:25 -11.60  -8.58   -72.966339            +0.0,-0.0,+12.1
iter: 710  06:04:07 -12.74  -8.53   -72.966339            +0.0,-0.0,+12.1
iter: 711  06:06:50 -12.51  -8.53   -72.966339            +0.0,-0.0,+12.1
iter: 712  06:09:32 -13.68  -8.55   -72.966339            +0.0,-0.0,+12.1
iter: 713  06:12:14 -13.60  -8.55   -72.966340            +0.0,-0.0,+12.1
iter: 714  06:14:56 -12.75  -8.58   -72.966341            +0.0,-0.0,+12.1
iter: 715  06:17:38 -12.97  -8.58   -72.966341            +0.0,-0.0,+12.1
iter: 716  06:20:20 -13.33  -8.57   -72.966341            +0.0,-0.0,+12.1
iter: 717  06:23:02 -14.12  -8.55   -72.966341            +0.0,-0.0,+12.1
iter: 718  06:25:44 -14.51  -8.55   -72.966341            +0.0,-0.0,+12.1
iter: 719  06:28:26 -14.72  -8.53   -72.966340            +0.0,-0.0,+12.1
iter: 720  06:31:08 -14.71  -8.58   -72.966340            +0.0,-0.0,+12.1
iter: 721  06:33:50 -14.67  -8.64   -72.966341            +0.0,-0.0,+12.1
iter: 722  06:36:32 -12.84  -8.70   -72.966341            +0.0,-0.0,+12.1
iter: 723  06:39:14 -12.82  -8.70   -72.966341            +0.0,-0.0,+12.1
iter: 724  06:41:56 -11.36  -8.70   -72.966341            +0.0,-0.0,+12.1
iter: 725  06:44:38 -12.80  -8.55   -72.966340            +0.0,-0.0,+12.1
iter: 726  06:47:20 -13.24  -8.58   -72.966340            +0.0,-0.0,+12.1
iter: 727  06:50:02 -13.54  -8.58   -72.966340            +0.0,-0.0,+12.1
iter: 728  06:52:44 -14.10  -8.63   -72.966341            +0.0,-0.0,+12.1
iter: 729  06:55:26 -13.90  -8.63   -72.966340            +0.0,-0.0,+12.1
iter: 730  06:58:08 -12.99  -8.64   -72.966340            +0.0,-0.0,+12.1
iter: 731  07:00:50 -12.46  -8.58   -72.966339            +0.0,-0.0,+12.1
iter: 732  07:03:32 -11.11  -8.58   -72.966339            +0.0,-0.0,+12.1
iter: 733  07:06:14 -10.65  -8.67   -72.966340            +0.0,-0.0,+12.1
iter: 734  07:08:56 -12.50  -8.37   -72.966339            +0.0,-0.0,+12.1
iter: 735  07:11:38 -12.17  -8.44   -72.966339            +0.0,-0.0,+12.1
iter: 736  07:14:20 -12.20  -8.39   -72.966340            +0.0,-0.0,+12.1
iter: 737  07:17:02 -13.22  -8.41   -72.966340            +0.0,-0.0,+12.1
iter: 738  07:19:44 -12.75  -8.48   -72.966339            +0.0,-0.0,+12.1
iter: 739  07:22:26 -13.43  -8.43   -72.966340            +0.0,-0.0,+12.1
iter: 740  07:25:07 -14.10  -8.44   -72.966341            +0.0,-0.0,+12.1
iter: 741  07:27:50 -13.76  -8.49   -72.966341            +0.0,-0.0,+12.1
iter: 742  07:30:32 -13.79  -8.55   -72.966342            +0.0,-0.0,+12.1
iter: 743  07:33:14 -13.93  -8.61   -72.966342            +0.0,-0.0,+12.1
iter: 744  07:35:56 -14.30  -8.61   -72.966343            +0.0,-0.0,+12.1
iter: 745  07:38:38 -13.44  -8.63   -72.966344            +0.0,-0.0,+12.1
iter: 746  07:41:20 -12.24  -8.69   -72.966344            +0.0,-0.0,+12.1
iter: 747  07:44:02 -11.38  -8.68   -72.966344            +0.0,-0.0,+12.1
iter: 748  07:46:44 -11.64  -8.64   -72.966343            +0.0,-0.0,+12.1
iter: 749  07:49:26 -13.19  -8.50   -72.966343            +0.0,-0.0,+12.1
iter: 750  07:52:08 -12.61  -8.56   -72.966344            +0.0,-0.0,+12.1
iter: 751  07:54:50 -12.02  -8.60   -72.966343            +0.0,-0.0,+12.1
iter: 752  07:57:32 -11.76  -8.52   -72.966343            +0.0,-0.0,+12.1
iter: 753  08:00:14 -12.33  -8.62   -72.966344            +0.0,-0.0,+12.1
iter: 754  08:02:56 -12.98  -8.66   -72.966343            +0.0,-0.0,+12.1
iter: 755  08:05:38 -12.99  -8.72   -72.966343            +0.0,-0.0,+12.1
iter: 756  08:08:20 -11.63  -8.71   -72.966343            +0.0,-0.0,+12.1
iter: 757  08:11:02 -12.36  -8.63   -72.966343            +0.0,-0.0,+12.1
iter: 758  08:13:44 -12.19  -8.64   -72.966343            +0.0,-0.0,+12.1
iter: 759  08:16:26 -12.27  -8.74   -72.966343            +0.0,-0.0,+12.1
iter: 760  08:19:08 -13.60  -8.65   -72.966343            +0.0,-0.0,+12.1
iter: 761  08:21:50 -12.72  -8.64   -72.966343            +0.0,-0.0,+12.1
iter: 762  08:24:32 -13.24  -8.64   -72.966343            +0.0,-0.0,+12.1
iter: 763  08:27:15 -13.51  -8.65   -72.966343            +0.0,-0.0,+12.1
iter: 764  08:29:56 -14.10  -8.65   -72.966343            +0.0,-0.0,+12.1
iter: 765  08:32:39 -14.19  -8.60   -72.966343            +0.0,-0.0,+12.1
iter: 766  08:35:20 -13.42  -8.64   -72.966343            +0.0,-0.0,+12.1
iter: 767  08:38:03 -12.47  -8.66   -72.966344            +0.0,-0.0,+12.1
iter: 768  08:40:44 -11.91  -8.72   -72.966344            +0.0,-0.0,+12.1
iter: 769  08:43:27 -12.23  -8.68   -72.966344            +0.0,-0.0,+12.1
iter: 770  08:46:08 -11.44  -8.68   -72.966344            +0.0,-0.0,+12.1
iter: 771  08:48:50 -11.47  -8.73   -72.966344            +0.0,-0.0,+12.1
iter: 772  08:51:32 -13.16  -8.63   -72.966343            +0.0,-0.0,+12.1
iter: 773  08:54:15 -12.75  -8.60   -72.966343            +0.0,-0.0,+12.1
iter: 774  08:56:56 -12.11  -8.62   -72.966344            +0.0,-0.0,+12.1
iter: 775  08:59:39 -12.23  -8.60   -72.966344            +0.0,-0.0,+12.1
iter: 776  09:02:20 -11.82  -8.61   -72.966343            +0.0,-0.0,+12.1
iter: 777  09:05:03 -12.18  -8.52   -72.966344            +0.0,-0.0,+12.1
iter: 778  09:07:44 -12.56  -8.48   -72.966343            +0.0,-0.0,+12.1
iter: 779  09:10:27 -12.65  -8.54   -72.966344            +0.0,-0.0,+12.1
iter: 780  09:13:08 -13.18  -8.53   -72.966343            +0.0,-0.0,+12.1
iter: 781  09:15:51 -14.16  -8.50   -72.966343            +0.0,-0.0,+12.1
iter: 782  09:18:33 -13.72  -8.51   -72.966343            +0.0,-0.0,+12.1
iter: 783  09:21:15 -13.43  -8.49   -72.966343            +0.0,-0.0,+12.1
iter: 784  09:23:57 -12.90  -8.51   -72.966344            +0.0,-0.0,+12.1
iter: 785  09:26:39 -12.07  -8.49   -72.966342            +0.0,-0.0,+12.1
iter: 786  09:29:20 -12.63  -8.43   -72.966344            +0.0,-0.0,+12.1
iter: 787  09:32:02 -12.05  -8.56   -72.966344            +0.0,-0.0,+12.1
iter: 788  09:34:44 -12.17  -8.73   -72.966345            +0.0,-0.0,+12.1
iter: 789  09:37:26 -11.33  -8.72   -72.966345            +0.0,-0.0,+12.1
iter: 790  09:40:08 -11.24  -8.82   -72.966345            +0.0,-0.0,+12.1
iter: 791  09:42:50 -12.82  -8.59   -72.966344            +0.0,-0.0,+12.1
iter: 792  09:45:32 -12.70  -8.67   -72.966343            +0.0,-0.0,+12.1
iter: 793  09:48:14 -11.93  -8.64   -72.966342            +0.0,-0.0,+12.1
iter: 794  09:50:56 -12.06  -8.55   -72.966342            +0.0,-0.0,+12.1
iter: 795  09:53:38 -12.99  -8.62   -72.966342            +0.0,-0.0,+12.1
iter: 796  09:56:20 -13.25  -8.57   -72.966342            +0.0,-0.0,+12.1
iter: 797  09:59:02 -12.02  -8.61   -72.966342            +0.0,-0.0,+12.1
iter: 798  10:01:44 -12.11  -8.60   -72.966342            +0.0,-0.0,+12.1
iter: 799  10:04:26 -13.26  -8.53   -72.966342            +0.0,-0.0,+12.1
iter: 800  10:07:08 -12.99  -8.55   -72.966342            +0.0,-0.0,+12.1
iter: 801  10:09:50 -13.57  -8.54   -72.966343            +0.0,-0.0,+12.1
iter: 802  10:12:32 -14.36  -8.58   -72.966343            +0.0,-0.0,+12.1
iter: 803  10:15:15 -14.01  -8.59   -72.966343            +0.0,-0.0,+12.1
iter: 804  10:17:57 -13.40  -8.58   -72.966343            +0.0,-0.0,+12.1
iter: 805  10:20:39 -13.53  -8.57   -72.966343            +0.0,-0.0,+12.1
iter: 806  10:23:20 -12.96  -8.57   -72.966342            +0.0,-0.0,+12.1
iter: 807  10:26:03 -11.92  -8.57   -72.966342            +0.0,-0.0,+12.1
iter: 808  10:28:45 -12.28  -8.53   -72.966342            +0.0,-0.0,+12.1
iter: 809  10:31:27 -11.78  -8.50   -72.966341            +0.0,-0.0,+12.1
iter: 810  10:34:08 -11.61  -8.52   -72.966343            +0.0,-0.0,+12.1
iter: 811  10:36:51 -12.66  -8.45   -72.966343            +0.0,-0.0,+12.1
iter: 812  10:39:32 -12.86  -8.47   -72.966342            +0.0,-0.0,+12.1
iter: 813  10:42:14 -13.70  -8.49   -72.966343            +0.0,-0.0,+12.1
iter: 814  10:44:56 -14.09  -8.51   -72.966343            +0.0,-0.0,+12.1
iter: 815  10:47:38 -14.15  -8.52   -72.966343            +0.0,-0.0,+12.1
iter: 816  10:50:20 -13.71  -8.49   -72.966343            +0.0,-0.0,+12.1
iter: 817  10:53:02 -12.63  -8.46   -72.966342            +0.0,-0.0,+12.1
iter: 818  10:55:44 -12.86  -8.44   -72.966342            +0.0,-0.0,+12.1
iter: 819  10:58:26 -13.47  -8.42   -72.966342            +0.0,-0.0,+12.1
iter: 820  11:01:08 -12.03  -8.38   -72.966343            +0.0,-0.0,+12.1
iter: 821  11:03:50 -13.24  -8.46   -72.966343            +0.0,-0.0,+12.1
iter: 822  11:06:32 -13.24  -8.45   -72.966343            +0.0,-0.0,+12.1
iter: 823  11:09:14 -13.44  -8.46   -72.966343            +0.0,-0.0,+12.1
iter: 824  11:11:56 -12.54  -8.46   -72.966343            +0.0,-0.0,+12.1
iter: 825  11:14:38 -12.08  -8.45   -72.966344            +0.0,-0.0,+12.1
iter: 826  11:17:20 -12.33  -8.46   -72.966344            +0.0,-0.0,+12.1
iter: 827  11:20:02 -11.80  -8.44   -72.966343            +0.0,-0.0,+12.1
iter: 828  11:22:44 -11.79  -8.51   -72.966344            +0.0,-0.0,+12.1
iter: 829  11:25:26 -12.95  -8.44   -72.966343            +0.0,-0.0,+12.1
iter: 830  11:28:08 -13.41  -8.46   -72.966342            +0.0,-0.0,+12.1
iter: 831  11:30:50 -13.74  -8.47   -72.966342            +0.0,-0.0,+12.1
iter: 832  11:33:32 -13.95  -8.46   -72.966342            +0.0,-0.0,+12.1
iter: 833  11:36:14 -13.86  -8.46   -72.966342            +0.0,-0.0,+12.1
iter: 834  11:38:56 -13.27  -8.47   -72.966342            +0.0,-0.0,+12.1
iter: 835  11:41:38 -12.62  -8.49   -72.966342            +0.0,-0.0,+12.1
iter: 836  11:44:20 -11.70  -8.46   -72.966343            +0.0,-0.0,+12.1
iter: 837  11:47:02 -11.10  -8.42   -72.966344            +0.0,-0.0,+12.1
iter: 838  11:49:44 -12.55  -8.31   -72.966344            +0.0,-0.0,+12.1
iter: 839  11:52:26 -12.31  -8.32   -72.966343            +0.0,-0.0,+12.1
iter: 840  11:55:08 -12.26  -8.28   -72.966343            +0.0,-0.0,+12.1
iter: 841  11:57:50 -13.00  -8.34   -72.966343            +0.0,-0.0,+12.1
iter: 842  12:00:32 -13.68  -8.36   -72.966343            +0.0,-0.0,+12.1
iter: 843  12:03:14 -12.91  -8.40   -72.966343            +0.0,-0.0,+12.1
iter: 844  12:05:56 -12.87  -8.41   -72.966343            +0.0,-0.0,+12.1
iter: 845  12:08:38 -12.36  -8.41   -72.966343            +0.0,-0.0,+12.1
iter: 846  12:11:20 -11.52  -8.45   -72.966344            +0.0,-0.0,+12.1
iter: 847  12:14:02 -11.97  -8.36   -72.966343            +0.0,-0.0,+12.1
iter: 848  12:16:45 -12.31  -8.30   -72.966343            +0.0,-0.0,+12.1
iter: 849  12:19:27 -12.00  -8.37   -72.966343            +0.0,-0.0,+12.1
iter: 850  12:22:09 -12.19  -8.33   -72.966344            +0.0,-0.0,+12.1
iter: 851  12:24:51 -12.70  -8.33   -72.966345            +0.0,-0.0,+12.1
iter: 852  12:27:33 -12.19  -8.41   -72.966345            +0.0,-0.0,+12.1
iter: 853  12:30:15 -12.53  -8.36   -72.966345            +0.0,-0.0,+12.1
iter: 854  12:32:57 -12.95  -8.29   -72.966346            +0.0,-0.0,+12.1
iter: 855  12:35:39 -12.08  -8.49   -72.966346            +0.0,-0.0,+12.1
iter: 856  12:38:21 -12.82  -8.49   -72.966346            +0.0,-0.0,+12.1
iter: 857  12:41:03 -13.42  -8.52   -72.966345            +0.0,-0.0,+12.1
iter: 858  12:43:45 -13.01  -8.61   -72.966345            +0.0,-0.0,+12.1
iter: 859  12:46:27 -13.00  -8.64   -72.966344            +0.0,-0.0,+12.1
iter: 860  12:49:09 -13.02  -8.63   -72.966344            +0.0,-0.0,+12.1
iter: 861  12:51:51 -12.06  -8.66   -72.966343            +0.0,-0.0,+12.1
iter: 862  12:54:33 -11.90  -8.56   -72.966343            +0.0,-0.0,+12.1
iter: 863  12:57:15 -13.06  -8.52   -72.966342            +0.0,-0.0,+12.1
iter: 864  12:59:57 -12.06  -8.54   -72.966343            +0.0,-0.0,+12.1
iter: 865  13:02:39 -13.23  -8.49   -72.966343            +0.0,-0.0,+12.1
iter: 866  13:05:21 -13.08  -8.51   -72.966342            +0.0,-0.0,+12.1
iter: 867  13:08:03 -13.50  -8.49   -72.966343            +0.0,-0.0,+12.1
iter: 868  13:10:45 -13.58  -8.49   -72.966343            +0.0,-0.0,+12.1
iter: 869  13:13:27 -14.13  -8.53   -72.966343            +0.0,-0.0,+12.1
iter: 870  13:16:09 -13.90  -8.58   -72.966342            +0.0,-0.0,+12.1
iter: 871  13:18:51 -13.12  -8.72   -72.966342            +0.0,-0.0,+12.1
iter: 872  13:21:33 -12.24  -8.74   -72.966342            +0.0,-0.0,+12.1
iter: 873  13:24:16 -12.44  -8.75   -72.966342            +0.0,-0.0,+12.1
iter: 874  13:26:57 -12.74  -8.73   -72.966341            +0.0,-0.0,+12.1
iter: 875  13:29:40 -12.58  -8.73   -72.966341            +0.0,-0.0,+12.1
iter: 876  13:32:21 -12.81  -8.74   -72.966342            +0.0,-0.0,+12.1
iter: 877  13:35:04 -13.29  -8.75   -72.966341            +0.0,-0.0,+12.1
iter: 878  13:37:46 -12.59  -8.70   -72.966341            +0.0,-0.0,+12.1
iter: 879  13:40:28 -11.22  -8.72   -72.966341            +0.0,-0.0,+12.1
iter: 880  13:43:10 -11.68  -8.54   -72.966341            +0.0,-0.0,+12.1
iter: 881  13:45:52 -12.80  -8.46   -72.966342            +0.0,-0.0,+12.1
iter: 882  13:48:34 -12.43  -8.51   -72.966341            +0.0,-0.0,+12.1
iter: 883  13:51:16 -12.29  -8.50   -72.966341            +0.0,-0.0,+12.1
iter: 884  13:53:58 -12.79  -8.45   -72.966342            +0.0,-0.0,+12.1
iter: 885  13:56:40 -11.94  -8.54   -72.966342            +0.0,-0.0,+12.1
iter: 886  13:59:21 -13.43  -8.45   -72.966342            +0.0,-0.0,+12.1
iter: 887  14:02:04 -13.30  -8.47   -72.966343            +0.0,-0.0,+12.1
iter: 888  14:04:45 -12.05  -8.51   -72.966343            +0.0,-0.0,+12.1
iter: 889  14:07:28 -11.96  -8.44   -72.966343            +0.0,-0.0,+12.1
iter: 890  14:10:09 -12.29  -8.52   -72.966343            +0.0,-0.0,+12.1
iter: 891  14:12:52 -12.74  -8.49   -72.966343            +0.0,-0.0,+12.1
iter: 892  14:15:33 -13.37  -8.42   -72.966343            +0.0,-0.0,+12.1
iter: 893  14:18:16 -12.72  -8.45   -72.966343            +0.0,-0.0,+12.1
iter: 894  14:20:57 -13.64  -8.60   -72.966343            +0.0,-0.0,+12.1
iter: 895  14:23:40 -14.19  -8.64   -72.966343            +0.0,-0.0,+12.1
iter: 896  14:26:21 -12.23  -8.73   -72.966342            +0.0,-0.0,+12.1
iter: 897  14:29:03 -12.42  -8.67   -72.966342            +0.0,-0.0,+12.1
iter: 898  14:31:45 -12.79  -8.60   -72.966342            +0.0,-0.0,+12.1
iter: 899  14:34:27 -12.15  -8.58   -72.966342            +0.0,-0.0,+12.1
iter: 900  14:37:09 -12.56  -8.53   -72.966343            +0.0,-0.0,+12.1
iter: 901  14:39:51 -12.52  -8.50   -72.966342            +0.0,-0.0,+12.1
iter: 902  14:42:33 -12.03  -8.64   -72.966342            +0.0,-0.0,+12.1
iter: 903  14:45:15 -12.28  -8.57   -72.966342            +0.0,-0.0,+12.1
iter: 904  14:47:57 -12.64  -8.40   -72.966342            +0.0,-0.0,+12.1
iter: 905  14:50:39 -12.07  -8.52   -72.966342            +0.0,-0.0,+12.1
iter: 906  14:53:21 -12.78  -8.46   -72.966342            +0.0,-0.0,+12.1
iter: 907  14:56:03 -13.30  -8.38   -72.966341            +0.0,-0.0,+12.1
iter: 908  14:58:46 -13.27  -8.51   -72.966342            +0.0,-0.0,+12.1
iter: 909  15:01:28 -12.94  -8.50   -72.966342            +0.0,-0.0,+12.1
iter: 910  15:04:10 -12.88  -8.55   -72.966342            +0.0,-0.0,+12.1
iter: 911  15:06:52 -12.13  -8.65   -72.966341            +0.0,-0.0,+12.1
iter: 912  15:09:34 -11.79  -8.61   -72.966341            +0.0,-0.0,+12.1
iter: 913  15:12:16 -13.18  -8.49   -72.966342            +0.0,-0.0,+12.1
iter: 914  15:14:58 -12.69  -8.50   -72.966342            +0.0,-0.0,+12.1
iter: 915  15:17:40 -13.70  -8.53   -72.966342            +0.0,-0.0,+12.1
iter: 916  15:20:22 -13.81  -8.53   -72.966342            +0.0,-0.0,+12.1
iter: 917  15:23:04 -13.67  -8.56   -72.966342            +0.0,-0.0,+12.1
iter: 918  15:25:46 -13.27  -8.52   -72.966341            +0.0,-0.0,+12.1
iter: 919  15:28:28 -13.12  -8.56   -72.966341            +0.0,-0.0,+12.1
iter: 920  15:31:10 -12.75  -8.60   -72.966341            +0.0,-0.0,+12.1
iter: 921  15:33:52 -11.81  -8.62   -72.966342            +0.0,-0.0,+12.1
iter: 922  15:36:34 -12.66  -8.49   -72.966342            +0.0,-0.0,+12.1
iter: 923  15:39:16 -13.13  -8.53   -72.966342            +0.0,-0.0,+12.1
iter: 924  15:41:58 -12.97  -8.61   -72.966342            +0.0,-0.0,+12.1
iter: 925  15:44:40 -12.76  -8.58   -72.966342            +0.0,-0.0,+12.1
iter: 926  15:47:22 -12.91  -8.66   -72.966342            +0.0,-0.0,+12.1
iter: 927  15:50:05 -12.98  -8.64   -72.966342            +0.0,-0.0,+12.1
iter: 928  15:52:46 -12.42  -8.61   -72.966342            +0.0,-0.0,+12.1
iter: 929  15:55:29 -12.36  -8.71   -72.966343            +0.0,-0.0,+12.1
iter: 930  15:58:11 -13.27  -8.62   -72.966344            +0.0,-0.0,+12.1
iter: 931  16:00:53 -13.71  -8.65   -72.966344            +0.0,-0.0,+12.1
iter: 932  16:03:35 -13.30  -8.65   -72.966343            +0.0,-0.0,+12.1
iter: 933  16:06:17 -12.81  -8.68   -72.966343            +0.0,-0.0,+12.1
iter: 934  16:08:59 -13.39  -8.66   -72.966343            +0.0,-0.0,+12.1
iter: 935  16:11:41 -13.82  -8.67   -72.966343            +0.0,-0.0,+12.1
iter: 936  16:14:23 -13.31  -8.64   -72.966344            +0.0,-0.0,+12.1
iter: 937  16:17:05 -12.39  -8.58   -72.966344            +0.0,-0.0,+12.1
iter: 938  16:19:47 -12.20  -8.57   -72.966343            +0.0,-0.0,+12.1
iter: 939  16:22:29 -13.24  -8.51   -72.966344            +0.0,-0.0,+12.1
iter: 940  16:25:11 -12.61  -8.52   -72.966344            +0.0,-0.0,+12.1
iter: 941  16:27:53 -13.51  -8.52   -72.966344            +0.0,-0.0,+12.1
iter: 942  16:30:35 -14.03  -8.51   -72.966344            +0.0,-0.0,+12.1
iter: 943  16:33:17 -14.25  -8.52   -72.966344            +0.0,-0.0,+12.1
iter: 944  16:35:59 -13.90  -8.59   -72.966344            +0.0,-0.0,+12.1
iter: 945  16:38:41 -13.62  -8.62   -72.966343            +0.0,-0.0,+12.1
iter: 946  16:41:23 -12.90  -8.67   -72.966343            +0.0,-0.0,+12.1
iter: 947  16:44:05 -11.74  -8.73   -72.966343            +0.0,-0.0,+12.1
iter: 948  16:46:47 -12.81  -8.66   -72.966343            +0.0,-0.0,+12.1
iter: 949  16:49:29 -12.27  -8.60   -72.966343            +0.0,-0.0,+12.1
iter: 950  16:52:10 -13.46  -8.60   -72.966343            +0.0,-0.0,+12.1
iter: 951  16:54:53 -13.90  -8.67   -72.966343            +0.0,-0.0,+12.1
iter: 952  16:57:35 -14.31  -8.69   -72.966343            +0.0,-0.0,+12.1
iter: 953  17:00:17 -14.32  -8.74   -72.966344            +0.0,-0.0,+12.1
iter: 954  17:02:59 -13.72  -8.71   -72.966344            +0.0,-0.0,+12.1
iter: 955  17:05:41 -12.83  -8.72   -72.966344            +0.0,-0.0,+12.1
iter: 956  17:08:23 -12.01  -8.74   -72.966344            +0.0,-0.0,+12.1
iter: 957  17:11:05 -13.23  -8.71   -72.966344            +0.0,-0.0,+12.1
iter: 958  17:13:47 -13.26  -8.71   -72.966344            +0.0,-0.0,+12.1
iter: 959  17:16:29 -13.30  -8.70   -72.966343            +0.0,-0.0,+12.1
iter: 960  17:19:11 -13.16  -8.70   -72.966343            +0.0,-0.0,+12.1
iter: 961  17:21:53 -13.54  -8.74   -72.966343            +0.0,-0.0,+12.1
iter: 962  17:24:35 -13.37  -8.76   -72.966343            +0.0,-0.0,+12.1
iter: 963  17:27:17 -12.38  -8.74   -72.966343            +0.0,-0.0,+12.1
iter: 964  17:29:59 -12.42  -8.71   -72.966343            +0.0,-0.0,+12.1
iter: 965  17:32:41 -13.78  -8.67   -72.966344            +0.0,-0.0,+12.1
iter: 966  17:35:23 -12.50  -8.67   -72.966343            +0.0,-0.0,+12.1
iter: 967  17:38:05 -13.45  -8.64   -72.966344            +0.0,-0.0,+12.1
iter: 968  17:40:47 -13.95  -8.61   -72.966343            +0.0,-0.0,+12.1
iter: 969  17:43:29 -13.40  -8.64   -72.966343            +0.0,-0.0,+12.1
iter: 970  17:46:11 -14.43  -8.65   -72.966344            +0.0,-0.0,+12.1
iter: 971  17:48:53 -14.60  -8.64   -72.966343            +0.0,-0.0,+12.1
iter: 972  17:51:35 -12.03  -8.66   -72.966344            +0.0,-0.0,+12.1
iter: 973  17:54:17 -13.26  -8.60   -72.966343            +0.0,-0.0,+12.1
iter: 974  17:56:59 -13.44  -8.59   -72.966344            +0.0,-0.0,+12.1
iter: 975  17:59:41 -13.49  -8.59   -72.966343            +0.0,-0.0,+12.1
iter: 976  18:02:23 -13.38  -8.59   -72.966343            +0.0,-0.0,+12.1
iter: 977  18:05:05 -13.70  -8.61   -72.966343            +0.0,-0.0,+12.1
iter: 978  18:07:47 -13.54  -8.62   -72.966343            +0.0,-0.0,+12.1
iter: 979  18:10:29 -12.20  -8.62   -72.966343            +0.0,-0.0,+12.1
iter: 980  18:13:11 -12.50  -8.63   -72.966343            +0.0,-0.0,+12.1
iter: 981  18:15:53 -11.59  -8.62   -72.966343            +0.0,-0.0,+12.1
iter: 982  18:18:35 -11.53  -8.72   -72.966343            +0.0,-0.0,+12.1
iter: 983  18:21:17 -13.25  -8.54   -72.966343            +0.0,-0.0,+12.1
iter: 984  18:23:59 -12.94  -8.68   -72.966342            +0.0,-0.0,+12.1
iter: 985  18:26:41 -11.97  -8.72   -72.966342            +0.0,-0.0,+12.1
iter: 986  18:29:23 -12.51  -8.55   -72.966343            +0.0,-0.0,+12.1
iter: 987  18:32:05 -12.31  -8.65   -72.966342            +0.0,-0.0,+12.1
iter: 988  18:34:47 -12.29  -8.60   -72.966342            +0.0,-0.0,+12.1
iter: 989  18:37:29 -11.44  -8.56   -72.966342            +0.0,-0.0,+12.1
iter: 990  18:40:10 -11.30  -8.73   -72.966343            +0.0,-0.0,+12.1
iter: 991  18:42:52 -12.70  -8.49   -72.966343            +0.0,-0.0,+12.1
iter: 992  18:45:34 -12.99  -8.52   -72.966342            +0.0,-0.0,+12.1
iter: 993  18:48:16 -13.31  -8.55   -72.966343            +0.0,-0.0,+12.1
iter: 994  18:50:58 -13.87  -8.45   -72.966343            +0.0,-0.0,+12.1
iter: 995  18:53:40 -14.34  -8.48   -72.966341            +0.0,-0.0,+12.1
iter: 996  18:56:22 -14.31  -8.64   -72.966341            +0.0,-0.0,+12.1
iter: 997  18:59:04 -13.33  -8.60   -72.966341            +0.0,-0.0,+12.1
iter: 998  19:01:46 -12.34  -8.55   -72.966342            +0.0,-0.0,+12.1
iter: 999  19:04:28 -11.80  -8.49   -72.966341            +0.0,-0.0,+12.1
iter: 1000  19:07:10 -11.36  -8.43   -72.966341            +0.0,-0.0,+12.1
iter: 1001  19:09:52 -12.58  -8.29   -72.966342            +0.0,-0.0,+12.1
iter: 1002  19:12:34 -12.73  -8.35   -72.966342            +0.0,-0.0,+12.1
iter: 1003  19:15:16 -12.63  -8.34   -72.966342            +0.0,-0.0,+12.1
iter: 1004  19:17:58 -13.53  -8.39   -72.966342            +0.0,-0.0,+12.1
iter: 1005  19:20:40 -13.93  -8.39   -72.966342            +0.0,-0.0,+12.1
iter: 1006  19:23:22 -13.00  -8.44   -72.966342            +0.0,-0.0,+12.1
iter: 1007  19:26:04 -13.06  -8.43   -72.966342            +0.0,-0.0,+12.1
iter: 1008  19:28:46 -12.67  -8.44   -72.966342            +0.0,-0.0,+12.1
iter: 1009  19:31:28 -11.85  -8.42   -72.966343            +0.0,-0.0,+12.1
iter: 1010  19:34:10 -11.96  -8.36   -72.966343            +0.0,-0.0,+12.1
iter: 1011  19:36:52 -12.46  -8.30   -72.966342            +0.0,-0.0,+12.1
iter: 1012  19:39:33 -12.27  -8.40   -72.966342            +0.0,-0.0,+12.1
iter: 1013  19:42:16 -12.58  -8.38   -72.966342            +0.0,-0.0,+12.1
iter: 1014  19:44:57 -12.42  -8.32   -72.966342            +0.0,-0.0,+12.1
iter: 1015  19:47:39 -12.25  -8.36   -72.966342            +0.0,-0.0,+12.1
iter: 1016  19:50:21 -12.66  -8.44   -72.966342            +0.0,-0.0,+12.1
iter: 1017  19:53:03 -12.38  -8.55   -72.966342            +0.0,-0.0,+12.1
iter: 1018  19:55:45 -11.93  -8.53   -72.966341            +0.0,-0.0,+12.1
iter: 1019  19:58:27 -12.94  -8.51   -72.966342            +0.0,-0.0,+12.1
iter: 1020  20:01:09 -12.60  -8.43   -72.966341            +0.0,-0.0,+12.1
iter: 1021  20:03:51 -13.39  -8.58   -72.966340            +0.0,-0.0,+12.1
iter: 1022  20:06:33 -14.04  -8.59   -72.966341            +0.0,-0.0,+12.1
iter: 1023  20:09:15 -14.26  -8.55   -72.966340            +0.0,-0.0,+12.1
iter: 1024  20:11:57 -14.23  -8.62   -72.966341            +0.0,-0.0,+12.1
iter: 1025  20:14:39 -13.09  -8.62   -72.966340            +0.0,-0.0,+12.1
iter: 1026  20:17:21 -13.52  -8.69   -72.966340            +0.0,-0.0,+12.1
iter: 1027  20:20:03 -12.52  -8.67   -72.966340            +0.0,-0.0,+12.1
iter: 1028  20:22:44 -12.33  -8.64   -72.966340            +0.0,-0.0,+12.1
iter: 1029  20:25:27 -12.26  -8.56   -72.966341            +0.0,-0.0,+12.1
iter: 1030  20:28:08 -12.92  -8.51   -72.966341            +0.0,-0.0,+12.1
iter: 1031  20:30:51 -12.11  -8.56   -72.966340            +0.0,-0.0,+12.1
iter: 1032  20:33:33 -11.98  -8.52   -72.966341            +0.0,-0.0,+12.1
iter: 1033  20:36:15 -13.30  -8.57   -72.966340            +0.0,-0.0,+12.1
iter: 1034  20:38:56 -12.71  -8.52   -72.966341            +0.0,-0.0,+12.1
iter: 1035  20:41:38 -13.24  -8.56   -72.966341            +0.0,-0.0,+12.1
iter: 1036  20:44:20 -14.07  -8.52   -72.966341            +0.0,-0.0,+12.1
iter: 1037  20:47:02 -14.44  -8.55   -72.966341            +0.0,-0.0,+12.1
iter: 1038  20:49:44 -14.47  -8.63   -72.966341            +0.0,-0.0,+12.1
iter: 1039  20:52:26 -13.10  -8.67   -72.966341            +0.0,-0.0,+12.1
iter: 1040  20:55:08 -14.00  -8.67   -72.966341            +0.0,-0.0,+12.1
iter: 1041  20:57:51 -14.30  -8.67   -72.966341            +0.0,-0.0,+12.1
iter: 1042  21:00:33 -13.69  -8.67   -72.966341            +0.0,-0.0,+12.1
iter: 1043  21:03:15 -12.59  -8.70   -72.966341            +0.0,-0.0,+12.1
iter: 1044  21:05:57 -11.88  -8.66   -72.966341            +0.0,-0.0,+12.1
iter: 1045  21:08:39 -12.54  -8.57   -72.966340            +0.0,-0.0,+12.1
iter: 1046  21:11:20 -12.75  -8.55   -72.966341            +0.0,-0.0,+12.1
iter: 1047  21:14:03 -12.39  -8.64   -72.966341            +0.0,-0.0,+12.1
iter: 1048  21:16:44 -12.63  -8.65   -72.966341            +0.0,-0.0,+12.1
iter: 1049  21:19:27 -12.77  -8.54   -72.966341            +0.0,-0.0,+12.1
iter: 1050  21:22:08 -12.80  -8.69   -72.966341            +0.0,-0.0,+12.1
iter: 1051  21:24:50 -12.94  -8.61   -72.966341            +0.0,-0.0,+12.1
iter: 1052  21:27:32 -12.88  -8.62   -72.966341            +0.0,-0.0,+12.1
iter: 1053  21:30:14 -12.06  -8.64   -72.966341            +0.0,-0.0,+12.1
iter: 1054  21:32:56 -12.14  -8.53   -72.966341            +0.0,-0.0,+12.1
iter: 1055  21:35:38 -12.40  -8.47   -72.966341            +0.0,-0.0,+12.1
iter: 1056  21:38:20 -12.14  -8.54   -72.966341            +0.0,-0.0,+12.1
iter: 1057  21:41:02 -12.62  -8.49   -72.966341            +0.0,-0.0,+12.1
iter: 1058  21:43:44 -12.54  -8.44   -72.966341            +0.0,-0.0,+12.1
iter: 1059  21:46:26 -12.15  -8.46   -72.966341            +0.0,-0.0,+12.1
iter: 1060  21:49:08 -13.40  -8.48   -72.966341            +0.0,-0.0,+12.1
iter: 1061  21:51:50 -13.55  -8.52   -72.966342            +0.0,-0.0,+12.1
iter: 1062  21:54:32 -13.33  -8.59   -72.966342            +0.0,-0.0,+12.1
iter: 1063  21:57:14 -13.16  -8.59   -72.966342            +0.0,-0.0,+12.1
iter: 1064  21:59:56 -12.39  -8.60   -72.966342            +0.0,-0.0,+12.1
iter: 1065  22:02:38 -11.92  -8.46   -72.966341            +0.0,-0.0,+12.1
iter: 1066  22:05:20 -12.61  -8.45   -72.966342            +0.0,-0.0,+12.1
