
  ___ ___ ___ _ _ _  
 |   |   |_  | | | | 
 | | | | | . | | | | 
 |__ |  _|___|_____|  21.1.1b1
 |___|_|             

User:   madkru@g043.nifl.fysik.dtu.dk
Date:   Wed Mar 31 07:54:41 2021
Arch:   x86_64
Pid:    39387
Python: 3.8.6
gpaw:   /home/niflheim/madkru/venv_madkru/gpaw/gpaw (e6f0d78a31)
_gpaw:  /home/niflheim/madkru/venv_madkru/gpaw/build/lib.linux-x86_64-sandybridge-3.8/
        _gpaw.cpython-38-x86_64-linux-gnu.so (e6f0d78a31)
ase:    /home/niflheim/madkru/venv_madkru/ase/ase (version 3.22.0b1-4d5a73cb29)
numpy:  /home/modules/software/SciPy-bundle/2020.11-foss-2020b/lib/python3.8/site-packages/numpy (version 1.19.4)
scipy:  /home/modules/software/SciPy-bundle/2020.11-foss-2020b/lib/python3.8/site-packages/scipy (version 1.5.4)
libxc:  4.3.4
units:  Angstrom and eV
cores: 64
OpenMP: False
OMP_NUM_THREADS: 1

Input parameters:
  convergence: {bands: occupied,
                density: 0.0001,
                eigenstates: 4e-08,
                energy: 0.0005,
                forces: 1e-06}
  kpts: [6 6 4]
  maxiter: 1000
  mode: {ecut: 600.0,
         gammacentered: False,
         name: pw}
  occupations: {fixmagmom: False,
                name: fermi-dirac,
                width: 0.001}
  symmetry: {point_group: False,
             time_reversal: False}

System changes: positions, numbers, cell, pbc, initial_charges, initial_magmoms 

Initialize ...

O-setup:
  name: Oxygen
  id: 9b9d51c344dea68c822856295a461509
  Z: 8.0
  valence: 6
  core: 2
  charge: 0.0
  file: /home/modules/software/GPAW-setups/0.9.20000/O.LDA.gz
  compensation charges: gauss, rc=0.21, lmax=2
  cutoffs: 1.17(filt), 0.83(core),
  valence states:
                energy  radius
    2s(2.00)   -23.752   0.688
    2p(4.00)    -9.195   0.598
    *s           3.459   0.688
    *p          18.016   0.598
    *d           0.000   0.619

  Using partial waves for O as LCAO basis

Mn-setup:
  name: Manganese
  id: 0d715a8018be061a6e9ea6f2d364ac92
  Z: 25.0
  valence: 15
  core: 10
  charge: 0.0
  file: /home/modules/software/GPAW-setups/0.9.20000/Mn.LDA.gz
  compensation charges: gauss, rc=0.38, lmax=2
  cutoffs: 2.14(filt), 0.86(core),
  valence states:
                energy  radius
    3s(2.00)   -85.387   1.275
    4s(2.00)    -5.282   1.275
    3p(6.00)   -54.493   1.281
    4p(0.00)    -1.471   1.281
    3d(5.00)    -7.009   1.138
    *d          20.203   1.138

  Using partial waves for Mn as LCAO basis

P-setup:
  name: Phosphorus
  id: a5561c299094968922a179ab894d2e2d
  Z: 15.0
  valence: 5
  core: 10
  charge: 0.0
  file: /home/modules/software/GPAW-setups/0.9.20000/P.LDA.gz
  compensation charges: gauss, rc=0.30, lmax=2
  cutoffs: 1.69(filt), 1.81(core),
  valence states:
                energy  radius
    3s(2.00)   -14.015   0.953
    3p(3.00)    -5.596   0.953
    *s          13.197   0.953
    *p          21.615   0.953
    *d           0.000   0.953

  Using partial waves for P as LCAO basis

Li-setup:
  name: Lithium
  id: b73562207f97a71b6967473b66fe8b65
  Z: 3.0
  valence: 1
  core: 2
  charge: 0.0
  file: /home/modules/software/GPAW-setups/0.9.20000/Li.LDA.gz
  compensation charges: gauss, rc=0.33, lmax=2
  cutoffs: 1.91(filt), 2.55(core),
  valence states:
                energy  radius
    2s(1.00)    -2.874   1.058
    2p(0.00)    -1.126   1.058
    *s          24.338   1.058

  Using partial waves for Li as LCAO basis

Reference energy: -196157.275402

Spin-polarized calculation.
Magnetic moment: 0.000000

Convergence criteria:
  Maximum total energy change: 0.0005 eV / electron
  Maximum integral of absolute density change: 0.0001 electrons
  Maximum integral of absolute eigenstate change: 4e-08 eV^2
  Maximum change in atomic force: 1e-06 eV / Ang
  Maximum number of iterations: 1000

Symmetries present (total): 1

  ( 1  0  0)
  ( 0  1  0)
  ( 0  0  1)

144 k-points: 6 x 6 x 4 Monkhorst-Pack grid
144 k-points in the irreducible part of the Brillouin zone
       k-points in crystal coordinates                weights
   0:    -0.41666667   -0.41666667   -0.37500000          1/144
   1:    -0.41666667   -0.41666667   -0.12500000          1/144
   2:    -0.41666667   -0.41666667    0.12500000          1/144
   3:    -0.41666667   -0.41666667    0.37500000          1/144
   4:    -0.41666667   -0.25000000   -0.37500000          1/144
   5:    -0.41666667   -0.25000000   -0.12500000          1/144
   6:    -0.41666667   -0.25000000    0.12500000          1/144
   7:    -0.41666667   -0.25000000    0.37500000          1/144
   8:    -0.41666667   -0.08333333   -0.37500000          1/144
   9:    -0.41666667   -0.08333333   -0.12500000          1/144
          ...
 143:     0.41666667    0.41666667    0.37500000          1/144

Wave functions: Plane wave expansion
  Cutoff energy: 600.000 eV
  Number of coefficients (min, max): 10068, 10125
  Pulay-stress correction: 0.000000 eV/Ang^3 (de/decut=0.000000)
  Using FFTW library
  ScaLapack parameters: grid=1x1, blocksize=None
  Wavefunction extrapolation:
    Improved wavefunction reuse through dual PAW basis 

  Fermi-Dirac: width=0.0010 eV

Eigensolver
   Davidson(niter=2) 

Densities:
  Coarse grid: 60*35*27 grid
  Fine grid: 120*70*54 grid
  Total Charge: 0.000000 

Density mixing:
  Method: difference
  Backend: pulay
  Linear mixing parameter: 0.05
  Mixing with 5 old densities
  Damping of long wave oscillations: 50 

Hamiltonian:
  XC and Coulomb potentials evaluated on a 120*70*54 grid
  Using the LDA Exchange-Correlation functional
 

Memory estimate:
  Process memory now: 13545.36 MiB
  Calculator: 354.82 MiB
    Density: 10.06 MiB
      Arrays: 3.79 MiB
      Localized functions: 4.71 MiB
      Mixer: 1.56 MiB
    Hamiltonian: 2.95 MiB
      Arrays: 2.82 MiB
      XC: 0.00 MiB
      Poisson: 0.00 MiB
      vbar: 0.14 MiB
    Wavefunctions: 341.80 MiB
      Arrays psit_nG: 311.46 MiB
      Eigensolver: 19.99 MiB
      Projections: 2.71 MiB
      Projectors: 4.87 MiB
      PW-descriptor: 2.77 MiB

Total number of cores used: 64
Parallelization over k-points: 16
Domain decomposition: 2 x 2 x 1

Number of atoms: 28
Number of atomic orbitals: 148
Number of bands in calculation: 112
Number of valence electrons: 180
Bands to converge: occupied

... initialized

Initializing position-dependent things.

Density initialized from atomic densities
Creating initial wave functions:
  112 bands from LCAO basis set

     .-------------------------.  
    /|         OP              |  
   / |O            O        O  |  
  /  |       O            O  P |  
 *   |O    Mn      O           |  
 |   |          OLi          O |  
 |   .P-O--------------Mn------.  
 |  /          Li    O  Mn  O /   
 | /Li O           PO        /    
 |/       Mn                /     
 *Li-----------------------*      

Positions:
   0 O     -1.360678   -2.541161   -1.202221    ( 0.0000,  0.0000,  0.0000)
   1 O     -3.121941    2.976855    1.167242    ( 0.0000,  0.0000,  0.0000)
   2 O      2.107533    0.508090    1.540712    ( 0.0000,  0.0000,  0.0000)
   3 O      3.869373   -0.072395   -0.828750    ( 0.0000,  0.0000,  0.0000)
   4 O      2.107821    2.976875    1.540792    ( 0.0000,  0.0000,  0.0000)
   5 O      3.869084   -2.541141   -0.828671    ( 0.0000,  0.0000,  0.0000)
   6 O     -1.360390   -0.072375   -1.202141    ( 0.0000,  0.0000,  0.0000)
   7 O     -3.122230    0.508109    1.167321    ( 0.0000,  0.0000,  0.0000)
   8 O     -4.413461   -1.306992   -0.794251    ( 0.0000,  0.0000,  0.0000)
   9 O     -0.069585    1.742707    1.575662    ( 0.0000,  0.0000,  0.0000)
  10 O      5.160604    1.742707    1.132822    ( 0.0000,  0.0000,  0.0000)
  11 O      0.816728   -1.306992   -1.237091    ( 0.0000,  0.0000,  0.0000)
  12 Mn    -2.570809   -1.307302    0.247161    ( 0.0000,  0.0000,  1.0000)
  13 Mn    -1.912021    1.743016   -2.122906    ( 0.0000,  0.0000, -1.0000)
  14 Mn     3.317952    1.743017    0.091411    ( 0.0000,  0.0000, -1.0000)
  15 Mn     2.659164   -1.307302    2.461478    ( 0.0000,  0.0000,  1.0000)
  16 P     -0.620664   -1.306816   -1.828465    ( 0.0000,  0.0000,  0.0000)
  17 P     -3.852097    1.742530    0.541238    ( 0.0000,  0.0000,  0.0000)
  18 P      1.367807    1.742530    2.167036    ( 0.0000,  0.0000,  0.0000)
  19 P      4.609240   -1.306816   -0.202666    ( 0.0000,  0.0000,  0.0000)
  20 O     -0.646437   -1.306845    1.374751    ( 0.0000,  0.0000,  0.0000)
  21 O     -3.836504    1.742559   -0.995565    ( 0.0000,  0.0000,  0.0000)
  22 O      1.393580    1.742559   -1.036179    ( 0.0000,  0.0000,  0.0000)
  23 O      4.583647   -1.306845    1.334136    ( 0.0000,  0.0000,  0.0000)
  24 Li    -4.856429   -2.832143   -2.200714    ( 0.0000,  0.0000,  0.0000)
  25 Li     0.373571   -2.832143    0.169286    ( 0.0000,  0.0000,  0.0000)
  26 Li    -4.856429    0.217857   -2.200714    ( 0.0000,  0.0000,  0.0000)
  27 Li     0.373571    0.217857    0.169286    ( 0.0000,  0.0000,  0.0000)

Unit cell:
           periodic     x           y           z      points  spacing
  1. axis:    yes   10.460000    0.000000    0.000000    60     0.1743
  2. axis:    yes    0.000000    6.100000    0.000000    35     0.1743
  3. axis:    yes    0.000000    0.000000    4.740000    27     0.1756

  Lengths:  10.460000   6.100000   4.740000
  Angles:   90.000000  90.000000  90.000000

Effective grid spacing dv^(1/3) = 0.1747

                     log10-error:           total        iterations:
           time      wfs    density  force  energy       poisson  magmom
iter:   1  07:56:16                       -231.924378             +0.0000
iter:   2  07:56:37  -0.55  -0.94         -231.736843             +0.0063
iter:   3  07:56:59  -0.72  -0.98         -220.587784             +0.0079
iter:   4  07:57:20  -0.95  -1.20         -218.872608             +0.0026
iter:   5  07:57:41  -1.91  -1.36         -222.212557             +0.0017
iter:   6  07:58:03  -1.98  -1.44         -220.869827             +0.0047
iter:   7  07:58:24  -2.06  -1.65         -224.355539             +0.8644
iter:   8  07:58:45  -2.06  -1.82         -225.625535             +1.8394
iter:   9  07:59:07  -2.62  -1.83         -226.564152             +0.9837
iter:  10  07:59:28  -1.95  -1.84         -226.571280             +0.0992
iter:  11  07:59:49  -2.35  -2.00         -226.429961             +0.0235
iter:  12  08:00:11  -2.76  -2.20         -226.294482             +0.0032
iter:  13  08:00:32  -2.45  -2.38         -226.374603             +0.0030
iter:  14  08:00:53  -2.58  -2.31         -226.272959             +0.0009
iter:  15  08:01:15  -2.97  -2.69         -226.243554             +0.0007
iter:  16  08:01:36  -3.26  -2.74         -226.227714             +0.0002
iter:  17  08:01:57  -4.11  -2.97         -226.229842             +0.0001
iter:  18  08:02:19  -3.96  -3.03         -226.227188             -0.0001
iter:  19  08:02:40  -4.13  -3.14         -226.225488             +0.0000
iter:  20  08:03:02  -5.10  -3.51         -226.225330             +0.0000
iter:  21  08:03:23  -5.30  -3.51         -226.225229             +0.0000
iter:  22  08:03:44  -5.69  -3.77         -226.225226             +0.0000
iter:  23  08:04:06  -5.47  -3.87         -226.225177             +0.0000
iter:  24  08:04:27  -5.89  -3.97         -226.225161             +0.0000
iter:  25  08:04:48  -7.10  -4.25         -226.225160             +0.0000
iter:  26  08:05:09  -6.67  -4.34         -226.225148             +0.0000
iter:  27  08:05:31  -7.00  -4.41         -226.225140             -0.0000
iter:  28  08:05:57  -7.46  -4.54         -226.225138             -0.0000
iter:  29  08:06:24  -7.72  -4.60    -2.86-226.225138             -0.0000
iter:  30  08:06:46  -7.38  -4.65         -226.225138             -0.0000
iter:  31  08:07:12  -7.92  -4.91    -2.50-226.225137             -0.0000
iter:  32  08:07:39  -8.95  -4.93    -3.52-226.225137             -0.0000
iter:  33  08:08:06  -8.15  -4.97    -2.77-226.225137             +0.0000
iter:  34  08:08:33  -8.83  -5.50    -3.23-226.225137             +0.0000
iter:  35  08:08:59  -9.37  -5.69    -3.37-226.225137             +0.0000
iter:  36  08:09:26  -9.69  -5.80    -3.78-226.225137             +0.0000
iter:  37  08:09:53  -9.94  -6.01    -4.04-226.225137             +0.0000
iter:  38  08:10:20  -9.94  -6.12    -3.57-226.225137             +0.0000
iter:  39  08:10:46 -10.63  -6.32    -4.38-226.225137             +0.0000
iter:  40  08:11:13 -11.31  -6.38    -4.42-226.225137             +0.0000
iter:  41  08:11:40 -11.08  -6.42    -4.24-226.225137             +0.0000
iter:  42  08:12:06 -11.69  -6.49    -4.69-226.225137             +0.0000
iter:  43  08:12:33 -11.97  -6.56    -4.75-226.225137             +0.0000
iter:  44  08:13:00 -11.56  -6.65    -4.80-226.225137             +0.0000
iter:  45  08:13:27 -12.44  -6.75    -4.86-226.225137             +0.0000
iter:  46  08:13:53 -12.42  -6.80    -4.96-226.225137             +0.0000
iter:  47  08:14:20 -12.06  -6.85    -5.16-226.225137             +0.0000
iter:  48  08:14:47 -12.73  -6.93    -5.34-226.225137             +0.0000
iter:  49  08:15:14 -12.55  -7.07    -5.03-226.225137             +0.0000
iter:  50  08:15:40 -12.89  -7.16    -4.85-226.225137             +0.0000
iter:  51  08:16:07 -12.36  -7.27    -5.14-226.225137             -0.0000
iter:  52  08:16:34 -13.33  -7.53    -5.51-226.225137             +0.0000
iter:  53  08:17:00 -14.50  -7.60    -6.37-226.225137             -0.0000

Converged after 53 iterations.

Dipole moment: (10.682827, 1.418982, -6.269536) |e|*Ang

Total magnetic moment: (0.000000, 0.000000, -0.000000)
Local magnetic moments:
   0 O  ( 0.000000,  0.000000, -0.000543)
   1 O  ( 0.000000,  0.000000,  0.000349)
   2 O  ( 0.000000,  0.000000,  0.000610)
   3 O  ( 0.000000,  0.000000, -0.000446)
   4 O  ( 0.000000,  0.000000,  0.000590)
   5 O  ( 0.000000,  0.000000, -0.000426)
   6 O  ( 0.000000,  0.000000, -0.000563)
   7 O  ( 0.000000,  0.000000,  0.000369)
   8 O  ( 0.000000,  0.000000,  0.028851)
   9 O  ( 0.000000,  0.000000, -0.028784)
  10 O  ( 0.000000,  0.000000, -0.028988)
  11 O  ( 0.000000,  0.000000,  0.028590)
  12 Mn ( 0.000000,  0.000000,  4.448306)
  13 Mn ( 0.000000,  0.000000, -4.448061)
  14 Mn ( 0.000000,  0.000000, -4.448008)
  15 Mn ( 0.000000,  0.000000,  4.448258)
  16 P  ( 0.000000,  0.000000,  0.001566)
  17 P  ( 0.000000,  0.000000, -0.001410)
  18 P  ( 0.000000,  0.000000, -0.001545)
  19 P  ( 0.000000,  0.000000,  0.001509)
  20 O  ( 0.000000,  0.000000,  0.025332)
  21 O  ( 0.000000,  0.000000, -0.025513)
  22 O  ( 0.000000,  0.000000, -0.025199)
  23 O  ( 0.000000,  0.000000,  0.025329)
  24 Li ( 0.000000,  0.000000, -0.000013)
  25 Li ( 0.000000,  0.000000, -0.000000)
  26 Li ( 0.000000,  0.000000, -0.000013)
  27 Li ( 0.000000,  0.000000, -0.000000)

Energy contributions relative to reference atoms: (reference = -196157.275402)

Kinetic:       +217.344788
Potential:     -195.225623
External:        +0.000000
XC:            -250.385452
Entropy (-ST):   -0.000000
Local:           +2.041151
--------------------------
Free energy:   -226.225137
Extrapolated:  -226.225137

Spin contamination: 9.560640 electrons
Showing only first 2 kpts
                      Up                     Down
 Kpt  Band  Eigenvalues  Occupancy  Eigenvalues  Occupancy
  0    88      5.10037    1.00000      5.10565    1.00000
  0    89      5.13361    1.00000      5.14814    1.00000
  0    90      7.27674    0.00000      7.27684    0.00000
  0    91      7.31556    0.00000      7.30896    0.00000

  1    88      5.12688    1.00000      5.13155    1.00000
  1    89      5.16331    1.00000      5.17811    1.00000
  1    90      7.21719    0.00000      7.21820    0.00000
  1    91      7.25506    0.00000      7.24758    0.00000


Fermi level: 6.42806

Gap: 1.952 eV
Transition (v -> c):
  (s=1, k=69, n=89, [-0.08, 0.42, -0.12]) -> (s=0, k=58, n=90, [-0.08, -0.08, 0.12])
Writing to born-0.01-17x+.gpw (mode='all')

Timing:                              incl.     excl.
-----------------------------------------------------------
Hamiltonian:                         0.265     0.002   0.0% |
 Atomic:                             0.075     0.075   0.0% |
  XC Correction:                     0.000     0.000   0.0% |
 Calculate atomic Hamiltonians:      0.093     0.093   0.0% |
 Communicate:                        0.002     0.002   0.0% |
 Initialize Hamiltonian:             0.000     0.000   0.0% |
 Poisson:                            0.001     0.001   0.0% |
 XC 3D grid:                         0.091     0.091   0.0% |
LCAO initialization:                70.333     0.675   0.0% |
 LCAO eigensolver:                  17.940     0.002   0.0% |
  Calculate projections:             0.029     0.029   0.0% |
  DenseAtomicCorrection:             0.043     0.043   0.0% |
  Distribute overlap matrix:         0.009     0.009   0.0% |
  Orbital Layouts:                   0.278     0.278   0.0% |
  Potential matrix:                 17.482    17.482   0.5% |
  Sum over cells:                    0.097     0.097   0.0% |
 LCAO to grid:                      50.403    50.403   1.4% ||
 Set positions (LCAO WFS):           1.316     0.217   0.0% |
  Basic WFS set positions:           0.002     0.002   0.0% |
  Basis functions set positions:     0.000     0.000   0.0% |
  P tci:                             0.513     0.513   0.0% |
  ST tci:                            0.370     0.370   0.0% |
  mktci:                             0.214     0.214   0.0% |
PWDescriptor:                        0.025     0.025   0.0% |
SCF-cycle:                        1268.087     6.294   0.2% |
 Davidson:                        1066.553   340.515   9.4% |---|
  Apply H:                          71.921    69.686   1.9% ||
   HMM T:                            2.235     2.235   0.1% |
  Subspace diag:                   153.916     0.156   0.0% |
   calc_h_matrix:                   98.268    26.742   0.7% |
    Apply H:                        71.526    69.422   1.9% ||
     HMM T:                          2.103     2.103   0.1% |
   diagonalize:                      5.384     5.384   0.1% |
   rotate_psi:                      50.108    50.108   1.4% ||
  calc. matrices:                  318.228   177.687   4.9% |-|
   Apply H:                        140.541   136.347   3.8% |-|
    HMM T:                           4.194     4.194   0.1% |
  diagonalize:                      82.291    82.291   2.3% ||
  rotate_psi:                       99.683    99.683   2.8% ||
 Density:                           42.753     0.001   0.0% |
  Atomic density matrices:           0.710     0.710   0.0% |
  Mix:                               7.144     7.144   0.2% |
  Multipole moments:                 0.019     0.019   0.0% |
  Pseudo density:                   34.879    34.878   1.0% |
   Symmetrize density:               0.001     0.001   0.0% |
 Forces:                           137.289   137.289   3.8% |-|
 Hamiltonian:                       12.885     0.113   0.0% |
  Atomic:                            2.959     2.959   0.1% |
   XC Correction:                    0.000     0.000   0.0% |
  Calculate atomic Hamiltonians:     4.921     4.921   0.1% |
  Communicate:                       0.033     0.033   0.0% |
  Poisson:                           0.048     0.048   0.0% |
  XC 3D grid:                        4.810     4.810   0.1% |
 Orthonormalize:                     2.313     0.003   0.0% |
  calc_s_matrix:                     0.267     0.267   0.0% |
  inverse-cholesky:                  0.041     0.041   0.0% |
  projections:                       1.499     1.499   0.0% |
  rotate_psi_s:                      0.502     0.502   0.0% |
Set symmetry:                        0.000     0.000   0.0% |
Other:                            2274.004  2274.004  62.9% |------------------------|
-----------------------------------------------------------
Total:                                      3612.713 100.0%

Memory usage: 13.26 GiB
Date: Wed Mar 31 08:54:53 2021
