
  ___ ___ ___ _ _ _  
 |   |   |_  | | | | 
 | | | | | . | | | | 
 |__ |  _|___|_____|  20.10.1b1
 |___|_|             

User:   madkru@g064.nifl.fysik.dtu.dk
Date:   Sun Mar 21 03:58:39 2021
Arch:   x86_64
Pid:    60512
Python: 3.7.4
gpaw:   /home/niflheim/madkru/venv_folder/gpaw/gpaw (d0d1ca1c71)
_gpaw:  /home/niflheim/madkru/venv_folder/gpaw/build/lib.linux-x86_64-sandybridge-3.7/
        _gpaw.cpython-37m-x86_64-linux-gnu.so (4fd39e8b1e)
ase:    /home/niflheim/madkru/venv_folder/ase/ase (version 3.21.0b1-7e6c206a91)
numpy:  /home/niflheim/madkru/venv_folder/lib/python3.7/site-packages/numpy (version 1.19.4)
scipy:  /home/niflheim/madkru/venv_folder/lib/python3.7/site-packages/scipy (version 1.5.4)
libxc:  4.3.4
units:  Angstrom and eV
cores: 32
OMP_NUM_THREADS: 1

Input parameters:
  convergence: {bands: occupied,
                density: 0.0001,
                eigenstates: 4e-08,
                energy: 0.0005,
                forces: 1e-06}
  kpts: [6 6 4]
  mode: {ecut: 600.0,
         gammacentered: False,
         name: pw}
  occupations: {fixmagmom: False,
                name: fermi-dirac,
                width: 0.001}
  symmetry: {point_group: False,
             time_reversal: False}

System changes: positions, numbers, cell, pbc, initial_charges, initial_magmoms 

Initialize ...

O-setup:
  name: Oxygen
  id: 9b9d51c344dea68c822856295a461509
  Z: 8.0
  valence: 6
  core: 2
  charge: 0.0
  file: /home/modules/software/GPAW-setups/0.9.20000/O.LDA.gz
  compensation charges: gauss, rc=0.21, lmax=2
  cutoffs: 1.17(filt), 0.83(core),
  valence states:
                energy  radius
    2s(2.00)   -23.752   0.688
    2p(4.00)    -9.195   0.598
    *s           3.459   0.688
    *p          18.016   0.598
    *d           0.000   0.619

  Using partial waves for O as LCAO basis

Mn-setup:
  name: Manganese
  id: 0d715a8018be061a6e9ea6f2d364ac92
  Z: 25.0
  valence: 15
  core: 10
  charge: 0.0
  file: /home/modules/software/GPAW-setups/0.9.20000/Mn.LDA.gz
  compensation charges: gauss, rc=0.38, lmax=2
  cutoffs: 2.14(filt), 0.86(core),
  valence states:
                energy  radius
    3s(2.00)   -85.387   1.275
    4s(2.00)    -5.282   1.275
    3p(6.00)   -54.493   1.281
    4p(0.00)    -1.471   1.281
    3d(5.00)    -7.009   1.138
    *d          20.203   1.138

  Using partial waves for Mn as LCAO basis

P-setup:
  name: Phosphorus
  id: a5561c299094968922a179ab894d2e2d
  Z: 15.0
  valence: 5
  core: 10
  charge: 0.0
  file: /home/modules/software/GPAW-setups/0.9.20000/P.LDA.gz
  compensation charges: gauss, rc=0.30, lmax=2
  cutoffs: 1.69(filt), 1.81(core),
  valence states:
                energy  radius
    3s(2.00)   -14.015   0.953
    3p(3.00)    -5.596   0.953
    *s          13.197   0.953
    *p          21.615   0.953
    *d           0.000   0.953

  Using partial waves for P as LCAO basis

Li-setup:
  name: Lithium
  id: b73562207f97a71b6967473b66fe8b65
  Z: 3.0
  valence: 1
  core: 2
  charge: 0.0
  file: /home/modules/software/GPAW-setups/0.9.20000/Li.LDA.gz
  compensation charges: gauss, rc=0.33, lmax=2
  cutoffs: 1.91(filt), 2.55(core),
  valence states:
                energy  radius
    2s(1.00)    -2.874   1.058
    2p(0.00)    -1.126   1.058
    *s          24.338   1.058

  Using partial waves for Li as LCAO basis

Reference energy: -196157.275402

Spin-polarized calculation.
Magnetic moment: 0.000000

Convergence criteria:
  Maximum total energy change: 0.0005 eV / electron
  Maximum integral of absolute density change: 0.0001 electrons
  Maximum integral of absolute eigenstate change: 4e-08 eV^2
  Maximum change in atomic force: 1e-06 eV / Ang
  Maximum number of iterations: 333

Symmetries present (total): 1

  ( 1  0  0)
  ( 0  1  0)
  ( 0  0  1)

144 k-points: 6 x 6 x 4 Monkhorst-Pack grid
144 k-points in the irreducible part of the Brillouin zone
       k-points in crystal coordinates                weights
   0:    -0.41666667   -0.41666667   -0.37500000          1/144
   1:    -0.41666667   -0.41666667   -0.12500000          1/144
   2:    -0.41666667   -0.41666667    0.12500000          1/144
   3:    -0.41666667   -0.41666667    0.37500000          1/144
   4:    -0.41666667   -0.25000000   -0.37500000          1/144
   5:    -0.41666667   -0.25000000   -0.12500000          1/144
   6:    -0.41666667   -0.25000000    0.12500000          1/144
   7:    -0.41666667   -0.25000000    0.37500000          1/144
   8:    -0.41666667   -0.08333333   -0.37500000          1/144
   9:    -0.41666667   -0.08333333   -0.12500000          1/144
          ...
 143:     0.41666667    0.41666667    0.37500000          1/144

Wave functions: Plane wave expansion
  Cutoff energy: 600.000 eV
  Number of coefficients (min, max): 10068, 10125
  Pulay-stress correction: 0.000000 eV/Ang^3 (de/decut=0.000000)
  Using FFTW library
  ScaLapack parameters: grid=1x1, blocksize=None
  Wavefunction extrapolation:
    Improved wavefunction reuse through dual PAW basis 

  Fermi-Dirac: width=0.0010 eV

Eigensolver
   Davidson(niter=2, smin=None, normalize=True) 

Densities:
  Coarse grid: 60*35*27 grid
  Fine grid: 120*70*54 grid
  Total Charge: 0.000000 

Density mixing:
  Method: difference
  Backend: pulay
  Linear mixing parameter: 0.05
  Mixing with 5 old densities
  Damping of long wave oscillations: 50 

Hamiltonian:
  XC and Coulomb potentials evaluated on a 120*70*54 grid
  Using the LDA Exchange-Correlation functional
 

Memory estimate:
  Process memory now: 12105.85 MiB
  Calculator: 375.55 MiB
    Density: 20.02 MiB
      Arrays: 7.57 MiB
      Localized functions: 9.42 MiB
      Mixer: 3.03 MiB
    Hamiltonian: 5.90 MiB
      Arrays: 5.62 MiB
      XC: 0.00 MiB
      Poisson: 0.00 MiB
      vbar: 0.27 MiB
    Wavefunctions: 349.64 MiB
      Arrays psit_nG: 311.46 MiB
      Eigensolver: 19.99 MiB
      Projections: 5.41 MiB
      Projectors: 9.73 MiB
      PW-descriptor: 3.03 MiB

Total number of cores used: 32
Parallelization over k-points: 16
Domain decomposition: 2 x 1 x 1

Number of atoms: 28
Number of atomic orbitals: 148
Number of bands in calculation: 112
Number of valence electrons: 180
Bands to converge: occupied

... initialized

Initializing position-dependent things.

Density initialized from atomic densities
Creating initial wave functions:
  112 bands from LCAO basis set

     .-------------------------.  
    /|         OP              |  
   / |O            O        O  |  
  /  |       O            O  P |  
 *   |O    Mn      O           |  
 |   |          OLi          O |  
 |   .P-O--------------Mn------.  
 |  /          Li    O  Mn  O /   
 | /Li O           PO        /    
 |/       Mn                /     
 *Li-----------------------*      

Positions:
   0 O     -1.350678   -2.541161   -1.202221    ( 0.0000,  0.0000,  0.0000)
   1 O     -3.121941    2.976855    1.167242    ( 0.0000,  0.0000,  0.0000)
   2 O      2.107533    0.508090    1.540712    ( 0.0000,  0.0000,  0.0000)
   3 O      3.869373   -0.072395   -0.828750    ( 0.0000,  0.0000,  0.0000)
   4 O      2.107821    2.976875    1.540792    ( 0.0000,  0.0000,  0.0000)
   5 O      3.869084   -2.541141   -0.828671    ( 0.0000,  0.0000,  0.0000)
   6 O     -1.360390   -0.072375   -1.202141    ( 0.0000,  0.0000,  0.0000)
   7 O     -3.122230    0.508109    1.167321    ( 0.0000,  0.0000,  0.0000)
   8 O     -4.413461   -1.306992   -0.794251    ( 0.0000,  0.0000,  0.0000)
   9 O     -0.069585    1.742707    1.575662    ( 0.0000,  0.0000,  0.0000)
  10 O      5.160604    1.742707    1.132822    ( 0.0000,  0.0000,  0.0000)
  11 O      0.816728   -1.306992   -1.237091    ( 0.0000,  0.0000,  0.0000)
  12 Mn    -2.570809   -1.307302    0.247161    ( 0.0000,  0.0000,  1.0000)
  13 Mn    -1.912021    1.743016   -2.122906    ( 0.0000,  0.0000, -1.0000)
  14 Mn     3.317952    1.743017    0.091411    ( 0.0000,  0.0000, -1.0000)
  15 Mn     2.659164   -1.307302    2.461478    ( 0.0000,  0.0000,  1.0000)
  16 P     -0.620664   -1.306816   -1.828465    ( 0.0000,  0.0000,  0.0000)
  17 P     -3.862097    1.742530    0.541238    ( 0.0000,  0.0000,  0.0000)
  18 P      1.367807    1.742530    2.167036    ( 0.0000,  0.0000,  0.0000)
  19 P      4.609240   -1.306816   -0.202666    ( 0.0000,  0.0000,  0.0000)
  20 O     -0.646437   -1.306845    1.374751    ( 0.0000,  0.0000,  0.0000)
  21 O     -3.836504    1.742559   -0.995565    ( 0.0000,  0.0000,  0.0000)
  22 O      1.393580    1.742559   -1.036179    ( 0.0000,  0.0000,  0.0000)
  23 O      4.583647   -1.306845    1.334136    ( 0.0000,  0.0000,  0.0000)
  24 Li    -4.856429   -2.832143   -2.200714    ( 0.0000,  0.0000,  0.0000)
  25 Li     0.373571   -2.832143    0.169286    ( 0.0000,  0.0000,  0.0000)
  26 Li    -4.856429    0.217857   -2.200714    ( 0.0000,  0.0000,  0.0000)
  27 Li     0.373571    0.217857    0.169286    ( 0.0000,  0.0000,  0.0000)

Unit cell:
           periodic     x           y           z      points  spacing
  1. axis:    yes   10.460000    0.000000    0.000000    60     0.1743
  2. axis:    yes    0.000000    6.100000    0.000000    35     0.1743
  3. axis:    yes    0.000000    0.000000    4.740000    27     0.1756

  Lengths:  10.460000   6.100000   4.740000
  Angles:   90.000000  90.000000  90.000000

Effective grid spacing dv^(1/3) = 0.1747

                     log10-error:           total        iterations:
           time      wfs    density  force  energy       poisson  magmom
iter:   1  04:01:26                       -231.921227             +0.0000
iter:   2  04:02:05  -0.55  -0.94         -231.746178             +0.0002
iter:   3  04:02:44  -0.72  -0.98         -220.583392             +0.0002
iter:   4  04:03:24  -0.96  -1.20         -218.865466             +0.0001
iter:   5  04:04:04  -1.93  -1.36         -220.991989             +0.0001
iter:   6  04:04:43  -1.96  -1.51         -219.871900             +0.2320
iter:   7  04:05:22  -2.25  -1.66         -221.225837             -0.1412
iter:   8  04:06:02  -2.71  -1.92         -219.311588             -0.2034
iter:   9  04:06:41  -2.41  -1.96         -221.737389             -0.0775
iter:  10  04:07:21  -2.30  -1.99         -224.939324             -0.0253
iter:  11  04:08:00  -2.83  -1.90         -226.097948             -0.0222
iter:  12  04:08:39  -2.63  -1.87         -227.175761             -0.0052
iter:  13  04:09:19  -3.46  -1.88         -227.231815             -0.0016
iter:  14  04:09:58  -2.82  -1.89         -227.054634             +0.0000
iter:  15  04:10:37  -1.87  -1.93         -226.811666             -0.0003
iter:  16  04:11:17  -1.92  -2.12         -226.532949             +0.0000
iter:  17  04:11:56  -2.84  -2.22         -226.442216             -0.0000
iter:  18  04:12:35  -2.35  -2.32         -226.337080             -0.0000
iter:  19  04:13:15  -2.25  -2.44         -226.349472             -0.0000
iter:  20  04:13:54  -2.84  -2.52         -226.236125             -0.0000
iter:  21  04:14:33  -3.78  -3.00         -226.233176             -0.0000
iter:  22  04:15:12  -3.94  -3.05         -226.231594             -0.0000
iter:  23  04:15:52  -4.16  -3.18         -226.228642             -0.0000
iter:  24  04:16:31  -5.07  -3.32         -226.228590             -0.0000
iter:  25  04:17:11  -4.83  -3.36         -226.227837             +0.0000
iter:  26  04:17:50  -4.71  -3.55         -226.228872             -0.0000
iter:  27  04:18:30  -5.50  -3.58         -226.228019             +0.0000
iter:  28  04:19:09  -5.04  -3.66         -226.227511             +0.0000
iter:  29  04:19:48  -5.73  -3.76         -226.227541             +0.0000
iter:  30  04:20:28  -5.35  -3.87         -226.227396             +0.0000
iter:  31  04:21:07  -6.30  -4.00         -226.227394             +0.0000
iter:  32  04:21:46  -5.77  -4.03         -226.227416             -0.0000
iter:  33  04:22:26  -6.79  -4.12         -226.227385             +0.0000
iter:  34  04:23:05  -6.27  -4.18         -226.227365             +0.0000
iter:  35  04:23:45  -7.27  -4.40         -226.227362             +0.0000
iter:  36  04:24:24  -6.95  -4.45         -226.227363             +0.0000
iter:  37  04:25:14  -7.74  -4.58         -226.227363             +0.0000
iter:  38  04:25:53  -6.85  -4.64         -226.227361             +0.0000
iter:  39  04:26:43  -7.91  -5.03    -2.39-226.227360             +0.0000
iter:  40  04:27:33  -8.84  -5.11    -3.29-226.227360             +0.0000
iter:  41  04:28:24  -8.87  -5.18    -3.40-226.227360             +0.0000
iter:  42  04:29:13  -9.15  -5.24    -3.08-226.227360             +0.0000
iter:  43  04:30:03  -8.90  -5.48    -3.44-226.227360             -0.0000
iter:  44  04:30:53  -9.40  -5.61    -3.47-226.227360             -0.0000
iter:  45  04:31:43  -9.06  -5.67    -3.47-226.227360             -0.0000
iter:  46  04:32:33  -9.71  -5.76    -4.19-226.227360             -0.0000
iter:  47  04:33:23  -9.73  -5.82    -3.67-226.227360             -0.0000
iter:  48  04:34:13 -10.43  -5.94    -4.06-226.227360             -0.0000
iter:  49  04:35:03 -10.40  -5.99    -4.33-226.227360             -0.0000
iter:  50  04:35:53 -10.74  -6.04    -4.43-226.227360             -0.0000
iter:  51  04:36:43 -10.51  -6.08    -3.90-226.227360             -0.0000
iter:  52  04:37:33 -10.96  -6.15    -4.07-226.227360             -0.0000
iter:  53  04:38:23 -11.39  -6.31    -4.60-226.227360             -0.0000
iter:  54  04:39:13 -10.15  -6.38    -4.05-226.227360             -0.0000
iter:  55  04:40:03 -11.11  -6.64    -4.80-226.227360             -0.0000
iter:  56  04:40:53 -11.44  -6.69    -4.55-226.227360             -0.0000
iter:  57  04:41:43 -12.15  -6.83    -4.88-226.227360             -0.0000
iter:  58  04:42:32 -11.52  -7.00    -4.67-226.227360             -0.0000
iter:  59  04:43:22 -11.13  -7.00    -4.43-226.227360             -0.0000
iter:  60  04:44:12 -12.11  -7.11    -4.78-226.227360             -0.0000
iter:  61  04:45:02 -12.21  -7.26    -5.06-226.227360             -0.0000
iter:  62  04:45:52 -12.45  -7.32    -5.12-226.227360             -0.0000
iter:  63  04:46:42 -13.13  -7.45    -5.44-226.227360             -0.0000
iter:  64  04:47:32 -14.03  -7.53    -5.53-226.227360             +0.0000
iter:  65  04:48:22 -13.54  -7.59    -5.31-226.227360             +0.0000
iter:  66  04:49:12 -13.92  -7.67    -5.76-226.227360             +0.0000
iter:  67  04:50:02 -13.48  -7.71    -5.74-226.227360             -0.0000
iter:  68  04:50:52 -14.18  -7.84    -6.41-226.227360             +0.0000

Converged after 68 iterations.

Dipole moment: (10.675465, 1.409921, -6.270248) |e|*Ang

Total magnetic moment: (0.000000, 0.000000, 0.000000)
Local magnetic moments:
   0 O  ( 0.000000,  0.000000, -0.000561)
   1 O  ( 0.000000,  0.000000,  0.000555)
   2 O  ( 0.000000,  0.000000,  0.000518)
   3 O  ( 0.000000,  0.000000, -0.000573)
   4 O  ( 0.000000,  0.000000,  0.000494)
   5 O  ( 0.000000,  0.000000, -0.000553)
   6 O  ( 0.000000,  0.000000, -0.000556)
   7 O  ( 0.000000,  0.000000,  0.000620)
   8 O  ( 0.000000,  0.000000,  0.028692)
   9 O  ( 0.000000,  0.000000, -0.028748)
  10 O  ( 0.000000,  0.000000, -0.028638)
  11 O  ( 0.000000,  0.000000,  0.028820)
  12 Mn ( 0.000000,  0.000000,  4.448726)
  13 Mn ( 0.000000,  0.000000, -4.448968)
  14 Mn ( 0.000000,  0.000000, -4.448167)
  15 Mn ( 0.000000,  0.000000,  4.448259)
  16 P  ( 0.000000,  0.000000,  0.001518)
  17 P  ( 0.000000,  0.000000, -0.001555)
  18 P  ( 0.000000,  0.000000, -0.001545)
  19 P  ( 0.000000,  0.000000,  0.001533)
  20 O  ( 0.000000,  0.000000,  0.025350)
  21 O  ( 0.000000,  0.000000, -0.025270)
  22 O  ( 0.000000,  0.000000, -0.025339)
  23 O  ( 0.000000,  0.000000,  0.025263)
  24 Li ( 0.000000,  0.000000,  0.000000)
  25 Li ( 0.000000,  0.000000, -0.000004)
  26 Li ( 0.000000,  0.000000, -0.000000)
  27 Li ( 0.000000,  0.000000,  0.000003)

Energy contributions relative to reference atoms: (reference = -196157.275402)

Kinetic:       +217.621001
Potential:     -195.441582
External:        +0.000000
XC:            -250.447590
Entropy (-ST):   -0.000000
Local:           +2.040811
--------------------------
Free energy:   -226.227360
Extrapolated:  -226.227360

Spin contamination: 9.561187 electrons
Showing only first 2 kpts
                      Up                     Down
 Kpt  Band  Eigenvalues  Occupancy  Eigenvalues  Occupancy
  0    88      5.10728    0.00694      5.10519    0.00694
  0    89      5.13450    0.00694      5.13227    0.00694
  0    90      7.28588    0.00000      7.28364    0.00000
  0    91      7.30408    0.00000      7.30709    0.00000

  1    88      5.13327    0.00694      5.13104    0.00694
  1    89      5.16457    0.00694      5.16264    0.00694
  1    90      7.22843    0.00000      7.22395    0.00000
  1    91      7.24174    0.00000      7.24501    0.00000


Fermi level: 6.22928

Gap: 1.967 eV
Transition (v -> c):
  (s=0, k=50, n=89, [-0.08, -0.42, 0.12]) -> (s=1, k=61, n=90, [-0.08, 0.08, -0.12])
Writing to born-0.01-0x+.gpw (mode='all')

Timing:                              incl.     excl.
-----------------------------------------------------------
Hamiltonian:                         0.409     0.002   0.0% |
 Atomic:                             0.056     0.056   0.0% |
  XC Correction:                     0.000     0.000   0.0% |
 Calculate atomic Hamiltonians:      0.179     0.179   0.0% |
 Communicate:                        0.001     0.001   0.0% |
 Initialize Hamiltonian:             0.000     0.000   0.0% |
 Poisson:                            0.002     0.002   0.0% |
 XC 3D grid:                         0.168     0.168   0.0% |
LCAO initialization:               117.617     0.678   0.0% |
 LCAO eigensolver:                  33.184     0.002   0.0% |
  Calculate projections:             0.057     0.057   0.0% |
  DenseAtomicCorrection:             0.082     0.082   0.0% |
  Distribute overlap matrix:         0.158     0.158   0.0% |
  Orbital Layouts:                   0.363     0.363   0.0% |
  Potential matrix:                 32.433    32.433   0.5% |
  Sum over cells:                    0.089     0.089   0.0% |
 LCAO to grid:                      81.483    81.483   1.3% ||
 Set positions (LCAO WFS):           2.273     0.346   0.0% |
  Basic WFS set positions:           0.001     0.001   0.0% |
  Basis functions set positions:     0.000     0.000   0.0% |
  P tci:                             1.062     1.062   0.0% |
  ST tci:                            0.657     0.657   0.0% |
  mktci:                             0.205     0.205   0.0% |
PWDescriptor:                        0.025     0.025   0.0% |
SCF-cycle:                        3013.210    21.237   0.3% |
 Davidson:                        2528.781   830.095  13.1% |----|
  Apply H:                         172.680   167.289   2.6% ||
   HMM T:                            5.392     5.392   0.1% |
  Subspace diag:                   370.656     0.220   0.0% |
   calc_h_matrix:                  238.661    67.203   1.1% |
    Apply H:                       171.458   166.170   2.6% ||
     HMM T:                          5.288     5.288   0.1% |
   diagonalize:                      8.248     8.248   0.1% |
   rotate_psi:                     123.527   123.527   1.9% ||
  calc. matrices:                  791.060   450.229   7.1% |--|
   Apply H:                        340.832   330.513   5.2% |-|
    HMM T:                          10.318    10.318   0.2% |
  diagonalize:                     113.127   113.127   1.8% ||
  rotate_psi:                      251.162   251.162   4.0% |-|
 Density:                          101.108     0.002   0.0% |
  Atomic density matrices:           1.822     1.822   0.0% |
  Mix:                              16.287    16.287   0.3% |
  Multipole moments:                 0.041     0.041   0.0% |
  Pseudo density:                   82.956    82.953   1.3% ||
   Symmetrize density:               0.002     0.002   0.0% |
 Forces:                           329.306   329.306   5.2% |-|
 Hamiltonian:                       28.354     0.166   0.0% |
  Atomic:                            4.105     4.105   0.1% |
   XC Correction:                    0.001     0.001   0.0% |
  Calculate atomic Hamiltonians:    12.136    12.136   0.2% |
  Communicate:                       0.125     0.125   0.0% |
  Poisson:                           0.123     0.123   0.0% |
  XC 3D grid:                       11.699    11.699   0.2% |
 Orthonormalize:                     4.423     0.004   0.0% |
  calc_s_matrix:                     0.524     0.524   0.0% |
  inverse-cholesky:                  0.054     0.054   0.0% |
  projections:                       2.907     2.907   0.0% |
  rotate_psi_s:                      0.934     0.934   0.0% |
Set symmetry:                        0.000     0.000   0.0% |
Other:                            3226.484  3226.484  50.7% |-------------------|
-----------------------------------------------------------
Total:                                      6357.745 100.0%

Memory usage: 11.88 GiB
Date: Sun Mar 21 05:44:37 2021
