
  ___ ___ ___ _ _ _  
 |   |   |_  | | | | 
 | | | | | . | | | | 
 |__ |  _|___|_____|  21.1.1b1
 |___|_|             

User:   madkru@i009.nifl.fysik.dtu.dk
Date:   Thu Apr  1 19:58:11 2021
Arch:   x86_64
Pid:    31381
Python: 3.8.6
gpaw:   /home/niflheim/madkru/venv_madkru/gpaw/gpaw (e6f0d78a31)
_gpaw:  /home/niflheim/madkru/venv_madkru/gpaw/build/lib.linux-x86_64-ivybridge-3.8/
        _gpaw.cpython-38-x86_64-linux-gnu.so (e6f0d78a31)
ase:    /home/niflheim/madkru/venv_madkru/ase/ase (version 3.22.0b1-4d5a73cb29)
numpy:  /home/modules/software/SciPy-bundle/2020.11-foss-2020b/lib/python3.8/site-packages/numpy (version 1.19.4)
scipy:  /home/modules/software/SciPy-bundle/2020.11-foss-2020b/lib/python3.8/site-packages/scipy (version 1.5.4)
libxc:  4.3.4
units:  Angstrom and eV
cores: 64
OpenMP: False
OMP_NUM_THREADS: 1

Input parameters:
  convergence: {bands: occupied,
                density: 0.0001,
                eigenstates: 4e-08,
                energy: 0.0005,
                forces: 1e-06}
  kpts: [6 6 4]
  maxiter: 1000
  mode: {ecut: 600.0,
         gammacentered: False,
         name: pw}
  occupations: {fixmagmom: False,
                name: fermi-dirac,
                width: 0.001}
  symmetry: {point_group: False,
             time_reversal: False}

System changes: positions, numbers, cell, pbc, initial_charges, initial_magmoms 

Initialize ...

O-setup:
  name: Oxygen
  id: 9b9d51c344dea68c822856295a461509
  Z: 8.0
  valence: 6
  core: 2
  charge: 0.0
  file: /home/modules/software/GPAW-setups/0.9.20000/O.LDA.gz
  compensation charges: gauss, rc=0.21, lmax=2
  cutoffs: 1.17(filt), 0.83(core),
  valence states:
                energy  radius
    2s(2.00)   -23.752   0.688
    2p(4.00)    -9.195   0.598
    *s           3.459   0.688
    *p          18.016   0.598
    *d           0.000   0.619

  Using partial waves for O as LCAO basis

Mn-setup:
  name: Manganese
  id: 0d715a8018be061a6e9ea6f2d364ac92
  Z: 25.0
  valence: 15
  core: 10
  charge: 0.0
  file: /home/modules/software/GPAW-setups/0.9.20000/Mn.LDA.gz
  compensation charges: gauss, rc=0.38, lmax=2
  cutoffs: 2.14(filt), 0.86(core),
  valence states:
                energy  radius
    3s(2.00)   -85.387   1.275
    4s(2.00)    -5.282   1.275
    3p(6.00)   -54.493   1.281
    4p(0.00)    -1.471   1.281
    3d(5.00)    -7.009   1.138
    *d          20.203   1.138

  Using partial waves for Mn as LCAO basis

P-setup:
  name: Phosphorus
  id: a5561c299094968922a179ab894d2e2d
  Z: 15.0
  valence: 5
  core: 10
  charge: 0.0
  file: /home/modules/software/GPAW-setups/0.9.20000/P.LDA.gz
  compensation charges: gauss, rc=0.30, lmax=2
  cutoffs: 1.69(filt), 1.81(core),
  valence states:
                energy  radius
    3s(2.00)   -14.015   0.953
    3p(3.00)    -5.596   0.953
    *s          13.197   0.953
    *p          21.615   0.953
    *d           0.000   0.953

  Using partial waves for P as LCAO basis

Li-setup:
  name: Lithium
  id: b73562207f97a71b6967473b66fe8b65
  Z: 3.0
  valence: 1
  core: 2
  charge: 0.0
  file: /home/modules/software/GPAW-setups/0.9.20000/Li.LDA.gz
  compensation charges: gauss, rc=0.33, lmax=2
  cutoffs: 1.91(filt), 2.55(core),
  valence states:
                energy  radius
    2s(1.00)    -2.874   1.058
    2p(0.00)    -1.126   1.058
    *s          24.338   1.058

  Using partial waves for Li as LCAO basis

Reference energy: -196157.275402

Spin-polarized calculation.
Magnetic moment: 0.000000

Convergence criteria:
  Maximum total energy change: 0.0005 eV / electron
  Maximum integral of absolute density change: 0.0001 electrons
  Maximum integral of absolute eigenstate change: 4e-08 eV^2
  Maximum change in atomic force: 1e-06 eV / Ang
  Maximum number of iterations: 1000

Symmetries present (total): 1

  ( 1  0  0)
  ( 0  1  0)
  ( 0  0  1)

144 k-points: 6 x 6 x 4 Monkhorst-Pack grid
144 k-points in the irreducible part of the Brillouin zone
       k-points in crystal coordinates                weights
   0:    -0.41666667   -0.41666667   -0.37500000          1/144
   1:    -0.41666667   -0.41666667   -0.12500000          1/144
   2:    -0.41666667   -0.41666667    0.12500000          1/144
   3:    -0.41666667   -0.41666667    0.37500000          1/144
   4:    -0.41666667   -0.25000000   -0.37500000          1/144
   5:    -0.41666667   -0.25000000   -0.12500000          1/144
   6:    -0.41666667   -0.25000000    0.12500000          1/144
   7:    -0.41666667   -0.25000000    0.37500000          1/144
   8:    -0.41666667   -0.08333333   -0.37500000          1/144
   9:    -0.41666667   -0.08333333   -0.12500000          1/144
          ...
 143:     0.41666667    0.41666667    0.37500000          1/144

Wave functions: Plane wave expansion
  Cutoff energy: 600.000 eV
  Number of coefficients (min, max): 10068, 10125
  Pulay-stress correction: 0.000000 eV/Ang^3 (de/decut=0.000000)
  Using FFTW library
  ScaLapack parameters: grid=1x1, blocksize=None
  Wavefunction extrapolation:
    Improved wavefunction reuse through dual PAW basis 

  Fermi-Dirac: width=0.0010 eV

Eigensolver
   Davidson(niter=2) 

Densities:
  Coarse grid: 60*35*27 grid
  Fine grid: 120*70*54 grid
  Total Charge: 0.000000 

Density mixing:
  Method: difference
  Backend: pulay
  Linear mixing parameter: 0.05
  Mixing with 5 old densities
  Damping of long wave oscillations: 50 

Hamiltonian:
  XC and Coulomb potentials evaluated on a 120*70*54 grid
  Using the LDA Exchange-Correlation functional
 

Memory estimate:
  Process memory now: 12110.38 MiB
  Calculator: 354.82 MiB
    Density: 10.06 MiB
      Arrays: 3.79 MiB
      Localized functions: 4.71 MiB
      Mixer: 1.56 MiB
    Hamiltonian: 2.95 MiB
      Arrays: 2.82 MiB
      XC: 0.00 MiB
      Poisson: 0.00 MiB
      vbar: 0.14 MiB
    Wavefunctions: 341.80 MiB
      Arrays psit_nG: 311.46 MiB
      Eigensolver: 19.99 MiB
      Projections: 2.71 MiB
      Projectors: 4.87 MiB
      PW-descriptor: 2.77 MiB

Total number of cores used: 64
Parallelization over k-points: 16
Domain decomposition: 2 x 2 x 1

Number of atoms: 28
Number of atomic orbitals: 148
Number of bands in calculation: 112
Number of valence electrons: 180
Bands to converge: occupied

... initialized

Initializing position-dependent things.

Density initialized from atomic densities
Creating initial wave functions:
  112 bands from LCAO basis set

     .-------------------------.  
    /|         OP              |  
   / |O            O        O  |  
  /  |       O            O  P |  
 *   |O    Mn      O           |  
 |   |          OLi          O |  
 |   .P-O--------------Mn------.  
 |  /          Li    O  Mn  O /   
 | /Li O           PO        /    
 |/       Mn                /     
 *Li-----------------------*      

Positions:
   0 O     -1.360678   -2.541161   -1.202221    ( 0.0000,  0.0000,  0.0000)
   1 O     -3.121941    2.976855    1.167242    ( 0.0000,  0.0000,  0.0000)
   2 O      2.107533    0.508090    1.540712    ( 0.0000,  0.0000,  0.0000)
   3 O      3.869373   -0.072395   -0.828750    ( 0.0000,  0.0000,  0.0000)
   4 O      2.107821    2.976875    1.540792    ( 0.0000,  0.0000,  0.0000)
   5 O      3.869084   -2.541141   -0.828671    ( 0.0000,  0.0000,  0.0000)
   6 O     -1.360390   -0.072375   -1.202141    ( 0.0000,  0.0000,  0.0000)
   7 O     -3.122230    0.508109    1.167321    ( 0.0000,  0.0000,  0.0000)
   8 O     -4.413461   -1.306992   -0.794251    ( 0.0000,  0.0000,  0.0000)
   9 O     -0.069585    1.742707    1.575662    ( 0.0000,  0.0000,  0.0000)
  10 O      5.160604    1.742707    1.132822    ( 0.0000,  0.0000,  0.0000)
  11 O      0.816728   -1.306992   -1.237091    ( 0.0000,  0.0000,  0.0000)
  12 Mn    -2.570809   -1.307302    0.247161    ( 0.0000,  0.0000,  1.0000)
  13 Mn    -1.912021    1.743016   -2.122906    ( 0.0000,  0.0000, -1.0000)
  14 Mn     3.317952    1.743017    0.091411    ( 0.0000,  0.0000, -1.0000)
  15 Mn     2.659164   -1.307302    2.461478    ( 0.0000,  0.0000,  1.0000)
  16 P     -0.620664   -1.306816   -1.828465    ( 0.0000,  0.0000,  0.0000)
  17 P     -3.862097    1.742530    0.541238    ( 0.0000,  0.0000,  0.0000)
  18 P      1.367807    1.742530    2.167036    ( 0.0000,  0.0000,  0.0000)
  19 P      4.609240   -1.306816   -0.202666    ( 0.0000,  0.0000,  0.0000)
  20 O     -0.646437   -1.306845    1.374751    ( 0.0000,  0.0000,  0.0000)
  21 O     -3.836504    1.742559   -0.995565    ( 0.0000,  0.0000,  0.0000)
  22 O      1.393580    1.732559   -1.036179    ( 0.0000,  0.0000,  0.0000)
  23 O      4.583647   -1.306845    1.334136    ( 0.0000,  0.0000,  0.0000)
  24 Li    -4.856429   -2.832143   -2.200714    ( 0.0000,  0.0000,  0.0000)
  25 Li     0.373571   -2.832143    0.169286    ( 0.0000,  0.0000,  0.0000)
  26 Li    -4.856429    0.217857   -2.200714    ( 0.0000,  0.0000,  0.0000)
  27 Li     0.373571    0.217857    0.169286    ( 0.0000,  0.0000,  0.0000)

Unit cell:
           periodic     x           y           z      points  spacing
  1. axis:    yes   10.460000    0.000000    0.000000    60     0.1743
  2. axis:    yes    0.000000    6.100000    0.000000    35     0.1743
  3. axis:    yes    0.000000    0.000000    4.740000    27     0.1756

  Lengths:  10.460000   6.100000   4.740000
  Angles:   90.000000  90.000000  90.000000

Effective grid spacing dv^(1/3) = 0.1747

                     log10-error:           total        iterations:
           time      wfs    density  force  energy       poisson  magmom
iter:   1  19:59:40                       -231.920210             +0.0000
iter:   2  20:00:01  -0.55  -0.94         -231.730851             +0.0052
iter:   3  20:00:21  -0.72  -0.98         -220.584669             +0.0065
iter:   4  20:00:42  -0.96  -1.20         -218.866129             +0.0021
iter:   5  20:01:03  -1.94  -1.36         -221.253396             +0.0014
iter:   6  20:01:23  -1.99  -1.50         -219.969035             +0.0007
iter:   7  20:01:44  -2.21  -1.68         -222.930325             +0.1778
iter:   8  20:02:05  -2.73  -1.89         -219.878347             +0.2456
iter:   9  20:02:26  -2.19  -1.94         -225.030386             +0.6589
iter:  10  20:02:47  -2.24  -1.87         -227.233037             +0.0109
iter:  11  20:03:08  -2.98  -1.84         -227.290582             -0.0143
iter:  12  20:03:28  -3.05  -1.81         -227.201751             -0.0045
iter:  13  20:03:49  -1.39  -1.80         -228.691168             -0.0033
iter:  14  20:04:10  -2.81  -1.87         -227.194882             -0.0014
iter:  15  20:04:30  -2.72  -2.06         -227.361940             -0.0003
iter:  16  20:04:51  -2.80  -2.04         -226.833222             -0.0007
iter:  17  20:05:12  -2.15  -2.08         -226.511567             -0.0002
iter:  18  20:05:33  -1.97  -2.11         -227.036168             -0.0001
iter:  19  20:05:53  -2.87  -2.13         -226.604990             -0.0001
iter:  20  20:06:14  -3.92  -2.20         -226.560734             -0.0000
iter:  21  20:06:34  -3.08  -2.24         -226.460039             -0.0000
iter:  22  20:06:55  -3.30  -2.31         -226.358331             -0.0000
iter:  23  20:07:16  -2.20  -2.35         -226.302469             -0.0000
iter:  24  20:07:36  -3.21  -2.50         -226.229704             -0.0000
iter:  25  20:07:57  -3.45  -2.77         -226.234783             +0.0000
iter:  26  20:08:18  -4.40  -3.05         -226.231741             +0.0000
iter:  27  20:08:38  -4.10  -3.11         -226.228883             +0.0000
iter:  28  20:08:59  -4.86  -3.17         -226.229546             +0.0000
iter:  29  20:09:20  -4.91  -3.23         -226.231348             -0.0000
iter:  30  20:09:40  -5.26  -3.28         -226.229598             -0.0000
iter:  31  20:10:01  -4.63  -3.34         -226.228086             -0.0000
iter:  32  20:10:22  -5.41  -3.37         -226.227991             +0.0000
iter:  33  20:10:42  -4.86  -3.40         -226.228785             -0.0000
iter:  34  20:11:03  -5.43  -3.65         -226.228055             -0.0000
iter:  35  20:11:24  -5.32  -3.71         -226.227767             -0.0000
iter:  36  20:11:45  -6.39  -3.76         -226.227752             -0.0000
iter:  37  20:12:05  -5.33  -3.79         -226.227811             -0.0000
iter:  38  20:12:26  -5.96  -4.08         -226.227703             -0.0000
iter:  39  20:12:47  -6.59  -4.19         -226.227711             -0.0000
iter:  40  20:13:07  -7.28  -4.25         -226.227710             -0.0000
iter:  41  20:13:28  -6.66  -4.34         -226.227710             -0.0000
iter:  42  20:13:54  -7.53  -4.40         -226.227710             -0.0000
iter:  43  20:14:15  -7.18  -4.82         -226.227706             -0.0000
iter:  44  20:14:40  -8.08  -5.06    -2.51-226.227707             -0.0000
iter:  45  20:15:06  -8.84  -5.19    -3.43-226.227707             -0.0000
iter:  46  20:15:32  -8.19  -5.26    -3.02-226.227706             +0.0000
iter:  47  20:15:58  -9.43  -5.32    -3.49-226.227706             -0.0000
iter:  48  20:16:24  -8.75  -5.35    -3.41-226.227706             -0.0000
iter:  49  20:16:50  -9.29  -5.44    -3.42-226.227706             -0.0000
iter:  50  20:17:16  -9.87  -5.69    -4.04-226.227706             -0.0000
iter:  51  20:17:41  -9.36  -5.74    -3.49-226.227706             -0.0000
iter:  52  20:18:07  -9.83  -6.01    -3.81-226.227706             -0.0000
iter:  53  20:18:33 -10.67  -6.32    -4.39-226.227706             -0.0000
iter:  54  20:18:59 -10.69  -6.42    -4.25-226.227706             -0.0000
iter:  55  20:19:25 -11.02  -6.62    -4.26-226.227706             -0.0000
iter:  56  20:19:51 -11.86  -6.87    -5.04-226.227706             -0.0000
iter:  57  20:20:17 -11.42  -6.91    -4.60-226.227706             -0.0000
iter:  58  20:20:43 -12.05  -7.06    -4.67-226.227706             -0.0000
iter:  59  20:21:08 -12.67  -7.44    -5.39-226.227706             -0.0000
iter:  60  20:21:34 -13.03  -7.52    -5.31-226.227706             -0.0000
iter:  61  20:22:00 -13.50  -7.66    -5.57-226.227706             -0.0000
iter:  62  20:22:26 -14.01  -7.73    -5.78-226.227706             -0.0000
iter:  63  20:22:52 -13.72  -7.77    -5.54-226.227706             -0.0000
iter:  64  20:23:17 -14.05  -7.89    -5.78-226.227706             -0.0000
iter:  65  20:23:43 -13.99  -7.98    -5.72-226.227706             -0.0000
iter:  66  20:24:09 -14.81  -8.28    -6.14-226.227706             -0.0000

Converged after 66 iterations.

Dipole moment: (10.671469, 1.416852, -6.269788) |e|*Ang

Total magnetic moment: (0.000000, 0.000000, -0.000000)
Local magnetic moments:
   0 O  ( 0.000000,  0.000000, -0.000524)
   1 O  ( 0.000000,  0.000000,  0.000533)
   2 O  ( 0.000000,  0.000000,  0.000500)
   3 O  ( 0.000000,  0.000000, -0.000571)
   4 O  ( 0.000000,  0.000000,  0.000556)
   5 O  ( 0.000000,  0.000000, -0.000516)
   6 O  ( 0.000000,  0.000000, -0.000533)
   7 O  ( 0.000000,  0.000000,  0.000554)
   8 O  ( 0.000000,  0.000000,  0.028693)
   9 O  ( 0.000000,  0.000000, -0.028701)
  10 O  ( 0.000000,  0.000000, -0.028693)
  11 O  ( 0.000000,  0.000000,  0.028701)
  12 Mn ( 0.000000,  0.000000,  4.448162)
  13 Mn ( 0.000000,  0.000000, -4.448240)
  14 Mn ( 0.000000,  0.000000, -4.448158)
  15 Mn ( 0.000000,  0.000000,  4.448242)
  16 P  ( 0.000000,  0.000000,  0.001558)
  17 P  ( 0.000000,  0.000000, -0.001543)
  18 P  ( 0.000000,  0.000000, -0.001557)
  19 P  ( 0.000000,  0.000000,  0.001544)
  20 O  ( 0.000000,  0.000000,  0.025315)
  21 O  ( 0.000000,  0.000000, -0.025306)
  22 O  ( 0.000000,  0.000000, -0.025316)
  23 O  ( 0.000000,  0.000000,  0.025306)
  24 Li ( 0.000000,  0.000000, -0.000000)
  25 Li ( 0.000000,  0.000000,  0.000004)
  26 Li ( 0.000000,  0.000000,  0.000000)
  27 Li ( 0.000000,  0.000000, -0.000004)

Energy contributions relative to reference atoms: (reference = -196157.275402)

Kinetic:       +217.349633
Potential:     -195.235114
External:        +0.000000
XC:            -250.383404
Entropy (-ST):   -0.000000
Local:           +2.041179
--------------------------
Free energy:   -226.227706
Extrapolated:  -226.227706

Spin contamination: 9.560411 electrons
Showing only first 2 kpts
                      Up                     Down
 Kpt  Band  Eigenvalues  Occupancy  Eigenvalues  Occupancy
  0    88      5.10987    1.00000      5.10982    1.00000
  0    89      5.13439    1.00000      5.13427    1.00000
  0    90      7.28864    0.00000      7.28866    0.00000
  0    91      7.30633    0.00000      7.30635    0.00000

  1    88      5.13561    1.00000      5.13556    1.00000
  1    89      5.16482    1.00000      5.16467    1.00000
  1    90      7.23144    0.00000      7.23145    0.00000
  1    91      7.24363    0.00000      7.24366    0.00000


Fermi level: 6.70979

Gap: 1.972 eV
Transition (v -> c):
  (s=1, k=69, n=89, [-0.08, 0.42, -0.12]) -> (s=0, k=86, n=90, [0.08, 0.08, 0.12])
Writing to born-0.01-22y-.gpw (mode='all')

Timing:                              incl.     excl.
-----------------------------------------------------------
Hamiltonian:                         0.239     0.002   0.0% |
 Atomic:                             0.077     0.077   0.0% |
  XC Correction:                     0.000     0.000   0.0% |
 Calculate atomic Hamiltonians:      0.076     0.076   0.0% |
 Communicate:                        0.000     0.000   0.0% |
 Initialize Hamiltonian:             0.000     0.000   0.0% |
 Poisson:                            0.001     0.001   0.0% |
 XC 3D grid:                         0.083     0.083   0.0% |
LCAO initialization:                64.356     0.647   0.0% |
 LCAO eigensolver:                  16.667     0.002   0.0% |
  Calculate projections:             0.029     0.029   0.0% |
  DenseAtomicCorrection:             0.044     0.044   0.0% |
  Distribute overlap matrix:         0.039     0.039   0.0% |
  Orbital Layouts:                   0.259     0.259   0.0% |
  Potential matrix:                 16.209    16.209   0.4% |
  Sum over cells:                    0.085     0.085   0.0% |
 LCAO to grid:                      45.754    45.754   1.2% |
 Set positions (LCAO WFS):           1.288     0.204   0.0% |
  Basic WFS set positions:           0.001     0.001   0.0% |
  Basis functions set positions:     0.000     0.000   0.0% |
  P tci:                             0.508     0.508   0.0% |
  ST tci:                            0.363     0.363   0.0% |
  mktci:                             0.212     0.212   0.0% |
PWDescriptor:                        0.023     0.023   0.0% |
SCF-cycle:                        1492.590     3.598   0.1% |
 Davidson:                        1298.334   415.476  11.1% |---|
  Apply H:                          85.060    82.642   2.2% ||
   HMM T:                            2.418     2.418   0.1% |
  Subspace diag:                   185.710     0.186   0.0% |
   calc_h_matrix:                  117.528    32.882   0.9% |
    Apply H:                        84.646    82.241   2.2% ||
     HMM T:                          2.405     2.405   0.1% |
   diagonalize:                      6.603     6.603   0.2% |
   rotate_psi:                      61.392    61.392   1.6% ||
  calc. matrices:                  389.622   220.855   5.9% |-|
   Apply H:                        168.767   164.016   4.4% |-|
    HMM T:                           4.751     4.751   0.1% |
  diagonalize:                      99.228    99.228   2.6% ||
  rotate_psi:                      123.238   123.238   3.3% ||
 Density:                           49.669     0.002   0.0% |
  Atomic density matrices:           0.860     0.860   0.0% |
  Mix:                               8.018     8.018   0.2% |
  Multipole moments:                 0.024     0.024   0.0% |
  Pseudo density:                   40.766    40.764   1.1% |
   Symmetrize density:               0.002     0.002   0.0% |
 Forces:                           124.284   124.284   3.3% ||
 Hamiltonian:                       14.441     0.137   0.0% |
  Atomic:                            3.395     3.395   0.1% |
   XC Correction:                    0.000     0.000   0.0% |
  Calculate atomic Hamiltonians:     5.366     5.366   0.1% |
  Communicate:                       0.011     0.011   0.0% |
  Poisson:                           0.048     0.048   0.0% |
  XC 3D grid:                        5.484     5.484   0.1% |
 Orthonormalize:                     2.265     0.003   0.0% |
  calc_s_matrix:                     0.270     0.270   0.0% |
  inverse-cholesky:                  0.042     0.042   0.0% |
  projections:                       1.461     1.461   0.0% |
  rotate_psi_s:                      0.489     0.489   0.0% |
Set symmetry:                        0.000     0.000   0.0% |
Other:                            2201.084  2201.084  58.6% |----------------------|
-----------------------------------------------------------
Total:                                      3758.293 100.0%

Memory usage: 11.87 GiB
Date: Thu Apr  1 21:00:49 2021
