
  ___ ___ ___ _ _ _  
 |   |   |_  | | | | 
 | | | | | . | | | | 
 |__ |  _|___|_____|  21.1.1b1
 |___|_|             

User:   madkru@i009.nifl.fysik.dtu.dk
Date:   Fri Apr  2 12:31:58 2021
Arch:   x86_64
Pid:    31381
Python: 3.8.6
gpaw:   /home/niflheim/madkru/venv_madkru/gpaw/gpaw (e6f0d78a31)
_gpaw:  /home/niflheim/madkru/venv_madkru/gpaw/build/lib.linux-x86_64-ivybridge-3.8/
        _gpaw.cpython-38-x86_64-linux-gnu.so (e6f0d78a31)
ase:    /home/niflheim/madkru/venv_madkru/ase/ase (version 3.22.0b1-4d5a73cb29)
numpy:  /home/modules/software/SciPy-bundle/2020.11-foss-2020b/lib/python3.8/site-packages/numpy (version 1.19.4)
scipy:  /home/modules/software/SciPy-bundle/2020.11-foss-2020b/lib/python3.8/site-packages/scipy (version 1.5.4)
libxc:  4.3.4
units:  Angstrom and eV
cores: 64
OpenMP: False
OMP_NUM_THREADS: 1

Input parameters:
  convergence: {bands: occupied,
                density: 0.0001,
                eigenstates: 4e-08,
                energy: 0.0005,
                forces: 1e-06}
  kpts: [6 6 4]
  maxiter: 1000
  mode: {ecut: 600.0,
         gammacentered: False,
         name: pw}
  occupations: {fixmagmom: False,
                name: fermi-dirac,
                width: 0.001}
  symmetry: {point_group: False,
             time_reversal: False}

System changes: positions, numbers, cell, pbc, initial_charges, initial_magmoms 

Initialize ...

O-setup:
  name: Oxygen
  id: 9b9d51c344dea68c822856295a461509
  Z: 8.0
  valence: 6
  core: 2
  charge: 0.0
  file: /home/modules/software/GPAW-setups/0.9.20000/O.LDA.gz
  compensation charges: gauss, rc=0.21, lmax=2
  cutoffs: 1.17(filt), 0.83(core),
  valence states:
                energy  radius
    2s(2.00)   -23.752   0.688
    2p(4.00)    -9.195   0.598
    *s           3.459   0.688
    *p          18.016   0.598
    *d           0.000   0.619

  Using partial waves for O as LCAO basis

Mn-setup:
  name: Manganese
  id: 0d715a8018be061a6e9ea6f2d364ac92
  Z: 25.0
  valence: 15
  core: 10
  charge: 0.0
  file: /home/modules/software/GPAW-setups/0.9.20000/Mn.LDA.gz
  compensation charges: gauss, rc=0.38, lmax=2
  cutoffs: 2.14(filt), 0.86(core),
  valence states:
                energy  radius
    3s(2.00)   -85.387   1.275
    4s(2.00)    -5.282   1.275
    3p(6.00)   -54.493   1.281
    4p(0.00)    -1.471   1.281
    3d(5.00)    -7.009   1.138
    *d          20.203   1.138

  Using partial waves for Mn as LCAO basis

P-setup:
  name: Phosphorus
  id: a5561c299094968922a179ab894d2e2d
  Z: 15.0
  valence: 5
  core: 10
  charge: 0.0
  file: /home/modules/software/GPAW-setups/0.9.20000/P.LDA.gz
  compensation charges: gauss, rc=0.30, lmax=2
  cutoffs: 1.69(filt), 1.81(core),
  valence states:
                energy  radius
    3s(2.00)   -14.015   0.953
    3p(3.00)    -5.596   0.953
    *s          13.197   0.953
    *p          21.615   0.953
    *d           0.000   0.953

  Using partial waves for P as LCAO basis

Li-setup:
  name: Lithium
  id: b73562207f97a71b6967473b66fe8b65
  Z: 3.0
  valence: 1
  core: 2
  charge: 0.0
  file: /home/modules/software/GPAW-setups/0.9.20000/Li.LDA.gz
  compensation charges: gauss, rc=0.33, lmax=2
  cutoffs: 1.91(filt), 2.55(core),
  valence states:
                energy  radius
    2s(1.00)    -2.874   1.058
    2p(0.00)    -1.126   1.058
    *s          24.338   1.058

  Using partial waves for Li as LCAO basis

Reference energy: -196157.275402

Spin-polarized calculation.
Magnetic moment: 0.000000

Convergence criteria:
  Maximum total energy change: 0.0005 eV / electron
  Maximum integral of absolute density change: 0.0001 electrons
  Maximum integral of absolute eigenstate change: 4e-08 eV^2
  Maximum change in atomic force: 1e-06 eV / Ang
  Maximum number of iterations: 1000

Symmetries present (total): 1

  ( 1  0  0)
  ( 0  1  0)
  ( 0  0  1)

144 k-points: 6 x 6 x 4 Monkhorst-Pack grid
144 k-points in the irreducible part of the Brillouin zone
       k-points in crystal coordinates                weights
   0:    -0.41666667   -0.41666667   -0.37500000          1/144
   1:    -0.41666667   -0.41666667   -0.12500000          1/144
   2:    -0.41666667   -0.41666667    0.12500000          1/144
   3:    -0.41666667   -0.41666667    0.37500000          1/144
   4:    -0.41666667   -0.25000000   -0.37500000          1/144
   5:    -0.41666667   -0.25000000   -0.12500000          1/144
   6:    -0.41666667   -0.25000000    0.12500000          1/144
   7:    -0.41666667   -0.25000000    0.37500000          1/144
   8:    -0.41666667   -0.08333333   -0.37500000          1/144
   9:    -0.41666667   -0.08333333   -0.12500000          1/144
          ...
 143:     0.41666667    0.41666667    0.37500000          1/144

Wave functions: Plane wave expansion
  Cutoff energy: 600.000 eV
  Number of coefficients (min, max): 10068, 10125
  Pulay-stress correction: 0.000000 eV/Ang^3 (de/decut=0.000000)
  Using FFTW library
  ScaLapack parameters: grid=1x1, blocksize=None
  Wavefunction extrapolation:
    Improved wavefunction reuse through dual PAW basis 

  Fermi-Dirac: width=0.0010 eV

Eigensolver
   Davidson(niter=2) 

Densities:
  Coarse grid: 60*35*27 grid
  Fine grid: 120*70*54 grid
  Total Charge: 0.000000 

Density mixing:
  Method: difference
  Backend: pulay
  Linear mixing parameter: 0.05
  Mixing with 5 old densities
  Damping of long wave oscillations: 50 

Hamiltonian:
  XC and Coulomb potentials evaluated on a 120*70*54 grid
  Using the LDA Exchange-Correlation functional
 

Memory estimate:
  Process memory now: 12942.51 MiB
  Calculator: 354.82 MiB
    Density: 10.06 MiB
      Arrays: 3.79 MiB
      Localized functions: 4.71 MiB
      Mixer: 1.56 MiB
    Hamiltonian: 2.95 MiB
      Arrays: 2.82 MiB
      XC: 0.00 MiB
      Poisson: 0.00 MiB
      vbar: 0.14 MiB
    Wavefunctions: 341.80 MiB
      Arrays psit_nG: 311.46 MiB
      Eigensolver: 19.99 MiB
      Projections: 2.71 MiB
      Projectors: 4.87 MiB
      PW-descriptor: 2.77 MiB

Total number of cores used: 64
Parallelization over k-points: 16
Domain decomposition: 2 x 2 x 1

Number of atoms: 28
Number of atomic orbitals: 148
Number of bands in calculation: 112
Number of valence electrons: 180
Bands to converge: occupied

... initialized

Initializing position-dependent things.

Density initialized from atomic densities
Creating initial wave functions:
  112 bands from LCAO basis set

     .-------------------------.  
    /|         OP              |  
   / |O            O        O  |  
  /  |       O            O  P |  
 *   |O    Mn      O           |  
 |   |          OLi          O |  
 |   .P-O--------------Mn------.  
 |  /          Li    O  Mn  O /   
 | /Li O           PO        /    
 |/       Mn                /     
 *Li-----------------------*      

Positions:
   0 O     -1.360678   -2.541161   -1.202221    ( 0.0000,  0.0000,  0.0000)
   1 O     -3.121941    2.976855    1.167242    ( 0.0000,  0.0000,  0.0000)
   2 O      2.107533    0.508090    1.540712    ( 0.0000,  0.0000,  0.0000)
   3 O      3.869373   -0.072395   -0.828750    ( 0.0000,  0.0000,  0.0000)
   4 O      2.107821    2.976875    1.540792    ( 0.0000,  0.0000,  0.0000)
   5 O      3.869084   -2.541141   -0.828671    ( 0.0000,  0.0000,  0.0000)
   6 O     -1.360390   -0.072375   -1.202141    ( 0.0000,  0.0000,  0.0000)
   7 O     -3.122230    0.508109    1.167321    ( 0.0000,  0.0000,  0.0000)
   8 O     -4.413461   -1.306992   -0.794251    ( 0.0000,  0.0000,  0.0000)
   9 O     -0.069585    1.742707    1.575662    ( 0.0000,  0.0000,  0.0000)
  10 O      5.160604    1.742707    1.132822    ( 0.0000,  0.0000,  0.0000)
  11 O      0.816728   -1.306992   -1.237091    ( 0.0000,  0.0000,  0.0000)
  12 Mn    -2.570809   -1.307302    0.247161    ( 0.0000,  0.0000,  1.0000)
  13 Mn    -1.912021    1.743016   -2.122906    ( 0.0000,  0.0000, -1.0000)
  14 Mn     3.317952    1.743017    0.091411    ( 0.0000,  0.0000, -1.0000)
  15 Mn     2.659164   -1.307302    2.461478    ( 0.0000,  0.0000,  1.0000)
  16 P     -0.620664   -1.306816   -1.828465    ( 0.0000,  0.0000,  0.0000)
  17 P     -3.862097    1.742530    0.541238    ( 0.0000,  0.0000,  0.0000)
  18 P      1.367807    1.742530    2.167036    ( 0.0000,  0.0000,  0.0000)
  19 P      4.609240   -1.306816   -0.202666    ( 0.0000,  0.0000,  0.0000)
  20 O     -0.646437   -1.306845    1.374751    ( 0.0000,  0.0000,  0.0000)
  21 O     -3.836504    1.742559   -0.995565    ( 0.0000,  0.0000,  0.0000)
  22 O      1.393580    1.742559   -1.036179    ( 0.0000,  0.0000,  0.0000)
  23 O      4.583647   -1.306845    1.334136    ( 0.0000,  0.0000,  0.0000)
  24 Li    -4.856429   -2.832143   -2.200714    ( 0.0000,  0.0000,  0.0000)
  25 Li     0.373571   -2.832143    0.169286    ( 0.0000,  0.0000,  0.0000)
  26 Li    -4.856429    0.217857   -2.200714    ( 0.0000,  0.0000,  0.0000)
  27 Li     0.383571    0.217857    0.169286    ( 0.0000,  0.0000,  0.0000)

Unit cell:
           periodic     x           y           z      points  spacing
  1. axis:    yes   10.460000    0.000000    0.000000    60     0.1743
  2. axis:    yes    0.000000    6.100000    0.000000    35     0.1743
  3. axis:    yes    0.000000    0.000000    4.740000    27     0.1756

  Lengths:  10.460000   6.100000   4.740000
  Angles:   90.000000  90.000000  90.000000

Effective grid spacing dv^(1/3) = 0.1747

                     log10-error:           total        iterations:
           time      wfs    density  force  energy       poisson  magmom
iter:   1  12:33:27                       -231.920422             +0.0000
iter:   2  12:33:48  -0.55  -0.94         -231.731036             +0.0092
iter:   3  12:34:08  -0.72  -0.98         -220.585625             +0.0115
iter:   4  12:34:29  -0.95  -1.20         -218.866948             +0.0038
iter:   5  12:34:50  -1.93  -1.36         -221.815068             +0.0025
iter:   6  12:35:11  -2.00  -1.46         -220.831922             +0.0012
iter:   7  12:35:32  -2.09  -1.65         -224.555368             +0.0006
iter:   8  12:35:53  -2.02  -1.86         -226.873621             +0.0002
iter:   9  12:36:13  -2.39  -1.82         -227.819186             +0.0000
iter:  10  12:36:34  -2.85  -1.73         -227.391748             -0.0000
iter:  11  12:36:55  -2.01  -1.82         -226.860491             -0.0000
iter:  12  12:37:16  -1.67  -1.99         -227.273865             -0.0000
iter:  13  12:37:36  -2.35  -2.04         -226.538450             -0.0000
iter:  14  12:37:57  -2.22  -2.31         -226.404877             -0.0000
iter:  15  12:38:18  -3.38  -2.44         -226.351085             -0.0000
iter:  16  12:38:39  -2.79  -2.53         -226.241688             -0.0000
iter:  17  12:38:59  -3.18  -2.60         -226.237239             -0.0000
iter:  18  12:39:20  -3.85  -2.68         -226.233963             +0.0000
iter:  19  12:39:41  -3.13  -2.71         -226.254366             -0.0000
iter:  20  12:40:01  -3.49  -2.91         -226.229231             +0.0000
iter:  21  12:40:22  -4.34  -3.36         -226.227681             -0.0000
iter:  22  12:40:43  -4.53  -3.49         -226.228702             +0.0000
iter:  23  12:41:04  -5.17  -3.56         -226.228374             +0.0000
iter:  24  12:41:24  -5.28  -3.62         -226.228232             +0.0000
iter:  25  12:41:45  -5.68  -3.65         -226.228156             +0.0000
iter:  26  12:42:06  -5.50  -3.72         -226.227987             +0.0000
iter:  27  12:42:27  -6.28  -3.93         -226.228007             +0.0000
iter:  28  12:42:47  -6.53  -3.96         -226.227995             -0.0000
iter:  29  12:43:08  -6.41  -4.12         -226.227977             +0.0000
iter:  30  12:43:29  -6.50  -4.32         -226.227961             +0.0000
iter:  31  12:43:50  -6.61  -4.43         -226.227967             +0.0000
iter:  32  12:44:10  -6.92  -4.59         -226.227956             -0.0000
iter:  33  12:44:31  -7.12  -4.74         -226.227956             +0.0000
iter:  34  12:44:57  -7.91  -4.83         -226.227957             -0.0000
iter:  35  12:45:23  -8.08  -4.97    -2.76-226.227957             -0.0000
iter:  36  12:45:49  -8.80  -5.37    -3.30-226.227957             -0.0000
iter:  37  12:46:15  -8.59  -5.43    -3.19-226.227957             -0.0000
iter:  38  12:46:41  -9.32  -5.69    -3.47-226.227957             -0.0000
iter:  39  12:47:07  -8.97  -5.81    -3.64-226.227957             -0.0000
iter:  40  12:47:33  -9.95  -5.88    -3.80-226.227957             -0.0000
iter:  41  12:47:58 -10.52  -5.95    -4.10-226.227957             -0.0000
iter:  42  12:48:24 -10.34  -6.02    -3.78-226.227957             -0.0000
iter:  43  12:48:50 -10.51  -6.21    -3.95-226.227957             -0.0000
iter:  44  12:49:16 -11.19  -6.32    -4.54-226.227957             -0.0000
iter:  45  12:49:42 -11.06  -6.35    -4.59-226.227957             -0.0000
iter:  46  12:50:08 -11.57  -6.40    -4.53-226.227957             -0.0000
iter:  47  12:50:34 -11.22  -6.46    -4.59-226.227957             -0.0000
iter:  48  12:51:00 -11.33  -6.51    -4.62-226.227957             -0.0000
iter:  49  12:51:26 -11.24  -6.53    -4.62-226.227957             -0.0000
iter:  50  12:51:52 -11.66  -6.60    -4.78-226.227957             -0.0000
iter:  51  12:52:18 -12.07  -6.65    -4.94-226.227957             -0.0000
iter:  52  12:52:44 -12.26  -6.71    -4.99-226.227957             -0.0000
iter:  53  12:53:10 -11.79  -6.80    -4.59-226.227957             -0.0000
iter:  54  12:53:36 -12.93  -7.04    -5.52-226.227957             -0.0000
iter:  55  12:54:02 -11.67  -7.11    -4.71-226.227957             -0.0000
iter:  56  12:54:28 -12.26  -7.30    -5.02-226.227957             -0.0000
iter:  57  12:54:54 -13.51  -7.51    -5.82-226.227957             -0.0000
iter:  58  12:55:19 -12.63  -7.55    -5.58-226.227957             -0.0000
iter:  59  12:55:45 -13.85  -7.67    -5.59-226.227957             -0.0000
iter:  60  12:56:11 -14.05  -7.73    -5.66-226.227957             -0.0000
iter:  61  12:56:37 -14.31  -7.78    -6.34-226.227957             -0.0000

Converged after 61 iterations.

Dipole moment: (10.656508, 1.412695, -6.269617) |e|*Ang

Total magnetic moment: (0.000000, 0.000000, -0.000000)
Local magnetic moments:
   0 O  ( 0.000000,  0.000000, -0.000518)
   1 O  ( 0.000000,  0.000000,  0.000532)
   2 O  ( 0.000000,  0.000000,  0.000521)
   3 O  ( 0.000000,  0.000000, -0.000554)
   4 O  ( 0.000000,  0.000000,  0.000518)
   5 O  ( 0.000000,  0.000000, -0.000535)
   6 O  ( 0.000000,  0.000000, -0.000555)
   7 O  ( 0.000000,  0.000000,  0.000553)
   8 O  ( 0.000000,  0.000000,  0.028654)
   9 O  ( 0.000000,  0.000000, -0.028657)
  10 O  ( 0.000000,  0.000000, -0.028731)
  11 O  ( 0.000000,  0.000000,  0.028746)
  12 Mn ( 0.000000,  0.000000,  4.448215)
  13 Mn ( 0.000000,  0.000000, -4.448308)
  14 Mn ( 0.000000,  0.000000, -4.448106)
  15 Mn ( 0.000000,  0.000000,  4.448172)
  16 P  ( 0.000000,  0.000000,  0.001548)
  17 P  ( 0.000000,  0.000000, -0.001537)
  18 P  ( 0.000000,  0.000000, -0.001567)
  19 P  ( 0.000000,  0.000000,  0.001549)
  20 O  ( 0.000000,  0.000000,  0.025309)
  21 O  ( 0.000000,  0.000000, -0.025298)
  22 O  ( 0.000000,  0.000000, -0.025321)
  23 O  ( 0.000000,  0.000000,  0.025313)
  24 Li ( 0.000000,  0.000000,  0.000000)
  25 Li ( 0.000000,  0.000000, -0.000000)
  26 Li ( 0.000000,  0.000000,  0.000000)
  27 Li ( 0.000000,  0.000000,  0.000014)

Energy contributions relative to reference atoms: (reference = -196157.275402)

Kinetic:       +217.352170
Potential:     -195.237251
External:        +0.000000
XC:            -250.384036
Entropy (-ST):   -0.000000
Local:           +2.041160
--------------------------
Free energy:   -226.227957
Extrapolated:  -226.227957

Spin contamination: 9.560410 electrons
Showing only first 2 kpts
                      Up                     Down
 Kpt  Band  Eigenvalues  Occupancy  Eigenvalues  Occupancy
  0    88      5.10912    1.00000      5.10967    1.00000
  0    89      5.13518    1.00000      5.13456    1.00000
  0    90      7.28736    0.00000      7.28817    0.00000
  0    91      7.30780    0.00000      7.30662    0.00000

  1    88      5.13489    1.00000      5.13548    1.00000
  1    89      5.16562    1.00000      5.16489    1.00000
  1    90      7.22974    0.00000      7.23063    0.00000
  1    91      7.24553    0.00000      7.24426    0.00000


Fermi level: 6.23971

Gap: 1.971 eV
Transition (v -> c):
  (s=0, k=74, n=89, [0.08, -0.42, 0.12]) -> (s=1, k=85, n=90, [0.08, 0.08, -0.12])
Writing to born-0.01-27x+.gpw (mode='all')

Timing:                              incl.     excl.
-----------------------------------------------------------
Hamiltonian:                         0.239     0.003   0.0% |
 Atomic:                             0.070     0.070   0.0% |
  XC Correction:                     0.000     0.000   0.0% |
 Calculate atomic Hamiltonians:      0.082     0.082   0.0% |
 Communicate:                        0.000     0.000   0.0% |
 Initialize Hamiltonian:             0.000     0.000   0.0% |
 Poisson:                            0.001     0.001   0.0% |
 XC 3D grid:                         0.084     0.084   0.0% |
LCAO initialization:                65.017     0.650   0.0% |
 LCAO eigensolver:                  16.792     0.002   0.0% |
  Calculate projections:             0.029     0.029   0.0% |
  DenseAtomicCorrection:             0.046     0.046   0.0% |
  Distribute overlap matrix:         0.010     0.010   0.0% |
  Orbital Layouts:                   0.263     0.263   0.0% |
  Potential matrix:                 16.346    16.346   0.5% |
  Sum over cells:                    0.096     0.096   0.0% |
 LCAO to grid:                      46.265    46.265   1.4% ||
 Set positions (LCAO WFS):           1.310     0.194   0.0% |
  Basic WFS set positions:           0.001     0.001   0.0% |
  Basis functions set positions:     0.000     0.000   0.0% |
  P tci:                             0.542     0.542   0.0% |
  ST tci:                            0.361     0.361   0.0% |
  mktci:                             0.212     0.212   0.0% |
PWDescriptor:                        0.024     0.024   0.0% |
SCF-cycle:                        1413.319     1.889   0.1% |
 Davidson:                        1204.488   384.235  11.5% |----|
  Apply H:                          80.280    77.879   2.3% ||
   HMM T:                            2.402     2.402   0.1% |
  Subspace diag:                   173.238     0.175   0.0% |
   calc_h_matrix:                  110.162    30.508   0.9% |
    Apply H:                        79.654    77.362   2.3% ||
     HMM T:                          2.291     2.291   0.1% |
   diagonalize:                      6.260     6.260   0.2% |
   rotate_psi:                      56.641    56.641   1.7% ||
  calc. matrices:                  360.712   204.222   6.1% |-|
   Apply H:                        156.490   152.078   4.5% |-|
    HMM T:                           4.411     4.411   0.1% |
  diagonalize:                      92.101    92.101   2.7% ||
  rotate_psi:                      113.922   113.922   3.4% ||
 Density:                           46.070     0.001   0.0% |
  Atomic density matrices:           0.799     0.799   0.0% |
  Mix:                               7.544     7.544   0.2% |
  Multipole moments:                 0.023     0.023   0.0% |
  Pseudo density:                   37.702    37.700   1.1% |
   Symmetrize density:               0.002     0.002   0.0% |
 Forces:                           145.137   145.137   4.3% |-|
 Hamiltonian:                       13.463     0.126   0.0% |
  Atomic:                            3.198     3.198   0.1% |
   XC Correction:                    0.000     0.000   0.0% |
  Calculate atomic Hamiltonians:     5.009     5.009   0.1% |
  Communicate:                       0.014     0.014   0.0% |
  Poisson:                           0.044     0.044   0.0% |
  XC 3D grid:                        5.071     5.071   0.2% |
 Orthonormalize:                     2.273     0.003   0.0% |
  calc_s_matrix:                     0.267     0.267   0.0% |
  inverse-cholesky:                  0.041     0.041   0.0% |
  projections:                       1.477     1.477   0.0% |
  rotate_psi_s:                      0.485     0.485   0.0% |
Set symmetry:                        0.000     0.000   0.0% |
Other:                            1874.730  1874.730  55.9% |---------------------|
-----------------------------------------------------------
Total:                                      3353.329 100.0%

Memory usage: 12.65 GiB
Date: Fri Apr  2 13:27:51 2021
