
  ___ ___ ___ _ _ _  
 |   |   |_  | | | | 
 | | | | | . | | | | 
 |__ |  _|___|_____|  20.10.1b1
 |___|_|             

User:   madkru@g064.nifl.fysik.dtu.dk
Date:   Sun Mar 21 04:59:50 2021
Arch:   x86_64
Pid:    60512
Python: 3.7.4
gpaw:   /home/niflheim/madkru/venv_folder/gpaw/gpaw (d0d1ca1c71)
_gpaw:  /home/niflheim/madkru/venv_folder/gpaw/build/lib.linux-x86_64-sandybridge-3.7/
        _gpaw.cpython-37m-x86_64-linux-gnu.so (4fd39e8b1e)
ase:    /home/niflheim/madkru/venv_folder/ase/ase (version 3.21.0b1-7e6c206a91)
numpy:  /home/niflheim/madkru/venv_folder/lib/python3.7/site-packages/numpy (version 1.19.4)
scipy:  /home/niflheim/madkru/venv_folder/lib/python3.7/site-packages/scipy (version 1.5.4)
libxc:  4.3.4
units:  Angstrom and eV
cores: 32
OMP_NUM_THREADS: 1

Input parameters:
  convergence: {bands: occupied,
                density: 0.0001,
                eigenstates: 4e-08,
                energy: 0.0005,
                forces: 1e-06}
  kpts: [6 6 4]
  mode: {ecut: 600.0,
         gammacentered: False,
         name: pw}
  occupations: {fixmagmom: False,
                name: fermi-dirac,
                width: 0.001}
  symmetry: {point_group: False,
             time_reversal: False}

System changes: positions, numbers, cell, pbc, initial_charges, initial_magmoms 

Initialize ...

O-setup:
  name: Oxygen
  id: 9b9d51c344dea68c822856295a461509
  Z: 8.0
  valence: 6
  core: 2
  charge: 0.0
  file: /home/modules/software/GPAW-setups/0.9.20000/O.LDA.gz
  compensation charges: gauss, rc=0.21, lmax=2
  cutoffs: 1.17(filt), 0.83(core),
  valence states:
                energy  radius
    2s(2.00)   -23.752   0.688
    2p(4.00)    -9.195   0.598
    *s           3.459   0.688
    *p          18.016   0.598
    *d           0.000   0.619

  Using partial waves for O as LCAO basis

Mn-setup:
  name: Manganese
  id: 0d715a8018be061a6e9ea6f2d364ac92
  Z: 25.0
  valence: 15
  core: 10
  charge: 0.0
  file: /home/modules/software/GPAW-setups/0.9.20000/Mn.LDA.gz
  compensation charges: gauss, rc=0.38, lmax=2
  cutoffs: 2.14(filt), 0.86(core),
  valence states:
                energy  radius
    3s(2.00)   -85.387   1.275
    4s(2.00)    -5.282   1.275
    3p(6.00)   -54.493   1.281
    4p(0.00)    -1.471   1.281
    3d(5.00)    -7.009   1.138
    *d          20.203   1.138

  Using partial waves for Mn as LCAO basis

P-setup:
  name: Phosphorus
  id: a5561c299094968922a179ab894d2e2d
  Z: 15.0
  valence: 5
  core: 10
  charge: 0.0
  file: /home/modules/software/GPAW-setups/0.9.20000/P.LDA.gz
  compensation charges: gauss, rc=0.30, lmax=2
  cutoffs: 1.69(filt), 1.81(core),
  valence states:
                energy  radius
    3s(2.00)   -14.015   0.953
    3p(3.00)    -5.596   0.953
    *s          13.197   0.953
    *p          21.615   0.953
    *d           0.000   0.953

  Using partial waves for P as LCAO basis

Li-setup:
  name: Lithium
  id: b73562207f97a71b6967473b66fe8b65
  Z: 3.0
  valence: 1
  core: 2
  charge: 0.0
  file: /home/modules/software/GPAW-setups/0.9.20000/Li.LDA.gz
  compensation charges: gauss, rc=0.33, lmax=2
  cutoffs: 1.91(filt), 2.55(core),
  valence states:
                energy  radius
    2s(1.00)    -2.874   1.058
    2p(0.00)    -1.126   1.058
    *s          24.338   1.058

  Using partial waves for Li as LCAO basis

Reference energy: -196157.275402

Spin-polarized calculation.
Magnetic moment: 0.000000

Convergence criteria:
  Maximum total energy change: 0.0005 eV / electron
  Maximum integral of absolute density change: 0.0001 electrons
  Maximum integral of absolute eigenstate change: 4e-08 eV^2
  Maximum change in atomic force: 1e-06 eV / Ang
  Maximum number of iterations: 333

Symmetries present (total): 1

  ( 1  0  0)
  ( 0  1  0)
  ( 0  0  1)

144 k-points: 6 x 6 x 4 Monkhorst-Pack grid
144 k-points in the irreducible part of the Brillouin zone
       k-points in crystal coordinates                weights
   0:    -0.41666667   -0.41666667   -0.37500000          1/144
   1:    -0.41666667   -0.41666667   -0.12500000          1/144
   2:    -0.41666667   -0.41666667    0.12500000          1/144
   3:    -0.41666667   -0.41666667    0.37500000          1/144
   4:    -0.41666667   -0.25000000   -0.37500000          1/144
   5:    -0.41666667   -0.25000000   -0.12500000          1/144
   6:    -0.41666667   -0.25000000    0.12500000          1/144
   7:    -0.41666667   -0.25000000    0.37500000          1/144
   8:    -0.41666667   -0.08333333   -0.37500000          1/144
   9:    -0.41666667   -0.08333333   -0.12500000          1/144
          ...
 143:     0.41666667    0.41666667    0.37500000          1/144

Wave functions: Plane wave expansion
  Cutoff energy: 600.000 eV
  Number of coefficients (min, max): 10068, 10125
  Pulay-stress correction: 0.000000 eV/Ang^3 (de/decut=0.000000)
  Using FFTW library
  ScaLapack parameters: grid=1x1, blocksize=None
  Wavefunction extrapolation:
    Improved wavefunction reuse through dual PAW basis 

  Fermi-Dirac: width=0.0010 eV

Eigensolver
   Davidson(niter=2, smin=None, normalize=True) 

Densities:
  Coarse grid: 60*35*27 grid
  Fine grid: 120*70*54 grid
  Total Charge: 0.000000 

Density mixing:
  Method: difference
  Backend: pulay
  Linear mixing parameter: 0.05
  Mixing with 5 old densities
  Damping of long wave oscillations: 50 

Hamiltonian:
  XC and Coulomb potentials evaluated on a 120*70*54 grid
  Using the LDA Exchange-Correlation functional
 

Memory estimate:
  Process memory now: 12163.07 MiB
  Calculator: 375.55 MiB
    Density: 20.02 MiB
      Arrays: 7.57 MiB
      Localized functions: 9.42 MiB
      Mixer: 3.03 MiB
    Hamiltonian: 5.90 MiB
      Arrays: 5.62 MiB
      XC: 0.00 MiB
      Poisson: 0.00 MiB
      vbar: 0.27 MiB
    Wavefunctions: 349.64 MiB
      Arrays psit_nG: 311.46 MiB
      Eigensolver: 19.99 MiB
      Projections: 5.41 MiB
      Projectors: 9.73 MiB
      PW-descriptor: 3.03 MiB

Total number of cores used: 32
Parallelization over k-points: 16
Domain decomposition: 2 x 1 x 1

Number of atoms: 28
Number of atomic orbitals: 148
Number of bands in calculation: 112
Number of valence electrons: 180
Bands to converge: occupied

... initialized

Initializing position-dependent things.

Density initialized from atomic densities
Creating initial wave functions:
  112 bands from LCAO basis set

     .-------------------------.  
    /|         OP              |  
   / |O            O        O  |  
  /  |       O            O  P |  
 *   |O    Mn      O           |  
 |   |          OLi          O |  
 |   .P-O--------------Mn------.  
 |  /          Li    O  Mn  O /   
 | /Li O           PO        /    
 |/       Mn                /     
 *Li-----------------------*      

Positions:
   0 O     -1.360678   -2.551161   -1.202221    ( 0.0000,  0.0000,  0.0000)
   1 O     -3.121941    2.976855    1.167242    ( 0.0000,  0.0000,  0.0000)
   2 O      2.107533    0.508090    1.540712    ( 0.0000,  0.0000,  0.0000)
   3 O      3.869373   -0.072395   -0.828750    ( 0.0000,  0.0000,  0.0000)
   4 O      2.107821    2.976875    1.540792    ( 0.0000,  0.0000,  0.0000)
   5 O      3.869084   -2.541141   -0.828671    ( 0.0000,  0.0000,  0.0000)
   6 O     -1.360390   -0.072375   -1.202141    ( 0.0000,  0.0000,  0.0000)
   7 O     -3.122230    0.508109    1.167321    ( 0.0000,  0.0000,  0.0000)
   8 O     -4.413461   -1.306992   -0.794251    ( 0.0000,  0.0000,  0.0000)
   9 O     -0.069585    1.742707    1.575662    ( 0.0000,  0.0000,  0.0000)
  10 O      5.160604    1.742707    1.132822    ( 0.0000,  0.0000,  0.0000)
  11 O      0.816728   -1.306992   -1.237091    ( 0.0000,  0.0000,  0.0000)
  12 Mn    -2.570809   -1.307302    0.247161    ( 0.0000,  0.0000,  1.0000)
  13 Mn    -1.912021    1.743016   -2.122906    ( 0.0000,  0.0000, -1.0000)
  14 Mn     3.317952    1.743017    0.091411    ( 0.0000,  0.0000, -1.0000)
  15 Mn     2.659164   -1.307302    2.461478    ( 0.0000,  0.0000,  1.0000)
  16 P     -0.620664   -1.306816   -1.828465    ( 0.0000,  0.0000,  0.0000)
  17 P     -3.862097    1.742530    0.541238    ( 0.0000,  0.0000,  0.0000)
  18 P      1.367807    1.742530    2.167036    ( 0.0000,  0.0000,  0.0000)
  19 P      4.609240   -1.306816   -0.202666    ( 0.0000,  0.0000,  0.0000)
  20 O     -0.646437   -1.306845    1.374751    ( 0.0000,  0.0000,  0.0000)
  21 O     -3.836504    1.742559   -0.995565    ( 0.0000,  0.0000,  0.0000)
  22 O      1.393580    1.742559   -1.036179    ( 0.0000,  0.0000,  0.0000)
  23 O      4.583647   -1.306845    1.334136    ( 0.0000,  0.0000,  0.0000)
  24 Li    -4.856429   -2.832143   -2.200714    ( 0.0000,  0.0000,  0.0000)
  25 Li     0.373571   -2.832143    0.169286    ( 0.0000,  0.0000,  0.0000)
  26 Li    -4.856429    0.217857   -2.200714    ( 0.0000,  0.0000,  0.0000)
  27 Li     0.373571    0.217857    0.169286    ( 0.0000,  0.0000,  0.0000)

Unit cell:
           periodic     x           y           z      points  spacing
  1. axis:    yes   10.460000    0.000000    0.000000    60     0.1743
  2. axis:    yes    0.000000    6.100000    0.000000    35     0.1743
  3. axis:    yes    0.000000    0.000000    4.740000    27     0.1756

  Lengths:  10.460000   6.100000   4.740000
  Angles:   90.000000  90.000000  90.000000

Effective grid spacing dv^(1/3) = 0.1747

                     log10-error:           total        iterations:
           time      wfs    density  force  energy       poisson  magmom
iter:   1  05:02:37                       -231.921979             +0.0000
iter:   2  05:03:16  -0.55  -0.94         -231.718047             +0.0146
iter:   3  05:03:55  -0.72  -0.98         -220.586426             +0.0182
iter:   4  05:04:35  -0.96  -1.20         -218.871151             +0.0060
iter:   5  05:05:14  -1.92  -1.36         -221.054128             +0.0039
iter:   6  05:05:53  -1.92  -1.51         -220.223785             +0.0021
iter:   7  05:06:33  -2.15  -1.61         -224.047407             +0.0009
iter:   8  05:07:12  -2.57  -1.88         -222.520340             +0.0006
iter:   9  05:07:51  -2.09  -1.87         -226.827817             +0.0004
iter:  10  05:08:31  -2.31  -1.81         -228.126194             +0.0001
iter:  11  05:09:10  -1.15  -1.76         -227.037096             +0.0000
iter:  12  05:09:49  -2.34  -2.07         -226.819556             +0.0000
iter:  13  05:10:28  -2.33  -2.09         -226.395157             +0.0000
iter:  14  05:11:07  -2.56  -2.24         -226.354662             +0.0000
iter:  15  05:11:47  -3.37  -2.29         -226.308179             +0.0000
iter:  16  05:12:26  -2.40  -2.34         -226.269475             +0.0000
iter:  17  05:13:05  -2.94  -2.44         -226.231750             +0.0000
iter:  18  05:13:44  -3.85  -2.85         -226.235753             +0.0000
iter:  19  05:14:24  -3.66  -3.03         -226.230318             -0.0000
iter:  20  05:15:03  -4.57  -3.12         -226.228022             +0.0000
iter:  21  05:15:42  -4.78  -3.20         -226.227114             +0.0000
iter:  22  05:16:21  -5.21  -3.28         -226.227011             +0.0000
iter:  23  05:17:01  -4.76  -3.32         -226.227064             +0.0000
iter:  24  05:17:40  -5.05  -3.73         -226.226709             +0.0000
iter:  25  05:18:19  -6.51  -3.91         -226.226701             +0.0000
iter:  26  05:18:58  -6.17  -3.97         -226.226707             -0.0000
iter:  27  05:19:37  -6.89  -4.10         -226.226684             +0.0000
iter:  28  05:20:17  -5.94  -4.14         -226.226661             +0.0000
iter:  29  05:20:56  -6.75  -4.33         -226.226657             +0.0000
iter:  30  05:21:36  -6.62  -4.43         -226.226659             +0.0000
iter:  31  05:22:25  -7.47  -4.60         -226.226656             +0.0000
iter:  32  05:23:15  -7.65  -4.79    -2.88-226.226653             +0.0000
iter:  33  05:24:05  -7.74  -4.86    -2.98-226.226651             +0.0000
iter:  34  05:24:55  -7.81  -4.90    -2.80-226.226651             +0.0000
iter:  35  05:25:45  -7.77  -4.93    -3.04-226.226651             +0.0000
iter:  36  05:26:35  -8.87  -5.10    -3.50-226.226651             +0.0000
iter:  37  05:27:25  -8.62  -5.17    -3.29-226.226651             -0.0000
iter:  38  05:28:15  -8.55  -5.33    -3.23-226.226651             -0.0000
iter:  39  05:29:04  -8.49  -5.35    -3.37-226.226651             -0.0000
iter:  40  05:29:54  -9.74  -5.68    -3.81-226.226651             -0.0000
iter:  41  05:30:44  -9.33  -5.74    -3.49-226.226651             -0.0000
iter:  42  05:31:33  -9.33  -5.76    -3.72-226.226651             -0.0000
iter:  43  05:32:23 -10.55  -6.12    -4.17-226.226651             -0.0000
iter:  44  05:33:13  -9.83  -6.22    -4.16-226.226651             -0.0000
iter:  45  05:34:03 -10.60  -6.32    -4.43-226.226651             -0.0000
iter:  46  05:34:52 -10.49  -6.56    -4.29-226.226651             -0.0000
iter:  47  05:35:42 -11.49  -6.73    -4.78-226.226651             -0.0000
iter:  48  05:36:31 -11.99  -6.95    -5.34-226.226651             -0.0000
iter:  49  05:37:21 -12.28  -7.00    -4.75-226.226651             -0.0000
iter:  50  05:38:11 -12.80  -7.32    -5.31-226.226651             -0.0000
iter:  51  05:39:00 -13.12  -7.39    -5.62-226.226651             -0.0000
iter:  52  05:39:50 -13.60  -7.46    -5.37-226.226651             -0.0000
iter:  53  05:40:40 -13.82  -7.58    -5.82-226.226651             -0.0000
iter:  54  05:41:29 -13.41  -7.64    -5.70-226.226651             -0.0000
iter:  55  05:42:19 -13.75  -7.92    -5.92-226.226651             -0.0000
iter:  56  05:43:09 -14.90  -8.06    -6.45-226.226651             -0.0000

Converged after 56 iterations.

Dipole moment: (10.669367, 1.416821, -6.269871) |e|*Ang

Total magnetic moment: (0.000000, 0.000000, -0.000000)
Local magnetic moments:
   0 O  ( 0.000000,  0.000000, -0.000911)
   1 O  ( 0.000000,  0.000000,  0.000501)
   2 O  ( 0.000000,  0.000000,  0.000546)
   3 O  ( 0.000000,  0.000000, -0.000544)
   4 O  ( 0.000000,  0.000000,  0.000533)
   5 O  ( 0.000000,  0.000000, -0.000521)
   6 O  ( 0.000000,  0.000000, -0.000398)
   7 O  ( 0.000000,  0.000000,  0.000772)
   8 O  ( 0.000000,  0.000000,  0.028704)
   9 O  ( 0.000000,  0.000000, -0.028712)
  10 O  ( 0.000000,  0.000000, -0.028710)
  11 O  ( 0.000000,  0.000000,  0.028492)
  12 Mn ( 0.000000,  0.000000,  4.447971)
  13 Mn ( 0.000000,  0.000000, -4.446869)
  14 Mn ( 0.000000,  0.000000, -4.448175)
  15 Mn ( 0.000000,  0.000000,  4.448137)
  16 P  ( 0.000000,  0.000000,  0.001250)
  17 P  ( 0.000000,  0.000000, -0.001557)
  18 P  ( 0.000000,  0.000000, -0.001575)
  19 P  ( 0.000000,  0.000000,  0.001536)
  20 O  ( 0.000000,  0.000000,  0.025187)
  21 O  ( 0.000000,  0.000000, -0.025348)
  22 O  ( 0.000000,  0.000000, -0.025314)
  23 O  ( 0.000000,  0.000000,  0.025328)
  24 Li ( 0.000000,  0.000000, -0.000001)
  25 Li ( 0.000000,  0.000000, -0.000017)
  26 Li ( 0.000000,  0.000000, -0.000001)
  27 Li ( 0.000000,  0.000000, -0.000001)

Energy contributions relative to reference atoms: (reference = -196157.275402)

Kinetic:       +216.845689
Potential:     -194.845117
External:        +0.000000
XC:            -250.269336
Entropy (-ST):   -0.000000
Local:           +2.042113
--------------------------
Free energy:   -226.226651
Extrapolated:  -226.226651

Spin contamination: 9.559422 electrons
Showing only first 2 kpts
                      Up                     Down
 Kpt  Band  Eigenvalues  Occupancy  Eigenvalues  Occupancy
  0    88      5.10731    0.00694      5.11558    0.00694
  0    89      5.13159    0.00694      5.14172    0.00694
  0    90      7.29191    0.00000      7.28591    0.00000
  0    91      7.31233    0.00000      7.30385    0.00000

  1    88      5.13305    0.00694      5.14143    0.00694
  1    89      5.16185    0.00694      5.17203    0.00694
  1    90      7.23428    0.00000      7.22779    0.00000
  1    91      7.24987    0.00000      7.24085    0.00000


Fermi level: 5.98107

Gap: 1.962 eV
Transition (v -> c):
  (s=1, k=70, n=89, [-0.08, 0.42, 0.12]) -> (s=1, k=82, n=90, [0.08, -0.08, 0.12])
Writing to born-0.01-0y-.gpw (mode='all')

Timing:                              incl.     excl.
-----------------------------------------------------------
Hamiltonian:                         0.414     0.002   0.0% |
 Atomic:                             0.054     0.054   0.0% |
  XC Correction:                     0.000     0.000   0.0% |
 Calculate atomic Hamiltonians:      0.180     0.180   0.0% |
 Communicate:                        0.002     0.002   0.0% |
 Initialize Hamiltonian:             0.001     0.001   0.0% |
 Poisson:                            0.002     0.002   0.0% |
 XC 3D grid:                         0.174     0.174   0.0% |
LCAO initialization:               121.019     0.679   0.0% |
 LCAO eigensolver:                  33.384     0.002   0.0% |
  Calculate projections:             0.057     0.057   0.0% |
  DenseAtomicCorrection:             0.082     0.082   0.0% |
  Distribute overlap matrix:         0.006     0.006   0.0% |
  Orbital Layouts:                   0.367     0.367   0.0% |
  Potential matrix:                 32.780    32.780   0.6% |
  Sum over cells:                    0.089     0.089   0.0% |
 LCAO to grid:                      84.679    84.679   1.4% ||
 Set positions (LCAO WFS):           2.277     0.347   0.0% |
  Basic WFS set positions:           0.001     0.001   0.0% |
  Basis functions set positions:     0.000     0.000   0.0% |
  P tci:                             1.063     1.063   0.0% |
  ST tci:                            0.658     0.658   0.0% |
  mktci:                             0.206     0.206   0.0% |
PWDescriptor:                        0.025     0.025   0.0% |
SCF-cycle:                        2475.668     9.873   0.2% |
 Davidson:                        2084.247   683.175  11.6% |----|
  Apply H:                         143.698   139.266   2.4% ||
   HMM T:                            4.432     4.432   0.1% |
  Subspace diag:                   306.610     0.182   0.0% |
   calc_h_matrix:                  197.886    55.329   0.9% |
    Apply H:                       142.557   138.314   2.4% ||
     HMM T:                          4.243     4.243   0.1% |
   diagonalize:                      6.868     6.868   0.1% |
   rotate_psi:                     101.674   101.674   1.7% ||
  calc. matrices:                  650.473   370.230   6.3% |--|
   Apply H:                        280.243   272.081   4.6% |-|
    HMM T:                           8.162     8.162   0.1% |
  diagonalize:                      93.621    93.621   1.6% ||
  rotate_psi:                      206.670   206.670   3.5% ||
 Density:                           82.667     0.001   0.0% |
  Atomic density matrices:           1.467     1.467   0.0% |
  Mix:                              13.434    13.434   0.2% |
  Multipole moments:                 0.034     0.034   0.0% |
  Pseudo density:                   67.731    67.729   1.2% |
   Symmetrize density:               0.002     0.002   0.0% |
 Forces:                           271.265   271.265   4.6% |-|
 Hamiltonian:                       23.191     0.134   0.0% |
  Atomic:                            3.072     3.072   0.1% |
   XC Correction:                    0.000     0.000   0.0% |
  Calculate atomic Hamiltonians:     9.911     9.911   0.2% |
  Communicate:                       0.110     0.110   0.0% |
  Poisson:                           0.087     0.087   0.0% |
  XC 3D grid:                        9.877     9.877   0.2% |
 Orthonormalize:                     4.425     0.004   0.0% |
  calc_s_matrix:                     0.523     0.523   0.0% |
  inverse-cholesky:                  0.055     0.055   0.0% |
  projections:                       2.913     2.913   0.0% |
  rotate_psi_s:                      0.931     0.931   0.0% |
Set symmetry:                        0.000     0.000   0.0% |
Other:                            3287.951  3287.951  55.9% |---------------------|
-----------------------------------------------------------
Total:                                      5885.077 100.0%

Memory usage: 11.88 GiB
Date: Sun Mar 21 06:37:55 2021
