
  ___ ___ ___ _ _ _  
 |   |   |_  | | | | 
 | | | | | . | | | | 
 |__ |  _|___|_____|  20.10.1b1
 |___|_|             

User:   madkru@g064.nifl.fysik.dtu.dk
Date:   Sun Mar 21 16:12:16 2021
Arch:   x86_64
Pid:    60512
Python: 3.7.4
gpaw:   /home/niflheim/madkru/venv_folder/gpaw/gpaw (d0d1ca1c71)
_gpaw:  /home/niflheim/madkru/venv_folder/gpaw/build/lib.linux-x86_64-sandybridge-3.7/
        _gpaw.cpython-37m-x86_64-linux-gnu.so (4fd39e8b1e)
ase:    /home/niflheim/madkru/venv_folder/ase/ase (version 3.21.0b1-7e6c206a91)
numpy:  /home/niflheim/madkru/venv_folder/lib/python3.7/site-packages/numpy (version 1.19.4)
scipy:  /home/niflheim/madkru/venv_folder/lib/python3.7/site-packages/scipy (version 1.5.4)
libxc:  4.3.4
units:  Angstrom and eV
cores: 32
OMP_NUM_THREADS: 1

Input parameters:
  convergence: {bands: occupied,
                density: 0.0001,
                eigenstates: 4e-08,
                energy: 0.0005,
                forces: 1e-06}
  kpts: [6 6 4]
  mode: {ecut: 600.0,
         gammacentered: False,
         name: pw}
  occupations: {fixmagmom: False,
                name: fermi-dirac,
                width: 0.001}
  symmetry: {point_group: False,
             time_reversal: False}

System changes: positions, numbers, cell, pbc, initial_charges, initial_magmoms 

Initialize ...

O-setup:
  name: Oxygen
  id: 9b9d51c344dea68c822856295a461509
  Z: 8.0
  valence: 6
  core: 2
  charge: 0.0
  file: /home/modules/software/GPAW-setups/0.9.20000/O.LDA.gz
  compensation charges: gauss, rc=0.21, lmax=2
  cutoffs: 1.17(filt), 0.83(core),
  valence states:
                energy  radius
    2s(2.00)   -23.752   0.688
    2p(4.00)    -9.195   0.598
    *s           3.459   0.688
    *p          18.016   0.598
    *d           0.000   0.619

  Using partial waves for O as LCAO basis

Mn-setup:
  name: Manganese
  id: 0d715a8018be061a6e9ea6f2d364ac92
  Z: 25.0
  valence: 15
  core: 10
  charge: 0.0
  file: /home/modules/software/GPAW-setups/0.9.20000/Mn.LDA.gz
  compensation charges: gauss, rc=0.38, lmax=2
  cutoffs: 2.14(filt), 0.86(core),
  valence states:
                energy  radius
    3s(2.00)   -85.387   1.275
    4s(2.00)    -5.282   1.275
    3p(6.00)   -54.493   1.281
    4p(0.00)    -1.471   1.281
    3d(5.00)    -7.009   1.138
    *d          20.203   1.138

  Using partial waves for Mn as LCAO basis

P-setup:
  name: Phosphorus
  id: a5561c299094968922a179ab894d2e2d
  Z: 15.0
  valence: 5
  core: 10
  charge: 0.0
  file: /home/modules/software/GPAW-setups/0.9.20000/P.LDA.gz
  compensation charges: gauss, rc=0.30, lmax=2
  cutoffs: 1.69(filt), 1.81(core),
  valence states:
                energy  radius
    3s(2.00)   -14.015   0.953
    3p(3.00)    -5.596   0.953
    *s          13.197   0.953
    *p          21.615   0.953
    *d           0.000   0.953

  Using partial waves for P as LCAO basis

Li-setup:
  name: Lithium
  id: b73562207f97a71b6967473b66fe8b65
  Z: 3.0
  valence: 1
  core: 2
  charge: 0.0
  file: /home/modules/software/GPAW-setups/0.9.20000/Li.LDA.gz
  compensation charges: gauss, rc=0.33, lmax=2
  cutoffs: 1.91(filt), 2.55(core),
  valence states:
                energy  radius
    2s(1.00)    -2.874   1.058
    2p(0.00)    -1.126   1.058
    *s          24.338   1.058

  Using partial waves for Li as LCAO basis

Reference energy: -196157.275402

Spin-polarized calculation.
Magnetic moment: 0.000000

Convergence criteria:
  Maximum total energy change: 0.0005 eV / electron
  Maximum integral of absolute density change: 0.0001 electrons
  Maximum integral of absolute eigenstate change: 4e-08 eV^2
  Maximum change in atomic force: 1e-06 eV / Ang
  Maximum number of iterations: 333

Symmetries present (total): 1

  ( 1  0  0)
  ( 0  1  0)
  ( 0  0  1)

144 k-points: 6 x 6 x 4 Monkhorst-Pack grid
144 k-points in the irreducible part of the Brillouin zone
       k-points in crystal coordinates                weights
   0:    -0.41666667   -0.41666667   -0.37500000          1/144
   1:    -0.41666667   -0.41666667   -0.12500000          1/144
   2:    -0.41666667   -0.41666667    0.12500000          1/144
   3:    -0.41666667   -0.41666667    0.37500000          1/144
   4:    -0.41666667   -0.25000000   -0.37500000          1/144
   5:    -0.41666667   -0.25000000   -0.12500000          1/144
   6:    -0.41666667   -0.25000000    0.12500000          1/144
   7:    -0.41666667   -0.25000000    0.37500000          1/144
   8:    -0.41666667   -0.08333333   -0.37500000          1/144
   9:    -0.41666667   -0.08333333   -0.12500000          1/144
          ...
 143:     0.41666667    0.41666667    0.37500000          1/144

Wave functions: Plane wave expansion
  Cutoff energy: 600.000 eV
  Number of coefficients (min, max): 10068, 10125
  Pulay-stress correction: 0.000000 eV/Ang^3 (de/decut=0.000000)
  Using FFTW library
  ScaLapack parameters: grid=1x1, blocksize=None
  Wavefunction extrapolation:
    Improved wavefunction reuse through dual PAW basis 

  Fermi-Dirac: width=0.0010 eV

Eigensolver
   Davidson(niter=2, smin=None, normalize=True) 

Densities:
  Coarse grid: 60*35*27 grid
  Fine grid: 120*70*54 grid
  Total Charge: 0.000000 

Density mixing:
  Method: difference
  Backend: pulay
  Linear mixing parameter: 0.05
  Mixing with 5 old densities
  Damping of long wave oscillations: 50 

Hamiltonian:
  XC and Coulomb potentials evaluated on a 120*70*54 grid
  Using the LDA Exchange-Correlation functional
 

Memory estimate:
  Process memory now: 12593.61 MiB
  Calculator: 375.55 MiB
    Density: 20.02 MiB
      Arrays: 7.57 MiB
      Localized functions: 9.42 MiB
      Mixer: 3.03 MiB
    Hamiltonian: 5.90 MiB
      Arrays: 5.62 MiB
      XC: 0.00 MiB
      Poisson: 0.00 MiB
      vbar: 0.27 MiB
    Wavefunctions: 349.64 MiB
      Arrays psit_nG: 311.46 MiB
      Eigensolver: 19.99 MiB
      Projections: 5.41 MiB
      Projectors: 9.73 MiB
      PW-descriptor: 3.03 MiB

Total number of cores used: 32
Parallelization over k-points: 16
Domain decomposition: 2 x 1 x 1

Number of atoms: 28
Number of atomic orbitals: 148
Number of bands in calculation: 112
Number of valence electrons: 180
Bands to converge: occupied

... initialized

Initializing position-dependent things.

Density initialized from atomic densities
Creating initial wave functions:
  112 bands from LCAO basis set

     .-------------------------.  
    /|         OP              |  
   / |O            O        O  |  
  /  |       O            O  P |  
 *   |O    Mn      O           |  
 |   |          OLi          O |  
 |   .P-O--------------Mn------.  
 |  /          Li    O  Mn  O /   
 | /Li O           PO        /    
 |/       Mn                /     
 *Li-----------------------*      

Positions:
   0 O     -1.360678   -2.541161   -1.202221    ( 0.0000,  0.0000,  0.0000)
   1 O     -3.121941    2.976855    1.167242    ( 0.0000,  0.0000,  0.0000)
   2 O      2.107533    0.498090    1.540712    ( 0.0000,  0.0000,  0.0000)
   3 O      3.869373   -0.072395   -0.828750    ( 0.0000,  0.0000,  0.0000)
   4 O      2.107821    2.976875    1.540792    ( 0.0000,  0.0000,  0.0000)
   5 O      3.869084   -2.541141   -0.828671    ( 0.0000,  0.0000,  0.0000)
   6 O     -1.360390   -0.072375   -1.202141    ( 0.0000,  0.0000,  0.0000)
   7 O     -3.122230    0.508109    1.167321    ( 0.0000,  0.0000,  0.0000)
   8 O     -4.413461   -1.306992   -0.794251    ( 0.0000,  0.0000,  0.0000)
   9 O     -0.069585    1.742707    1.575662    ( 0.0000,  0.0000,  0.0000)
  10 O      5.160604    1.742707    1.132822    ( 0.0000,  0.0000,  0.0000)
  11 O      0.816728   -1.306992   -1.237091    ( 0.0000,  0.0000,  0.0000)
  12 Mn    -2.570809   -1.307302    0.247161    ( 0.0000,  0.0000,  1.0000)
  13 Mn    -1.912021    1.743016   -2.122906    ( 0.0000,  0.0000, -1.0000)
  14 Mn     3.317952    1.743017    0.091411    ( 0.0000,  0.0000, -1.0000)
  15 Mn     2.659164   -1.307302    2.461478    ( 0.0000,  0.0000,  1.0000)
  16 P     -0.620664   -1.306816   -1.828465    ( 0.0000,  0.0000,  0.0000)
  17 P     -3.862097    1.742530    0.541238    ( 0.0000,  0.0000,  0.0000)
  18 P      1.367807    1.742530    2.167036    ( 0.0000,  0.0000,  0.0000)
  19 P      4.609240   -1.306816   -0.202666    ( 0.0000,  0.0000,  0.0000)
  20 O     -0.646437   -1.306845    1.374751    ( 0.0000,  0.0000,  0.0000)
  21 O     -3.836504    1.742559   -0.995565    ( 0.0000,  0.0000,  0.0000)
  22 O      1.393580    1.742559   -1.036179    ( 0.0000,  0.0000,  0.0000)
  23 O      4.583647   -1.306845    1.334136    ( 0.0000,  0.0000,  0.0000)
  24 Li    -4.856429   -2.832143   -2.200714    ( 0.0000,  0.0000,  0.0000)
  25 Li     0.373571   -2.832143    0.169286    ( 0.0000,  0.0000,  0.0000)
  26 Li    -4.856429    0.217857   -2.200714    ( 0.0000,  0.0000,  0.0000)
  27 Li     0.373571    0.217857    0.169286    ( 0.0000,  0.0000,  0.0000)

Unit cell:
           periodic     x           y           z      points  spacing
  1. axis:    yes   10.460000    0.000000    0.000000    60     0.1743
  2. axis:    yes    0.000000    6.100000    0.000000    35     0.1743
  3. axis:    yes    0.000000    0.000000    4.740000    27     0.1756

  Lengths:  10.460000   6.100000   4.740000
  Angles:   90.000000  90.000000  90.000000

Effective grid spacing dv^(1/3) = 0.1747

                     log10-error:           total        iterations:
           time      wfs    density  force  energy       poisson  magmom
iter:   1  16:15:13                       -231.922016             +0.0000
iter:   2  16:15:53  -0.55  -0.94         -231.718155             -0.0043
iter:   3  16:16:33  -0.72  -0.98         -220.588636             -0.0054
iter:   4  16:17:12  -0.95  -1.20         -218.875858             -0.0018
iter:   5  16:17:52  -1.93  -1.36         -222.086179             -0.0011
iter:   6  16:18:32  -1.99  -1.45         -220.808845             -0.0005
iter:   7  16:19:11  -2.02  -1.64         -224.456140             -0.0112
iter:   8  16:19:51  -1.97  -1.82         -226.227111             +0.0269
iter:   9  16:20:30  -2.83  -1.82         -226.885705             +0.0021
iter:  10  16:21:09  -2.31  -1.82         -226.718386             -0.0033
iter:  11  16:21:49  -2.52  -1.89         -226.588398             -0.0011
iter:  12  16:22:28  -3.35  -1.91         -226.519512             -0.0004
iter:  13  16:23:08  -1.71  -1.94         -226.944548             -0.0002
iter:  14  16:23:47  -3.06  -2.26         -226.570100             -0.0001
iter:  15  16:24:26  -3.32  -2.48         -226.425329             -0.0000
iter:  16  16:25:06  -2.71  -2.58         -226.254522             -0.0000
iter:  17  16:25:45  -3.44  -2.66         -226.241968             -0.0000
iter:  18  16:26:25  -3.36  -2.69         -226.233182             -0.0000
iter:  19  16:27:04  -3.20  -2.87         -226.248045             -0.0000
iter:  20  16:27:43  -3.69  -2.96         -226.228046             -0.0000
iter:  21  16:28:23  -3.83  -3.15         -226.229921             -0.0000
iter:  22  16:29:02  -4.52  -3.37         -226.227137             -0.0000
iter:  23  16:29:41  -5.31  -3.48         -226.227002             -0.0000
iter:  24  16:30:21  -5.25  -3.53         -226.227172             +0.0000
iter:  25  16:31:00  -5.09  -3.58         -226.226732             -0.0000
iter:  26  16:31:39  -5.44  -3.66         -226.226811             -0.0000
iter:  27  16:32:19  -5.47  -3.69         -226.226943             -0.0000
iter:  28  16:32:58  -5.85  -4.08         -226.226692             -0.0000
iter:  29  16:33:37  -6.17  -4.20         -226.226645             -0.0000
iter:  30  16:34:17  -6.40  -4.29         -226.226633             -0.0000
iter:  31  16:34:56  -6.83  -4.36         -226.226630             -0.0000
iter:  32  16:35:46  -7.42  -4.40         -226.226629             -0.0000
iter:  33  16:36:36  -7.44  -4.45    -2.50-226.226629             -0.0000
iter:  34  16:37:15  -7.34  -4.51         -226.226628             -0.0000
iter:  35  16:38:05  -7.89  -4.74    -2.10-226.226628             -0.0000
iter:  36  16:38:55  -8.44  -4.95    -3.09-226.226627             -0.0000
iter:  37  16:39:45  -8.36  -5.01    -3.33-226.226627             -0.0000
iter:  38  16:40:35  -8.31  -5.04    -3.11-226.226627             -0.0000
iter:  39  16:41:25  -9.13  -5.48    -3.21-226.226627             -0.0000
iter:  40  16:42:15  -9.40  -5.62    -3.73-226.226627             -0.0000
iter:  41  16:43:05  -9.80  -5.67    -3.85-226.226627             -0.0000
iter:  42  16:43:55  -9.18  -5.77    -3.29-226.226627             +0.0000
iter:  43  16:44:45  -9.58  -5.71    -3.44-226.226627             +0.0000
iter:  44  16:45:35 -10.70  -6.31    -4.31-226.226627             +0.0000
iter:  45  16:46:25 -11.17  -6.39    -4.56-226.226627             +0.0000
iter:  46  16:47:15 -11.23  -6.45    -4.56-226.226627             +0.0000
iter:  47  16:48:05 -11.41  -6.50    -4.21-226.226627             +0.0000
iter:  48  16:48:55 -11.94  -6.58    -4.62-226.226627             +0.0000
iter:  49  16:49:44 -11.79  -6.62    -4.55-226.226627             +0.0000
iter:  50  16:50:34 -11.90  -6.87    -4.44-226.226627             +0.0000
iter:  51  16:51:24 -12.62  -6.94    -4.83-226.226627             +0.0000
iter:  52  16:52:14 -11.69  -7.02    -4.62-226.226627             +0.0000
iter:  53  16:53:04 -12.67  -7.26    -4.71-226.226627             +0.0000
iter:  54  16:53:54 -13.30  -7.42    -5.88-226.226627             +0.0000
iter:  55  16:54:44 -13.07  -7.46    -5.12-226.226627             +0.0000
iter:  56  16:55:34 -13.32  -7.69    -5.51-226.226627             +0.0000
iter:  57  16:56:24 -14.47  -7.88    -6.18-226.226627             +0.0000

Converged after 57 iterations.

Dipole moment: (10.672136, 1.261709, -6.268792) |e|*Ang

Total magnetic moment: (0.000000, 0.000000, 0.000000)
Local magnetic moments:
   0 O  ( 0.000000,  0.000000, -0.000527)
   1 O  ( 0.000000,  0.000000,  0.000523)
   2 O  ( 0.000000,  0.000000,  0.000930)
   3 O  ( 0.000000,  0.000000, -0.000522)
   4 O  ( 0.000000,  0.000000,  0.000378)
   5 O  ( 0.000000,  0.000000, -0.000753)
   6 O  ( 0.000000,  0.000000, -0.000553)
   7 O  ( 0.000000,  0.000000,  0.000541)
   8 O  ( 0.000000,  0.000000,  0.028710)
   9 O  ( 0.000000,  0.000000, -0.028492)
  10 O  ( 0.000000,  0.000000, -0.028704)
  11 O  ( 0.000000,  0.000000,  0.028712)
  12 Mn ( 0.000000,  0.000000,  4.448177)
  13 Mn ( 0.000000,  0.000000, -4.448136)
  14 Mn ( 0.000000,  0.000000, -4.447969)
  15 Mn ( 0.000000,  0.000000,  4.446869)
  16 P  ( 0.000000,  0.000000,  0.001576)
  17 P  ( 0.000000,  0.000000, -0.001536)
  18 P  ( 0.000000,  0.000000, -0.001250)
  19 P  ( 0.000000,  0.000000,  0.001558)
  20 O  ( 0.000000,  0.000000,  0.025314)
  21 O  ( 0.000000,  0.000000, -0.025328)
  22 O  ( 0.000000,  0.000000, -0.025187)
  23 O  ( 0.000000,  0.000000,  0.025348)
  24 Li ( 0.000000,  0.000000,  0.000001)
  25 Li ( 0.000000,  0.000000,  0.000001)
  26 Li ( 0.000000,  0.000000,  0.000001)
  27 Li ( 0.000000,  0.000000,  0.000017)

Energy contributions relative to reference atoms: (reference = -196157.275402)

Kinetic:       +216.845680
Potential:     -194.845222
External:        +0.000000
XC:            -250.269309
Entropy (-ST):   -0.000000
Local:           +2.042224
--------------------------
Free energy:   -226.226627
Extrapolated:  -226.226627

Spin contamination: 9.559416 electrons
Showing only first 2 kpts
                      Up                     Down
 Kpt  Band  Eigenvalues  Occupancy  Eigenvalues  Occupancy
  0    88      5.11529    0.00694      5.10726    0.00694
  0    89      5.14169    0.00694      5.13154    0.00694
  0    90      7.28586    0.00000      7.29196    0.00000
  0    91      7.30385    0.00000      7.31239    0.00000

  1    88      5.14135    0.00694      5.13296    0.00694
  1    89      5.17176    0.00694      5.16186    0.00694
  1    90      7.22778    0.00000      7.23431    0.00000
  1    91      7.24083    0.00000      7.24990    0.00000


Fermi level: 6.47639

Gap: 1.962 eV
Transition (v -> c):
  (s=0, k=93, n=89, [0.08, 0.42, -0.12]) -> (s=0, k=86, n=90, [0.08, 0.08, 0.12])
Writing to born-0.01-2y-.gpw (mode='all')

Timing:                              incl.     excl.
-----------------------------------------------------------
Hamiltonian:                         0.421     0.002   0.0% |
 Atomic:                             0.054     0.054   0.0% |
  XC Correction:                     0.000     0.000   0.0% |
 Calculate atomic Hamiltonians:      0.187     0.187   0.0% |
 Communicate:                        0.002     0.002   0.0% |
 Initialize Hamiltonian:             0.000     0.000   0.0% |
 Poisson:                            0.002     0.002   0.0% |
 XC 3D grid:                         0.174     0.174   0.0% |
LCAO initialization:               129.053     0.709   0.0% |
 LCAO eigensolver:                  34.079     0.002   0.0% |
  Calculate projections:             0.057     0.057   0.0% |
  DenseAtomicCorrection:             0.083     0.083   0.0% |
  Distribute overlap matrix:         0.386     0.386   0.0% |
  Orbital Layouts:                   0.362     0.362   0.0% |
  Potential matrix:                 33.087    33.087   0.6% |
  Sum over cells:                    0.102     0.102   0.0% |
 LCAO to grid:                      91.999    91.999   1.6% ||
 Set positions (LCAO WFS):           2.267     0.345   0.0% |
  Basic WFS set positions:           0.002     0.002   0.0% |
  Basis functions set positions:     0.000     0.000   0.0% |
  P tci:                             1.058     1.058   0.0% |
  ST tci:                            0.656     0.656   0.0% |
  mktci:                             0.206     0.206   0.0% |
PWDescriptor:                        0.025     0.025   0.0% |
SCF-cycle:                        2516.149    12.393   0.2% |
 Davidson:                        2125.552   694.756  11.9% |----|
  Apply H:                         148.486   144.170   2.5% ||
   HMM T:                            4.316     4.316   0.1% |
  Subspace diag:                   312.524     0.179   0.0% |
   calc_h_matrix:                  201.791    56.234   1.0% |
    Apply H:                       145.558   141.406   2.4% ||
     HMM T:                          4.152     4.152   0.1% |
   diagonalize:                      6.930     6.930   0.1% |
   rotate_psi:                     103.624   103.624   1.8% ||
  calc. matrices:                  664.180   376.465   6.4% |--|
   Apply H:                        287.714   279.788   4.8% |-|
    HMM T:                           7.926     7.926   0.1% |
  diagonalize:                      95.244    95.244   1.6% ||
  rotate_psi:                      210.361   210.361   3.6% ||
 Density:                           84.645     0.001   0.0% |
  Atomic density matrices:           1.469     1.469   0.0% |
  Mix:                              13.913    13.913   0.2% |
  Multipole moments:                 0.035     0.035   0.0% |
  Pseudo density:                   69.228    69.226   1.2% |
   Symmetrize density:               0.002     0.002   0.0% |
 Forces:                           265.476   265.476   4.5% |-|
 Hamiltonian:                       23.672     0.135   0.0% |
  Atomic:                            3.062     3.062   0.1% |
   XC Correction:                    0.000     0.000   0.0% |
  Calculate atomic Hamiltonians:    10.238    10.238   0.2% |
  Communicate:                       0.105     0.105   0.0% |
  Poisson:                           0.095     0.095   0.0% |
  XC 3D grid:                       10.036    10.036   0.2% |
 Orthonormalize:                     4.412     0.004   0.0% |
  calc_s_matrix:                     0.525     0.525   0.0% |
  inverse-cholesky:                  0.055     0.055   0.0% |
  projections:                       2.895     2.895   0.0% |
  rotate_psi_s:                      0.934     0.934   0.0% |
Set symmetry:                        0.000     0.000   0.0% |
Other:                            3208.652  3208.652  54.8% |---------------------|
-----------------------------------------------------------
Total:                                      5854.300 100.0%

Memory usage: 12.30 GiB
Date: Sun Mar 21 17:49:50 2021
