
  ___ ___ ___ _ _ _  
 |   |   |_  | | | | 
 | | | | | . | | | | 
 |__ |  _|___|_____|  20.10.1b1
 |___|_|             

User:   madkru@g064.nifl.fysik.dtu.dk
Date:   Sun Mar 21 17:05:25 2021
Arch:   x86_64
Pid:    60512
Python: 3.7.4
gpaw:   /home/niflheim/madkru/venv_folder/gpaw/gpaw (d0d1ca1c71)
_gpaw:  /home/niflheim/madkru/venv_folder/gpaw/build/lib.linux-x86_64-sandybridge-3.7/
        _gpaw.cpython-37m-x86_64-linux-gnu.so (4fd39e8b1e)
ase:    /home/niflheim/madkru/venv_folder/ase/ase (version 3.21.0b1-7e6c206a91)
numpy:  /home/niflheim/madkru/venv_folder/lib/python3.7/site-packages/numpy (version 1.19.4)
scipy:  /home/niflheim/madkru/venv_folder/lib/python3.7/site-packages/scipy (version 1.5.4)
libxc:  4.3.4
units:  Angstrom and eV
cores: 32
OMP_NUM_THREADS: 1

Input parameters:
  convergence: {bands: occupied,
                density: 0.0001,
                eigenstates: 4e-08,
                energy: 0.0005,
                forces: 1e-06}
  kpts: [6 6 4]
  mode: {ecut: 600.0,
         gammacentered: False,
         name: pw}
  occupations: {fixmagmom: False,
                name: fermi-dirac,
                width: 0.001}
  symmetry: {point_group: False,
             time_reversal: False}

System changes: positions, numbers, cell, pbc, initial_charges, initial_magmoms 

Initialize ...

O-setup:
  name: Oxygen
  id: 9b9d51c344dea68c822856295a461509
  Z: 8.0
  valence: 6
  core: 2
  charge: 0.0
  file: /home/modules/software/GPAW-setups/0.9.20000/O.LDA.gz
  compensation charges: gauss, rc=0.21, lmax=2
  cutoffs: 1.17(filt), 0.83(core),
  valence states:
                energy  radius
    2s(2.00)   -23.752   0.688
    2p(4.00)    -9.195   0.598
    *s           3.459   0.688
    *p          18.016   0.598
    *d           0.000   0.619

  Using partial waves for O as LCAO basis

Mn-setup:
  name: Manganese
  id: 0d715a8018be061a6e9ea6f2d364ac92
  Z: 25.0
  valence: 15
  core: 10
  charge: 0.0
  file: /home/modules/software/GPAW-setups/0.9.20000/Mn.LDA.gz
  compensation charges: gauss, rc=0.38, lmax=2
  cutoffs: 2.14(filt), 0.86(core),
  valence states:
                energy  radius
    3s(2.00)   -85.387   1.275
    4s(2.00)    -5.282   1.275
    3p(6.00)   -54.493   1.281
    4p(0.00)    -1.471   1.281
    3d(5.00)    -7.009   1.138
    *d          20.203   1.138

  Using partial waves for Mn as LCAO basis

P-setup:
  name: Phosphorus
  id: a5561c299094968922a179ab894d2e2d
  Z: 15.0
  valence: 5
  core: 10
  charge: 0.0
  file: /home/modules/software/GPAW-setups/0.9.20000/P.LDA.gz
  compensation charges: gauss, rc=0.30, lmax=2
  cutoffs: 1.69(filt), 1.81(core),
  valence states:
                energy  radius
    3s(2.00)   -14.015   0.953
    3p(3.00)    -5.596   0.953
    *s          13.197   0.953
    *p          21.615   0.953
    *d           0.000   0.953

  Using partial waves for P as LCAO basis

Li-setup:
  name: Lithium
  id: b73562207f97a71b6967473b66fe8b65
  Z: 3.0
  valence: 1
  core: 2
  charge: 0.0
  file: /home/modules/software/GPAW-setups/0.9.20000/Li.LDA.gz
  compensation charges: gauss, rc=0.33, lmax=2
  cutoffs: 1.91(filt), 2.55(core),
  valence states:
                energy  radius
    2s(1.00)    -2.874   1.058
    2p(0.00)    -1.126   1.058
    *s          24.338   1.058

  Using partial waves for Li as LCAO basis

Reference energy: -196157.275402

Spin-polarized calculation.
Magnetic moment: 0.000000

Convergence criteria:
  Maximum total energy change: 0.0005 eV / electron
  Maximum integral of absolute density change: 0.0001 electrons
  Maximum integral of absolute eigenstate change: 4e-08 eV^2
  Maximum change in atomic force: 1e-06 eV / Ang
  Maximum number of iterations: 333

Symmetries present (total): 1

  ( 1  0  0)
  ( 0  1  0)
  ( 0  0  1)

144 k-points: 6 x 6 x 4 Monkhorst-Pack grid
144 k-points in the irreducible part of the Brillouin zone
       k-points in crystal coordinates                weights
   0:    -0.41666667   -0.41666667   -0.37500000          1/144
   1:    -0.41666667   -0.41666667   -0.12500000          1/144
   2:    -0.41666667   -0.41666667    0.12500000          1/144
   3:    -0.41666667   -0.41666667    0.37500000          1/144
   4:    -0.41666667   -0.25000000   -0.37500000          1/144
   5:    -0.41666667   -0.25000000   -0.12500000          1/144
   6:    -0.41666667   -0.25000000    0.12500000          1/144
   7:    -0.41666667   -0.25000000    0.37500000          1/144
   8:    -0.41666667   -0.08333333   -0.37500000          1/144
   9:    -0.41666667   -0.08333333   -0.12500000          1/144
          ...
 143:     0.41666667    0.41666667    0.37500000          1/144

Wave functions: Plane wave expansion
  Cutoff energy: 600.000 eV
  Number of coefficients (min, max): 10068, 10125
  Pulay-stress correction: 0.000000 eV/Ang^3 (de/decut=0.000000)
  Using FFTW library
  ScaLapack parameters: grid=1x1, blocksize=None
  Wavefunction extrapolation:
    Improved wavefunction reuse through dual PAW basis 

  Fermi-Dirac: width=0.0010 eV

Eigensolver
   Davidson(niter=2, smin=None, normalize=True) 

Densities:
  Coarse grid: 60*35*27 grid
  Fine grid: 120*70*54 grid
  Total Charge: 0.000000 

Density mixing:
  Method: difference
  Backend: pulay
  Linear mixing parameter: 0.05
  Mixing with 5 old densities
  Damping of long wave oscillations: 50 

Hamiltonian:
  XC and Coulomb potentials evaluated on a 120*70*54 grid
  Using the LDA Exchange-Correlation functional
 

Memory estimate:
  Process memory now: 12593.61 MiB
  Calculator: 375.55 MiB
    Density: 20.02 MiB
      Arrays: 7.57 MiB
      Localized functions: 9.42 MiB
      Mixer: 3.03 MiB
    Hamiltonian: 5.90 MiB
      Arrays: 5.62 MiB
      XC: 0.00 MiB
      Poisson: 0.00 MiB
      vbar: 0.27 MiB
    Wavefunctions: 349.64 MiB
      Arrays psit_nG: 311.46 MiB
      Eigensolver: 19.99 MiB
      Projections: 5.41 MiB
      Projectors: 9.73 MiB
      PW-descriptor: 3.03 MiB

Total number of cores used: 32
Parallelization over k-points: 16
Domain decomposition: 2 x 1 x 1

Number of atoms: 28
Number of atomic orbitals: 148
Number of bands in calculation: 112
Number of valence electrons: 180
Bands to converge: occupied

... initialized

Initializing position-dependent things.

Density initialized from atomic densities
Creating initial wave functions:
  112 bands from LCAO basis set

     .-------------------------.  
    /|         OP              |  
   / |O            O        O  |  
  /  |       O            O  P |  
 *   |O    Mn      O           |  
 |   |          OLi          O |  
 |   .P-O--------------Mn------.  
 |  /          Li    O  Mn  O /   
 | /Li O           PO        /    
 |/       Mn                /     
 *Li-----------------------*      

Positions:
   0 O     -1.360678   -2.541161   -1.202221    ( 0.0000,  0.0000,  0.0000)
   1 O     -3.121941    2.976855    1.167242    ( 0.0000,  0.0000,  0.0000)
   2 O      2.107533    0.518090    1.540712    ( 0.0000,  0.0000,  0.0000)
   3 O      3.869373   -0.072395   -0.828750    ( 0.0000,  0.0000,  0.0000)
   4 O      2.107821    2.976875    1.540792    ( 0.0000,  0.0000,  0.0000)
   5 O      3.869084   -2.541141   -0.828671    ( 0.0000,  0.0000,  0.0000)
   6 O     -1.360390   -0.072375   -1.202141    ( 0.0000,  0.0000,  0.0000)
   7 O     -3.122230    0.508109    1.167321    ( 0.0000,  0.0000,  0.0000)
   8 O     -4.413461   -1.306992   -0.794251    ( 0.0000,  0.0000,  0.0000)
   9 O     -0.069585    1.742707    1.575662    ( 0.0000,  0.0000,  0.0000)
  10 O      5.160604    1.742707    1.132822    ( 0.0000,  0.0000,  0.0000)
  11 O      0.816728   -1.306992   -1.237091    ( 0.0000,  0.0000,  0.0000)
  12 Mn    -2.570809   -1.307302    0.247161    ( 0.0000,  0.0000,  1.0000)
  13 Mn    -1.912021    1.743016   -2.122906    ( 0.0000,  0.0000, -1.0000)
  14 Mn     3.317952    1.743017    0.091411    ( 0.0000,  0.0000, -1.0000)
  15 Mn     2.659164   -1.307302    2.461478    ( 0.0000,  0.0000,  1.0000)
  16 P     -0.620664   -1.306816   -1.828465    ( 0.0000,  0.0000,  0.0000)
  17 P     -3.862097    1.742530    0.541238    ( 0.0000,  0.0000,  0.0000)
  18 P      1.367807    1.742530    2.167036    ( 0.0000,  0.0000,  0.0000)
  19 P      4.609240   -1.306816   -0.202666    ( 0.0000,  0.0000,  0.0000)
  20 O     -0.646437   -1.306845    1.374751    ( 0.0000,  0.0000,  0.0000)
  21 O     -3.836504    1.742559   -0.995565    ( 0.0000,  0.0000,  0.0000)
  22 O      1.393580    1.742559   -1.036179    ( 0.0000,  0.0000,  0.0000)
  23 O      4.583647   -1.306845    1.334136    ( 0.0000,  0.0000,  0.0000)
  24 Li    -4.856429   -2.832143   -2.200714    ( 0.0000,  0.0000,  0.0000)
  25 Li     0.373571   -2.832143    0.169286    ( 0.0000,  0.0000,  0.0000)
  26 Li    -4.856429    0.217857   -2.200714    ( 0.0000,  0.0000,  0.0000)
  27 Li     0.373571    0.217857    0.169286    ( 0.0000,  0.0000,  0.0000)

Unit cell:
           periodic     x           y           z      points  spacing
  1. axis:    yes   10.460000    0.000000    0.000000    60     0.1743
  2. axis:    yes    0.000000    6.100000    0.000000    35     0.1743
  3. axis:    yes    0.000000    0.000000    4.740000    27     0.1756

  Lengths:  10.460000   6.100000   4.740000
  Angles:   90.000000  90.000000  90.000000

Effective grid spacing dv^(1/3) = 0.1747

                     log10-error:           total        iterations:
           time      wfs    density  force  energy       poisson  magmom
iter:   1  17:08:24                       -231.917076             +0.0000
iter:   2  17:09:04  -0.55  -0.94         -231.742423             +0.0148
iter:   3  17:09:43  -0.72  -0.98         -220.583048             +0.0185
iter:   4  17:10:22  -0.95  -1.20         -218.863953             +0.0061
iter:   5  17:11:02  -1.93  -1.36         -222.154043             +0.0039
iter:   6  17:11:41  -1.99  -1.44         -221.126853             +0.0017
iter:   7  17:12:20  -2.25  -1.68         -223.897647             +0.0012
iter:   8  17:13:00  -1.66  -1.89         -226.470525             +0.0001
iter:   9  17:13:39  -2.07  -1.94         -226.596417             +0.0001
iter:  10  17:14:18  -2.30  -1.98         -226.574395             +0.0000
iter:  11  17:14:58  -2.45  -2.05         -226.527850             +0.0000
iter:  12  17:15:37  -2.39  -2.15         -226.258112             -0.0000
iter:  13  17:16:16  -2.71  -2.35         -226.243049             +0.0000
iter:  14  17:16:55  -3.39  -2.61         -226.231148             +0.0000
iter:  15  17:17:35  -3.83  -2.79         -226.229597             +0.0000
iter:  16  17:18:14  -4.71  -3.17         -226.228687             +0.0000
iter:  17  17:18:53  -4.86  -3.22         -226.227842             +0.0000
iter:  18  17:19:33  -5.29  -3.39         -226.227245             +0.0000
iter:  19  17:20:12  -4.68  -3.42         -226.226987             +0.0000
iter:  20  17:20:51  -4.92  -3.38         -226.226721             +0.0000
iter:  21  17:21:31  -5.97  -3.63         -226.226646             +0.0000
iter:  22  17:22:10  -5.50  -3.83         -226.226691             +0.0000
iter:  23  17:22:49  -5.94  -3.75         -226.226636             -0.0000
iter:  24  17:23:28  -6.07  -4.06         -226.226615             -0.0000
iter:  25  17:24:08  -6.86  -4.43         -226.226616             -0.0000
iter:  26  17:24:58  -8.02  -4.77         -226.226614             -0.0000
iter:  27  17:25:37  -7.31  -4.81         -226.226612             -0.0000
iter:  28  17:26:27  -8.46  -4.96    -2.64-226.226612             -0.0000
iter:  29  17:27:17  -8.69  -4.98    -3.35-226.226612             -0.0000
iter:  30  17:28:07  -8.01  -5.02    -2.80-226.226612             +0.0000
iter:  31  17:28:57  -9.08  -5.16    -3.39-226.226612             -0.0000
iter:  32  17:29:47  -8.50  -5.20    -3.15-226.226612             -0.0000
iter:  33  17:30:36  -8.21  -5.25    -2.92-226.226612             -0.0000
iter:  34  17:31:26  -8.79  -5.37    -3.12-226.226612             -0.0000
iter:  35  17:32:16  -9.98  -5.64    -3.79-226.226612             -0.0000
iter:  36  17:33:06 -10.05  -5.68    -3.91-226.226612             -0.0000
iter:  37  17:33:56  -9.79  -5.73    -3.87-226.226612             +0.0000
iter:  38  17:34:46 -10.52  -5.82    -4.17-226.226612             +0.0000
iter:  39  17:35:36 -10.99  -5.84    -4.24-226.226612             -0.0000
iter:  40  17:36:26 -10.20  -5.87    -4.00-226.226612             -0.0000
iter:  41  17:37:16 -10.51  -6.09    -4.29-226.226612             -0.0000
iter:  42  17:38:06  -9.79  -6.13    -3.74-226.226612             +0.0000
iter:  43  17:38:56 -10.77  -6.39    -4.15-226.226612             -0.0000
iter:  44  17:39:45 -11.39  -6.70    -4.74-226.226612             -0.0000
iter:  45  17:40:35 -11.53  -6.72    -4.38-226.226612             -0.0000
iter:  46  17:41:25 -12.09  -6.98    -4.96-226.226612             -0.0000
iter:  47  17:42:15 -11.96  -7.10    -4.86-226.226612             -0.0000
iter:  48  17:43:05 -12.69  -7.28    -5.04-226.226612             -0.0000
iter:  49  17:43:55 -12.69  -7.42    -5.00-226.226612             -0.0000
iter:  50  17:44:45 -13.40  -7.43    -5.58-226.226612             +0.0000
iter:  51  17:45:35 -13.59  -7.67    -5.74-226.226612             -0.0000
iter:  52  17:46:25 -14.07  -7.79    -6.00-226.226612             -0.0000
iter:  53  17:47:15 -13.93  -7.83    -5.72-226.226612             -0.0000
iter:  54  17:48:05 -14.75  -7.93    -6.24-226.226612             -0.0000

Converged after 54 iterations.

Dipole moment: (10.670776, 1.557560, -6.270755) |e|*Ang

Total magnetic moment: (0.000000, 0.000000, -0.000000)
Local magnetic moments:
   0 O  ( 0.000000,  0.000000, -0.000510)
   1 O  ( 0.000000,  0.000000,  0.000543)
   2 O  ( 0.000000,  0.000000,  0.000153)
   3 O  ( 0.000000,  0.000000, -0.000586)
   4 O  ( 0.000000,  0.000000,  0.000662)
   5 O  ( 0.000000,  0.000000, -0.000317)
   6 O  ( 0.000000,  0.000000, -0.000523)
   7 O  ( 0.000000,  0.000000,  0.000566)
   8 O  ( 0.000000,  0.000000,  0.028676)
   9 O  ( 0.000000,  0.000000, -0.028908)
  10 O  ( 0.000000,  0.000000, -0.028682)
  11 O  ( 0.000000,  0.000000,  0.028690)
  12 Mn ( 0.000000,  0.000000,  4.448148)
  13 Mn ( 0.000000,  0.000000, -4.448340)
  14 Mn ( 0.000000,  0.000000, -4.448329)
  15 Mn ( 0.000000,  0.000000,  4.449533)
  16 P  ( 0.000000,  0.000000,  0.001540)
  17 P  ( 0.000000,  0.000000, -0.001550)
  18 P  ( 0.000000,  0.000000, -0.001857)
  19 P  ( 0.000000,  0.000000,  0.001530)
  20 O  ( 0.000000,  0.000000,  0.025315)
  21 O  ( 0.000000,  0.000000, -0.025284)
  22 O  ( 0.000000,  0.000000, -0.025441)
  23 O  ( 0.000000,  0.000000,  0.025263)
  24 Li ( 0.000000,  0.000000, -0.000001)
  25 Li ( 0.000000,  0.000000, -0.000001)
  26 Li ( 0.000000,  0.000000, -0.000001)
  27 Li ( 0.000000,  0.000000, -0.000016)

Energy contributions relative to reference atoms: (reference = -196157.275402)

Kinetic:       +217.880128
Potential:     -195.645872
External:        +0.000000
XC:            -250.500916
Entropy (-ST):   -0.000000
Local:           +2.040048
--------------------------
Free energy:   -226.226612
Extrapolated:  -226.226612

Spin contamination: 9.561363 electrons
Showing only first 2 kpts
                      Up                     Down
 Kpt  Band  Eigenvalues  Occupancy  Eigenvalues  Occupancy
  0    88      5.10219    0.00694      5.11251    0.00694
  0    89      5.12975    0.00694      5.13721    0.00694
  0    90      7.29136    0.00000      7.28364    0.00000
  0    91      7.30887    0.00000      7.30196    0.00000

  1    88      5.12798    0.00694      5.13825    0.00694
  1    89      5.16018    0.00694      5.16780    0.00694
  1    90      7.23487    0.00000      7.22625    0.00000
  1    91      7.24664    0.00000      7.23971    0.00000


Fermi level: 6.46279

Gap: 1.965 eV
Transition (v -> c):
  (s=1, k=94, n=89, [0.08, 0.42, 0.12]) -> (s=1, k=58, n=90, [-0.08, -0.08, 0.12])
Writing to born-0.01-2y+.gpw (mode='all')

Timing:                              incl.     excl.
-----------------------------------------------------------
Hamiltonian:                         0.419     0.003   0.0% |
 Atomic:                             0.054     0.054   0.0% |
  XC Correction:                     0.000     0.000   0.0% |
 Calculate atomic Hamiltonians:      0.187     0.187   0.0% |
 Communicate:                        0.002     0.002   0.0% |
 Initialize Hamiltonian:             0.000     0.000   0.0% |
 Poisson:                            0.002     0.002   0.0% |
 XC 3D grid:                         0.171     0.171   0.0% |
LCAO initialization:               134.114     0.676   0.0% |
 LCAO eigensolver:                  34.133     0.003   0.0% |
  Calculate projections:             0.057     0.057   0.0% |
  DenseAtomicCorrection:             0.083     0.083   0.0% |
  Distribute overlap matrix:         0.516     0.516   0.0% |
  Orbital Layouts:                   0.364     0.364   0.0% |
  Potential matrix:                 33.022    33.022   0.6% |
  Sum over cells:                    0.090     0.090   0.0% |
 LCAO to grid:                      97.042    97.042   1.6% ||
 Set positions (LCAO WFS):           2.262     0.344   0.0% |
  Basic WFS set positions:           0.001     0.001   0.0% |
  Basis functions set positions:     0.000     0.000   0.0% |
  P tci:                             1.058     1.058   0.0% |
  ST tci:                            0.654     0.654   0.0% |
  mktci:                             0.205     0.205   0.0% |
PWDescriptor:                        0.025     0.025   0.0% |
SCF-cycle:                        2423.849     5.576   0.1% |
 Davidson:                        2013.020   657.526  11.0% |---|
  Apply H:                         140.074   135.446   2.3% ||
   HMM T:                            4.628     4.628   0.1% |
  Subspace diag:                   297.166     0.171   0.0% |
   calc_h_matrix:                  192.089    53.426   0.9% |
    Apply H:                       138.663   134.199   2.2% ||
     HMM T:                          4.463     4.463   0.1% |
   diagonalize:                      6.640     6.640   0.1% |
   rotate_psi:                      98.266    98.266   1.6% ||
  calc. matrices:                  628.753   356.929   6.0% |-|
   Apply H:                        271.823   263.471   4.4% |-|
    HMM T:                           8.352     8.352   0.1% |
  diagonalize:                      89.797    89.797   1.5% ||
  rotate_psi:                      199.704   199.704   3.3% ||
 Density:                           80.844     0.001   0.0% |
  Atomic density matrices:           1.489     1.489   0.0% |
  Mix:                              13.137    13.137   0.2% |
  Multipole moments:                 0.031     0.031   0.0% |
  Pseudo density:                   66.185    66.184   1.1% |
   Symmetrize density:               0.002     0.002   0.0% |
 Forces:                           297.599   297.599   5.0% |-|
 Hamiltonian:                       22.410     0.127   0.0% |
  Atomic:                            2.897     2.897   0.0% |
   XC Correction:                    0.000     0.000   0.0% |
  Calculate atomic Hamiltonians:     9.714     9.714   0.2% |
  Communicate:                       0.098     0.098   0.0% |
  Poisson:                           0.091     0.091   0.0% |
  XC 3D grid:                        9.484     9.484   0.2% |
 Orthonormalize:                     4.400     0.003   0.0% |
  calc_s_matrix:                     0.522     0.522   0.0% |
  inverse-cholesky:                  0.054     0.054   0.0% |
  projections:                       2.888     2.888   0.0% |
  rotate_psi_s:                      0.932     0.932   0.0% |
Set symmetry:                        0.000     0.000   0.0% |
Other:                            3415.875  3415.875  57.2% |----------------------|
-----------------------------------------------------------
Total:                                      5974.281 100.0%

Memory usage: 12.35 GiB
Date: Sun Mar 21 18:44:59 2021
