
  ___ ___ ___ _ _ _  
 |   |   |_  | | | | 
 | | | | | . | | | | 
 |__ |  _|___|_____|  20.10.1b1
 |___|_|             

User:   madkru@g064.nifl.fysik.dtu.dk
Date:   Sun Mar 21 05:52:10 2021
Arch:   x86_64
Pid:    60512
Python: 3.7.4
gpaw:   /home/niflheim/madkru/venv_folder/gpaw/gpaw (d0d1ca1c71)
_gpaw:  /home/niflheim/madkru/venv_folder/gpaw/build/lib.linux-x86_64-sandybridge-3.7/
        _gpaw.cpython-37m-x86_64-linux-gnu.so (4fd39e8b1e)
ase:    /home/niflheim/madkru/venv_folder/ase/ase (version 3.21.0b1-7e6c206a91)
numpy:  /home/niflheim/madkru/venv_folder/lib/python3.7/site-packages/numpy (version 1.19.4)
scipy:  /home/niflheim/madkru/venv_folder/lib/python3.7/site-packages/scipy (version 1.5.4)
libxc:  4.3.4
units:  Angstrom and eV
cores: 32
OMP_NUM_THREADS: 1

Input parameters:
  convergence: {bands: occupied,
                density: 0.0001,
                eigenstates: 4e-08,
                energy: 0.0005,
                forces: 1e-06}
  kpts: [6 6 4]
  mode: {ecut: 600.0,
         gammacentered: False,
         name: pw}
  occupations: {fixmagmom: False,
                name: fermi-dirac,
                width: 0.001}
  symmetry: {point_group: False,
             time_reversal: False}

System changes: positions, numbers, cell, pbc, initial_charges, initial_magmoms 

Initialize ...

O-setup:
  name: Oxygen
  id: 9b9d51c344dea68c822856295a461509
  Z: 8.0
  valence: 6
  core: 2
  charge: 0.0
  file: /home/modules/software/GPAW-setups/0.9.20000/O.LDA.gz
  compensation charges: gauss, rc=0.21, lmax=2
  cutoffs: 1.17(filt), 0.83(core),
  valence states:
                energy  radius
    2s(2.00)   -23.752   0.688
    2p(4.00)    -9.195   0.598
    *s           3.459   0.688
    *p          18.016   0.598
    *d           0.000   0.619

  Using partial waves for O as LCAO basis

Mn-setup:
  name: Manganese
  id: 0d715a8018be061a6e9ea6f2d364ac92
  Z: 25.0
  valence: 15
  core: 10
  charge: 0.0
  file: /home/modules/software/GPAW-setups/0.9.20000/Mn.LDA.gz
  compensation charges: gauss, rc=0.38, lmax=2
  cutoffs: 2.14(filt), 0.86(core),
  valence states:
                energy  radius
    3s(2.00)   -85.387   1.275
    4s(2.00)    -5.282   1.275
    3p(6.00)   -54.493   1.281
    4p(0.00)    -1.471   1.281
    3d(5.00)    -7.009   1.138
    *d          20.203   1.138

  Using partial waves for Mn as LCAO basis

P-setup:
  name: Phosphorus
  id: a5561c299094968922a179ab894d2e2d
  Z: 15.0
  valence: 5
  core: 10
  charge: 0.0
  file: /home/modules/software/GPAW-setups/0.9.20000/P.LDA.gz
  compensation charges: gauss, rc=0.30, lmax=2
  cutoffs: 1.69(filt), 1.81(core),
  valence states:
                energy  radius
    3s(2.00)   -14.015   0.953
    3p(3.00)    -5.596   0.953
    *s          13.197   0.953
    *p          21.615   0.953
    *d           0.000   0.953

  Using partial waves for P as LCAO basis

Li-setup:
  name: Lithium
  id: b73562207f97a71b6967473b66fe8b65
  Z: 3.0
  valence: 1
  core: 2
  charge: 0.0
  file: /home/modules/software/GPAW-setups/0.9.20000/Li.LDA.gz
  compensation charges: gauss, rc=0.33, lmax=2
  cutoffs: 1.91(filt), 2.55(core),
  valence states:
                energy  radius
    2s(1.00)    -2.874   1.058
    2p(0.00)    -1.126   1.058
    *s          24.338   1.058

  Using partial waves for Li as LCAO basis

Reference energy: -196157.275402

Spin-polarized calculation.
Magnetic moment: 0.000000

Convergence criteria:
  Maximum total energy change: 0.0005 eV / electron
  Maximum integral of absolute density change: 0.0001 electrons
  Maximum integral of absolute eigenstate change: 4e-08 eV^2
  Maximum change in atomic force: 1e-06 eV / Ang
  Maximum number of iterations: 333

Symmetries present (total): 1

  ( 1  0  0)
  ( 0  1  0)
  ( 0  0  1)

144 k-points: 6 x 6 x 4 Monkhorst-Pack grid
144 k-points in the irreducible part of the Brillouin zone
       k-points in crystal coordinates                weights
   0:    -0.41666667   -0.41666667   -0.37500000          1/144
   1:    -0.41666667   -0.41666667   -0.12500000          1/144
   2:    -0.41666667   -0.41666667    0.12500000          1/144
   3:    -0.41666667   -0.41666667    0.37500000          1/144
   4:    -0.41666667   -0.25000000   -0.37500000          1/144
   5:    -0.41666667   -0.25000000   -0.12500000          1/144
   6:    -0.41666667   -0.25000000    0.12500000          1/144
   7:    -0.41666667   -0.25000000    0.37500000          1/144
   8:    -0.41666667   -0.08333333   -0.37500000          1/144
   9:    -0.41666667   -0.08333333   -0.12500000          1/144
          ...
 143:     0.41666667    0.41666667    0.37500000          1/144

Wave functions: Plane wave expansion
  Cutoff energy: 600.000 eV
  Number of coefficients (min, max): 10068, 10125
  Pulay-stress correction: 0.000000 eV/Ang^3 (de/decut=0.000000)
  Using FFTW library
  ScaLapack parameters: grid=1x1, blocksize=None
  Wavefunction extrapolation:
    Improved wavefunction reuse through dual PAW basis 

  Fermi-Dirac: width=0.0010 eV

Eigensolver
   Davidson(niter=2, smin=None, normalize=True) 

Densities:
  Coarse grid: 60*35*27 grid
  Fine grid: 120*70*54 grid
  Total Charge: 0.000000 

Density mixing:
  Method: difference
  Backend: pulay
  Linear mixing parameter: 0.05
  Mixing with 5 old densities
  Damping of long wave oscillations: 50 

Hamiltonian:
  XC and Coulomb potentials evaluated on a 120*70*54 grid
  Using the LDA Exchange-Correlation functional
 

Memory estimate:
  Process memory now: 12169.50 MiB
  Calculator: 375.55 MiB
    Density: 20.02 MiB
      Arrays: 7.57 MiB
      Localized functions: 9.42 MiB
      Mixer: 3.03 MiB
    Hamiltonian: 5.90 MiB
      Arrays: 5.62 MiB
      XC: 0.00 MiB
      Poisson: 0.00 MiB
      vbar: 0.27 MiB
    Wavefunctions: 349.64 MiB
      Arrays psit_nG: 311.46 MiB
      Eigensolver: 19.99 MiB
      Projections: 5.41 MiB
      Projectors: 9.73 MiB
      PW-descriptor: 3.03 MiB

Total number of cores used: 32
Parallelization over k-points: 16
Domain decomposition: 2 x 1 x 1

Number of atoms: 28
Number of atomic orbitals: 148
Number of bands in calculation: 112
Number of valence electrons: 180
Bands to converge: occupied

... initialized

Initializing position-dependent things.

Density initialized from atomic densities
Creating initial wave functions:
  112 bands from LCAO basis set

     .-------------------------.  
    /|         OP              |  
   / |O            O        O  |  
  /  |       O            O  P |  
 *   |O    Mn      O           |  
 |   |          OLi          O |  
 |   .P-O--------------Mn------.  
 |  /          Li    O  Mn  O /   
 | /Li O           PO        /    
 |/       Mn                /     
 *Li-----------------------*      

Positions:
   0 O     -1.360678   -2.531161   -1.202221    ( 0.0000,  0.0000,  0.0000)
   1 O     -3.121941    2.976855    1.167242    ( 0.0000,  0.0000,  0.0000)
   2 O      2.107533    0.508090    1.540712    ( 0.0000,  0.0000,  0.0000)
   3 O      3.869373   -0.072395   -0.828750    ( 0.0000,  0.0000,  0.0000)
   4 O      2.107821    2.976875    1.540792    ( 0.0000,  0.0000,  0.0000)
   5 O      3.869084   -2.541141   -0.828671    ( 0.0000,  0.0000,  0.0000)
   6 O     -1.360390   -0.072375   -1.202141    ( 0.0000,  0.0000,  0.0000)
   7 O     -3.122230    0.508109    1.167321    ( 0.0000,  0.0000,  0.0000)
   8 O     -4.413461   -1.306992   -0.794251    ( 0.0000,  0.0000,  0.0000)
   9 O     -0.069585    1.742707    1.575662    ( 0.0000,  0.0000,  0.0000)
  10 O      5.160604    1.742707    1.132822    ( 0.0000,  0.0000,  0.0000)
  11 O      0.816728   -1.306992   -1.237091    ( 0.0000,  0.0000,  0.0000)
  12 Mn    -2.570809   -1.307302    0.247161    ( 0.0000,  0.0000,  1.0000)
  13 Mn    -1.912021    1.743016   -2.122906    ( 0.0000,  0.0000, -1.0000)
  14 Mn     3.317952    1.743017    0.091411    ( 0.0000,  0.0000, -1.0000)
  15 Mn     2.659164   -1.307302    2.461478    ( 0.0000,  0.0000,  1.0000)
  16 P     -0.620664   -1.306816   -1.828465    ( 0.0000,  0.0000,  0.0000)
  17 P     -3.862097    1.742530    0.541238    ( 0.0000,  0.0000,  0.0000)
  18 P      1.367807    1.742530    2.167036    ( 0.0000,  0.0000,  0.0000)
  19 P      4.609240   -1.306816   -0.202666    ( 0.0000,  0.0000,  0.0000)
  20 O     -0.646437   -1.306845    1.374751    ( 0.0000,  0.0000,  0.0000)
  21 O     -3.836504    1.742559   -0.995565    ( 0.0000,  0.0000,  0.0000)
  22 O      1.393580    1.742559   -1.036179    ( 0.0000,  0.0000,  0.0000)
  23 O      4.583647   -1.306845    1.334136    ( 0.0000,  0.0000,  0.0000)
  24 Li    -4.856429   -2.832143   -2.200714    ( 0.0000,  0.0000,  0.0000)
  25 Li     0.373571   -2.832143    0.169286    ( 0.0000,  0.0000,  0.0000)
  26 Li    -4.856429    0.217857   -2.200714    ( 0.0000,  0.0000,  0.0000)
  27 Li     0.373571    0.217857    0.169286    ( 0.0000,  0.0000,  0.0000)

Unit cell:
           periodic     x           y           z      points  spacing
  1. axis:    yes   10.460000    0.000000    0.000000    60     0.1743
  2. axis:    yes    0.000000    6.100000    0.000000    35     0.1743
  3. axis:    yes    0.000000    0.000000    4.740000    27     0.1756

  Lengths:  10.460000   6.100000   4.740000
  Angles:   90.000000  90.000000  90.000000

Effective grid spacing dv^(1/3) = 0.1747

                     log10-error:           total        iterations:
           time      wfs    density  force  energy       poisson  magmom
iter:   1  05:55:03                       -231.917095             +0.0000
iter:   2  05:55:42  -0.55  -0.94         -231.742515             -0.0043
iter:   3  05:56:22  -0.72  -0.98         -220.585151             -0.0054
iter:   4  05:57:01  -0.94  -1.20         -218.868448             -0.0018
iter:   5  05:57:41  -1.93  -1.36         -222.283860             -0.0011
iter:   6  05:58:20  -1.99  -1.42         -221.389503             +0.0028
iter:   7  05:58:59  -1.84  -1.60         -225.044813             +0.5783
iter:   8  05:59:39  -2.35  -1.65         -225.042534             -0.4566
iter:   9  06:00:18  -2.68  -1.83         -226.272105             -0.6647
iter:  10  06:00:57  -2.60  -1.82         -227.171871             -0.2730
iter:  11  06:01:37  -2.59  -1.79         -227.154827             -0.0725
iter:  12  06:02:16  -3.02  -1.76         -226.979369             -0.0051
iter:  13  06:02:55  -1.65  -1.80         -226.780218             -0.0078
iter:  14  06:03:35  -2.65  -2.13         -226.457065             -0.0014
iter:  15  06:04:14  -2.95  -2.21         -226.387042             +0.0006
iter:  16  06:04:53  -2.70  -2.23         -226.260807             +0.0008
iter:  17  06:05:32  -2.88  -2.59         -226.241420             +0.0002
iter:  18  06:06:12  -4.01  -2.82         -226.237833             +0.0002
iter:  19  06:06:51  -3.55  -2.85         -226.228620             +0.0000
iter:  20  06:07:30  -3.58  -2.95         -226.232477             +0.0000
iter:  21  06:08:10  -4.70  -3.04         -226.228337             +0.0000
iter:  22  06:08:49  -4.32  -3.20         -226.226954             +0.0000
iter:  23  06:09:28  -4.42  -3.29         -226.227759             +0.0000
iter:  24  06:10:08  -4.47  -3.35         -226.226713             +0.0000
iter:  25  06:10:47  -5.65  -3.80         -226.226705             +0.0000
iter:  26  06:11:26  -5.40  -3.82         -226.226664             +0.0000
iter:  27  06:12:06  -5.79  -3.88         -226.226651             +0.0000
iter:  28  06:12:45  -6.33  -4.02         -226.226608             +0.0000
iter:  29  06:13:24  -6.40  -4.09         -226.226612             +0.0000
iter:  30  06:14:04  -6.62  -4.11         -226.226601             +0.0000
iter:  31  06:14:43  -7.09  -4.23         -226.226597             +0.0000
iter:  32  06:15:22  -7.03  -4.29         -226.226596             +0.0000
iter:  33  06:16:01  -7.01  -4.35         -226.226596             +0.0000
iter:  34  06:16:40  -7.19  -4.43         -226.226597             +0.0000
iter:  35  06:17:30  -8.11  -4.51         -226.226596             +0.0000
iter:  36  06:18:20  -7.68  -4.56    -2.40-226.226594             -0.0000
iter:  37  06:19:09  -7.51  -4.65    -2.77-226.226594             +0.0000
iter:  38  06:19:59  -7.99  -4.85    -3.00-226.226594             +0.0000
iter:  39  06:20:49  -9.03  -4.93    -3.33-226.226594             +0.0000
iter:  40  06:21:38  -7.48  -4.97    -2.41-226.226594             +0.0000
iter:  41  06:22:28  -8.76  -5.51    -3.28-226.226593             +0.0000
iter:  42  06:23:18  -8.97  -5.69    -3.45-226.226593             -0.0000
iter:  43  06:24:07  -9.26  -5.79    -3.35-226.226593             -0.0000
iter:  44  06:24:57  -9.52  -6.04    -3.79-226.226593             -0.0000
iter:  45  06:25:47  -9.98  -6.11    -3.78-226.226593             -0.0000
iter:  46  06:26:36 -10.79  -6.23    -4.27-226.226593             -0.0000
iter:  47  06:27:26 -10.85  -6.32    -4.59-226.226593             -0.0000
iter:  48  06:28:16 -10.71  -6.38    -3.79-226.226593             -0.0000
iter:  49  06:29:05 -10.94  -6.63    -4.43-226.226593             -0.0000
iter:  50  06:29:55 -11.91  -6.90    -5.14-226.226593             -0.0000
iter:  51  06:30:45 -11.25  -6.94    -4.52-226.226593             -0.0000
iter:  52  06:31:35 -12.12  -7.11    -4.84-226.226593             -0.0000
iter:  53  06:32:24 -12.42  -7.43    -5.18-226.226593             -0.0000
iter:  54  06:33:14 -12.97  -7.52    -5.29-226.226593             -0.0000
iter:  55  06:34:04 -12.95  -7.71    -5.27-226.226593             -0.0000
iter:  56  06:34:53 -13.70  -7.77    -5.65-226.226593             -0.0000
iter:  57  06:35:43 -14.61  -7.91    -5.76-226.226593             -0.0000
iter:  58  06:36:33 -14.34  -7.97    -6.03-226.226593             -0.0000

Converged after 58 iterations.

Dipole moment: (10.673499, 1.407229, -6.269688) |e|*Ang

Total magnetic moment: (0.000000, 0.000000, -0.000000)
Local magnetic moments:
   0 O  ( 0.000000,  0.000000, -0.000133)
   1 O  ( 0.000000,  0.000000,  0.000565)
   2 O  ( 0.000000,  0.000000,  0.000529)
   3 O  ( 0.000000,  0.000000, -0.000564)
   4 O  ( 0.000000,  0.000000,  0.000503)
   5 O  ( 0.000000,  0.000000, -0.000547)
   6 O  ( 0.000000,  0.000000, -0.000682)
   7 O  ( 0.000000,  0.000000,  0.000337)
   8 O  ( 0.000000,  0.000000,  0.028682)
   9 O  ( 0.000000,  0.000000, -0.028690)
  10 O  ( 0.000000,  0.000000, -0.028676)
  11 O  ( 0.000000,  0.000000,  0.028908)
  12 Mn ( 0.000000,  0.000000,  4.448330)
  13 Mn ( 0.000000,  0.000000, -4.449531)
  14 Mn ( 0.000000,  0.000000, -4.448147)
  15 Mn ( 0.000000,  0.000000,  4.448342)
  16 P  ( 0.000000,  0.000000,  0.001857)
  17 P  ( 0.000000,  0.000000, -0.001529)
  18 P  ( 0.000000,  0.000000, -0.001540)
  19 P  ( 0.000000,  0.000000,  0.001551)
  20 O  ( 0.000000,  0.000000,  0.025440)
  21 O  ( 0.000000,  0.000000, -0.025263)
  22 O  ( 0.000000,  0.000000, -0.025316)
  23 O  ( 0.000000,  0.000000,  0.025283)
  24 Li ( 0.000000,  0.000000,  0.000001)
  25 Li ( 0.000000,  0.000000,  0.000016)
  26 Li ( 0.000000,  0.000000,  0.000001)
  27 Li ( 0.000000,  0.000000,  0.000001)

Energy contributions relative to reference atoms: (reference = -196157.275402)

Kinetic:       +217.880170
Potential:     -195.645961
External:        +0.000000
XC:            -250.500908
Entropy (-ST):   -0.000000
Local:           +2.040106
--------------------------
Free energy:   -226.226593
Extrapolated:  -226.226593

Spin contamination: 9.561361 electrons
Showing only first 2 kpts
                      Up                     Down
 Kpt  Band  Eigenvalues  Occupancy  Eigenvalues  Occupancy
  0    88      5.11244    0.00694      5.10183    0.00694
  0    89      5.13713    0.00694      5.12985    0.00694
  0    90      7.28374    0.00000      7.29131    0.00000
  0    91      7.30198    0.00000      7.30886    0.00000

  1    88      5.13813    0.00694      5.12782    0.00694
  1    89      5.16779    0.00694      5.16006    0.00694
  1    90      7.22632    0.00000      7.23487    0.00000
  1    91      7.23970    0.00000      7.24662    0.00000


Fermi level: 6.00722

Gap: 1.965 eV
Transition (v -> c):
  (s=0, k=74, n=89, [0.08, -0.42, 0.12]) -> (s=0, k=85, n=90, [0.08, 0.08, -0.12])
Writing to born-0.01-0y+.gpw (mode='all')

Timing:                              incl.     excl.
-----------------------------------------------------------
Hamiltonian:                         0.414     0.002   0.0% |
 Atomic:                             0.054     0.054   0.0% |
  XC Correction:                     0.000     0.000   0.0% |
 Calculate atomic Hamiltonians:      0.179     0.179   0.0% |
 Communicate:                        0.002     0.002   0.0% |
 Initialize Hamiltonian:             0.000     0.000   0.0% |
 Poisson:                            0.001     0.001   0.0% |
 XC 3D grid:                         0.175     0.175   0.0% |
LCAO initialization:               118.189     0.679   0.0% |
 LCAO eigensolver:                  33.239     0.003   0.0% |
  Calculate projections:             0.058     0.058   0.0% |
  DenseAtomicCorrection:             0.084     0.084   0.0% |
  Distribute overlap matrix:         0.067     0.067   0.0% |
  Orbital Layouts:                   0.370     0.370   0.0% |
  Potential matrix:                 32.556    32.556   0.5% |
  Sum over cells:                    0.100     0.100   0.0% |
 LCAO to grid:                      81.970    81.970   1.3% ||
 Set positions (LCAO WFS):           2.300     0.348   0.0% |
  Basic WFS set positions:           0.001     0.001   0.0% |
  Basis functions set positions:     0.000     0.000   0.0% |
  P tci:                             1.078     1.078   0.0% |
  ST tci:                            0.664     0.664   0.0% |
  mktci:                             0.208     0.208   0.0% |
PWDescriptor:                        0.025     0.025   0.0% |
SCF-cycle:                        2542.390    12.099   0.2% |
 Davidson:                        2164.929   706.076  11.1% |---|
  Apply H:                         151.437   146.557   2.3% ||
   HMM T:                            4.880     4.880   0.1% |
  Subspace diag:                   319.884     0.187   0.0% |
   calc_h_matrix:                  206.976    57.389   0.9% |
    Apply H:                       149.587   144.854   2.3% ||
     HMM T:                          4.733     4.733   0.1% |
   diagonalize:                      7.107     7.107   0.1% |
   rotate_psi:                     105.615   105.615   1.7% ||
  calc. matrices:                  676.209   383.668   6.0% |-|
   Apply H:                        292.540   283.781   4.5% |-|
    HMM T:                           8.760     8.760   0.1% |
  diagonalize:                      96.707    96.707   1.5% ||
  rotate_psi:                      214.616   214.616   3.4% ||
 Density:                           86.042     0.002   0.0% |
  Atomic density matrices:           1.524     1.524   0.0% |
  Mix:                              14.283    14.283   0.2% |
  Multipole moments:                 0.036     0.036   0.0% |
  Pseudo density:                   70.198    70.197   1.1% |
   Symmetrize density:               0.002     0.002   0.0% |
 Forces:                           250.921   250.921   3.9% |-|
 Hamiltonian:                       23.960     0.129   0.0% |
  Atomic:                            3.209     3.208   0.1% |
   XC Correction:                    0.000     0.000   0.0% |
  Calculate atomic Hamiltonians:    10.279    10.279   0.2% |
  Communicate:                       0.085     0.085   0.0% |
  Poisson:                           0.092     0.092   0.0% |
  XC 3D grid:                       10.167    10.167   0.2% |
 Orthonormalize:                     4.440     0.004   0.0% |
  calc_s_matrix:                     0.524     0.524   0.0% |
  inverse-cholesky:                  0.055     0.055   0.0% |
  projections:                       2.922     2.922   0.0% |
  rotate_psi_s:                      0.935     0.935   0.0% |
Set symmetry:                        0.000     0.000   0.0% |
Other:                            3696.046  3696.046  58.1% |----------------------|
-----------------------------------------------------------
Total:                                      6357.064 100.0%

Memory usage: 11.98 GiB
Date: Sun Mar 21 07:38:07 2021
