
  ___ ___ ___ _ _ _  
 |   |   |_  | | | | 
 | | | | | . | | | | 
 |__ |  _|___|_____|  21.1.1b1
 |___|_|             

User:   madkru@i009.nifl.fysik.dtu.dk
Date:   Fri Apr  2 00:04:26 2021
Arch:   x86_64
Pid:    31381
Python: 3.8.6
gpaw:   /home/niflheim/madkru/venv_madkru/gpaw/gpaw (e6f0d78a31)
_gpaw:  /home/niflheim/madkru/venv_madkru/gpaw/build/lib.linux-x86_64-ivybridge-3.8/
        _gpaw.cpython-38-x86_64-linux-gnu.so (e6f0d78a31)
ase:    /home/niflheim/madkru/venv_madkru/ase/ase (version 3.22.0b1-4d5a73cb29)
numpy:  /home/modules/software/SciPy-bundle/2020.11-foss-2020b/lib/python3.8/site-packages/numpy (version 1.19.4)
scipy:  /home/modules/software/SciPy-bundle/2020.11-foss-2020b/lib/python3.8/site-packages/scipy (version 1.5.4)
libxc:  4.3.4
units:  Angstrom and eV
cores: 64
OpenMP: False
OMP_NUM_THREADS: 1

Input parameters:
  convergence: {bands: occupied,
                density: 0.0001,
                eigenstates: 4e-08,
                energy: 0.0005,
                forces: 1e-06}
  kpts: [6 6 4]
  maxiter: 1000
  mode: {ecut: 600.0,
         gammacentered: False,
         name: pw}
  occupations: {fixmagmom: False,
                name: fermi-dirac,
                width: 0.001}
  symmetry: {point_group: False,
             time_reversal: False}

System changes: positions, numbers, cell, pbc, initial_charges, initial_magmoms 

Initialize ...

O-setup:
  name: Oxygen
  id: 9b9d51c344dea68c822856295a461509
  Z: 8.0
  valence: 6
  core: 2
  charge: 0.0
  file: /home/modules/software/GPAW-setups/0.9.20000/O.LDA.gz
  compensation charges: gauss, rc=0.21, lmax=2
  cutoffs: 1.17(filt), 0.83(core),
  valence states:
                energy  radius
    2s(2.00)   -23.752   0.688
    2p(4.00)    -9.195   0.598
    *s           3.459   0.688
    *p          18.016   0.598
    *d           0.000   0.619

  Using partial waves for O as LCAO basis

Mn-setup:
  name: Manganese
  id: 0d715a8018be061a6e9ea6f2d364ac92
  Z: 25.0
  valence: 15
  core: 10
  charge: 0.0
  file: /home/modules/software/GPAW-setups/0.9.20000/Mn.LDA.gz
  compensation charges: gauss, rc=0.38, lmax=2
  cutoffs: 2.14(filt), 0.86(core),
  valence states:
                energy  radius
    3s(2.00)   -85.387   1.275
    4s(2.00)    -5.282   1.275
    3p(6.00)   -54.493   1.281
    4p(0.00)    -1.471   1.281
    3d(5.00)    -7.009   1.138
    *d          20.203   1.138

  Using partial waves for Mn as LCAO basis

P-setup:
  name: Phosphorus
  id: a5561c299094968922a179ab894d2e2d
  Z: 15.0
  valence: 5
  core: 10
  charge: 0.0
  file: /home/modules/software/GPAW-setups/0.9.20000/P.LDA.gz
  compensation charges: gauss, rc=0.30, lmax=2
  cutoffs: 1.69(filt), 1.81(core),
  valence states:
                energy  radius
    3s(2.00)   -14.015   0.953
    3p(3.00)    -5.596   0.953
    *s          13.197   0.953
    *p          21.615   0.953
    *d           0.000   0.953

  Using partial waves for P as LCAO basis

Li-setup:
  name: Lithium
  id: b73562207f97a71b6967473b66fe8b65
  Z: 3.0
  valence: 1
  core: 2
  charge: 0.0
  file: /home/modules/software/GPAW-setups/0.9.20000/Li.LDA.gz
  compensation charges: gauss, rc=0.33, lmax=2
  cutoffs: 1.91(filt), 2.55(core),
  valence states:
                energy  radius
    2s(1.00)    -2.874   1.058
    2p(0.00)    -1.126   1.058
    *s          24.338   1.058

  Using partial waves for Li as LCAO basis

Reference energy: -196157.275402

Spin-polarized calculation.
Magnetic moment: 0.000000

Convergence criteria:
  Maximum total energy change: 0.0005 eV / electron
  Maximum integral of absolute density change: 0.0001 electrons
  Maximum integral of absolute eigenstate change: 4e-08 eV^2
  Maximum change in atomic force: 1e-06 eV / Ang
  Maximum number of iterations: 1000

Symmetries present (total): 1

  ( 1  0  0)
  ( 0  1  0)
  ( 0  0  1)

144 k-points: 6 x 6 x 4 Monkhorst-Pack grid
144 k-points in the irreducible part of the Brillouin zone
       k-points in crystal coordinates                weights
   0:    -0.41666667   -0.41666667   -0.37500000          1/144
   1:    -0.41666667   -0.41666667   -0.12500000          1/144
   2:    -0.41666667   -0.41666667    0.12500000          1/144
   3:    -0.41666667   -0.41666667    0.37500000          1/144
   4:    -0.41666667   -0.25000000   -0.37500000          1/144
   5:    -0.41666667   -0.25000000   -0.12500000          1/144
   6:    -0.41666667   -0.25000000    0.12500000          1/144
   7:    -0.41666667   -0.25000000    0.37500000          1/144
   8:    -0.41666667   -0.08333333   -0.37500000          1/144
   9:    -0.41666667   -0.08333333   -0.12500000          1/144
          ...
 143:     0.41666667    0.41666667    0.37500000          1/144

Wave functions: Plane wave expansion
  Cutoff energy: 600.000 eV
  Number of coefficients (min, max): 10068, 10125
  Pulay-stress correction: 0.000000 eV/Ang^3 (de/decut=0.000000)
  Using FFTW library
  ScaLapack parameters: grid=1x1, blocksize=None
  Wavefunction extrapolation:
    Improved wavefunction reuse through dual PAW basis 

  Fermi-Dirac: width=0.0010 eV

Eigensolver
   Davidson(niter=2) 

Densities:
  Coarse grid: 60*35*27 grid
  Fine grid: 120*70*54 grid
  Total Charge: 0.000000 

Density mixing:
  Method: difference
  Backend: pulay
  Linear mixing parameter: 0.05
  Mixing with 5 old densities
  Damping of long wave oscillations: 50 

Hamiltonian:
  XC and Coulomb potentials evaluated on a 120*70*54 grid
  Using the LDA Exchange-Correlation functional
 

Memory estimate:
  Process memory now: 12331.77 MiB
  Calculator: 354.82 MiB
    Density: 10.06 MiB
      Arrays: 3.79 MiB
      Localized functions: 4.71 MiB
      Mixer: 1.56 MiB
    Hamiltonian: 2.95 MiB
      Arrays: 2.82 MiB
      XC: 0.00 MiB
      Poisson: 0.00 MiB
      vbar: 0.14 MiB
    Wavefunctions: 341.80 MiB
      Arrays psit_nG: 311.46 MiB
      Eigensolver: 19.99 MiB
      Projections: 2.71 MiB
      Projectors: 4.87 MiB
      PW-descriptor: 2.77 MiB

Total number of cores used: 64
Parallelization over k-points: 16
Domain decomposition: 2 x 2 x 1

Number of atoms: 28
Number of atomic orbitals: 148
Number of bands in calculation: 112
Number of valence electrons: 180
Bands to converge: occupied

... initialized

Initializing position-dependent things.

Density initialized from atomic densities
Creating initial wave functions:
  112 bands from LCAO basis set

     .-------------------------.  
    /|         OP              |  
   / |O            O        O  |  
  /  |       O            O  P |  
 *   |O    Mn      O           |  
 |   |          OLi          O |  
 |   .P-O--------------Mn------.  
 |  /          Li    O  Mn  O /   
 | /Li O           PO        /    
 |/       Mn                /     
 *Li-----------------------*      

Positions:
   0 O     -1.360678   -2.541161   -1.202221    ( 0.0000,  0.0000,  0.0000)
   1 O     -3.121941    2.976855    1.167242    ( 0.0000,  0.0000,  0.0000)
   2 O      2.107533    0.508090    1.540712    ( 0.0000,  0.0000,  0.0000)
   3 O      3.869373   -0.072395   -0.828750    ( 0.0000,  0.0000,  0.0000)
   4 O      2.107821    2.976875    1.540792    ( 0.0000,  0.0000,  0.0000)
   5 O      3.869084   -2.541141   -0.828671    ( 0.0000,  0.0000,  0.0000)
   6 O     -1.360390   -0.072375   -1.202141    ( 0.0000,  0.0000,  0.0000)
   7 O     -3.122230    0.508109    1.167321    ( 0.0000,  0.0000,  0.0000)
   8 O     -4.413461   -1.306992   -0.794251    ( 0.0000,  0.0000,  0.0000)
   9 O     -0.069585    1.742707    1.575662    ( 0.0000,  0.0000,  0.0000)
  10 O      5.160604    1.742707    1.132822    ( 0.0000,  0.0000,  0.0000)
  11 O      0.816728   -1.306992   -1.237091    ( 0.0000,  0.0000,  0.0000)
  12 Mn    -2.570809   -1.307302    0.247161    ( 0.0000,  0.0000,  1.0000)
  13 Mn    -1.912021    1.743016   -2.122906    ( 0.0000,  0.0000, -1.0000)
  14 Mn     3.317952    1.743017    0.091411    ( 0.0000,  0.0000, -1.0000)
  15 Mn     2.659164   -1.307302    2.461478    ( 0.0000,  0.0000,  1.0000)
  16 P     -0.620664   -1.306816   -1.828465    ( 0.0000,  0.0000,  0.0000)
  17 P     -3.862097    1.742530    0.541238    ( 0.0000,  0.0000,  0.0000)
  18 P      1.367807    1.742530    2.167036    ( 0.0000,  0.0000,  0.0000)
  19 P      4.609240   -1.306816   -0.202666    ( 0.0000,  0.0000,  0.0000)
  20 O     -0.646437   -1.306845    1.374751    ( 0.0000,  0.0000,  0.0000)
  21 O     -3.836504    1.742559   -0.995565    ( 0.0000,  0.0000,  0.0000)
  22 O      1.393580    1.742559   -1.036179    ( 0.0000,  0.0000,  0.0000)
  23 O      4.583647   -1.296845    1.334136    ( 0.0000,  0.0000,  0.0000)
  24 Li    -4.856429   -2.832143   -2.200714    ( 0.0000,  0.0000,  0.0000)
  25 Li     0.373571   -2.832143    0.169286    ( 0.0000,  0.0000,  0.0000)
  26 Li    -4.856429    0.217857   -2.200714    ( 0.0000,  0.0000,  0.0000)
  27 Li     0.373571    0.217857    0.169286    ( 0.0000,  0.0000,  0.0000)

Unit cell:
           periodic     x           y           z      points  spacing
  1. axis:    yes   10.460000    0.000000    0.000000    60     0.1743
  2. axis:    yes    0.000000    6.100000    0.000000    35     0.1743
  3. axis:    yes    0.000000    0.000000    4.740000    27     0.1756

  Lengths:  10.460000   6.100000   4.740000
  Angles:   90.000000  90.000000  90.000000

Effective grid spacing dv^(1/3) = 0.1747

                     log10-error:           total        iterations:
           time      wfs    density  force  energy       poisson  magmom
iter:   1  00:05:55                       -231.920199             +0.0000
iter:   2  00:06:16  -0.55  -0.94         -231.730839             +0.0052
iter:   3  00:06:37  -0.72  -0.98         -220.584659             +0.0065
iter:   4  00:06:57  -0.96  -1.20         -218.866120             +0.0022
iter:   5  00:07:18  -1.94  -1.36         -221.250609             +0.0014
iter:   6  00:07:39  -1.98  -1.50         -219.966731             +0.0007
iter:   7  00:08:00  -2.21  -1.68         -222.902405             +0.1700
iter:   8  00:08:20  -2.73  -1.89         -219.859713             +0.2339
iter:   9  00:08:41  -2.20  -1.94         -224.954441             +0.6734
iter:  10  00:09:02  -2.25  -1.87         -227.205606             +0.0363
iter:  11  00:09:22  -2.96  -1.84         -227.304804             -0.0136
iter:  12  00:09:43  -3.18  -1.81         -227.204534             -0.0042
iter:  13  00:10:04  -1.38  -1.81         -228.532719             -0.0028
iter:  14  00:10:24  -2.79  -1.87         -227.213422             -0.0013
iter:  15  00:10:45  -2.83  -2.06         -227.139246             -0.0003
iter:  16  00:11:06  -3.02  -2.07         -226.998808             +0.0001
iter:  17  00:11:26  -2.58  -2.12         -226.668934             +0.0001
iter:  18  00:11:47  -2.97  -2.19         -226.480498             +0.0000
iter:  19  00:12:08  -3.06  -2.39         -226.324242             +0.0001
iter:  20  00:12:28  -2.44  -2.49         -226.270456             +0.0000
iter:  21  00:12:49  -2.99  -2.46         -226.262440             -0.0000
iter:  22  00:13:10  -4.16  -2.72         -226.253945             -0.0000
iter:  23  00:13:30  -2.95  -2.77         -226.241120             -0.0000
iter:  24  00:13:51  -3.87  -2.93         -226.231231             -0.0000
iter:  25  00:14:12  -3.75  -3.21         -226.232037             -0.0000
iter:  26  00:14:33  -4.16  -3.25         -226.228371             -0.0000
iter:  27  00:14:53  -4.55  -3.37         -226.227664             -0.0000
iter:  28  00:15:14  -5.48  -3.63         -226.227779             -0.0000
iter:  29  00:15:35  -5.75  -3.67         -226.227774             +0.0000
iter:  30  00:15:55  -5.57  -3.74         -226.227818             +0.0000
iter:  31  00:16:16  -5.43  -3.84         -226.227774             +0.0000
iter:  32  00:16:37  -5.92  -3.90         -226.227823             +0.0000
iter:  33  00:16:57  -5.57  -3.90         -226.227722             +0.0000
iter:  34  00:17:18  -7.03  -4.50         -226.227717             +0.0000
iter:  35  00:17:39  -7.23  -4.62         -226.227712             +0.0000
iter:  36  00:17:59  -7.10  -4.74         -226.227711             +0.0000
iter:  37  00:18:25  -7.60  -4.88         -226.227710             -0.0000
iter:  38  00:18:51  -8.08  -4.99    -3.25-226.227711             +0.0000
iter:  39  00:19:17  -8.28  -5.03    -2.84-226.227710             +0.0000
iter:  40  00:19:43  -8.86  -5.22    -3.55-226.227710             +0.0000
iter:  41  00:20:09  -8.50  -5.29    -3.28-226.227710             -0.0000
iter:  42  00:20:35  -9.78  -5.35    -3.54-226.227710             +0.0000
iter:  43  00:21:01  -8.06  -5.40    -2.79-226.227710             +0.0000
iter:  44  00:21:27  -9.12  -5.68    -3.41-226.227710             +0.0000
iter:  45  00:21:52  -9.58  -5.83    -3.65-226.227710             +0.0000
iter:  46  00:22:18  -9.60  -5.93    -3.77-226.227710             -0.0000
iter:  47  00:22:44 -10.10  -6.15    -3.76-226.227710             +0.0000
iter:  48  00:23:10 -10.58  -6.21    -4.60-226.227710             -0.0000
iter:  49  00:23:36 -10.75  -6.26    -4.43-226.227710             +0.0000
iter:  50  00:24:02 -10.72  -6.34    -4.07-226.227710             +0.0000
iter:  51  00:24:28 -11.59  -6.45    -4.64-226.227710             +0.0000
iter:  52  00:24:54 -11.61  -6.51    -4.54-226.227710             -0.0000
iter:  53  00:25:20 -10.69  -6.57    -4.32-226.227710             -0.0000
iter:  54  00:25:45 -10.50  -6.59    -4.00-226.227710             -0.0000
iter:  55  00:26:11 -12.03  -6.85    -5.06-226.227710             -0.0000
iter:  56  00:26:37 -11.06  -6.93    -4.30-226.227710             +0.0000
iter:  57  00:27:03 -11.69  -7.03    -4.64-226.227710             -0.0000
iter:  58  00:27:29 -12.76  -7.44    -5.07-226.227710             +0.0000
iter:  59  00:27:55 -12.50  -7.41    -5.23-226.227710             +0.0000
iter:  60  00:28:21 -12.76  -7.62    -5.43-226.227710             -0.0000
iter:  61  00:28:47 -13.03  -7.82    -5.30-226.227710             -0.0000
iter:  62  00:29:13 -13.10  -7.91    -5.39-226.227710             +0.0000
iter:  63  00:29:39 -14.37  -8.09    -6.20-226.227710             +0.0000

Converged after 63 iterations.

Dipole moment: (10.671448, 1.412597, -6.269770) |e|*Ang

Total magnetic moment: (0.000000, 0.000000, 0.000000)
Local magnetic moments:
   0 O  ( 0.000000,  0.000000, -0.000518)
   1 O  ( 0.000000,  0.000000,  0.000539)
   2 O  ( 0.000000,  0.000000,  0.000555)
   3 O  ( 0.000000,  0.000000, -0.000516)
   4 O  ( 0.000000,  0.000000,  0.000500)
   5 O  ( 0.000000,  0.000000, -0.000572)
   6 O  ( 0.000000,  0.000000, -0.000539)
   7 O  ( 0.000000,  0.000000,  0.000548)
   8 O  ( 0.000000,  0.000000,  0.028692)
   9 O  ( 0.000000,  0.000000, -0.028701)
  10 O  ( 0.000000,  0.000000, -0.028693)
  11 O  ( 0.000000,  0.000000,  0.028702)
  12 Mn ( 0.000000,  0.000000,  4.448162)
  13 Mn ( 0.000000,  0.000000, -4.448240)
  14 Mn ( 0.000000,  0.000000, -4.448161)
  15 Mn ( 0.000000,  0.000000,  4.448239)
  16 P  ( 0.000000,  0.000000,  0.001558)
  17 P  ( 0.000000,  0.000000, -0.001543)
  18 P  ( 0.000000,  0.000000, -0.001558)
  19 P  ( 0.000000,  0.000000,  0.001543)
  20 O  ( 0.000000,  0.000000,  0.025315)
  21 O  ( 0.000000,  0.000000, -0.025306)
  22 O  ( 0.000000,  0.000000, -0.025315)
  23 O  ( 0.000000,  0.000000,  0.025307)
  24 Li ( 0.000000,  0.000000, -0.000004)
  25 Li ( 0.000000,  0.000000,  0.000000)
  26 Li ( 0.000000,  0.000000,  0.000004)
  27 Li ( 0.000000,  0.000000, -0.000000)

Energy contributions relative to reference atoms: (reference = -196157.275402)

Kinetic:       +217.349679
Potential:     -195.235108
External:        +0.000000
XC:            -250.383419
Entropy (-ST):   -0.000000
Local:           +2.041137
--------------------------
Free energy:   -226.227710
Extrapolated:  -226.227710

Spin contamination: 9.560411 electrons
Showing only first 2 kpts
                      Up                     Down
 Kpt  Band  Eigenvalues  Occupancy  Eigenvalues  Occupancy
  0    88      5.11000    1.00000      5.10990    1.00000
  0    89      5.13438    1.00000      5.13441    1.00000
  0    90      7.28866    0.00000      7.28866    0.00000
  0    91      7.30635    0.00000      7.30635    0.00000

  1    88      5.13576    1.00000      5.13564    1.00000
  1    89      5.16486    1.00000      5.16485    1.00000
  1    90      7.23144    0.00000      7.23147    0.00000
  1    91      7.24366    0.00000      7.24364    0.00000


Fermi level: 5.63873

Gap: 1.972 eV
Transition (v -> c):
  (s=0, k=70, n=89, [-0.08, 0.42, 0.12]) -> (s=1, k=61, n=90, [-0.08, 0.08, -0.12])
Writing to born-0.01-23y+.gpw (mode='all')

Timing:                              incl.     excl.
-----------------------------------------------------------
Hamiltonian:                         0.229     0.002   0.0% |
 Atomic:                             0.065     0.065   0.0% |
  XC Correction:                     0.000     0.000   0.0% |
 Calculate atomic Hamiltonians:      0.078     0.078   0.0% |
 Communicate:                        0.000     0.000   0.0% |
 Initialize Hamiltonian:             0.000     0.000   0.0% |
 Poisson:                            0.001     0.001   0.0% |
 XC 3D grid:                         0.083     0.083   0.0% |
LCAO initialization:                65.948     0.680   0.0% |
 LCAO eigensolver:                  16.858     0.003   0.0% |
  Calculate projections:             0.029     0.029   0.0% |
  DenseAtomicCorrection:             0.046     0.046   0.0% |
  Distribute overlap matrix:         0.005     0.005   0.0% |
  Orbital Layouts:                   0.262     0.262   0.0% |
  Potential matrix:                 16.429    16.429   0.4% |
  Sum over cells:                    0.084     0.084   0.0% |
 LCAO to grid:                      47.146    47.146   1.3% ||
 Set positions (LCAO WFS):           1.264     0.180   0.0% |
  Basic WFS set positions:           0.001     0.001   0.0% |
  Basis functions set positions:     0.000     0.000   0.0% |
  P tci:                             0.507     0.507   0.0% |
  ST tci:                            0.362     0.362   0.0% |
  mktci:                             0.213     0.213   0.0% |
PWDescriptor:                        0.024     0.024   0.0% |
SCF-cycle:                        1445.984     3.265   0.1% |
 Davidson:                        1238.824   396.497  10.7% |---|
  Apply H:                          81.242    78.790   2.1% ||
   HMM T:                            2.452     2.452   0.1% |
  Subspace diag:                   177.175     0.181   0.0% |
   calc_h_matrix:                  112.284    31.419   0.8% |
    Apply H:                        80.865    78.453   2.1% ||
     HMM T:                          2.411     2.411   0.1% |
   diagonalize:                      6.269     6.269   0.2% |
   rotate_psi:                      58.442    58.442   1.6% ||
  calc. matrices:                  371.990   210.810   5.7% |-|
   Apply H:                        161.180   156.433   4.2% |-|
    HMM T:                           4.747     4.747   0.1% |
  diagonalize:                      94.609    94.609   2.6% ||
  rotate_psi:                      117.311   117.311   3.2% ||
 Density:                           47.770     0.001   0.0% |
  Atomic density matrices:           0.829     0.829   0.0% |
  Mix:                               7.818     7.818   0.2% |
  Multipole moments:                 0.023     0.023   0.0% |
  Pseudo density:                   39.099    39.097   1.1% |
   Symmetrize density:               0.002     0.002   0.0% |
 Forces:                           139.941   139.941   3.8% |-|
 Hamiltonian:                       13.918     0.130   0.0% |
  Atomic:                            3.332     3.332   0.1% |
   XC Correction:                    0.000     0.000   0.0% |
  Calculate atomic Hamiltonians:     5.152     5.152   0.1% |
  Communicate:                       0.014     0.014   0.0% |
  Poisson:                           0.048     0.048   0.0% |
  XC 3D grid:                        5.243     5.243   0.1% |
 Orthonormalize:                     2.266     0.003   0.0% |
  calc_s_matrix:                     0.266     0.266   0.0% |
  inverse-cholesky:                  0.040     0.040   0.0% |
  projections:                       1.475     1.475   0.0% |
  rotate_psi_s:                      0.481     0.481   0.0% |
Set symmetry:                        0.000     0.000   0.0% |
Other:                            2186.529  2186.529  59.1% |-----------------------|
-----------------------------------------------------------
Total:                                      3698.714 100.0%

Memory usage: 12.05 GiB
Date: Fri Apr  2 01:06:04 2021
