
  ___ ___ ___ _ _ _  
 |   |   |_  | | | | 
 | | | | | . | | | | 
 |__ |  _|___|_____|  21.1.1b1
 |___|_|             

User:   madkru@g043.nifl.fysik.dtu.dk
Date:   Wed Mar 31 06:10:07 2021
Arch:   x86_64
Pid:    39387
Python: 3.8.6
gpaw:   /home/niflheim/madkru/venv_madkru/gpaw/gpaw (e6f0d78a31)
_gpaw:  /home/niflheim/madkru/venv_madkru/gpaw/build/lib.linux-x86_64-sandybridge-3.8/
        _gpaw.cpython-38-x86_64-linux-gnu.so (e6f0d78a31)
ase:    /home/niflheim/madkru/venv_madkru/ase/ase (version 3.22.0b1-4d5a73cb29)
numpy:  /home/modules/software/SciPy-bundle/2020.11-foss-2020b/lib/python3.8/site-packages/numpy (version 1.19.4)
scipy:  /home/modules/software/SciPy-bundle/2020.11-foss-2020b/lib/python3.8/site-packages/scipy (version 1.5.4)
libxc:  4.3.4
units:  Angstrom and eV
cores: 64
OpenMP: False
OMP_NUM_THREADS: 1

Input parameters:
  convergence: {bands: occupied,
                density: 0.0001,
                eigenstates: 4e-08,
                energy: 0.0005,
                forces: 1e-06}
  kpts: [6 6 4]
  maxiter: 1000
  mode: {ecut: 600.0,
         gammacentered: False,
         name: pw}
  occupations: {fixmagmom: False,
                name: fermi-dirac,
                width: 0.001}
  symmetry: {point_group: False,
             time_reversal: False}

System changes: positions, numbers, cell, pbc, initial_charges, initial_magmoms 

Initialize ...

O-setup:
  name: Oxygen
  id: 9b9d51c344dea68c822856295a461509
  Z: 8.0
  valence: 6
  core: 2
  charge: 0.0
  file: /home/modules/software/GPAW-setups/0.9.20000/O.LDA.gz
  compensation charges: gauss, rc=0.21, lmax=2
  cutoffs: 1.17(filt), 0.83(core),
  valence states:
                energy  radius
    2s(2.00)   -23.752   0.688
    2p(4.00)    -9.195   0.598
    *s           3.459   0.688
    *p          18.016   0.598
    *d           0.000   0.619

  Using partial waves for O as LCAO basis

Mn-setup:
  name: Manganese
  id: 0d715a8018be061a6e9ea6f2d364ac92
  Z: 25.0
  valence: 15
  core: 10
  charge: 0.0
  file: /home/modules/software/GPAW-setups/0.9.20000/Mn.LDA.gz
  compensation charges: gauss, rc=0.38, lmax=2
  cutoffs: 2.14(filt), 0.86(core),
  valence states:
                energy  radius
    3s(2.00)   -85.387   1.275
    4s(2.00)    -5.282   1.275
    3p(6.00)   -54.493   1.281
    4p(0.00)    -1.471   1.281
    3d(5.00)    -7.009   1.138
    *d          20.203   1.138

  Using partial waves for Mn as LCAO basis

P-setup:
  name: Phosphorus
  id: a5561c299094968922a179ab894d2e2d
  Z: 15.0
  valence: 5
  core: 10
  charge: 0.0
  file: /home/modules/software/GPAW-setups/0.9.20000/P.LDA.gz
  compensation charges: gauss, rc=0.30, lmax=2
  cutoffs: 1.69(filt), 1.81(core),
  valence states:
                energy  radius
    3s(2.00)   -14.015   0.953
    3p(3.00)    -5.596   0.953
    *s          13.197   0.953
    *p          21.615   0.953
    *d           0.000   0.953

  Using partial waves for P as LCAO basis

Li-setup:
  name: Lithium
  id: b73562207f97a71b6967473b66fe8b65
  Z: 3.0
  valence: 1
  core: 2
  charge: 0.0
  file: /home/modules/software/GPAW-setups/0.9.20000/Li.LDA.gz
  compensation charges: gauss, rc=0.33, lmax=2
  cutoffs: 1.91(filt), 2.55(core),
  valence states:
                energy  radius
    2s(1.00)    -2.874   1.058
    2p(0.00)    -1.126   1.058
    *s          24.338   1.058

  Using partial waves for Li as LCAO basis

Reference energy: -196157.275402

Spin-polarized calculation.
Magnetic moment: 0.000000

Convergence criteria:
  Maximum total energy change: 0.0005 eV / electron
  Maximum integral of absolute density change: 0.0001 electrons
  Maximum integral of absolute eigenstate change: 4e-08 eV^2
  Maximum change in atomic force: 1e-06 eV / Ang
  Maximum number of iterations: 1000

Symmetries present (total): 1

  ( 1  0  0)
  ( 0  1  0)
  ( 0  0  1)

144 k-points: 6 x 6 x 4 Monkhorst-Pack grid
144 k-points in the irreducible part of the Brillouin zone
       k-points in crystal coordinates                weights
   0:    -0.41666667   -0.41666667   -0.37500000          1/144
   1:    -0.41666667   -0.41666667   -0.12500000          1/144
   2:    -0.41666667   -0.41666667    0.12500000          1/144
   3:    -0.41666667   -0.41666667    0.37500000          1/144
   4:    -0.41666667   -0.25000000   -0.37500000          1/144
   5:    -0.41666667   -0.25000000   -0.12500000          1/144
   6:    -0.41666667   -0.25000000    0.12500000          1/144
   7:    -0.41666667   -0.25000000    0.37500000          1/144
   8:    -0.41666667   -0.08333333   -0.37500000          1/144
   9:    -0.41666667   -0.08333333   -0.12500000          1/144
          ...
 143:     0.41666667    0.41666667    0.37500000          1/144

Wave functions: Plane wave expansion
  Cutoff energy: 600.000 eV
  Number of coefficients (min, max): 10068, 10125
  Pulay-stress correction: 0.000000 eV/Ang^3 (de/decut=0.000000)
  Using FFTW library
  ScaLapack parameters: grid=1x1, blocksize=None
  Wavefunction extrapolation:
    Improved wavefunction reuse through dual PAW basis 

  Fermi-Dirac: width=0.0010 eV

Eigensolver
   Davidson(niter=2) 

Densities:
  Coarse grid: 60*35*27 grid
  Fine grid: 120*70*54 grid
  Total Charge: 0.000000 

Density mixing:
  Method: difference
  Backend: pulay
  Linear mixing parameter: 0.05
  Mixing with 5 old densities
  Damping of long wave oscillations: 50 

Hamiltonian:
  XC and Coulomb potentials evaluated on a 120*70*54 grid
  Using the LDA Exchange-Correlation functional
 

Memory estimate:
  Process memory now: 13464.07 MiB
  Calculator: 354.82 MiB
    Density: 10.06 MiB
      Arrays: 3.79 MiB
      Localized functions: 4.71 MiB
      Mixer: 1.56 MiB
    Hamiltonian: 2.95 MiB
      Arrays: 2.82 MiB
      XC: 0.00 MiB
      Poisson: 0.00 MiB
      vbar: 0.14 MiB
    Wavefunctions: 341.80 MiB
      Arrays psit_nG: 311.46 MiB
      Eigensolver: 19.99 MiB
      Projections: 2.71 MiB
      Projectors: 4.87 MiB
      PW-descriptor: 2.77 MiB

Total number of cores used: 64
Parallelization over k-points: 16
Domain decomposition: 2 x 2 x 1

Number of atoms: 28
Number of atomic orbitals: 148
Number of bands in calculation: 112
Number of valence electrons: 180
Bands to converge: occupied

... initialized

Initializing position-dependent things.

Density initialized from atomic densities
Creating initial wave functions:
  112 bands from LCAO basis set

     .-------------------------.  
    /|         OP              |  
   / |O            O        O  |  
  /  |       O            O  P |  
 *   |O    Mn      O           |  
 |   |          OLi          O |  
 |   .P-O--------------Mn------.  
 |  /          Li    O  Mn  O /   
 | /Li O           PO        /    
 |/       Mn                /     
 *Li-----------------------*      

Positions:
   0 O     -1.360678   -2.541161   -1.202221    ( 0.0000,  0.0000,  0.0000)
   1 O     -3.121941    2.976855    1.167242    ( 0.0000,  0.0000,  0.0000)
   2 O      2.107533    0.508090    1.540712    ( 0.0000,  0.0000,  0.0000)
   3 O      3.869373   -0.072395   -0.828750    ( 0.0000,  0.0000,  0.0000)
   4 O      2.107821    2.976875    1.540792    ( 0.0000,  0.0000,  0.0000)
   5 O      3.869084   -2.541141   -0.828671    ( 0.0000,  0.0000,  0.0000)
   6 O     -1.360390   -0.072375   -1.202141    ( 0.0000,  0.0000,  0.0000)
   7 O     -3.122230    0.508109    1.167321    ( 0.0000,  0.0000,  0.0000)
   8 O     -4.413461   -1.306992   -0.794251    ( 0.0000,  0.0000,  0.0000)
   9 O     -0.069585    1.742707    1.575662    ( 0.0000,  0.0000,  0.0000)
  10 O      5.160604    1.742707    1.132822    ( 0.0000,  0.0000,  0.0000)
  11 O      0.816728   -1.306992   -1.237091    ( 0.0000,  0.0000,  0.0000)
  12 Mn    -2.570809   -1.307302    0.247161    ( 0.0000,  0.0000,  1.0000)
  13 Mn    -1.912021    1.743016   -2.122906    ( 0.0000,  0.0000, -1.0000)
  14 Mn     3.317952    1.743017    0.091411    ( 0.0000,  0.0000, -1.0000)
  15 Mn     2.659164   -1.307302    2.461478    ( 0.0000,  0.0000,  1.0000)
  16 P     -0.620664   -1.306816   -1.838465    ( 0.0000,  0.0000,  0.0000)
  17 P     -3.862097    1.742530    0.541238    ( 0.0000,  0.0000,  0.0000)
  18 P      1.367807    1.742530    2.167036    ( 0.0000,  0.0000,  0.0000)
  19 P      4.609240   -1.306816   -0.202666    ( 0.0000,  0.0000,  0.0000)
  20 O     -0.646437   -1.306845    1.374751    ( 0.0000,  0.0000,  0.0000)
  21 O     -3.836504    1.742559   -0.995565    ( 0.0000,  0.0000,  0.0000)
  22 O      1.393580    1.742559   -1.036179    ( 0.0000,  0.0000,  0.0000)
  23 O      4.583647   -1.306845    1.334136    ( 0.0000,  0.0000,  0.0000)
  24 Li    -4.856429   -2.832143   -2.200714    ( 0.0000,  0.0000,  0.0000)
  25 Li     0.373571   -2.832143    0.169286    ( 0.0000,  0.0000,  0.0000)
  26 Li    -4.856429    0.217857   -2.200714    ( 0.0000,  0.0000,  0.0000)
  27 Li     0.373571    0.217857    0.169286    ( 0.0000,  0.0000,  0.0000)

Unit cell:
           periodic     x           y           z      points  spacing
  1. axis:    yes   10.460000    0.000000    0.000000    60     0.1743
  2. axis:    yes    0.000000    6.100000    0.000000    35     0.1743
  3. axis:    yes    0.000000    0.000000    4.740000    27     0.1756

  Lengths:  10.460000   6.100000   4.740000
  Angles:   90.000000  90.000000  90.000000

Effective grid spacing dv^(1/3) = 0.1747

                     log10-error:           total        iterations:
           time      wfs    density  force  energy       poisson  magmom
iter:   1  06:11:42                       -231.925647             +0.0000
iter:   2  06:12:03  -0.55  -0.94         -231.727105             +0.0083
iter:   3  06:12:24  -0.72  -0.98         -220.587297             +0.0104
iter:   4  06:12:46  -0.96  -1.20         -218.867960             +0.0034
iter:   5  06:13:07  -1.92  -1.36         -221.124557             +0.0022
iter:   6  06:13:28  -1.94  -1.51         -220.224144             +0.0012
iter:   7  06:13:50  -2.14  -1.61         -224.214140             -0.1195
iter:   8  06:14:11  -2.54  -1.88         -223.084816             -0.2367
iter:   9  06:14:32  -2.24  -1.86         -226.825984             -0.0178
iter:  10  06:14:53  -2.46  -1.81         -228.045268             +0.0176
iter:  11  06:15:15  -1.58  -1.78         -226.935428             +0.0062
iter:  12  06:15:36  -2.02  -2.00         -226.878434             +0.0040
iter:  13  06:15:57  -1.38  -2.06         -227.416125             +0.0047
iter:  14  06:16:19  -2.14  -2.11         -226.392576             +0.0012
iter:  15  06:16:40  -2.22  -2.35         -226.306575             +0.0003
iter:  16  06:17:01  -3.35  -2.44         -226.281315             +0.0001
iter:  17  06:17:22  -3.45  -2.58         -226.259077             +0.0000
iter:  18  06:17:44  -3.00  -2.60         -226.237361             +0.0000
iter:  19  06:18:05  -3.09  -2.67         -226.239326             +0.0000
iter:  20  06:18:26  -4.12  -2.69         -226.232389             +0.0000
iter:  21  06:18:47  -3.34  -2.95         -226.236829             -0.0000
iter:  22  06:19:09  -3.64  -3.03         -226.225799             +0.0000
iter:  23  06:19:30  -5.00  -3.34         -226.225496             +0.0000
iter:  24  06:19:51  -4.19  -3.44         -226.228307             +0.0000
iter:  25  06:20:12  -4.82  -3.35         -226.225396             +0.0000
iter:  26  06:20:34  -4.73  -3.61         -226.224815             +0.0000
iter:  27  06:20:55  -5.54  -3.79         -226.224792             +0.0000
iter:  28  06:21:16  -6.32  -3.85         -226.224781             +0.0000
iter:  29  06:21:37  -5.73  -3.86         -226.224756             +0.0000
iter:  30  06:21:59  -6.54  -4.27         -226.224751             +0.0000
iter:  31  06:22:25  -7.53  -4.37         -226.224749             -0.0000
iter:  32  06:22:47  -6.45  -4.40         -226.224741             -0.0000
iter:  33  06:23:13  -7.64  -4.74    -1.95-226.224740             -0.0000
iter:  34  06:23:40  -8.19  -4.94    -2.80-226.224739             -0.0000
iter:  35  06:24:07  -8.40  -5.15    -3.05-226.224740             -0.0000
iter:  36  06:24:34  -8.69  -5.13    -3.16-226.224739             -0.0000
iter:  37  06:25:00  -9.11  -5.21    -3.51-226.224739             -0.0000
iter:  38  06:25:27  -9.12  -5.24    -3.12-226.224739             -0.0000
iter:  39  06:25:54  -8.83  -5.31    -3.10-226.224739             -0.0000
iter:  40  06:26:21  -8.69  -5.44    -3.22-226.224739             -0.0000
iter:  41  06:26:47 -10.04  -5.58    -3.79-226.224739             -0.0000
iter:  42  06:27:14  -8.76  -5.64    -3.17-226.224739             -0.0000
iter:  43  06:27:41  -9.91  -5.91    -3.75-226.224739             -0.0000
iter:  44  06:28:07  -9.94  -6.00    -3.89-226.224739             +0.0000
iter:  45  06:28:34 -10.05  -6.20    -4.01-226.224739             +0.0000
iter:  46  06:29:01 -10.85  -6.29    -4.23-226.224739             +0.0000
iter:  47  06:29:28 -10.96  -6.34    -4.37-226.224739             +0.0000
iter:  48  06:29:54 -10.75  -6.44    -4.29-226.224739             +0.0000
iter:  49  06:30:21 -12.04  -6.62    -5.10-226.224739             +0.0000
iter:  50  06:30:48 -11.14  -6.67    -4.39-226.224739             +0.0000
iter:  51  06:31:14 -12.24  -7.04    -4.82-226.224739             +0.0000
iter:  52  06:31:41 -12.53  -7.18    -5.32-226.224739             +0.0000
iter:  53  06:32:08 -12.70  -7.25    -4.80-226.224739             +0.0000
iter:  54  06:32:35 -13.39  -7.60    -5.41-226.224739             +0.0000
iter:  55  06:33:01 -12.78  -7.66    -5.18-226.224739             +0.0000
iter:  56  06:33:28 -13.89  -7.84    -5.52-226.224739             +0.0000
iter:  57  06:33:55 -14.13  -8.11    -5.98-226.224739             +0.0000
iter:  58  06:34:22 -14.52  -8.20    -5.86-226.224739             +0.0000
iter:  59  06:34:49 -14.77  -8.22    -6.23-226.224739             +0.0000

Converged after 59 iterations.

Dipole moment: (10.664163, 1.419948, -6.291950) |e|*Ang

Total magnetic moment: (0.000000, 0.000000, 0.000000)
Local magnetic moments:
   0 O  ( 0.000000,  0.000000, -0.000673)
   1 O  ( 0.000000,  0.000000,  0.000556)
   2 O  ( 0.000000,  0.000000,  0.000554)
   3 O  ( 0.000000,  0.000000, -0.000557)
   4 O  ( 0.000000,  0.000000,  0.000534)
   5 O  ( 0.000000,  0.000000, -0.000537)
   6 O  ( 0.000000,  0.000000, -0.000694)
   7 O  ( 0.000000,  0.000000,  0.000576)
   8 O  ( 0.000000,  0.000000,  0.028790)
   9 O  ( 0.000000,  0.000000, -0.028687)
  10 O  ( 0.000000,  0.000000, -0.028684)
  11 O  ( 0.000000,  0.000000,  0.028940)
  12 Mn ( 0.000000,  0.000000,  4.448196)
  13 Mn ( 0.000000,  0.000000, -4.447808)
  14 Mn ( 0.000000,  0.000000, -4.448146)
  15 Mn ( 0.000000,  0.000000,  4.447981)
  16 P  ( 0.000000,  0.000000,  0.001686)
  17 P  ( 0.000000,  0.000000, -0.001557)
  18 P  ( 0.000000,  0.000000, -0.001561)
  19 P  ( 0.000000,  0.000000,  0.001545)
  20 O  ( 0.000000,  0.000000,  0.024946)
  21 O  ( 0.000000,  0.000000, -0.025326)
  22 O  ( 0.000000,  0.000000, -0.025317)
  23 O  ( 0.000000,  0.000000,  0.025260)
  24 Li ( 0.000000,  0.000000, -0.000000)
  25 Li ( 0.000000,  0.000000, -0.000002)
  26 Li ( 0.000000,  0.000000, -0.000000)
  27 Li ( 0.000000,  0.000000, -0.000002)

Energy contributions relative to reference atoms: (reference = -196157.275402)

Kinetic:       +217.360270
Potential:     -195.256553
External:        +0.000000
XC:            -250.369728
Entropy (-ST):   -0.000000
Local:           +2.041271
--------------------------
Free energy:   -226.224739
Extrapolated:  -226.224739

Spin contamination: 9.560147 electrons
Showing only first 2 kpts
                      Up                     Down
 Kpt  Band  Eigenvalues  Occupancy  Eigenvalues  Occupancy
  0    88      5.10683    1.00000      5.11513    1.00000
  0    89      5.13651    1.00000      5.14001    1.00000
  0    90      7.29226    0.00000      7.28796    0.00000
  0    91      7.31101    0.00000      7.30802    0.00000

  1    88      5.13307    1.00000      5.14092    1.00000
  1    89      5.16669    1.00000      5.17036    1.00000
  1    90      7.23482    0.00000      7.23093    0.00000
  1    91      7.24826    0.00000      7.24563    0.00000


Fermi level: 6.45465

Gap: 1.967 eV
Transition (v -> c):
  (s=1, k=70, n=89, [-0.08, 0.42, 0.12]) -> (s=1, k=62, n=90, [-0.08, 0.08, 0.12])
Writing to born-0.01-16z-.gpw (mode='all')

Timing:                              incl.     excl.
-----------------------------------------------------------
Hamiltonian:                         0.263     0.002   0.0% |
 Atomic:                             0.073     0.073   0.0% |
  XC Correction:                     0.000     0.000   0.0% |
 Calculate atomic Hamiltonians:      0.093     0.093   0.0% |
 Communicate:                        0.002     0.002   0.0% |
 Initialize Hamiltonian:             0.000     0.000   0.0% |
 Poisson:                            0.001     0.001   0.0% |
 XC 3D grid:                         0.091     0.091   0.0% |
LCAO initialization:                69.598     0.677   0.0% |
 LCAO eigensolver:                  18.099     0.002   0.0% |
  Calculate projections:             0.029     0.029   0.0% |
  DenseAtomicCorrection:             0.043     0.043   0.0% |
  Distribute overlap matrix:         0.096     0.096   0.0% |
  Orbital Layouts:                   0.278     0.278   0.0% |
  Potential matrix:                 17.555    17.555   0.5% |
  Sum over cells:                    0.095     0.095   0.0% |
 LCAO to grid:                      49.507    49.507   1.4% ||
 Set positions (LCAO WFS):           1.315     0.208   0.0% |
  Basic WFS set positions:           0.002     0.002   0.0% |
  Basis functions set positions:     0.000     0.000   0.0% |
  P tci:                             0.516     0.516   0.0% |
  ST tci:                            0.373     0.373   0.0% |
  mktci:                             0.216     0.216   0.0% |
PWDescriptor:                        0.025     0.025   0.0% |
SCF-cycle:                        1410.248     8.139   0.2% |
 Davidson:                        1184.306   380.288  11.0% |---|
  Apply H:                          78.288    75.908   2.2% ||
   HMM T:                            2.380     2.380   0.1% |
  Subspace diag:                   169.640     0.178   0.0% |
   calc_h_matrix:                  107.990    29.670   0.9% |
    Apply H:                        78.321    75.995   2.2% ||
     HMM T:                          2.326     2.326   0.1% |
   diagonalize:                      6.035     6.035   0.2% |
   rotate_psi:                      55.436    55.436   1.6% ||
  calc. matrices:                  354.139   198.342   5.7% |-|
   Apply H:                        155.797   151.095   4.4% |-|
    HMM T:                           4.701     4.701   0.1% |
  diagonalize:                      91.370    91.370   2.6% ||
  rotate_psi:                      110.580   110.580   3.2% ||
 Density:                           47.396     0.001   0.0% |
  Atomic density matrices:           0.778     0.778   0.0% |
  Mix:                               7.978     7.978   0.2% |
  Multipole moments:                 0.022     0.022   0.0% |
  Pseudo density:                   38.617    38.616   1.1% |
   Symmetrize density:               0.002     0.002   0.0% |
 Forces:                           153.740   153.740   4.4% |-|
 Hamiltonian:                       14.355     0.127   0.0% |
  Atomic:                            3.304     3.304   0.1% |
   XC Correction:                    0.000     0.000   0.0% |
  Calculate atomic Hamiltonians:     5.442     5.442   0.2% |
  Communicate:                       0.042     0.042   0.0% |
  Poisson:                           0.054     0.054   0.0% |
  XC 3D grid:                        5.386     5.386   0.2% |
 Orthonormalize:                     2.312     0.003   0.0% |
  calc_s_matrix:                     0.267     0.267   0.0% |
  inverse-cholesky:                  0.041     0.041   0.0% |
  projections:                       1.500     1.500   0.0% |
  rotate_psi_s:                      0.501     0.501   0.0% |
Set symmetry:                        0.000     0.000   0.0% |
Other:                            1981.826  1981.826  57.2% |----------------------|
-----------------------------------------------------------
Total:                                      3461.960 100.0%

Memory usage: 13.19 GiB
Date: Wed Mar 31 07:07:49 2021
