
  ___ ___ ___ _ _ _  
 |   |   |_  | | | | 
 | | | | | . | | | | 
 |__ |  _|___|_____|  21.1.1b1
 |___|_|             

User:   madkru@g043.nifl.fysik.dtu.dk
Date:   Wed Mar 31 14:03:05 2021
Arch:   x86_64
Pid:    39387
Python: 3.8.6
gpaw:   /home/niflheim/madkru/venv_madkru/gpaw/gpaw (e6f0d78a31)
_gpaw:  /home/niflheim/madkru/venv_madkru/gpaw/build/lib.linux-x86_64-sandybridge-3.8/
        _gpaw.cpython-38-x86_64-linux-gnu.so (e6f0d78a31)
ase:    /home/niflheim/madkru/venv_madkru/ase/ase (version 3.22.0b1-4d5a73cb29)
numpy:  /home/modules/software/SciPy-bundle/2020.11-foss-2020b/lib/python3.8/site-packages/numpy (version 1.19.4)
scipy:  /home/modules/software/SciPy-bundle/2020.11-foss-2020b/lib/python3.8/site-packages/scipy (version 1.5.4)
libxc:  4.3.4
units:  Angstrom and eV
cores: 64
OpenMP: False
OMP_NUM_THREADS: 1

Input parameters:
  convergence: {bands: occupied,
                density: 0.0001,
                eigenstates: 4e-08,
                energy: 0.0005,
                forces: 1e-06}
  kpts: [6 6 4]
  maxiter: 1000
  mode: {ecut: 600.0,
         gammacentered: False,
         name: pw}
  occupations: {fixmagmom: False,
                name: fermi-dirac,
                width: 0.001}
  symmetry: {point_group: False,
             time_reversal: False}

System changes: positions, numbers, cell, pbc, initial_charges, initial_magmoms 

Initialize ...

O-setup:
  name: Oxygen
  id: 9b9d51c344dea68c822856295a461509
  Z: 8.0
  valence: 6
  core: 2
  charge: 0.0
  file: /home/modules/software/GPAW-setups/0.9.20000/O.LDA.gz
  compensation charges: gauss, rc=0.21, lmax=2
  cutoffs: 1.17(filt), 0.83(core),
  valence states:
                energy  radius
    2s(2.00)   -23.752   0.688
    2p(4.00)    -9.195   0.598
    *s           3.459   0.688
    *p          18.016   0.598
    *d           0.000   0.619

  Using partial waves for O as LCAO basis

Mn-setup:
  name: Manganese
  id: 0d715a8018be061a6e9ea6f2d364ac92
  Z: 25.0
  valence: 15
  core: 10
  charge: 0.0
  file: /home/modules/software/GPAW-setups/0.9.20000/Mn.LDA.gz
  compensation charges: gauss, rc=0.38, lmax=2
  cutoffs: 2.14(filt), 0.86(core),
  valence states:
                energy  radius
    3s(2.00)   -85.387   1.275
    4s(2.00)    -5.282   1.275
    3p(6.00)   -54.493   1.281
    4p(0.00)    -1.471   1.281
    3d(5.00)    -7.009   1.138
    *d          20.203   1.138

  Using partial waves for Mn as LCAO basis

P-setup:
  name: Phosphorus
  id: a5561c299094968922a179ab894d2e2d
  Z: 15.0
  valence: 5
  core: 10
  charge: 0.0
  file: /home/modules/software/GPAW-setups/0.9.20000/P.LDA.gz
  compensation charges: gauss, rc=0.30, lmax=2
  cutoffs: 1.69(filt), 1.81(core),
  valence states:
                energy  radius
    3s(2.00)   -14.015   0.953
    3p(3.00)    -5.596   0.953
    *s          13.197   0.953
    *p          21.615   0.953
    *d           0.000   0.953

  Using partial waves for P as LCAO basis

Li-setup:
  name: Lithium
  id: b73562207f97a71b6967473b66fe8b65
  Z: 3.0
  valence: 1
  core: 2
  charge: 0.0
  file: /home/modules/software/GPAW-setups/0.9.20000/Li.LDA.gz
  compensation charges: gauss, rc=0.33, lmax=2
  cutoffs: 1.91(filt), 2.55(core),
  valence states:
                energy  radius
    2s(1.00)    -2.874   1.058
    2p(0.00)    -1.126   1.058
    *s          24.338   1.058

  Using partial waves for Li as LCAO basis

Reference energy: -196157.275402

Spin-polarized calculation.
Magnetic moment: 0.000000

Convergence criteria:
  Maximum total energy change: 0.0005 eV / electron
  Maximum integral of absolute density change: 0.0001 electrons
  Maximum integral of absolute eigenstate change: 4e-08 eV^2
  Maximum change in atomic force: 1e-06 eV / Ang
  Maximum number of iterations: 1000

Symmetries present (total): 1

  ( 1  0  0)
  ( 0  1  0)
  ( 0  0  1)

144 k-points: 6 x 6 x 4 Monkhorst-Pack grid
144 k-points in the irreducible part of the Brillouin zone
       k-points in crystal coordinates                weights
   0:    -0.41666667   -0.41666667   -0.37500000          1/144
   1:    -0.41666667   -0.41666667   -0.12500000          1/144
   2:    -0.41666667   -0.41666667    0.12500000          1/144
   3:    -0.41666667   -0.41666667    0.37500000          1/144
   4:    -0.41666667   -0.25000000   -0.37500000          1/144
   5:    -0.41666667   -0.25000000   -0.12500000          1/144
   6:    -0.41666667   -0.25000000    0.12500000          1/144
   7:    -0.41666667   -0.25000000    0.37500000          1/144
   8:    -0.41666667   -0.08333333   -0.37500000          1/144
   9:    -0.41666667   -0.08333333   -0.12500000          1/144
          ...
 143:     0.41666667    0.41666667    0.37500000          1/144

Wave functions: Plane wave expansion
  Cutoff energy: 600.000 eV
  Number of coefficients (min, max): 10068, 10125
  Pulay-stress correction: 0.000000 eV/Ang^3 (de/decut=0.000000)
  Using FFTW library
  ScaLapack parameters: grid=1x1, blocksize=None
  Wavefunction extrapolation:
    Improved wavefunction reuse through dual PAW basis 

  Fermi-Dirac: width=0.0010 eV

Eigensolver
   Davidson(niter=2) 

Densities:
  Coarse grid: 60*35*27 grid
  Fine grid: 120*70*54 grid
  Total Charge: 0.000000 

Density mixing:
  Method: difference
  Backend: pulay
  Linear mixing parameter: 0.05
  Mixing with 5 old densities
  Damping of long wave oscillations: 50 

Hamiltonian:
  XC and Coulomb potentials evaluated on a 120*70*54 grid
  Using the LDA Exchange-Correlation functional
 

Memory estimate:
  Process memory now: 14415.33 MiB
  Calculator: 354.82 MiB
    Density: 10.06 MiB
      Arrays: 3.79 MiB
      Localized functions: 4.71 MiB
      Mixer: 1.56 MiB
    Hamiltonian: 2.95 MiB
      Arrays: 2.82 MiB
      XC: 0.00 MiB
      Poisson: 0.00 MiB
      vbar: 0.14 MiB
    Wavefunctions: 341.80 MiB
      Arrays psit_nG: 311.46 MiB
      Eigensolver: 19.99 MiB
      Projections: 2.71 MiB
      Projectors: 4.87 MiB
      PW-descriptor: 2.77 MiB

Total number of cores used: 64
Parallelization over k-points: 16
Domain decomposition: 2 x 2 x 1

Number of atoms: 28
Number of atomic orbitals: 148
Number of bands in calculation: 112
Number of valence electrons: 180
Bands to converge: occupied

... initialized

Initializing position-dependent things.

Density initialized from atomic densities
Creating initial wave functions:
  112 bands from LCAO basis set

     .-------------------------.  
    /|         OP              |  
   / |O            O        O  |  
  /  |       O            O  P |  
 *   |O    Mn      O           |  
 |   |          OLi          O |  
 |   .P-O--------------Mn------.  
 |  /          Li    O  Mn  O /   
 | /Li O           PO        /    
 |/       Mn                /     
 *Li-----------------------*      

Positions:
   0 O     -1.360678   -2.541161   -1.202221    ( 0.0000,  0.0000,  0.0000)
   1 O     -3.121941    2.976855    1.167242    ( 0.0000,  0.0000,  0.0000)
   2 O      2.107533    0.508090    1.540712    ( 0.0000,  0.0000,  0.0000)
   3 O      3.869373   -0.072395   -0.828750    ( 0.0000,  0.0000,  0.0000)
   4 O      2.107821    2.976875    1.540792    ( 0.0000,  0.0000,  0.0000)
   5 O      3.869084   -2.541141   -0.828671    ( 0.0000,  0.0000,  0.0000)
   6 O     -1.360390   -0.072375   -1.202141    ( 0.0000,  0.0000,  0.0000)
   7 O     -3.122230    0.508109    1.167321    ( 0.0000,  0.0000,  0.0000)
   8 O     -4.413461   -1.306992   -0.794251    ( 0.0000,  0.0000,  0.0000)
   9 O     -0.069585    1.742707    1.575662    ( 0.0000,  0.0000,  0.0000)
  10 O      5.160604    1.742707    1.132822    ( 0.0000,  0.0000,  0.0000)
  11 O      0.816728   -1.306992   -1.237091    ( 0.0000,  0.0000,  0.0000)
  12 Mn    -2.570809   -1.307302    0.247161    ( 0.0000,  0.0000,  1.0000)
  13 Mn    -1.912021    1.743016   -2.122906    ( 0.0000,  0.0000, -1.0000)
  14 Mn     3.317952    1.743017    0.091411    ( 0.0000,  0.0000, -1.0000)
  15 Mn     2.659164   -1.307302    2.461478    ( 0.0000,  0.0000,  1.0000)
  16 P     -0.620664   -1.306816   -1.828465    ( 0.0000,  0.0000,  0.0000)
  17 P     -3.862097    1.742530    0.541238    ( 0.0000,  0.0000,  0.0000)
  18 P      1.367807    1.742530    2.177036    ( 0.0000,  0.0000,  0.0000)
  19 P      4.609240   -1.306816   -0.202666    ( 0.0000,  0.0000,  0.0000)
  20 O     -0.646437   -1.306845    1.374751    ( 0.0000,  0.0000,  0.0000)
  21 O     -3.836504    1.742559   -0.995565    ( 0.0000,  0.0000,  0.0000)
  22 O      1.393580    1.742559   -1.036179    ( 0.0000,  0.0000,  0.0000)
  23 O      4.583647   -1.306845    1.334136    ( 0.0000,  0.0000,  0.0000)
  24 Li    -4.856429   -2.832143   -2.200714    ( 0.0000,  0.0000,  0.0000)
  25 Li     0.373571   -2.832143    0.169286    ( 0.0000,  0.0000,  0.0000)
  26 Li    -4.856429    0.217857   -2.200714    ( 0.0000,  0.0000,  0.0000)
  27 Li     0.373571    0.217857    0.169286    ( 0.0000,  0.0000,  0.0000)

Unit cell:
           periodic     x           y           z      points  spacing
  1. axis:    yes   10.460000    0.000000    0.000000    60     0.1743
  2. axis:    yes    0.000000    6.100000    0.000000    35     0.1743
  3. axis:    yes    0.000000    0.000000    4.740000    27     0.1756

  Lengths:  10.460000   6.100000   4.740000
  Angles:   90.000000  90.000000  90.000000

Effective grid spacing dv^(1/3) = 0.1747

                     log10-error:           total        iterations:
           time      wfs    density  force  energy       poisson  magmom
iter:   1  14:04:41                       -231.925637             +0.0000
iter:   2  14:05:02  -0.55  -0.94         -231.727105             +0.0021
iter:   3  14:05:24  -0.72  -0.98         -220.587186             +0.0026
iter:   4  14:05:45  -0.96  -1.20         -218.867694             +0.0009
iter:   5  14:06:06  -1.93  -1.36         -221.044122             +0.0006
iter:   6  14:06:27  -1.94  -1.52         -220.078964             +0.0003
iter:   7  14:06:49  -2.13  -1.62         -223.932011             -0.2286
iter:   8  14:07:10  -2.57  -1.88         -222.513491             -0.4091
iter:   9  14:07:31  -2.10  -1.87         -226.784069             +0.0009
iter:  10  14:07:52  -2.35  -1.82         -228.015457             +0.0303
iter:  11  14:08:14  -1.12  -1.76         -227.293295             +0.0103
iter:  12  14:08:35  -2.38  -2.04         -226.973254             +0.0078
iter:  13  14:08:56  -2.82  -2.06         -226.600921             +0.0015
iter:  14  14:09:17  -2.45  -2.16         -226.320769             +0.0001
iter:  15  14:09:39  -3.06  -2.31         -226.281255             +0.0003
iter:  16  14:10:00  -2.56  -2.35         -226.241379             -0.0001
iter:  17  14:10:21  -3.64  -2.59         -226.233019             +0.0001
iter:  18  14:10:42  -3.08  -2.62         -226.244922             +0.0001
iter:  19  14:11:04  -3.51  -2.84         -226.235459             +0.0000
iter:  20  14:11:25  -4.61  -3.13         -226.230800             +0.0000
iter:  21  14:11:46  -4.73  -3.28         -226.227520             +0.0000
iter:  22  14:12:07  -4.22  -3.37         -226.224921             +0.0000
iter:  23  14:12:28  -4.92  -3.43         -226.224801             +0.0000
iter:  24  14:12:50  -5.41  -3.53         -226.225005             +0.0000
iter:  25  14:13:11  -5.64  -3.62         -226.224859             +0.0000
iter:  26  14:13:32  -5.71  -3.77         -226.224853             -0.0000
iter:  27  14:13:53  -5.14  -3.81         -226.225009             -0.0000
iter:  28  14:14:15  -5.92  -3.80         -226.224887             -0.0000
iter:  29  14:14:36  -6.30  -3.90         -226.224810             +0.0000
iter:  30  14:14:57  -5.88  -3.97         -226.224774             +0.0000
iter:  31  14:15:18  -5.87  -4.21         -226.224751             +0.0000
iter:  32  14:15:39  -7.22  -4.51         -226.224747             +0.0000
iter:  33  14:16:01  -6.50  -4.54         -226.224745             -0.0000
iter:  34  14:16:27  -7.57  -4.65         -226.224743             -0.0000
iter:  35  14:16:54  -8.12  -4.78    -3.08-226.224741             +0.0000
iter:  36  14:17:21  -7.87  -4.83    -2.98-226.224741             -0.0000
iter:  37  14:17:48  -7.67  -4.90    -2.61-226.224741             +0.0000
iter:  38  14:18:14  -7.99  -5.14    -3.05-226.224740             -0.0000
iter:  39  14:18:41  -8.58  -5.63    -3.54-226.224740             -0.0000
iter:  40  14:19:08  -9.26  -5.67    -3.57-226.224740             -0.0000
iter:  41  14:19:34  -9.98  -5.85    -4.18-226.224740             +0.0000
iter:  42  14:20:01  -9.61  -5.91    -3.75-226.224740             +0.0000
iter:  43  14:20:28 -10.31  -5.95    -3.98-226.224740             +0.0000
iter:  44  14:20:54  -9.95  -6.00    -3.97-226.224740             +0.0000
iter:  45  14:21:21 -10.97  -6.08    -4.17-226.224740             +0.0000
iter:  46  14:21:48  -9.69  -6.15    -3.77-226.224740             +0.0000
iter:  47  14:22:14 -11.09  -6.35    -4.52-226.224740             +0.0000
iter:  48  14:22:41 -10.10  -6.39    -3.94-226.224740             -0.0000
iter:  49  14:23:08 -10.56  -6.56    -4.24-226.224740             +0.0000
iter:  50  14:23:35 -11.32  -6.80    -4.60-226.224740             +0.0000
iter:  51  14:24:01 -11.68  -6.85    -5.03-226.224740             +0.0000
iter:  52  14:24:28 -11.62  -7.01    -4.70-226.224740             +0.0000
iter:  53  14:24:55 -11.44  -7.14    -4.84-226.224740             +0.0000
iter:  54  14:25:21 -12.16  -7.22    -4.89-226.224740             +0.0000
iter:  55  14:25:48 -12.23  -7.37    -5.17-226.224740             +0.0000
iter:  56  14:26:15 -13.14  -7.50    -5.48-226.224740             +0.0000
iter:  57  14:26:41 -12.84  -7.64    -5.68-226.224740             -0.0000
iter:  58  14:27:08 -14.13  -7.89    -6.25-226.224740             -0.0000

Converged after 58 iterations.

Dipole moment: (10.655596, 1.405847, -6.250302) |e|*Ang

Total magnetic moment: (0.000000, 0.000000, -0.000000)
Local magnetic moments:
   0 O  ( 0.000000,  0.000000, -0.000535)
   1 O  ( 0.000000,  0.000000,  0.000536)
   2 O  ( 0.000000,  0.000000,  0.000693)
   3 O  ( 0.000000,  0.000000, -0.000576)
   4 O  ( 0.000000,  0.000000,  0.000673)
   5 O  ( 0.000000,  0.000000, -0.000557)
   6 O  ( 0.000000,  0.000000, -0.000555)
   7 O  ( 0.000000,  0.000000,  0.000556)
   8 O  ( 0.000000,  0.000000,  0.028684)
   9 O  ( 0.000000,  0.000000, -0.028940)
  10 O  ( 0.000000,  0.000000, -0.028790)
  11 O  ( 0.000000,  0.000000,  0.028687)
  12 Mn ( 0.000000,  0.000000,  4.448147)
  13 Mn ( 0.000000,  0.000000, -4.447980)
  14 Mn ( 0.000000,  0.000000, -4.448194)
  15 Mn ( 0.000000,  0.000000,  4.447810)
  16 P  ( 0.000000,  0.000000,  0.001561)
  17 P  ( 0.000000,  0.000000, -0.001544)
  18 P  ( 0.000000,  0.000000, -0.001686)
  19 P  ( 0.000000,  0.000000,  0.001557)
  20 O  ( 0.000000,  0.000000,  0.025317)
  21 O  ( 0.000000,  0.000000, -0.025260)
  22 O  ( 0.000000,  0.000000, -0.024946)
  23 O  ( 0.000000,  0.000000,  0.025326)
  24 Li ( 0.000000,  0.000000,  0.000000)
  25 Li ( 0.000000,  0.000000,  0.000002)
  26 Li ( 0.000000,  0.000000,  0.000000)
  27 Li ( 0.000000,  0.000000,  0.000002)

Energy contributions relative to reference atoms: (reference = -196157.275402)

Kinetic:       +217.360219
Potential:     -195.256508
External:        +0.000000
XC:            -250.369724
Entropy (-ST):   -0.000000
Local:           +2.041272
--------------------------
Free energy:   -226.224740
Extrapolated:  -226.224740

Spin contamination: 9.560150 electrons
Showing only first 2 kpts
                      Up                     Down
 Kpt  Band  Eigenvalues  Occupancy  Eigenvalues  Occupancy
  0    88      5.11512    1.00000      5.10684    1.00000
  0    89      5.14000    1.00000      5.13653    1.00000
  0    90      7.28796    0.00000      7.29226    0.00000
  0    91      7.30802    0.00000      7.31101    0.00000

  1    88      5.14091    1.00000      5.13309    1.00000
  1    89      5.17034    1.00000      5.16670    1.00000
  1    90      7.23093    0.00000      7.23482    0.00000
  1    91      7.24563    0.00000      7.24826    0.00000


Fermi level: 5.77215

Gap: 1.967 eV
Transition (v -> c):
  (s=0, k=73, n=89, [0.08, -0.42, -0.12]) -> (s=0, k=62, n=90, [-0.08, 0.08, 0.12])
Writing to born-0.01-18z+.gpw (mode='all')

Timing:                              incl.     excl.
-----------------------------------------------------------
Hamiltonian:                         0.278     0.002   0.0% |
 Atomic:                             0.092     0.092   0.0% |
  XC Correction:                     0.000     0.000   0.0% |
 Calculate atomic Hamiltonians:      0.091     0.091   0.0% |
 Communicate:                        0.001     0.001   0.0% |
 Initialize Hamiltonian:             0.000     0.000   0.0% |
 Poisson:                            0.001     0.001   0.0% |
 XC 3D grid:                         0.091     0.091   0.0% |
LCAO initialization:                69.769     0.674   0.0% |
 LCAO eigensolver:                  18.065     0.002   0.0% |
  Calculate projections:             0.029     0.029   0.0% |
  DenseAtomicCorrection:             0.043     0.043   0.0% |
  Distribute overlap matrix:         0.164     0.164   0.0% |
  Orbital Layouts:                   0.280     0.280   0.0% |
  Potential matrix:                 17.462    17.462   0.5% |
  Sum over cells:                    0.084     0.084   0.0% |
 LCAO to grid:                      49.749    49.749   1.3% ||
 Set positions (LCAO WFS):           1.281     0.181   0.0% |
  Basic WFS set positions:           0.001     0.001   0.0% |
  Basis functions set positions:     0.000     0.000   0.0% |
  P tci:                             0.517     0.517   0.0% |
  ST tci:                            0.369     0.369   0.0% |
  mktci:                             0.213     0.213   0.0% |
PWDescriptor:                        0.025     0.025   0.0% |
SCF-cycle:                        1371.823     6.950   0.2% |
 Davidson:                        1164.965   373.243  10.1% |---|
  Apply H:                          77.776    75.462   2.0% ||
   HMM T:                            2.314     2.314   0.1% |
  Subspace diag:                   167.247     0.170   0.0% |
   calc_h_matrix:                  106.523    29.210   0.8% |
    Apply H:                        77.313    75.108   2.0% ||
     HMM T:                          2.205     2.205   0.1% |
   diagonalize:                      5.931     5.931   0.2% |
   rotate_psi:                      54.623    54.623   1.5% ||
  calc. matrices:                  348.141   194.674   5.3% |-|
   Apply H:                        153.467   149.014   4.0% |-|
    HMM T:                           4.453     4.453   0.1% |
  diagonalize:                      89.740    89.740   2.4% ||
  rotate_psi:                      108.818   108.818   2.9% ||
 Density:                           46.497     0.001   0.0% |
  Atomic density matrices:           0.772     0.772   0.0% |
  Mix:                               7.835     7.835   0.2% |
  Multipole moments:                 0.021     0.021   0.0% |
  Pseudo density:                   37.868    37.866   1.0% |
   Symmetrize density:               0.002     0.002   0.0% |
 Forces:                           136.974   136.974   3.7% ||
 Hamiltonian:                       14.148     0.125   0.0% |
  Atomic:                            3.307     3.307   0.1% |
   XC Correction:                    0.000     0.000   0.0% |
  Calculate atomic Hamiltonians:     5.338     5.338   0.1% |
  Communicate:                       0.026     0.026   0.0% |
  Poisson:                           0.053     0.053   0.0% |
  XC 3D grid:                        5.300     5.300   0.1% |
 Orthonormalize:                     2.287     0.003   0.0% |
  calc_s_matrix:                     0.265     0.265   0.0% |
  inverse-cholesky:                  0.039     0.039   0.0% |
  projections:                       1.498     1.498   0.0% |
  rotate_psi_s:                      0.482     0.482   0.0% |
Set symmetry:                        0.000     0.000   0.0% |
Other:                            2251.741  2251.741  61.0% |-----------------------|
-----------------------------------------------------------
Total:                                      3693.635 100.0%

Memory usage: 14.08 GiB
Date: Wed Mar 31 15:04:39 2021
