
  ___ ___ ___ _ _ _  
 |   |   |_  | | | | 
 | | | | | . | | | | 
 |__ |  _|___|_____|  21.1.1b1
 |___|_|             

User:   madkru@g043.nifl.fysik.dtu.dk
Date:   Wed Mar 31 21:14:32 2021
Arch:   x86_64
Pid:    39387
Python: 3.8.6
gpaw:   /home/niflheim/madkru/venv_madkru/gpaw/gpaw (e6f0d78a31)
_gpaw:  /home/niflheim/madkru/venv_madkru/gpaw/build/lib.linux-x86_64-sandybridge-3.8/
        _gpaw.cpython-38-x86_64-linux-gnu.so (e6f0d78a31)
ase:    /home/niflheim/madkru/venv_madkru/ase/ase (version 3.22.0b1-4d5a73cb29)
numpy:  /home/modules/software/SciPy-bundle/2020.11-foss-2020b/lib/python3.8/site-packages/numpy (version 1.19.4)
scipy:  /home/modules/software/SciPy-bundle/2020.11-foss-2020b/lib/python3.8/site-packages/scipy (version 1.5.4)
libxc:  4.3.4
units:  Angstrom and eV
cores: 64
OpenMP: False
OMP_NUM_THREADS: 1

Input parameters:
  convergence: {bands: occupied,
                density: 0.0001,
                eigenstates: 4e-08,
                energy: 0.0005,
                forces: 1e-06}
  kpts: [6 6 4]
  maxiter: 1000
  mode: {ecut: 600.0,
         gammacentered: False,
         name: pw}
  occupations: {fixmagmom: False,
                name: fermi-dirac,
                width: 0.001}
  symmetry: {point_group: False,
             time_reversal: False}

System changes: positions, numbers, cell, pbc, initial_charges, initial_magmoms 

Initialize ...

O-setup:
  name: Oxygen
  id: 9b9d51c344dea68c822856295a461509
  Z: 8.0
  valence: 6
  core: 2
  charge: 0.0
  file: /home/modules/software/GPAW-setups/0.9.20000/O.LDA.gz
  compensation charges: gauss, rc=0.21, lmax=2
  cutoffs: 1.17(filt), 0.83(core),
  valence states:
                energy  radius
    2s(2.00)   -23.752   0.688
    2p(4.00)    -9.195   0.598
    *s           3.459   0.688
    *p          18.016   0.598
    *d           0.000   0.619

  Using partial waves for O as LCAO basis

Mn-setup:
  name: Manganese
  id: 0d715a8018be061a6e9ea6f2d364ac92
  Z: 25.0
  valence: 15
  core: 10
  charge: 0.0
  file: /home/modules/software/GPAW-setups/0.9.20000/Mn.LDA.gz
  compensation charges: gauss, rc=0.38, lmax=2
  cutoffs: 2.14(filt), 0.86(core),
  valence states:
                energy  radius
    3s(2.00)   -85.387   1.275
    4s(2.00)    -5.282   1.275
    3p(6.00)   -54.493   1.281
    4p(0.00)    -1.471   1.281
    3d(5.00)    -7.009   1.138
    *d          20.203   1.138

  Using partial waves for Mn as LCAO basis

P-setup:
  name: Phosphorus
  id: a5561c299094968922a179ab894d2e2d
  Z: 15.0
  valence: 5
  core: 10
  charge: 0.0
  file: /home/modules/software/GPAW-setups/0.9.20000/P.LDA.gz
  compensation charges: gauss, rc=0.30, lmax=2
  cutoffs: 1.69(filt), 1.81(core),
  valence states:
                energy  radius
    3s(2.00)   -14.015   0.953
    3p(3.00)    -5.596   0.953
    *s          13.197   0.953
    *p          21.615   0.953
    *d           0.000   0.953

  Using partial waves for P as LCAO basis

Li-setup:
  name: Lithium
  id: b73562207f97a71b6967473b66fe8b65
  Z: 3.0
  valence: 1
  core: 2
  charge: 0.0
  file: /home/modules/software/GPAW-setups/0.9.20000/Li.LDA.gz
  compensation charges: gauss, rc=0.33, lmax=2
  cutoffs: 1.91(filt), 2.55(core),
  valence states:
                energy  radius
    2s(1.00)    -2.874   1.058
    2p(0.00)    -1.126   1.058
    *s          24.338   1.058

  Using partial waves for Li as LCAO basis

Reference energy: -196157.275402

Spin-polarized calculation.
Magnetic moment: 0.000000

Convergence criteria:
  Maximum total energy change: 0.0005 eV / electron
  Maximum integral of absolute density change: 0.0001 electrons
  Maximum integral of absolute eigenstate change: 4e-08 eV^2
  Maximum change in atomic force: 1e-06 eV / Ang
  Maximum number of iterations: 1000

Symmetries present (total): 1

  ( 1  0  0)
  ( 0  1  0)
  ( 0  0  1)

144 k-points: 6 x 6 x 4 Monkhorst-Pack grid
144 k-points in the irreducible part of the Brillouin zone
       k-points in crystal coordinates                weights
   0:    -0.41666667   -0.41666667   -0.37500000          1/144
   1:    -0.41666667   -0.41666667   -0.12500000          1/144
   2:    -0.41666667   -0.41666667    0.12500000          1/144
   3:    -0.41666667   -0.41666667    0.37500000          1/144
   4:    -0.41666667   -0.25000000   -0.37500000          1/144
   5:    -0.41666667   -0.25000000   -0.12500000          1/144
   6:    -0.41666667   -0.25000000    0.12500000          1/144
   7:    -0.41666667   -0.25000000    0.37500000          1/144
   8:    -0.41666667   -0.08333333   -0.37500000          1/144
   9:    -0.41666667   -0.08333333   -0.12500000          1/144
          ...
 143:     0.41666667    0.41666667    0.37500000          1/144

Wave functions: Plane wave expansion
  Cutoff energy: 600.000 eV
  Number of coefficients (min, max): 10068, 10125
  Pulay-stress correction: 0.000000 eV/Ang^3 (de/decut=0.000000)
  Using FFTW library
  ScaLapack parameters: grid=1x1, blocksize=None
  Wavefunction extrapolation:
    Improved wavefunction reuse through dual PAW basis 

  Fermi-Dirac: width=0.0010 eV

Eigensolver
   Davidson(niter=2) 

Densities:
  Coarse grid: 60*35*27 grid
  Fine grid: 120*70*54 grid
  Total Charge: 0.000000 

Density mixing:
  Method: difference
  Backend: pulay
  Linear mixing parameter: 0.05
  Mixing with 5 old densities
  Damping of long wave oscillations: 50 

Hamiltonian:
  XC and Coulomb potentials evaluated on a 120*70*54 grid
  Using the LDA Exchange-Correlation functional
 

Memory estimate:
  Process memory now: 14415.33 MiB
  Calculator: 354.82 MiB
    Density: 10.06 MiB
      Arrays: 3.79 MiB
      Localized functions: 4.71 MiB
      Mixer: 1.56 MiB
    Hamiltonian: 2.95 MiB
      Arrays: 2.82 MiB
      XC: 0.00 MiB
      Poisson: 0.00 MiB
      vbar: 0.14 MiB
    Wavefunctions: 341.80 MiB
      Arrays psit_nG: 311.46 MiB
      Eigensolver: 19.99 MiB
      Projections: 2.71 MiB
      Projectors: 4.87 MiB
      PW-descriptor: 2.77 MiB

Total number of cores used: 64
Parallelization over k-points: 16
Domain decomposition: 2 x 2 x 1

Number of atoms: 28
Number of atomic orbitals: 148
Number of bands in calculation: 112
Number of valence electrons: 180
Bands to converge: occupied

... initialized

Initializing position-dependent things.

Density initialized from atomic densities
Creating initial wave functions:
  112 bands from LCAO basis set

     .-------------------------.  
    /|         OP              |  
   / |O            O        O  |  
  /  |       O            O  P |  
 *   |O    Mn      O           |  
 |   |          OLi          O |  
 |   .P-O--------------Mn------.  
 |  /          Li    O  Mn  O /   
 | /Li O           PO        /    
 |/       Mn                /     
 *Li-----------------------*      

Positions:
   0 O     -1.360678   -2.541161   -1.202221    ( 0.0000,  0.0000,  0.0000)
   1 O     -3.121941    2.976855    1.167242    ( 0.0000,  0.0000,  0.0000)
   2 O      2.107533    0.508090    1.540712    ( 0.0000,  0.0000,  0.0000)
   3 O      3.869373   -0.072395   -0.828750    ( 0.0000,  0.0000,  0.0000)
   4 O      2.107821    2.976875    1.540792    ( 0.0000,  0.0000,  0.0000)
   5 O      3.869084   -2.541141   -0.828671    ( 0.0000,  0.0000,  0.0000)
   6 O     -1.360390   -0.072375   -1.202141    ( 0.0000,  0.0000,  0.0000)
   7 O     -3.122230    0.508109    1.167321    ( 0.0000,  0.0000,  0.0000)
   8 O     -4.413461   -1.306992   -0.794251    ( 0.0000,  0.0000,  0.0000)
   9 O     -0.069585    1.742707    1.575662    ( 0.0000,  0.0000,  0.0000)
  10 O      5.160604    1.742707    1.132822    ( 0.0000,  0.0000,  0.0000)
  11 O      0.816728   -1.306992   -1.237091    ( 0.0000,  0.0000,  0.0000)
  12 Mn    -2.570809   -1.307302    0.247161    ( 0.0000,  0.0000,  1.0000)
  13 Mn    -1.912021    1.743016   -2.122906    ( 0.0000,  0.0000, -1.0000)
  14 Mn     3.317952    1.743017    0.091411    ( 0.0000,  0.0000, -1.0000)
  15 Mn     2.659164   -1.307302    2.461478    ( 0.0000,  0.0000,  1.0000)
  16 P     -0.620664   -1.306816   -1.828465    ( 0.0000,  0.0000,  0.0000)
  17 P     -3.862097    1.742530    0.541238    ( 0.0000,  0.0000,  0.0000)
  18 P      1.367807    1.742530    2.167036    ( 0.0000,  0.0000,  0.0000)
  19 P      4.609240   -1.306816   -0.202666    ( 0.0000,  0.0000,  0.0000)
  20 O     -0.646437   -1.306845    1.384751    ( 0.0000,  0.0000,  0.0000)
  21 O     -3.836504    1.742559   -0.995565    ( 0.0000,  0.0000,  0.0000)
  22 O      1.393580    1.742559   -1.036179    ( 0.0000,  0.0000,  0.0000)
  23 O      4.583647   -1.306845    1.334136    ( 0.0000,  0.0000,  0.0000)
  24 Li    -4.856429   -2.832143   -2.200714    ( 0.0000,  0.0000,  0.0000)
  25 Li     0.373571   -2.832143    0.169286    ( 0.0000,  0.0000,  0.0000)
  26 Li    -4.856429    0.217857   -2.200714    ( 0.0000,  0.0000,  0.0000)
  27 Li     0.373571    0.217857    0.169286    ( 0.0000,  0.0000,  0.0000)

Unit cell:
           periodic     x           y           z      points  spacing
  1. axis:    yes   10.460000    0.000000    0.000000    60     0.1743
  2. axis:    yes    0.000000    6.100000    0.000000    35     0.1743
  3. axis:    yes    0.000000    0.000000    4.740000    27     0.1756

  Lengths:  10.460000   6.100000   4.740000
  Angles:   90.000000  90.000000  90.000000

Effective grid spacing dv^(1/3) = 0.1747

                     log10-error:           total        iterations:
           time      wfs    density  force  energy       poisson  magmom
iter:   1  21:16:07                       -231.913438             +0.0000
iter:   2  21:16:28  -0.55  -0.94         -231.737107             +0.0047
iter:   3  21:16:49  -0.72  -0.98         -220.573069             +0.0059
iter:   4  21:17:11  -0.96  -1.20         -218.845598             +0.0020
iter:   5  21:17:32  -1.94  -1.36         -220.704911             +0.0013
iter:   6  21:17:53  -1.84  -1.54         -219.316363             +0.0007
iter:   7  21:18:15  -2.20  -1.63         -219.386081             -0.5071
iter:   8  21:18:36  -2.56  -1.91         -219.866447             -0.4281
iter:   9  21:18:57  -2.26  -1.85         -223.333552             -0.8596
iter:  10  21:19:18  -2.43  -1.92         -226.216937             -0.2290
iter:  11  21:19:40  -2.49  -1.89         -227.258943             +0.1134
iter:  12  21:20:01  -3.27  -1.86         -227.368385             +0.0271
iter:  13  21:20:22  -3.04  -1.88         -227.264543             +0.0041
iter:  14  21:20:43  -1.58  -1.90         -228.242750             +0.0070
iter:  15  21:21:05  -2.96  -1.90         -227.683157             +0.0265
iter:  16  21:21:26  -2.94  -1.99         -226.979706             +0.9392
iter:  17  21:21:47  -2.45  -2.01         -226.750415             +0.2646
iter:  18  21:22:08  -2.16  -2.07         -226.534744             +0.0587
iter:  19  21:22:29  -2.34  -2.08         -226.633794             +0.0739
iter:  20  21:22:51  -2.44  -2.10         -226.281515             +0.0118
iter:  21  21:23:12  -2.73  -2.25         -226.278828             +0.0002
iter:  22  21:23:33  -3.82  -2.53         -226.263421             -0.0017
iter:  23  21:23:54  -2.94  -2.57         -226.234335             -0.0005
iter:  24  21:24:15  -3.68  -2.75         -226.237972             -0.0006
iter:  25  21:24:37  -3.85  -2.82         -226.241976             -0.0002
iter:  26  21:24:58  -4.64  -2.93         -226.239773             -0.0001
iter:  27  21:25:19  -3.40  -3.00         -226.227732             +0.0000
iter:  28  21:25:40  -4.56  -3.43         -226.227223             -0.0000
iter:  29  21:26:01  -5.38  -3.50         -226.226752             -0.0000
iter:  30  21:26:23  -5.02  -3.55         -226.226275             -0.0000
iter:  31  21:26:44  -5.97  -3.68         -226.226150             -0.0000
iter:  32  21:27:05  -5.59  -3.76         -226.225967             -0.0000
iter:  33  21:27:26  -5.41  -3.93         -226.225934             -0.0000
iter:  34  21:27:48  -6.27  -4.08         -226.225932             -0.0000
iter:  35  21:28:09  -6.34  -4.13         -226.225901             -0.0000
iter:  36  21:28:30  -7.15  -4.21         -226.225901             -0.0000
iter:  37  21:28:57  -7.47  -4.28         -226.225895             +0.0000
iter:  38  21:29:18  -7.30  -4.35         -226.225890             +0.0000
iter:  39  21:29:39  -6.95  -4.41         -226.225891             +0.0000
iter:  40  21:30:06  -7.86  -4.74    -2.14-226.225889             +0.0000
iter:  41  21:30:33  -7.59  -4.78    -2.60-226.225888             -0.0000
iter:  42  21:30:59  -8.47  -4.94    -2.74-226.225888             -0.0000
iter:  43  21:31:26  -7.71  -5.10    -2.65-226.225887             -0.0000
iter:  44  21:31:53  -8.42  -5.30    -2.98-226.225887             -0.0000
iter:  45  21:32:19  -8.97  -5.49    -3.36-226.225887             -0.0000
iter:  46  21:32:46  -9.37  -5.61    -3.35-226.225887             -0.0000
iter:  47  21:33:13  -9.72  -5.71    -3.92-226.225887             +0.0000
iter:  48  21:33:39 -10.38  -5.77    -3.74-226.225887             +0.0000
iter:  49  21:34:06 -10.57  -5.83    -4.03-226.225887             +0.0000
iter:  50  21:34:33 -10.67  -5.91    -4.11-226.225887             +0.0000
iter:  51  21:35:00  -9.85  -5.97    -3.86-226.225887             +0.0000
iter:  52  21:35:27 -10.43  -6.37    -4.08-226.225887             +0.0000
iter:  53  21:35:53 -11.62  -6.54    -5.04-226.225887             +0.0000
iter:  54  21:36:20 -10.55  -6.58    -4.23-226.225887             -0.0000
iter:  55  21:36:47 -11.68  -6.77    -5.17-226.225887             +0.0000
iter:  56  21:37:14 -12.04  -6.78    -5.22-226.225887             +0.0000
iter:  57  21:37:40 -11.47  -6.76    -4.55-226.225887             -0.0000
iter:  58  21:38:07 -12.35  -6.96    -5.13-226.225887             -0.0000
iter:  59  21:38:34 -12.17  -7.01    -4.60-226.225887             -0.0000
iter:  60  21:39:00 -12.21  -7.24    -4.78-226.225887             -0.0000
iter:  61  21:39:27 -13.15  -7.54    -5.51-226.225887             -0.0000
iter:  62  21:39:54 -13.79  -7.65    -5.68-226.225887             -0.0000
iter:  63  21:40:21 -13.85  -7.72    -5.60-226.225887             -0.0000
iter:  64  21:40:47 -14.10  -7.81    -5.25-226.225887             -0.0000
iter:  65  21:41:14 -14.41  -8.02    -6.08-226.225887             -0.0000

Converged after 65 iterations.

Dipole moment: (10.661605, 1.413138, -6.278101) |e|*Ang

Total magnetic moment: (0.000000, 0.000000, -0.000000)
Local magnetic moments:
   0 O  ( 0.000000,  0.000000, -0.000445)
   1 O  ( 0.000000,  0.000000,  0.000517)
   2 O  ( 0.000000,  0.000000,  0.000527)
   3 O  ( 0.000000,  0.000000, -0.000556)
   4 O  ( 0.000000,  0.000000,  0.000507)
   5 O  ( 0.000000,  0.000000, -0.000536)
   6 O  ( 0.000000,  0.000000, -0.000465)
   7 O  ( 0.000000,  0.000000,  0.000537)
   8 O  ( 0.000000,  0.000000,  0.028828)
   9 O  ( 0.000000,  0.000000, -0.028707)
  10 O  ( 0.000000,  0.000000, -0.028686)
  11 O  ( 0.000000,  0.000000,  0.028689)
  12 Mn ( 0.000000,  0.000000,  4.448515)
  13 Mn ( 0.000000,  0.000000, -4.448185)
  14 Mn ( 0.000000,  0.000000, -4.448176)
  15 Mn ( 0.000000,  0.000000,  4.448201)
  16 P  ( 0.000000,  0.000000,  0.001475)
  17 P  ( 0.000000,  0.000000, -0.001568)
  18 P  ( 0.000000,  0.000000, -0.001557)
  19 P  ( 0.000000,  0.000000,  0.001545)
  20 O  ( 0.000000,  0.000000,  0.025092)
  21 O  ( 0.000000,  0.000000, -0.025299)
  22 O  ( 0.000000,  0.000000, -0.025317)
  23 O  ( 0.000000,  0.000000,  0.025292)
  24 Li ( 0.000000,  0.000000, -0.000000)
  25 Li ( 0.000000,  0.000000, -0.000011)
  26 Li ( 0.000000,  0.000000, -0.000000)
  27 Li ( 0.000000,  0.000000, -0.000011)

Energy contributions relative to reference atoms: (reference = -196157.275402)

Kinetic:       +218.095508
Potential:     -195.821332
External:        +0.000000
XC:            -250.539219
Entropy (-ST):   -0.000000
Local:           +2.039157
--------------------------
Free energy:   -226.225887
Extrapolated:  -226.225887

Spin contamination: 9.560241 electrons
Showing only first 2 kpts
                      Up                     Down
 Kpt  Band  Eigenvalues  Occupancy  Eigenvalues  Occupancy
  0    88      5.10180    1.00000      5.11029    1.00000
  0    89      5.12983    1.00000      5.13464    1.00000
  0    90      7.28892    0.00000      7.28686    0.00000
  0    91      7.30700    0.00000      7.30531    0.00000

  1    88      5.12781    1.00000      5.13604    1.00000
  1    89      5.15966    1.00000      5.16512    1.00000
  1    90      7.23162    0.00000      7.22963    0.00000
  1    91      7.24431    0.00000      7.24264    0.00000


Fermi level: 6.13172

Gap: 1.971 eV
Transition (v -> c):
  (s=1, k=70, n=89, [-0.08, 0.42, 0.12]) -> (s=1, k=58, n=90, [-0.08, -0.08, 0.12])
Writing to born-0.01-20z+.gpw (mode='all')

Timing:                              incl.     excl.
-----------------------------------------------------------
Hamiltonian:                         0.263     0.003   0.0% |
 Atomic:                             0.079     0.079   0.0% |
  XC Correction:                     0.000     0.000   0.0% |
 Calculate atomic Hamiltonians:      0.090     0.090   0.0% |
 Communicate:                        0.000     0.000   0.0% |
 Initialize Hamiltonian:             0.000     0.000   0.0% |
 Poisson:                            0.001     0.001   0.0% |
 XC 3D grid:                         0.090     0.090   0.0% |
LCAO initialization:                70.457     0.676   0.0% |
 LCAO eigensolver:                  17.949     0.002   0.0% |
  Calculate projections:             0.029     0.029   0.0% |
  DenseAtomicCorrection:             0.043     0.043   0.0% |
  Distribute overlap matrix:         0.078     0.078   0.0% |
  Orbital Layouts:                   0.278     0.278   0.0% |
  Potential matrix:                 17.433    17.433   0.5% |
  Sum over cells:                    0.085     0.085   0.0% |
 LCAO to grid:                      50.556    50.556   1.4% ||
 Set positions (LCAO WFS):           1.277     0.179   0.0% |
  Basic WFS set positions:           0.001     0.001   0.0% |
  Basis functions set positions:     0.000     0.000   0.0% |
  P tci:                             0.515     0.515   0.0% |
  ST tci:                            0.369     0.369   0.0% |
  mktci:                             0.213     0.213   0.0% |
PWDescriptor:                        0.026     0.026   0.0% |
SCF-cycle:                        1530.399     4.737   0.1% |
 Davidson:                        1307.159   418.047  11.3% |----|
  Apply H:                          87.777    85.179   2.3% ||
   HMM T:                            2.598     2.598   0.1% |
  Subspace diag:                   187.732     0.190   0.0% |
   calc_h_matrix:                  119.686    32.703   0.9% |
    Apply H:                        86.984    84.519   2.3% ||
     HMM T:                          2.465     2.465   0.1% |
   diagonalize:                      6.648     6.648   0.2% |
   rotate_psi:                      61.208    61.208   1.7% ||
  calc. matrices:                  390.584   218.032   5.9% |-|
   Apply H:                        172.552   167.554   4.5% |-|
    HMM T:                           4.998     4.998   0.1% |
  diagonalize:                     100.863   100.863   2.7% ||
  rotate_psi:                      122.156   122.156   3.3% ||
 Density:                           52.180     0.002   0.0% |
  Atomic density matrices:           0.869     0.869   0.0% |
  Mix:                               8.848     8.848   0.2% |
  Multipole moments:                 0.023     0.023   0.0% |
  Pseudo density:                   42.438    42.436   1.2% |
   Symmetrize density:               0.002     0.002   0.0% |
 Forces:                           148.091   148.091   4.0% |-|
 Hamiltonian:                       15.914     0.139   0.0% |
  Atomic:                            3.766     3.766   0.1% |
   XC Correction:                    0.000     0.000   0.0% |
  Calculate atomic Hamiltonians:     5.999     5.999   0.2% |
  Communicate:                       0.026     0.026   0.0% |
  Poisson:                           0.058     0.058   0.0% |
  XC 3D grid:                        5.927     5.927   0.2% |
 Orthonormalize:                     2.318     0.004   0.0% |
  calc_s_matrix:                     0.267     0.267   0.0% |
  inverse-cholesky:                  0.041     0.041   0.0% |
  projections:                       1.517     1.517   0.0% |
  rotate_psi_s:                      0.490     0.490   0.0% |
Set symmetry:                        0.000     0.000   0.0% |
Other:                            2085.308  2085.308  56.6% |----------------------|
-----------------------------------------------------------
Total:                                      3686.453 100.0%

Memory usage: 14.08 GiB
Date: Wed Mar 31 22:15:58 2021
