
  ___ ___ ___ _ _ _  
 |   |   |_  | | | | 
 | | | | | . | | | | 
 |__ |  _|___|_____|  21.1.1b1
 |___|_|             

User:   madkru@g043.nifl.fysik.dtu.dk
Date:   Tue Mar 30 07:33:57 2021
Arch:   x86_64
Pid:    39387
Python: 3.8.6
gpaw:   /home/niflheim/madkru/venv_madkru/gpaw/gpaw (e6f0d78a31)
_gpaw:  /home/niflheim/madkru/venv_madkru/gpaw/build/lib.linux-x86_64-sandybridge-3.8/
        _gpaw.cpython-38-x86_64-linux-gnu.so (e6f0d78a31)
ase:    /home/niflheim/madkru/venv_madkru/ase/ase (version 3.22.0b1-4d5a73cb29)
numpy:  /home/modules/software/SciPy-bundle/2020.11-foss-2020b/lib/python3.8/site-packages/numpy (version 1.19.4)
scipy:  /home/modules/software/SciPy-bundle/2020.11-foss-2020b/lib/python3.8/site-packages/scipy (version 1.5.4)
libxc:  4.3.4
units:  Angstrom and eV
cores: 64
OpenMP: False
OMP_NUM_THREADS: 1

Input parameters:
  convergence: {bands: occupied,
                density: 0.0001,
                eigenstates: 4e-08,
                energy: 0.0005,
                forces: 1e-06}
  kpts: [6 6 4]
  maxiter: 1000
  mode: {ecut: 600.0,
         gammacentered: False,
         name: pw}
  occupations: {fixmagmom: False,
                name: fermi-dirac,
                width: 0.001}
  symmetry: {point_group: False,
             time_reversal: False}

System changes: positions, numbers, cell, pbc, initial_charges, initial_magmoms 

Initialize ...

O-setup:
  name: Oxygen
  id: 9b9d51c344dea68c822856295a461509
  Z: 8.0
  valence: 6
  core: 2
  charge: 0.0
  file: /home/modules/software/GPAW-setups/0.9.20000/O.LDA.gz
  compensation charges: gauss, rc=0.21, lmax=2
  cutoffs: 1.17(filt), 0.83(core),
  valence states:
                energy  radius
    2s(2.00)   -23.752   0.688
    2p(4.00)    -9.195   0.598
    *s           3.459   0.688
    *p          18.016   0.598
    *d           0.000   0.619

  Using partial waves for O as LCAO basis

Mn-setup:
  name: Manganese
  id: 0d715a8018be061a6e9ea6f2d364ac92
  Z: 25.0
  valence: 15
  core: 10
  charge: 0.0
  file: /home/modules/software/GPAW-setups/0.9.20000/Mn.LDA.gz
  compensation charges: gauss, rc=0.38, lmax=2
  cutoffs: 2.14(filt), 0.86(core),
  valence states:
                energy  radius
    3s(2.00)   -85.387   1.275
    4s(2.00)    -5.282   1.275
    3p(6.00)   -54.493   1.281
    4p(0.00)    -1.471   1.281
    3d(5.00)    -7.009   1.138
    *d          20.203   1.138

  Using partial waves for Mn as LCAO basis

P-setup:
  name: Phosphorus
  id: a5561c299094968922a179ab894d2e2d
  Z: 15.0
  valence: 5
  core: 10
  charge: 0.0
  file: /home/modules/software/GPAW-setups/0.9.20000/P.LDA.gz
  compensation charges: gauss, rc=0.30, lmax=2
  cutoffs: 1.69(filt), 1.81(core),
  valence states:
                energy  radius
    3s(2.00)   -14.015   0.953
    3p(3.00)    -5.596   0.953
    *s          13.197   0.953
    *p          21.615   0.953
    *d           0.000   0.953

  Using partial waves for P as LCAO basis

Li-setup:
  name: Lithium
  id: b73562207f97a71b6967473b66fe8b65
  Z: 3.0
  valence: 1
  core: 2
  charge: 0.0
  file: /home/modules/software/GPAW-setups/0.9.20000/Li.LDA.gz
  compensation charges: gauss, rc=0.33, lmax=2
  cutoffs: 1.91(filt), 2.55(core),
  valence states:
                energy  radius
    2s(1.00)    -2.874   1.058
    2p(0.00)    -1.126   1.058
    *s          24.338   1.058

  Using partial waves for Li as LCAO basis

Reference energy: -196157.275402

Spin-polarized calculation.
Magnetic moment: 0.000000

Convergence criteria:
  Maximum total energy change: 0.0005 eV / electron
  Maximum integral of absolute density change: 0.0001 electrons
  Maximum integral of absolute eigenstate change: 4e-08 eV^2
  Maximum change in atomic force: 1e-06 eV / Ang
  Maximum number of iterations: 1000

Symmetries present (total): 1

  ( 1  0  0)
  ( 0  1  0)
  ( 0  0  1)

144 k-points: 6 x 6 x 4 Monkhorst-Pack grid
144 k-points in the irreducible part of the Brillouin zone
       k-points in crystal coordinates                weights
   0:    -0.41666667   -0.41666667   -0.37500000          1/144
   1:    -0.41666667   -0.41666667   -0.12500000          1/144
   2:    -0.41666667   -0.41666667    0.12500000          1/144
   3:    -0.41666667   -0.41666667    0.37500000          1/144
   4:    -0.41666667   -0.25000000   -0.37500000          1/144
   5:    -0.41666667   -0.25000000   -0.12500000          1/144
   6:    -0.41666667   -0.25000000    0.12500000          1/144
   7:    -0.41666667   -0.25000000    0.37500000          1/144
   8:    -0.41666667   -0.08333333   -0.37500000          1/144
   9:    -0.41666667   -0.08333333   -0.12500000          1/144
          ...
 143:     0.41666667    0.41666667    0.37500000          1/144

Wave functions: Plane wave expansion
  Cutoff energy: 600.000 eV
  Number of coefficients (min, max): 10068, 10125
  Pulay-stress correction: 0.000000 eV/Ang^3 (de/decut=0.000000)
  Using FFTW library
  ScaLapack parameters: grid=1x1, blocksize=None
  Wavefunction extrapolation:
    Improved wavefunction reuse through dual PAW basis 

  Fermi-Dirac: width=0.0010 eV

Eigensolver
   Davidson(niter=2) 

Densities:
  Coarse grid: 60*35*27 grid
  Fine grid: 120*70*54 grid
  Total Charge: 0.000000 

Density mixing:
  Method: difference
  Backend: pulay
  Linear mixing parameter: 0.05
  Mixing with 5 old densities
  Damping of long wave oscillations: 50 

Hamiltonian:
  XC and Coulomb potentials evaluated on a 120*70*54 grid
  Using the LDA Exchange-Correlation functional
 

Memory estimate:
  Process memory now: 12408.09 MiB
  Calculator: 354.82 MiB
    Density: 10.06 MiB
      Arrays: 3.79 MiB
      Localized functions: 4.71 MiB
      Mixer: 1.56 MiB
    Hamiltonian: 2.95 MiB
      Arrays: 2.82 MiB
      XC: 0.00 MiB
      Poisson: 0.00 MiB
      vbar: 0.14 MiB
    Wavefunctions: 341.80 MiB
      Arrays psit_nG: 311.46 MiB
      Eigensolver: 19.99 MiB
      Projections: 2.71 MiB
      Projectors: 4.87 MiB
      PW-descriptor: 2.77 MiB

Total number of cores used: 64
Parallelization over k-points: 16
Domain decomposition: 2 x 2 x 1

Number of atoms: 28
Number of atomic orbitals: 148
Number of bands in calculation: 112
Number of valence electrons: 180
Bands to converge: occupied

... initialized

Initializing position-dependent things.

Density initialized from atomic densities
Creating initial wave functions:
  112 bands from LCAO basis set

     .-------------------------.  
    /|         OP              |  
   / |O            O        O  |  
  /  |       O            O  P |  
 *   |O    Mn      O           |  
 |   |          OLi          O |  
 |   .P-O--------------Mn------.  
 |  /          Li    O  Mn  O /   
 | /Li O           PO        /    
 |/       Mn                /     
 *Li-----------------------*      

Positions:
   0 O     -1.360678   -2.541161   -1.202221    ( 0.0000,  0.0000,  0.0000)
   1 O     -3.121941    2.976855    1.167242    ( 0.0000,  0.0000,  0.0000)
   2 O      2.107533    0.508090    1.540712    ( 0.0000,  0.0000,  0.0000)
   3 O      3.869373   -0.072395   -0.828750    ( 0.0000,  0.0000,  0.0000)
   4 O      2.107821    2.976875    1.540792    ( 0.0000,  0.0000,  0.0000)
   5 O      3.869084   -2.541141   -0.828671    ( 0.0000,  0.0000,  0.0000)
   6 O     -1.360390   -0.072375   -1.202141    ( 0.0000,  0.0000,  0.0000)
   7 O     -3.122230    0.508109    1.167321    ( 0.0000,  0.0000,  0.0000)
   8 O     -4.413461   -1.306992   -0.794251    ( 0.0000,  0.0000,  0.0000)
   9 O     -0.069585    1.742707    1.575662    ( 0.0000,  0.0000,  0.0000)
  10 O      5.170604    1.742707    1.132822    ( 0.0000,  0.0000,  0.0000)
  11 O      0.816728   -1.306992   -1.237091    ( 0.0000,  0.0000,  0.0000)
  12 Mn    -2.570809   -1.307302    0.247161    ( 0.0000,  0.0000,  1.0000)
  13 Mn    -1.912021    1.743016   -2.122906    ( 0.0000,  0.0000, -1.0000)
  14 Mn     3.317952    1.743017    0.091411    ( 0.0000,  0.0000, -1.0000)
  15 Mn     2.659164   -1.307302    2.461478    ( 0.0000,  0.0000,  1.0000)
  16 P     -0.620664   -1.306816   -1.828465    ( 0.0000,  0.0000,  0.0000)
  17 P     -3.862097    1.742530    0.541238    ( 0.0000,  0.0000,  0.0000)
  18 P      1.367807    1.742530    2.167036    ( 0.0000,  0.0000,  0.0000)
  19 P      4.609240   -1.306816   -0.202666    ( 0.0000,  0.0000,  0.0000)
  20 O     -0.646437   -1.306845    1.374751    ( 0.0000,  0.0000,  0.0000)
  21 O     -3.836504    1.742559   -0.995565    ( 0.0000,  0.0000,  0.0000)
  22 O      1.393580    1.742559   -1.036179    ( 0.0000,  0.0000,  0.0000)
  23 O      4.583647   -1.306845    1.334136    ( 0.0000,  0.0000,  0.0000)
  24 Li    -4.856429   -2.832143   -2.200714    ( 0.0000,  0.0000,  0.0000)
  25 Li     0.373571   -2.832143    0.169286    ( 0.0000,  0.0000,  0.0000)
  26 Li    -4.856429    0.217857   -2.200714    ( 0.0000,  0.0000,  0.0000)
  27 Li     0.373571    0.217857    0.169286    ( 0.0000,  0.0000,  0.0000)

Unit cell:
           periodic     x           y           z      points  spacing
  1. axis:    yes   10.460000    0.000000    0.000000    60     0.1743
  2. axis:    yes    0.000000    6.100000    0.000000    35     0.1743
  3. axis:    yes    0.000000    0.000000    4.740000    27     0.1756

  Lengths:  10.460000   6.100000   4.740000
  Angles:   90.000000  90.000000  90.000000

Effective grid spacing dv^(1/3) = 0.1747

                     log10-error:           total        iterations:
           time      wfs    density  force  energy       poisson  magmom
iter:   1  07:35:32                       -231.921280             +0.0000
iter:   2  07:35:53  -0.55  -0.94         -231.745511             +0.0101
iter:   3  07:36:15  -0.72  -0.98         -220.574535             +0.0127
iter:   4  07:36:36  -0.95  -1.20         -218.847109             +0.0043
iter:   5  07:36:57  -1.94  -1.36         -222.050234             +0.0028
iter:   6  07:37:18  -1.99  -1.45         -221.037145             +0.0013
iter:   7  07:37:40  -2.23  -1.67         -224.272092             +0.0008
iter:   8  07:38:01  -1.69  -1.88         -226.556952             +0.0001
iter:   9  07:38:22  -2.41  -1.86         -227.591425             +0.0001
iter:  10  07:38:43  -1.62  -1.79         -226.483760             +0.0000
iter:  11  07:39:05  -2.27  -2.11         -226.461005             +0.0000
iter:  12  07:39:26  -2.80  -2.20         -226.459574             -0.0000
iter:  13  07:39:47  -1.70  -2.23         -226.551532             +0.0000
iter:  14  07:40:08  -2.17  -2.35         -226.216598             -0.0000
iter:  15  07:40:29  -3.46  -2.93         -226.161238             -0.0000
iter:  16  07:40:51  -3.02  -2.97         -226.244473             -0.0000
iter:  17  07:41:12  -4.34  -2.96         -226.235273             -0.0000
iter:  18  07:41:33  -4.33  -3.05         -226.229363             -0.0000
iter:  19  07:41:54  -4.51  -3.15         -226.227216             -0.0000
iter:  20  07:42:15  -4.24  -3.23         -226.226493             -0.0000
iter:  21  07:42:37  -5.20  -3.46         -226.225991             -0.0000
iter:  22  07:42:58  -5.76  -3.75         -226.226069             +0.0000
iter:  23  07:43:19  -5.91  -3.75         -226.226249             -0.0000
iter:  24  07:43:40  -5.99  -3.80         -226.226137             -0.0000
iter:  25  07:44:01  -6.41  -3.94         -226.226124             -0.0000
iter:  26  07:44:23  -6.66  -3.99         -226.226108             +0.0000
iter:  27  07:44:44  -6.27  -4.04         -226.226103             +0.0000
iter:  28  07:45:05  -6.55  -4.17         -226.226108             +0.0000
iter:  29  07:45:32  -7.65  -4.23         -226.226105             +0.0000
iter:  30  07:45:53  -6.44  -4.26         -226.226086             +0.0000
iter:  31  07:46:14  -6.97  -4.50         -226.226091             +0.0000
iter:  32  07:46:35  -7.37  -4.52         -226.226096             +0.0000
iter:  33  07:46:56  -6.90  -4.48         -226.226085             +0.0000
iter:  34  07:47:18  -7.18  -4.59         -226.226085             +0.0000
iter:  35  07:47:44  -7.74  -4.66    -1.83-226.226084             +0.0000
iter:  36  07:48:11  -8.20  -4.79    -3.09-226.226085             +0.0000
iter:  37  07:48:38  -8.36  -4.85    -2.66-226.226085             +0.0000
iter:  38  07:49:04  -8.73  -4.92    -3.40-226.226085             +0.0000
iter:  39  07:49:31  -8.68  -4.95    -3.04-226.226085             +0.0000
iter:  40  07:49:58  -8.44  -5.14    -3.34-226.226085             +0.0000
iter:  41  07:50:24  -8.97  -5.26    -3.64-226.226085             +0.0000
iter:  42  07:50:51  -9.93  -5.27    -3.52-226.226085             +0.0000
iter:  43  07:51:18  -9.47  -5.28    -3.20-226.226084             +0.0000
iter:  44  07:51:44  -9.23  -5.32    -3.51-226.226084             +0.0000
iter:  45  07:52:11 -10.19  -5.39    -3.89-226.226084             +0.0000
iter:  46  07:52:38  -9.40  -5.44    -3.45-226.226084             +0.0000
iter:  47  07:53:04  -9.51  -5.80    -3.57-226.226084             +0.0000
iter:  48  07:53:31 -10.58  -6.10    -4.13-226.226084             +0.0000
iter:  49  07:53:58 -11.06  -6.15    -4.48-226.226084             +0.0000
iter:  50  07:54:24 -10.69  -6.19    -4.10-226.226084             +0.0000
iter:  51  07:54:51 -11.32  -6.33    -4.57-226.226084             +0.0000
iter:  52  07:55:18 -11.26  -6.37    -4.64-226.226084             +0.0000
iter:  53  07:55:44 -11.80  -6.45    -4.69-226.226084             +0.0000
iter:  54  07:56:11 -11.47  -6.61    -4.52-226.226084             +0.0000
iter:  55  07:56:38 -12.35  -6.93    -5.47-226.226084             +0.0000
iter:  56  07:57:04 -11.69  -6.97    -4.65-226.226084             +0.0000
iter:  57  07:57:31 -12.39  -7.05    -4.97-226.226084             +0.0000
iter:  58  07:57:58 -13.61  -7.25    -5.81-226.226084             +0.0000
iter:  59  07:58:24 -13.36  -7.26    -5.67-226.226084             +0.0000
iter:  60  07:58:51 -12.91  -7.30    -4.96-226.226084             +0.0000
iter:  61  07:59:18 -13.59  -7.64    -5.91-226.226084             +0.0000
iter:  62  07:59:44 -13.28  -7.68    -5.61-226.226084             +0.0000
iter:  63  08:00:11 -14.10  -7.73    -5.82-226.226084             +0.0000
iter:  64  08:00:38 -14.61  -7.77    -6.01-226.226084             +0.0000

Converged after 64 iterations.

Dipole moment: (10.663062, 1.411357, -6.267550) |e|*Ang

Total magnetic moment: (0.000000, 0.000000, 0.000000)
Local magnetic moments:
   0 O  ( 0.000000,  0.000000, -0.000515)
   1 O  ( 0.000000,  0.000000,  0.000617)
   2 O  ( 0.000000,  0.000000,  0.000516)
   3 O  ( 0.000000,  0.000000, -0.000540)
   4 O  ( 0.000000,  0.000000,  0.000496)
   5 O  ( 0.000000,  0.000000, -0.000520)
   6 O  ( 0.000000,  0.000000, -0.000535)
   7 O  ( 0.000000,  0.000000,  0.000637)
   8 O  ( 0.000000,  0.000000,  0.028614)
   9 O  ( 0.000000,  0.000000, -0.028615)
  10 O  ( 0.000000,  0.000000, -0.028318)
  11 O  ( 0.000000,  0.000000,  0.028781)
  12 Mn ( 0.000000,  0.000000,  4.448157)
  13 Mn ( 0.000000,  0.000000, -4.448218)
  14 Mn ( 0.000000,  0.000000, -4.449255)
  15 Mn ( 0.000000,  0.000000,  4.448314)
  16 P  ( 0.000000,  0.000000,  0.001543)
  17 P  ( 0.000000,  0.000000, -0.001361)
  18 P  ( 0.000000,  0.000000, -0.001560)
  19 P  ( 0.000000,  0.000000,  0.001578)
  20 O  ( 0.000000,  0.000000,  0.025315)
  21 O  ( 0.000000,  0.000000, -0.025343)
  22 O  ( 0.000000,  0.000000, -0.025505)
  23 O  ( 0.000000,  0.000000,  0.025307)
  24 Li ( 0.000000,  0.000000,  0.000023)
  25 Li ( 0.000000,  0.000000,  0.000001)
  26 Li ( 0.000000,  0.000000,  0.000023)
  27 Li ( 0.000000,  0.000000,  0.000001)

Energy contributions relative to reference atoms: (reference = -196157.275402)

Kinetic:       +217.980449
Potential:     -195.724688
External:        +0.000000
XC:            -250.521612
Entropy (-ST):   -0.000000
Local:           +2.039767
--------------------------
Free energy:   -226.226084
Extrapolated:  -226.226084

Spin contamination: 9.560516 electrons
Showing only first 2 kpts
                      Up                     Down
 Kpt  Band  Eigenvalues  Occupancy  Eigenvalues  Occupancy
  0    88      5.10746    1.00000      5.08892    1.00000
  0    89      5.13831    1.00000      5.13424    1.00000
  0    90      7.27663    0.00000      7.28640    0.00000
  0    91      7.31082    0.00000      7.30961    0.00000

  1    88      5.13350    1.00000      5.11527    1.00000
  1    89      5.16844    1.00000      5.16310    1.00000
  1    90      7.21720    0.00000      7.22817    0.00000
  1    91      7.24940    0.00000      7.24798    0.00000


Fermi level: 6.60831

Gap: 1.961 eV
Transition (v -> c):
  (s=0, k=69, n=89, [-0.08, 0.42, -0.12]) -> (s=0, k=86, n=90, [0.08, 0.08, 0.12])
Writing to born-0.01-10x+.gpw (mode='all')

Timing:                              incl.     excl.
-----------------------------------------------------------
Hamiltonian:                         0.259     0.003   0.0% |
 Atomic:                             0.072     0.072   0.0% |
  XC Correction:                     0.000     0.000   0.0% |
 Calculate atomic Hamiltonians:      0.091     0.091   0.0% |
 Communicate:                        0.000     0.000   0.0% |
 Initialize Hamiltonian:             0.000     0.000   0.0% |
 Poisson:                            0.001     0.001   0.0% |
 XC 3D grid:                         0.092     0.092   0.0% |
LCAO initialization:                70.886     0.678   0.0% |
 LCAO eigensolver:                  18.220     0.003   0.0% |
  Calculate projections:             0.030     0.030   0.0% |
  DenseAtomicCorrection:             0.043     0.043   0.0% |
  Distribute overlap matrix:         0.005     0.005   0.0% |
  Orbital Layouts:                   0.279     0.279   0.0% |
  Potential matrix:                 17.775    17.775   0.5% |
  Sum over cells:                    0.086     0.086   0.0% |
 LCAO to grid:                      50.675    50.675   1.3% ||
 Set positions (LCAO WFS):           1.314     0.187   0.0% |
  Basic WFS set positions:           0.002     0.002   0.0% |
  Basis functions set positions:     0.000     0.000   0.0% |
  P tci:                             0.545     0.545   0.0% |
  ST tci:                            0.369     0.369   0.0% |
  mktci:                             0.211     0.211   0.0% |
PWDescriptor:                        0.025     0.025   0.0% |
SCF-cycle:                        1528.141     5.460   0.1% |
 Davidson:                        1283.647   411.737  10.6% |---|
  Apply H:                          85.382    82.737   2.1% ||
   HMM T:                            2.646     2.646   0.1% |
  Subspace diag:                   183.828     0.187   0.0% |
   calc_h_matrix:                  116.862    32.157   0.8% |
    Apply H:                        84.706    82.154   2.1% ||
     HMM T:                          2.552     2.552   0.1% |
   diagonalize:                      6.552     6.552   0.2% |
   rotate_psi:                      60.227    60.227   1.6% ||
  calc. matrices:                  383.276   214.488   5.5% |-|
   Apply H:                        168.788   163.621   4.2% |-|
    HMM T:                           5.167     5.167   0.1% |
  diagonalize:                      99.300    99.300   2.6% ||
  rotate_psi:                      120.123   120.123   3.1% ||
 Density:                           51.047     0.002   0.0% |
  Atomic density matrices:           0.833     0.833   0.0% |
  Mix:                               8.796     8.796   0.2% |
  Multipole moments:                 0.024     0.024   0.0% |
  Pseudo density:                   41.392    41.391   1.1% |
   Symmetrize density:               0.002     0.002   0.0% |
 Forces:                           170.044   170.044   4.4% |-|
 Hamiltonian:                       15.634     0.133   0.0% |
  Atomic:                            3.595     3.594   0.1% |
   XC Correction:                    0.000     0.000   0.0% |
  Calculate atomic Hamiltonians:     5.976     5.976   0.2% |
  Communicate:                       0.022     0.022   0.0% |
  Poisson:                           0.055     0.055   0.0% |
  XC 3D grid:                        5.852     5.852   0.2% |
 Orthonormalize:                     2.309     0.004   0.0% |
  calc_s_matrix:                     0.267     0.267   0.0% |
  inverse-cholesky:                  0.041     0.041   0.0% |
  projections:                       1.508     1.508   0.0% |
  rotate_psi_s:                      0.490     0.490   0.0% |
Set symmetry:                        0.000     0.000   0.0% |
Other:                            2286.036  2286.036  58.8% |-----------------------|
-----------------------------------------------------------
Total:                                      3885.347 100.0%

Memory usage: 12.14 GiB
Date: Tue Mar 30 08:38:43 2021
