
  ___ ___ ___ _ _ _  
 |   |   |_  | | | | 
 | | | | | . | | | | 
 |__ |  _|___|_____|  21.1.1b1
 |___|_|             

User:   madkru@g043.nifl.fysik.dtu.dk
Date:   Wed Mar 31 21:51:20 2021
Arch:   x86_64
Pid:    39387
Python: 3.8.6
gpaw:   /home/niflheim/madkru/venv_madkru/gpaw/gpaw (e6f0d78a31)
_gpaw:  /home/niflheim/madkru/venv_madkru/gpaw/build/lib.linux-x86_64-sandybridge-3.8/
        _gpaw.cpython-38-x86_64-linux-gnu.so (e6f0d78a31)
ase:    /home/niflheim/madkru/venv_madkru/ase/ase (version 3.22.0b1-4d5a73cb29)
numpy:  /home/modules/software/SciPy-bundle/2020.11-foss-2020b/lib/python3.8/site-packages/numpy (version 1.19.4)
scipy:  /home/modules/software/SciPy-bundle/2020.11-foss-2020b/lib/python3.8/site-packages/scipy (version 1.5.4)
libxc:  4.3.4
units:  Angstrom and eV
cores: 64
OpenMP: False
OMP_NUM_THREADS: 1

Input parameters:
  convergence: {bands: occupied,
                density: 0.0001,
                eigenstates: 4e-08,
                energy: 0.0005,
                forces: 1e-06}
  kpts: [6 6 4]
  maxiter: 1000
  mode: {ecut: 600.0,
         gammacentered: False,
         name: pw}
  occupations: {fixmagmom: False,
                name: fermi-dirac,
                width: 0.001}
  symmetry: {point_group: False,
             time_reversal: False}

System changes: positions, numbers, cell, pbc, initial_charges, initial_magmoms 

Initialize ...

O-setup:
  name: Oxygen
  id: 9b9d51c344dea68c822856295a461509
  Z: 8.0
  valence: 6
  core: 2
  charge: 0.0
  file: /home/modules/software/GPAW-setups/0.9.20000/O.LDA.gz
  compensation charges: gauss, rc=0.21, lmax=2
  cutoffs: 1.17(filt), 0.83(core),
  valence states:
                energy  radius
    2s(2.00)   -23.752   0.688
    2p(4.00)    -9.195   0.598
    *s           3.459   0.688
    *p          18.016   0.598
    *d           0.000   0.619

  Using partial waves for O as LCAO basis

Mn-setup:
  name: Manganese
  id: 0d715a8018be061a6e9ea6f2d364ac92
  Z: 25.0
  valence: 15
  core: 10
  charge: 0.0
  file: /home/modules/software/GPAW-setups/0.9.20000/Mn.LDA.gz
  compensation charges: gauss, rc=0.38, lmax=2
  cutoffs: 2.14(filt), 0.86(core),
  valence states:
                energy  radius
    3s(2.00)   -85.387   1.275
    4s(2.00)    -5.282   1.275
    3p(6.00)   -54.493   1.281
    4p(0.00)    -1.471   1.281
    3d(5.00)    -7.009   1.138
    *d          20.203   1.138

  Using partial waves for Mn as LCAO basis

P-setup:
  name: Phosphorus
  id: a5561c299094968922a179ab894d2e2d
  Z: 15.0
  valence: 5
  core: 10
  charge: 0.0
  file: /home/modules/software/GPAW-setups/0.9.20000/P.LDA.gz
  compensation charges: gauss, rc=0.30, lmax=2
  cutoffs: 1.69(filt), 1.81(core),
  valence states:
                energy  radius
    3s(2.00)   -14.015   0.953
    3p(3.00)    -5.596   0.953
    *s          13.197   0.953
    *p          21.615   0.953
    *d           0.000   0.953

  Using partial waves for P as LCAO basis

Li-setup:
  name: Lithium
  id: b73562207f97a71b6967473b66fe8b65
  Z: 3.0
  valence: 1
  core: 2
  charge: 0.0
  file: /home/modules/software/GPAW-setups/0.9.20000/Li.LDA.gz
  compensation charges: gauss, rc=0.33, lmax=2
  cutoffs: 1.91(filt), 2.55(core),
  valence states:
                energy  radius
    2s(1.00)    -2.874   1.058
    2p(0.00)    -1.126   1.058
    *s          24.338   1.058

  Using partial waves for Li as LCAO basis

Reference energy: -196157.275402

Spin-polarized calculation.
Magnetic moment: 0.000000

Convergence criteria:
  Maximum total energy change: 0.0005 eV / electron
  Maximum integral of absolute density change: 0.0001 electrons
  Maximum integral of absolute eigenstate change: 4e-08 eV^2
  Maximum change in atomic force: 1e-06 eV / Ang
  Maximum number of iterations: 1000

Symmetries present (total): 1

  ( 1  0  0)
  ( 0  1  0)
  ( 0  0  1)

144 k-points: 6 x 6 x 4 Monkhorst-Pack grid
144 k-points in the irreducible part of the Brillouin zone
       k-points in crystal coordinates                weights
   0:    -0.41666667   -0.41666667   -0.37500000          1/144
   1:    -0.41666667   -0.41666667   -0.12500000          1/144
   2:    -0.41666667   -0.41666667    0.12500000          1/144
   3:    -0.41666667   -0.41666667    0.37500000          1/144
   4:    -0.41666667   -0.25000000   -0.37500000          1/144
   5:    -0.41666667   -0.25000000   -0.12500000          1/144
   6:    -0.41666667   -0.25000000    0.12500000          1/144
   7:    -0.41666667   -0.25000000    0.37500000          1/144
   8:    -0.41666667   -0.08333333   -0.37500000          1/144
   9:    -0.41666667   -0.08333333   -0.12500000          1/144
          ...
 143:     0.41666667    0.41666667    0.37500000          1/144

Wave functions: Plane wave expansion
  Cutoff energy: 600.000 eV
  Number of coefficients (min, max): 10068, 10125
  Pulay-stress correction: 0.000000 eV/Ang^3 (de/decut=0.000000)
  Using FFTW library
  ScaLapack parameters: grid=1x1, blocksize=None
  Wavefunction extrapolation:
    Improved wavefunction reuse through dual PAW basis 

  Fermi-Dirac: width=0.0010 eV

Eigensolver
   Davidson(niter=2) 

Densities:
  Coarse grid: 60*35*27 grid
  Fine grid: 120*70*54 grid
  Total Charge: 0.000000 

Density mixing:
  Method: difference
  Backend: pulay
  Linear mixing parameter: 0.05
  Mixing with 5 old densities
  Damping of long wave oscillations: 50 

Hamiltonian:
  XC and Coulomb potentials evaluated on a 120*70*54 grid
  Using the LDA Exchange-Correlation functional
 

Memory estimate:
  Process memory now: 14415.33 MiB
  Calculator: 354.82 MiB
    Density: 10.06 MiB
      Arrays: 3.79 MiB
      Localized functions: 4.71 MiB
      Mixer: 1.56 MiB
    Hamiltonian: 2.95 MiB
      Arrays: 2.82 MiB
      XC: 0.00 MiB
      Poisson: 0.00 MiB
      vbar: 0.14 MiB
    Wavefunctions: 341.80 MiB
      Arrays psit_nG: 311.46 MiB
      Eigensolver: 19.99 MiB
      Projections: 2.71 MiB
      Projectors: 4.87 MiB
      PW-descriptor: 2.77 MiB

Total number of cores used: 64
Parallelization over k-points: 16
Domain decomposition: 2 x 2 x 1

Number of atoms: 28
Number of atomic orbitals: 148
Number of bands in calculation: 112
Number of valence electrons: 180
Bands to converge: occupied

... initialized

Initializing position-dependent things.

Density initialized from atomic densities
Creating initial wave functions:
  112 bands from LCAO basis set

     .-------------------------.  
    /|         OP              |  
   / |O            O        O  |  
  /  |       O            O  P |  
 *   |O    Mn      O           |  
 |   |          OLi          O |  
 |   .P-O--------------Mn------.  
 |  /          Li    O  Mn  O /   
 | /Li O           PO        /    
 |/       Mn                /     
 *Li-----------------------*      

Positions:
   0 O     -1.360678   -2.541161   -1.202221    ( 0.0000,  0.0000,  0.0000)
   1 O     -3.121941    2.976855    1.167242    ( 0.0000,  0.0000,  0.0000)
   2 O      2.107533    0.508090    1.540712    ( 0.0000,  0.0000,  0.0000)
   3 O      3.869373   -0.072395   -0.828750    ( 0.0000,  0.0000,  0.0000)
   4 O      2.107821    2.976875    1.540792    ( 0.0000,  0.0000,  0.0000)
   5 O      3.869084   -2.541141   -0.828671    ( 0.0000,  0.0000,  0.0000)
   6 O     -1.360390   -0.072375   -1.202141    ( 0.0000,  0.0000,  0.0000)
   7 O     -3.122230    0.508109    1.167321    ( 0.0000,  0.0000,  0.0000)
   8 O     -4.413461   -1.306992   -0.794251    ( 0.0000,  0.0000,  0.0000)
   9 O     -0.069585    1.742707    1.575662    ( 0.0000,  0.0000,  0.0000)
  10 O      5.160604    1.742707    1.132822    ( 0.0000,  0.0000,  0.0000)
  11 O      0.816728   -1.306992   -1.237091    ( 0.0000,  0.0000,  0.0000)
  12 Mn    -2.570809   -1.307302    0.247161    ( 0.0000,  0.0000,  1.0000)
  13 Mn    -1.912021    1.743016   -2.122906    ( 0.0000,  0.0000, -1.0000)
  14 Mn     3.317952    1.743017    0.091411    ( 0.0000,  0.0000, -1.0000)
  15 Mn     2.659164   -1.307302    2.461478    ( 0.0000,  0.0000,  1.0000)
  16 P     -0.620664   -1.306816   -1.828465    ( 0.0000,  0.0000,  0.0000)
  17 P     -3.862097    1.742530    0.541238    ( 0.0000,  0.0000,  0.0000)
  18 P      1.367807    1.742530    2.167036    ( 0.0000,  0.0000,  0.0000)
  19 P      4.609240   -1.306816   -0.202666    ( 0.0000,  0.0000,  0.0000)
  20 O     -0.646437   -1.306845    1.374751    ( 0.0000,  0.0000,  0.0000)
  21 O     -3.846504    1.742559   -0.995565    ( 0.0000,  0.0000,  0.0000)
  22 O      1.393580    1.742559   -1.036179    ( 0.0000,  0.0000,  0.0000)
  23 O      4.583647   -1.306845    1.334136    ( 0.0000,  0.0000,  0.0000)
  24 Li    -4.856429   -2.832143   -2.200714    ( 0.0000,  0.0000,  0.0000)
  25 Li     0.373571   -2.832143    0.169286    ( 0.0000,  0.0000,  0.0000)
  26 Li    -4.856429    0.217857   -2.200714    ( 0.0000,  0.0000,  0.0000)
  27 Li     0.373571    0.217857    0.169286    ( 0.0000,  0.0000,  0.0000)

Unit cell:
           periodic     x           y           z      points  spacing
  1. axis:    yes   10.460000    0.000000    0.000000    60     0.1743
  2. axis:    yes    0.000000    6.100000    0.000000    35     0.1743
  3. axis:    yes    0.000000    0.000000    4.740000    27     0.1756

  Lengths:  10.460000   6.100000   4.740000
  Angles:   90.000000  90.000000  90.000000

Effective grid spacing dv^(1/3) = 0.1747

                     log10-error:           total        iterations:
           time      wfs    density  force  energy       poisson  magmom
iter:   1  21:52:55                       -231.918945             +0.0000
iter:   2  21:53:17  -0.55  -0.94         -231.740394             +0.0045
iter:   3  21:53:38  -0.72  -0.98         -220.578031             +0.0056
iter:   4  21:53:59  -0.95  -1.20         -218.857341             +0.0018
iter:   5  21:54:21  -1.95  -1.36         -221.781760             +0.0012
iter:   6  21:54:42  -2.01  -1.47         -220.418070             -0.0829
iter:   7  21:55:03  -1.89  -1.66         -225.151429             +0.4542
iter:   8  21:55:24  -2.37  -1.74         -225.185593             -0.6007
iter:   9  21:55:46  -2.69  -1.84         -226.486647             -0.7120
iter:  10  21:56:07  -2.29  -1.81         -227.134105             -0.2559
iter:  11  21:56:28  -2.58  -1.81         -227.626463             -0.0734
iter:  12  21:56:49  -2.49  -1.78         -226.943038             -0.0136
iter:  13  21:57:11  -1.57  -1.83         -226.548580             -0.0141
iter:  14  21:57:32  -2.73  -2.23         -226.489503             -0.0040
iter:  15  21:57:53  -1.89  -2.25         -226.356922             -0.0175
iter:  16  21:58:14  -2.34  -2.41         -226.281406             -0.0034
iter:  17  21:58:36  -3.67  -2.52         -226.254222             -0.0016
iter:  18  21:58:57  -2.72  -2.61         -226.259113             -0.0003
iter:  19  21:59:18  -3.38  -2.74         -226.229247             -0.0004
iter:  20  21:59:39  -4.51  -2.93         -226.229438             -0.0002
iter:  21  22:00:00  -4.03  -2.97         -226.232928             -0.0000
iter:  22  22:00:22  -3.70  -3.07         -226.229091             +0.0000
iter:  23  22:00:43  -5.17  -3.45         -226.228189             +0.0000
iter:  24  22:01:04  -5.09  -3.51         -226.227801             -0.0000
iter:  25  22:01:25  -5.00  -3.59         -226.227974             -0.0000
iter:  26  22:01:47  -4.82  -3.70         -226.227884             -0.0000
iter:  27  22:02:08  -5.84  -3.91         -226.227694             -0.0000
iter:  28  22:02:29  -5.97  -4.31         -226.227680             -0.0000
iter:  29  22:02:50  -6.18  -4.37         -226.227689             -0.0000
iter:  30  22:03:12  -6.88  -4.54         -226.227673             -0.0000
iter:  31  22:03:33  -7.11  -4.78         -226.227670             -0.0000
iter:  32  22:04:00  -7.66  -4.82         -226.227670             +0.0000
iter:  33  22:04:27  -7.77  -5.17    -2.83-226.227669             +0.0000
iter:  34  22:04:53  -7.98  -5.23    -2.99-226.227670             +0.0000
iter:  35  22:05:20  -8.12  -5.23    -2.72-226.227669             +0.0000
iter:  36  22:05:47  -9.00  -5.61    -3.20-226.227669             +0.0000
iter:  37  22:06:13  -9.89  -5.74    -3.84-226.227669             +0.0000
iter:  38  22:06:40  -9.51  -5.77    -3.62-226.227669             -0.0000
iter:  39  22:07:07  -9.19  -5.86    -3.41-226.227669             +0.0000
iter:  40  22:07:34  -9.73  -5.80    -3.51-226.227669             -0.0000
iter:  41  22:08:00  -9.69  -6.03    -3.68-226.227669             +0.0000
iter:  42  22:08:27  -9.66  -6.12    -3.53-226.227669             -0.0000
iter:  43  22:08:54 -11.02  -6.29    -4.15-226.227669             -0.0000
iter:  44  22:09:21 -11.24  -6.39    -4.22-226.227669             -0.0000
iter:  45  22:09:47 -10.56  -6.51    -4.10-226.227669             -0.0000
iter:  46  22:10:14 -10.69  -6.53    -3.99-226.227669             -0.0000
iter:  47  22:10:41 -11.99  -6.72    -4.58-226.227669             -0.0000
iter:  48  22:11:08 -11.15  -6.79    -4.34-226.227669             +0.0000
iter:  49  22:11:34 -11.40  -6.91    -4.44-226.227669             +0.0000
iter:  50  22:12:01 -12.56  -7.17    -5.00-226.227669             +0.0000
iter:  51  22:12:28 -13.04  -7.24    -5.13-226.227669             -0.0000
iter:  52  22:12:54 -12.70  -7.48    -5.46-226.227669             -0.0000
iter:  53  22:13:21 -13.26  -7.54    -5.63-226.227669             -0.0000
iter:  54  22:13:48 -13.68  -7.56    -5.58-226.227669             -0.0000
iter:  55  22:14:15 -13.98  -7.76    -5.47-226.227669             -0.0000
iter:  56  22:14:41 -14.75  -7.93    -6.09-226.227669             -0.0000

Converged after 56 iterations.

Dipole moment: (10.675905, 1.413473, -6.270421) |e|*Ang

Total magnetic moment: (0.000000, 0.000000, -0.000000)
Local magnetic moments:
   0 O  ( 0.000000,  0.000000, -0.000475)
   1 O  ( 0.000000,  0.000000,  0.000526)
   2 O  ( 0.000000,  0.000000,  0.000552)
   3 O  ( 0.000000,  0.000000, -0.000506)
   4 O  ( 0.000000,  0.000000,  0.000532)
   5 O  ( 0.000000,  0.000000, -0.000486)
   6 O  ( 0.000000,  0.000000, -0.000495)
   7 O  ( 0.000000,  0.000000,  0.000546)
   8 O  ( 0.000000,  0.000000,  0.028767)
   9 O  ( 0.000000,  0.000000, -0.028854)
  10 O  ( 0.000000,  0.000000, -0.028672)
  11 O  ( 0.000000,  0.000000,  0.028655)
  12 Mn ( 0.000000,  0.000000,  4.448186)
  13 Mn ( 0.000000,  0.000000, -4.448609)
  14 Mn ( 0.000000,  0.000000, -4.448254)
  15 Mn ( 0.000000,  0.000000,  4.448258)
  16 P  ( 0.000000,  0.000000,  0.001586)
  17 P  ( 0.000000,  0.000000, -0.001353)
  18 P  ( 0.000000,  0.000000, -0.001552)
  19 P  ( 0.000000,  0.000000,  0.001538)
  20 O  ( 0.000000,  0.000000,  0.025306)
  21 O  ( 0.000000,  0.000000, -0.025227)
  22 O  ( 0.000000,  0.000000, -0.025285)
  23 O  ( 0.000000,  0.000000,  0.025318)
  24 Li ( 0.000000,  0.000000,  0.000003)
  25 Li ( 0.000000,  0.000000,  0.000000)
  26 Li ( 0.000000,  0.000000,  0.000003)
  27 Li ( 0.000000,  0.000000,  0.000000)

Energy contributions relative to reference atoms: (reference = -196157.275402)

Kinetic:       +217.281029
Potential:     -195.179237
External:        +0.000000
XC:            -250.370999
Entropy (-ST):   -0.000000
Local:           +2.041538
--------------------------
Free energy:   -226.227669
Extrapolated:  -226.227669

Spin contamination: 9.560542 electrons
Showing only first 2 kpts
                      Up                     Down
 Kpt  Band  Eigenvalues  Occupancy  Eigenvalues  Occupancy
  0    88      5.10838    1.00000      5.09929    1.00000
  0    89      5.13310    1.00000      5.13306    1.00000
  0    90      7.28199    0.00000      7.28624    0.00000
  0    91      7.30496    0.00000      7.30605    0.00000

  1    88      5.13422    1.00000      5.12406    1.00000
  1    89      5.16349    1.00000      5.16309    1.00000
  1    90      7.22476    0.00000      7.22867    0.00000
  1    91      7.24368    0.00000      7.24369    0.00000


Fermi level: 6.37831

Gap: 1.968 eV
Transition (v -> c):
  (s=0, k=70, n=89, [-0.08, 0.42, 0.12]) -> (s=0, k=85, n=90, [0.08, 0.08, -0.12])
Writing to born-0.01-21x-.gpw (mode='all')

Timing:                              incl.     excl.
-----------------------------------------------------------
Hamiltonian:                         0.254     0.002   0.0% |
 Atomic:                             0.065     0.065   0.0% |
  XC Correction:                     0.000     0.000   0.0% |
 Calculate atomic Hamiltonians:      0.093     0.093   0.0% |
 Communicate:                        0.001     0.001   0.0% |
 Initialize Hamiltonian:             0.000     0.000   0.0% |
 Poisson:                            0.001     0.001   0.0% |
 XC 3D grid:                         0.092     0.092   0.0% |
LCAO initialization:                69.897     0.677   0.0% |
 LCAO eigensolver:                  18.003     0.003   0.0% |
  Calculate projections:             0.029     0.029   0.0% |
  DenseAtomicCorrection:             0.043     0.043   0.0% |
  Distribute overlap matrix:         0.212     0.212   0.0% |
  Orbital Layouts:                   0.279     0.279   0.0% |
  Potential matrix:                 17.354    17.354   0.5% |
  Sum over cells:                    0.083     0.083   0.0% |
 LCAO to grid:                      49.939    49.939   1.4% ||
 Set positions (LCAO WFS):           1.279     0.180   0.0% |
  Basic WFS set positions:           0.001     0.001   0.0% |
  Basis functions set positions:     0.000     0.000   0.0% |
  P tci:                             0.514     0.514   0.0% |
  ST tci:                            0.368     0.368   0.0% |
  mktci:                             0.214     0.214   0.0% |
PWDescriptor:                        0.027     0.027   0.0% |
SCF-cycle:                        1329.611     5.215   0.1% |
 Davidson:                        1126.215   360.341  10.3% |---|
  Apply H:                          75.193    72.921   2.1% ||
   HMM T:                            2.272     2.272   0.1% |
  Subspace diag:                   161.766     0.163   0.0% |
   calc_h_matrix:                  103.236    28.189   0.8% |
    Apply H:                        75.047    72.829   2.1% ||
     HMM T:                          2.218     2.218   0.1% |
   diagonalize:                      5.679     5.679   0.2% |
   rotate_psi:                      52.688    52.688   1.5% ||
  calc. matrices:                  336.934   187.992   5.4% |-|
   Apply H:                        148.943   144.508   4.1% |-|
    HMM T:                           4.435     4.435   0.1% |
  diagonalize:                      86.742    86.742   2.5% ||
  rotate_psi:                      105.239   105.239   3.0% ||
 Density:                           44.986     0.001   0.0% |
  Atomic density matrices:           0.750     0.750   0.0% |
  Mix:                               7.673     7.673   0.2% |
  Multipole moments:                 0.020     0.020   0.0% |
  Pseudo density:                   36.543    36.541   1.0% |
   Symmetrize density:               0.002     0.002   0.0% |
 Forces:                           137.250   137.250   3.9% |-|
 Hamiltonian:                       13.626     0.119   0.0% |
  Atomic:                            3.119     3.119   0.1% |
   XC Correction:                    0.000     0.000   0.0% |
  Calculate atomic Hamiltonians:     5.175     5.175   0.1% |
  Communicate:                       0.039     0.039   0.0% |
  Poisson:                           0.051     0.051   0.0% |
  XC 3D grid:                        5.123     5.123   0.1% |
 Orthonormalize:                     2.318     0.003   0.0% |
  calc_s_matrix:                     0.267     0.267   0.0% |
  inverse-cholesky:                  0.040     0.040   0.0% |
  projections:                       1.517     1.517   0.0% |
  rotate_psi_s:                      0.492     0.492   0.0% |
Set symmetry:                        0.000     0.000   0.0% |
Other:                            2097.643  2097.643  60.0% |-----------------------|
-----------------------------------------------------------
Total:                                      3497.433 100.0%

Memory usage: 14.08 GiB
Date: Wed Mar 31 22:49:38 2021
