
  ___ ___ ___ _ _ _  
 |   |   |_  | | | | 
 | | | | | . | | | | 
 |__ |  _|___|_____|  21.1.1b1
 |___|_|             

User:   madkru@g043.nifl.fysik.dtu.dk
Date:   Wed Mar 31 19:28:14 2021
Arch:   x86_64
Pid:    39387
Python: 3.8.6
gpaw:   /home/niflheim/madkru/venv_madkru/gpaw/gpaw (e6f0d78a31)
_gpaw:  /home/niflheim/madkru/venv_madkru/gpaw/build/lib.linux-x86_64-sandybridge-3.8/
        _gpaw.cpython-38-x86_64-linux-gnu.so (e6f0d78a31)
ase:    /home/niflheim/madkru/venv_madkru/ase/ase (version 3.22.0b1-4d5a73cb29)
numpy:  /home/modules/software/SciPy-bundle/2020.11-foss-2020b/lib/python3.8/site-packages/numpy (version 1.19.4)
scipy:  /home/modules/software/SciPy-bundle/2020.11-foss-2020b/lib/python3.8/site-packages/scipy (version 1.5.4)
libxc:  4.3.4
units:  Angstrom and eV
cores: 64
OpenMP: False
OMP_NUM_THREADS: 1

Input parameters:
  convergence: {bands: occupied,
                density: 0.0001,
                eigenstates: 4e-08,
                energy: 0.0005,
                forces: 1e-06}
  kpts: [6 6 4]
  maxiter: 1000
  mode: {ecut: 600.0,
         gammacentered: False,
         name: pw}
  occupations: {fixmagmom: False,
                name: fermi-dirac,
                width: 0.001}
  symmetry: {point_group: False,
             time_reversal: False}

System changes: positions, numbers, cell, pbc, initial_charges, initial_magmoms 

Initialize ...

O-setup:
  name: Oxygen
  id: 9b9d51c344dea68c822856295a461509
  Z: 8.0
  valence: 6
  core: 2
  charge: 0.0
  file: /home/modules/software/GPAW-setups/0.9.20000/O.LDA.gz
  compensation charges: gauss, rc=0.21, lmax=2
  cutoffs: 1.17(filt), 0.83(core),
  valence states:
                energy  radius
    2s(2.00)   -23.752   0.688
    2p(4.00)    -9.195   0.598
    *s           3.459   0.688
    *p          18.016   0.598
    *d           0.000   0.619

  Using partial waves for O as LCAO basis

Mn-setup:
  name: Manganese
  id: 0d715a8018be061a6e9ea6f2d364ac92
  Z: 25.0
  valence: 15
  core: 10
  charge: 0.0
  file: /home/modules/software/GPAW-setups/0.9.20000/Mn.LDA.gz
  compensation charges: gauss, rc=0.38, lmax=2
  cutoffs: 2.14(filt), 0.86(core),
  valence states:
                energy  radius
    3s(2.00)   -85.387   1.275
    4s(2.00)    -5.282   1.275
    3p(6.00)   -54.493   1.281
    4p(0.00)    -1.471   1.281
    3d(5.00)    -7.009   1.138
    *d          20.203   1.138

  Using partial waves for Mn as LCAO basis

P-setup:
  name: Phosphorus
  id: a5561c299094968922a179ab894d2e2d
  Z: 15.0
  valence: 5
  core: 10
  charge: 0.0
  file: /home/modules/software/GPAW-setups/0.9.20000/P.LDA.gz
  compensation charges: gauss, rc=0.30, lmax=2
  cutoffs: 1.69(filt), 1.81(core),
  valence states:
                energy  radius
    3s(2.00)   -14.015   0.953
    3p(3.00)    -5.596   0.953
    *s          13.197   0.953
    *p          21.615   0.953
    *d           0.000   0.953

  Using partial waves for P as LCAO basis

Li-setup:
  name: Lithium
  id: b73562207f97a71b6967473b66fe8b65
  Z: 3.0
  valence: 1
  core: 2
  charge: 0.0
  file: /home/modules/software/GPAW-setups/0.9.20000/Li.LDA.gz
  compensation charges: gauss, rc=0.33, lmax=2
  cutoffs: 1.91(filt), 2.55(core),
  valence states:
                energy  radius
    2s(1.00)    -2.874   1.058
    2p(0.00)    -1.126   1.058
    *s          24.338   1.058

  Using partial waves for Li as LCAO basis

Reference energy: -196157.275402

Spin-polarized calculation.
Magnetic moment: 0.000000

Convergence criteria:
  Maximum total energy change: 0.0005 eV / electron
  Maximum integral of absolute density change: 0.0001 electrons
  Maximum integral of absolute eigenstate change: 4e-08 eV^2
  Maximum change in atomic force: 1e-06 eV / Ang
  Maximum number of iterations: 1000

Symmetries present (total): 1

  ( 1  0  0)
  ( 0  1  0)
  ( 0  0  1)

144 k-points: 6 x 6 x 4 Monkhorst-Pack grid
144 k-points in the irreducible part of the Brillouin zone
       k-points in crystal coordinates                weights
   0:    -0.41666667   -0.41666667   -0.37500000          1/144
   1:    -0.41666667   -0.41666667   -0.12500000          1/144
   2:    -0.41666667   -0.41666667    0.12500000          1/144
   3:    -0.41666667   -0.41666667    0.37500000          1/144
   4:    -0.41666667   -0.25000000   -0.37500000          1/144
   5:    -0.41666667   -0.25000000   -0.12500000          1/144
   6:    -0.41666667   -0.25000000    0.12500000          1/144
   7:    -0.41666667   -0.25000000    0.37500000          1/144
   8:    -0.41666667   -0.08333333   -0.37500000          1/144
   9:    -0.41666667   -0.08333333   -0.12500000          1/144
          ...
 143:     0.41666667    0.41666667    0.37500000          1/144

Wave functions: Plane wave expansion
  Cutoff energy: 600.000 eV
  Number of coefficients (min, max): 10068, 10125
  Pulay-stress correction: 0.000000 eV/Ang^3 (de/decut=0.000000)
  Using FFTW library
  ScaLapack parameters: grid=1x1, blocksize=None
  Wavefunction extrapolation:
    Improved wavefunction reuse through dual PAW basis 

  Fermi-Dirac: width=0.0010 eV

Eigensolver
   Davidson(niter=2) 

Densities:
  Coarse grid: 60*35*27 grid
  Fine grid: 120*70*54 grid
  Total Charge: 0.000000 

Density mixing:
  Method: difference
  Backend: pulay
  Linear mixing parameter: 0.05
  Mixing with 5 old densities
  Damping of long wave oscillations: 50 

Hamiltonian:
  XC and Coulomb potentials evaluated on a 120*70*54 grid
  Using the LDA Exchange-Correlation functional
 

Memory estimate:
  Process memory now: 14415.33 MiB
  Calculator: 354.82 MiB
    Density: 10.06 MiB
      Arrays: 3.79 MiB
      Localized functions: 4.71 MiB
      Mixer: 1.56 MiB
    Hamiltonian: 2.95 MiB
      Arrays: 2.82 MiB
      XC: 0.00 MiB
      Poisson: 0.00 MiB
      vbar: 0.14 MiB
    Wavefunctions: 341.80 MiB
      Arrays psit_nG: 311.46 MiB
      Eigensolver: 19.99 MiB
      Projections: 2.71 MiB
      Projectors: 4.87 MiB
      PW-descriptor: 2.77 MiB

Total number of cores used: 64
Parallelization over k-points: 16
Domain decomposition: 2 x 2 x 1

Number of atoms: 28
Number of atomic orbitals: 148
Number of bands in calculation: 112
Number of valence electrons: 180
Bands to converge: occupied

... initialized

Initializing position-dependent things.

Density initialized from atomic densities
Creating initial wave functions:
  112 bands from LCAO basis set

     .-------------------------.  
    /|         OP              |  
   / |O            O        O  |  
  /  |       O            O  P |  
 *   |O    Mn      O           |  
 |   |          OLi          O |  
 |   .P-O--------------Mn------.  
 |  /          Li    O  Mn  O /   
 | /Li O           PO        /    
 |/       Mn                /     
 *Li-----------------------*      

Positions:
   0 O     -1.360678   -2.541161   -1.202221    ( 0.0000,  0.0000,  0.0000)
   1 O     -3.121941    2.976855    1.167242    ( 0.0000,  0.0000,  0.0000)
   2 O      2.107533    0.508090    1.540712    ( 0.0000,  0.0000,  0.0000)
   3 O      3.869373   -0.072395   -0.828750    ( 0.0000,  0.0000,  0.0000)
   4 O      2.107821    2.976875    1.540792    ( 0.0000,  0.0000,  0.0000)
   5 O      3.869084   -2.541141   -0.828671    ( 0.0000,  0.0000,  0.0000)
   6 O     -1.360390   -0.072375   -1.202141    ( 0.0000,  0.0000,  0.0000)
   7 O     -3.122230    0.508109    1.167321    ( 0.0000,  0.0000,  0.0000)
   8 O     -4.413461   -1.306992   -0.794251    ( 0.0000,  0.0000,  0.0000)
   9 O     -0.069585    1.742707    1.575662    ( 0.0000,  0.0000,  0.0000)
  10 O      5.160604    1.742707    1.132822    ( 0.0000,  0.0000,  0.0000)
  11 O      0.816728   -1.306992   -1.237091    ( 0.0000,  0.0000,  0.0000)
  12 Mn    -2.570809   -1.307302    0.247161    ( 0.0000,  0.0000,  1.0000)
  13 Mn    -1.912021    1.743016   -2.122906    ( 0.0000,  0.0000, -1.0000)
  14 Mn     3.317952    1.743017    0.091411    ( 0.0000,  0.0000, -1.0000)
  15 Mn     2.659164   -1.307302    2.461478    ( 0.0000,  0.0000,  1.0000)
  16 P     -0.620664   -1.306816   -1.828465    ( 0.0000,  0.0000,  0.0000)
  17 P     -3.862097    1.742530    0.541238    ( 0.0000,  0.0000,  0.0000)
  18 P      1.367807    1.742530    2.167036    ( 0.0000,  0.0000,  0.0000)
  19 P      4.609240   -1.306816   -0.202666    ( 0.0000,  0.0000,  0.0000)
  20 O     -0.646437   -1.316845    1.374751    ( 0.0000,  0.0000,  0.0000)
  21 O     -3.836504    1.742559   -0.995565    ( 0.0000,  0.0000,  0.0000)
  22 O      1.393580    1.742559   -1.036179    ( 0.0000,  0.0000,  0.0000)
  23 O      4.583647   -1.306845    1.334136    ( 0.0000,  0.0000,  0.0000)
  24 Li    -4.856429   -2.832143   -2.200714    ( 0.0000,  0.0000,  0.0000)
  25 Li     0.373571   -2.832143    0.169286    ( 0.0000,  0.0000,  0.0000)
  26 Li    -4.856429    0.217857   -2.200714    ( 0.0000,  0.0000,  0.0000)
  27 Li     0.373571    0.217857    0.169286    ( 0.0000,  0.0000,  0.0000)

Unit cell:
           periodic     x           y           z      points  spacing
  1. axis:    yes   10.460000    0.000000    0.000000    60     0.1743
  2. axis:    yes    0.000000    6.100000    0.000000    35     0.1743
  3. axis:    yes    0.000000    0.000000    4.740000    27     0.1756

  Lengths:  10.460000   6.100000   4.740000
  Angles:   90.000000  90.000000  90.000000

Effective grid spacing dv^(1/3) = 0.1747

                     log10-error:           total        iterations:
           time      wfs    density  force  energy       poisson  magmom
iter:   1  19:29:48                       -231.920206             +0.0000
iter:   2  19:30:10  -0.55  -0.94         -231.730835             +0.0052
iter:   3  19:30:31  -0.72  -0.98         -220.584671             +0.0065
iter:   4  19:30:52  -0.96  -1.20         -218.866122             +0.0021
iter:   5  19:31:13  -1.94  -1.36         -221.250811             +0.0014
iter:   6  19:31:35  -1.98  -1.50         -219.966764             +0.0007
iter:   7  19:31:56  -2.21  -1.68         -222.903488             +0.1709
iter:   8  19:32:17  -2.74  -1.89         -219.861460             +0.2351
iter:   9  19:32:38  -2.20  -1.94         -224.955400             +0.6737
iter:  10  19:33:00  -2.25  -1.87         -227.205911             +0.0361
iter:  11  19:33:21  -2.96  -1.84         -227.304848             -0.0136
iter:  12  19:33:42  -3.18  -1.81         -227.204408             -0.0042
iter:  13  19:34:03  -1.38  -1.81         -228.535928             -0.0028
iter:  14  19:34:25  -2.79  -1.87         -227.213919             -0.0013
iter:  15  19:34:46  -2.83  -2.06         -227.135760             -0.0003
iter:  16  19:35:07  -3.01  -2.07         -226.994302             +0.0001
iter:  17  19:35:29  -2.59  -2.12         -226.668843             +0.0001
iter:  18  19:35:50  -2.96  -2.19         -226.470587             +0.0000
iter:  19  19:36:11  -3.06  -2.40         -226.316273             +0.0001
iter:  20  19:36:32  -2.45  -2.50         -226.269001             +0.0000
iter:  21  19:36:54  -2.96  -2.47         -226.254920             -0.0000
iter:  22  19:37:15  -4.04  -2.73         -226.252723             -0.0000
iter:  23  19:37:36  -3.06  -2.77         -226.237655             -0.0000
iter:  24  19:37:57  -3.82  -2.94         -226.231483             -0.0000
iter:  25  19:38:18  -3.90  -3.22         -226.230032             -0.0000
iter:  26  19:38:40  -4.44  -3.23         -226.228324             -0.0000
iter:  27  19:39:01  -4.71  -3.45         -226.227788             -0.0000
iter:  28  19:39:22  -5.64  -3.65         -226.227807             -0.0000
iter:  29  19:39:43  -5.95  -3.68         -226.227794             +0.0000
iter:  30  19:40:05  -5.12  -3.75         -226.228003             +0.0000
iter:  31  19:40:26  -4.90  -3.68         -226.227816             +0.0000
iter:  32  19:40:47  -5.98  -3.86         -226.227749             +0.0000
iter:  33  19:41:08  -6.10  -4.27         -226.227741             +0.0000
iter:  34  19:41:30  -6.28  -4.25         -226.227732             +0.0000
iter:  35  19:41:51  -6.80  -4.54         -226.227732             +0.0000
iter:  36  19:42:12  -7.32  -4.55         -226.227729             +0.0000
iter:  37  19:42:39  -7.58  -5.05         -226.227729             +0.0000
iter:  38  19:43:05  -8.42  -5.07    -3.14-226.227729             +0.0000
iter:  39  19:43:32  -8.85  -5.23    -3.35-226.227729             +0.0000
iter:  40  19:43:59  -9.01  -5.28    -3.22-226.227729             +0.0000
iter:  41  19:44:26  -9.30  -5.31    -3.26-226.227729             +0.0000
iter:  42  19:44:52  -9.09  -5.34    -3.42-226.227729             -0.0000
iter:  43  19:45:19  -9.77  -5.38    -4.00-226.227729             +0.0000
iter:  44  19:45:46  -8.88  -5.41    -3.21-226.227729             +0.0000
iter:  45  19:46:12  -9.68  -5.98    -3.83-226.227729             +0.0000
iter:  46  19:46:39  -9.77  -6.11    -3.94-226.227729             +0.0000
iter:  47  19:47:06  -9.81  -6.14    -3.74-226.227729             +0.0000
iter:  48  19:47:33 -11.02  -6.66    -4.61-226.227729             +0.0000
iter:  49  19:47:59 -11.53  -6.71    -4.64-226.227729             +0.0000
iter:  50  19:48:26 -11.02  -6.79    -4.46-226.227729             +0.0000
iter:  51  19:48:53 -11.27  -6.85    -4.56-226.227729             -0.0000
iter:  52  19:49:19 -11.91  -6.89    -4.83-226.227729             +0.0000
iter:  53  19:49:46 -12.54  -7.04    -5.14-226.227729             +0.0000
iter:  54  19:50:13 -12.64  -7.09    -5.19-226.227729             +0.0000
iter:  55  19:50:40 -12.71  -7.11    -5.17-226.227729             +0.0000
iter:  56  19:51:06 -13.19  -7.31    -5.38-226.227729             +0.0000
iter:  57  19:51:33 -13.64  -7.36    -5.97-226.227729             +0.0000
iter:  58  19:52:00 -13.11  -7.40    -5.51-226.227729             +0.0000
iter:  59  19:52:26 -13.77  -7.59    -5.51-226.227729             +0.0000
iter:  60  19:52:53 -13.95  -7.72    -5.82-226.227729             +0.0000
iter:  61  19:53:20 -13.23  -7.76    -5.47-226.227729             +0.0000
iter:  62  19:53:46 -14.16  -7.94    -6.28-226.227729             +0.0000

Converged after 62 iterations.

Dipole moment: (10.671498, 1.411670, -6.269757) |e|*Ang

Total magnetic moment: (0.000000, 0.000000, 0.000000)
Local magnetic moments:
   0 O  ( 0.000000,  0.000000, -0.000481)
   1 O  ( 0.000000,  0.000000,  0.000551)
   2 O  ( 0.000000,  0.000000,  0.000543)
   3 O  ( 0.000000,  0.000000, -0.000553)
   4 O  ( 0.000000,  0.000000,  0.000513)
   5 O  ( 0.000000,  0.000000, -0.000534)
   6 O  ( 0.000000,  0.000000, -0.000576)
   7 O  ( 0.000000,  0.000000,  0.000536)
   8 O  ( 0.000000,  0.000000,  0.028693)
   9 O  ( 0.000000,  0.000000, -0.028701)
  10 O  ( 0.000000,  0.000000, -0.028693)
  11 O  ( 0.000000,  0.000000,  0.028701)
  12 Mn ( 0.000000,  0.000000,  4.448160)
  13 Mn ( 0.000000,  0.000000, -4.448240)
  14 Mn ( 0.000000,  0.000000, -4.448161)
  15 Mn ( 0.000000,  0.000000,  4.448241)
  16 P  ( 0.000000,  0.000000,  0.001557)
  17 P  ( 0.000000,  0.000000, -0.001543)
  18 P  ( 0.000000,  0.000000, -0.001558)
  19 P  ( 0.000000,  0.000000,  0.001543)
  20 O  ( 0.000000,  0.000000,  0.025316)
  21 O  ( 0.000000,  0.000000, -0.025306)
  22 O  ( 0.000000,  0.000000, -0.025315)
  23 O  ( 0.000000,  0.000000,  0.025306)
  24 Li ( 0.000000,  0.000000, -0.000000)
  25 Li ( 0.000000,  0.000000,  0.000004)
  26 Li ( 0.000000,  0.000000,  0.000000)
  27 Li ( 0.000000,  0.000000, -0.000004)

Energy contributions relative to reference atoms: (reference = -196157.275402)

Kinetic:       +217.349668
Potential:     -195.235135
External:        +0.000000
XC:            -250.383409
Entropy (-ST):   -0.000000
Local:           +2.041147
--------------------------
Free energy:   -226.227729
Extrapolated:  -226.227729

Spin contamination: 9.560411 electrons
Showing only first 2 kpts
                      Up                     Down
 Kpt  Band  Eigenvalues  Occupancy  Eigenvalues  Occupancy
  0    88      5.10994    1.00000      5.10993    1.00000
  0    89      5.13445    1.00000      5.13436    1.00000
  0    90      7.28864    0.00000      7.28864    0.00000
  0    91      7.30637    0.00000      7.30637    0.00000

  1    88      5.13566    1.00000      5.13564    1.00000
  1    89      5.16497    1.00000      5.16484    1.00000
  1    90      7.23144    0.00000      7.23143    0.00000
  1    91      7.24366    0.00000      7.24367    0.00000


Fermi level: 5.57644

Gap: 1.972 eV
Transition (v -> c):
  (s=0, k=49, n=89, [-0.08, -0.42, -0.12]) -> (s=0, k=86, n=90, [0.08, 0.08, 0.12])
Writing to born-0.01-20y-.gpw (mode='all')

Timing:                              incl.     excl.
-----------------------------------------------------------
Hamiltonian:                         0.263     0.002   0.0% |
 Atomic:                             0.077     0.077   0.0% |
  XC Correction:                     0.000     0.000   0.0% |
 Calculate atomic Hamiltonians:      0.091     0.091   0.0% |
 Communicate:                        0.001     0.001   0.0% |
 Initialize Hamiltonian:             0.000     0.000   0.0% |
 Poisson:                            0.001     0.001   0.0% |
 XC 3D grid:                         0.091     0.091   0.0% |
LCAO initialization:                70.547     0.674   0.0% |
 LCAO eigensolver:                  18.100     0.002   0.0% |
  Calculate projections:             0.029     0.029   0.0% |
  DenseAtomicCorrection:             0.043     0.043   0.0% |
  Distribute overlap matrix:         0.189     0.189   0.0% |
  Orbital Layouts:                   0.279     0.279   0.0% |
  Potential matrix:                 17.461    17.461   0.5% |
  Sum over cells:                    0.097     0.097   0.0% |
 LCAO to grid:                      50.455    50.455   1.4% ||
 Set positions (LCAO WFS):           1.317     0.183   0.0% |
  Basic WFS set positions:           0.001     0.001   0.0% |
  Basis functions set positions:     0.000     0.000   0.0% |
  P tci:                             0.515     0.515   0.0% |
  ST tci:                            0.366     0.366   0.0% |
  mktci:                             0.251     0.251   0.0% |
PWDescriptor:                        0.028     0.028   0.0% |
SCF-cycle:                        1460.561     3.324   0.1% |
 Davidson:                        1247.430   398.712  10.8% |---|
  Apply H:                          83.588    80.978   2.2% ||
   HMM T:                            2.611     2.611   0.1% |
  Subspace diag:                   179.638     0.182   0.0% |
   calc_h_matrix:                  114.533    31.212   0.8% |
    Apply H:                        83.321    80.860   2.2% ||
     HMM T:                          2.461     2.461   0.1% |
   diagonalize:                      6.352     6.352   0.2% |
   rotate_psi:                      58.570    58.570   1.6% ||
  calc. matrices:                  372.231   208.001   5.6% |-|
   Apply H:                        164.231   159.278   4.3% |-|
    HMM T:                           4.953     4.953   0.1% |
  diagonalize:                      96.561    96.561   2.6% ||
  rotate_psi:                      116.700   116.700   3.2% ||
 Density:                           49.637     0.001   0.0% |
  Atomic density matrices:           0.832     0.832   0.0% |
  Mix:                               8.493     8.493   0.2% |
  Multipole moments:                 0.023     0.023   0.0% |
  Pseudo density:                   40.287    40.285   1.1% |
   Symmetrize density:               0.002     0.002   0.0% |
 Forces:                           142.749   142.749   3.9% |-|
 Hamiltonian:                       15.115     0.131   0.0% |
  Atomic:                            3.449     3.449   0.1% |
   XC Correction:                    0.000     0.000   0.0% |
  Calculate atomic Hamiltonians:     5.758     5.758   0.2% |
  Communicate:                       0.046     0.046   0.0% |
  Poisson:                           0.057     0.057   0.0% |
  XC 3D grid:                        5.673     5.673   0.2% |
 Orthonormalize:                     2.306     0.003   0.0% |
  calc_s_matrix:                     0.267     0.267   0.0% |
  inverse-cholesky:                  0.039     0.039   0.0% |
  projections:                       1.505     1.505   0.0% |
  rotate_psi_s:                      0.492     0.492   0.0% |
Set symmetry:                        0.000     0.000   0.0% |
Other:                            2151.029  2151.029  58.4% |----------------------|
-----------------------------------------------------------
Total:                                      3682.428 100.0%

Memory usage: 14.08 GiB
Date: Wed Mar 31 20:29:36 2021
