
  ___ ___ ___ _ _ _  
 |   |   |_  | | | | 
 | | | | | . | | | | 
 |__ |  _|___|_____|  21.1.1b1
 |___|_|             

User:   madkru@g043.nifl.fysik.dtu.dk
Date:   Wed Mar 31 03:08:10 2021
Arch:   x86_64
Pid:    39387
Python: 3.8.6
gpaw:   /home/niflheim/madkru/venv_madkru/gpaw/gpaw (e6f0d78a31)
_gpaw:  /home/niflheim/madkru/venv_madkru/gpaw/build/lib.linux-x86_64-sandybridge-3.8/
        _gpaw.cpython-38-x86_64-linux-gnu.so (e6f0d78a31)
ase:    /home/niflheim/madkru/venv_madkru/ase/ase (version 3.22.0b1-4d5a73cb29)
numpy:  /home/modules/software/SciPy-bundle/2020.11-foss-2020b/lib/python3.8/site-packages/numpy (version 1.19.4)
scipy:  /home/modules/software/SciPy-bundle/2020.11-foss-2020b/lib/python3.8/site-packages/scipy (version 1.5.4)
libxc:  4.3.4
units:  Angstrom and eV
cores: 64
OpenMP: False
OMP_NUM_THREADS: 1

Input parameters:
  convergence: {bands: occupied,
                density: 0.0001,
                eigenstates: 4e-08,
                energy: 0.0005,
                forces: 1e-06}
  kpts: [6 6 4]
  maxiter: 1000
  mode: {ecut: 600.0,
         gammacentered: False,
         name: pw}
  occupations: {fixmagmom: False,
                name: fermi-dirac,
                width: 0.001}
  symmetry: {point_group: False,
             time_reversal: False}

System changes: positions, numbers, cell, pbc, initial_charges, initial_magmoms 

Initialize ...

O-setup:
  name: Oxygen
  id: 9b9d51c344dea68c822856295a461509
  Z: 8.0
  valence: 6
  core: 2
  charge: 0.0
  file: /home/modules/software/GPAW-setups/0.9.20000/O.LDA.gz
  compensation charges: gauss, rc=0.21, lmax=2
  cutoffs: 1.17(filt), 0.83(core),
  valence states:
                energy  radius
    2s(2.00)   -23.752   0.688
    2p(4.00)    -9.195   0.598
    *s           3.459   0.688
    *p          18.016   0.598
    *d           0.000   0.619

  Using partial waves for O as LCAO basis

Mn-setup:
  name: Manganese
  id: 0d715a8018be061a6e9ea6f2d364ac92
  Z: 25.0
  valence: 15
  core: 10
  charge: 0.0
  file: /home/modules/software/GPAW-setups/0.9.20000/Mn.LDA.gz
  compensation charges: gauss, rc=0.38, lmax=2
  cutoffs: 2.14(filt), 0.86(core),
  valence states:
                energy  radius
    3s(2.00)   -85.387   1.275
    4s(2.00)    -5.282   1.275
    3p(6.00)   -54.493   1.281
    4p(0.00)    -1.471   1.281
    3d(5.00)    -7.009   1.138
    *d          20.203   1.138

  Using partial waves for Mn as LCAO basis

P-setup:
  name: Phosphorus
  id: a5561c299094968922a179ab894d2e2d
  Z: 15.0
  valence: 5
  core: 10
  charge: 0.0
  file: /home/modules/software/GPAW-setups/0.9.20000/P.LDA.gz
  compensation charges: gauss, rc=0.30, lmax=2
  cutoffs: 1.69(filt), 1.81(core),
  valence states:
                energy  radius
    3s(2.00)   -14.015   0.953
    3p(3.00)    -5.596   0.953
    *s          13.197   0.953
    *p          21.615   0.953
    *d           0.000   0.953

  Using partial waves for P as LCAO basis

Li-setup:
  name: Lithium
  id: b73562207f97a71b6967473b66fe8b65
  Z: 3.0
  valence: 1
  core: 2
  charge: 0.0
  file: /home/modules/software/GPAW-setups/0.9.20000/Li.LDA.gz
  compensation charges: gauss, rc=0.33, lmax=2
  cutoffs: 1.91(filt), 2.55(core),
  valence states:
                energy  radius
    2s(1.00)    -2.874   1.058
    2p(0.00)    -1.126   1.058
    *s          24.338   1.058

  Using partial waves for Li as LCAO basis

Reference energy: -196157.275402

Spin-polarized calculation.
Magnetic moment: 0.000000

Convergence criteria:
  Maximum total energy change: 0.0005 eV / electron
  Maximum integral of absolute density change: 0.0001 electrons
  Maximum integral of absolute eigenstate change: 4e-08 eV^2
  Maximum change in atomic force: 1e-06 eV / Ang
  Maximum number of iterations: 1000

Symmetries present (total): 1

  ( 1  0  0)
  ( 0  1  0)
  ( 0  0  1)

144 k-points: 6 x 6 x 4 Monkhorst-Pack grid
144 k-points in the irreducible part of the Brillouin zone
       k-points in crystal coordinates                weights
   0:    -0.41666667   -0.41666667   -0.37500000          1/144
   1:    -0.41666667   -0.41666667   -0.12500000          1/144
   2:    -0.41666667   -0.41666667    0.12500000          1/144
   3:    -0.41666667   -0.41666667    0.37500000          1/144
   4:    -0.41666667   -0.25000000   -0.37500000          1/144
   5:    -0.41666667   -0.25000000   -0.12500000          1/144
   6:    -0.41666667   -0.25000000    0.12500000          1/144
   7:    -0.41666667   -0.25000000    0.37500000          1/144
   8:    -0.41666667   -0.08333333   -0.37500000          1/144
   9:    -0.41666667   -0.08333333   -0.12500000          1/144
          ...
 143:     0.41666667    0.41666667    0.37500000          1/144

Wave functions: Plane wave expansion
  Cutoff energy: 600.000 eV
  Number of coefficients (min, max): 10068, 10125
  Pulay-stress correction: 0.000000 eV/Ang^3 (de/decut=0.000000)
  Using FFTW library
  ScaLapack parameters: grid=1x1, blocksize=None
  Wavefunction extrapolation:
    Improved wavefunction reuse through dual PAW basis 

  Fermi-Dirac: width=0.0010 eV

Eigensolver
   Davidson(niter=2) 

Densities:
  Coarse grid: 60*35*27 grid
  Fine grid: 120*70*54 grid
  Total Charge: 0.000000 

Density mixing:
  Method: difference
  Backend: pulay
  Linear mixing parameter: 0.05
  Mixing with 5 old densities
  Damping of long wave oscillations: 50 

Hamiltonian:
  XC and Coulomb potentials evaluated on a 120*70*54 grid
  Using the LDA Exchange-Correlation functional
 

Memory estimate:
  Process memory now: 13329.51 MiB
  Calculator: 354.82 MiB
    Density: 10.06 MiB
      Arrays: 3.79 MiB
      Localized functions: 4.71 MiB
      Mixer: 1.56 MiB
    Hamiltonian: 2.95 MiB
      Arrays: 2.82 MiB
      XC: 0.00 MiB
      Poisson: 0.00 MiB
      vbar: 0.14 MiB
    Wavefunctions: 341.80 MiB
      Arrays psit_nG: 311.46 MiB
      Eigensolver: 19.99 MiB
      Projections: 2.71 MiB
      Projectors: 4.87 MiB
      PW-descriptor: 2.77 MiB

Total number of cores used: 64
Parallelization over k-points: 16
Domain decomposition: 2 x 2 x 1

Number of atoms: 28
Number of atomic orbitals: 148
Number of bands in calculation: 112
Number of valence electrons: 180
Bands to converge: occupied

... initialized

Initializing position-dependent things.

Density initialized from atomic densities
Creating initial wave functions:
  112 bands from LCAO basis set

     .-------------------------.  
    /|         OP              |  
   / |O            O        O  |  
  /  |       O            O  P |  
 *   |O    Mn      O           |  
 |   |          OLi          O |  
 |   .P-O--------------Mn------.  
 |  /          Li    O  Mn  O /   
 | /Li O           PO        /    
 |/       Mn                /     
 *Li-----------------------*      

Positions:
   0 O     -1.360678   -2.541161   -1.202221    ( 0.0000,  0.0000,  0.0000)
   1 O     -3.121941    2.976855    1.167242    ( 0.0000,  0.0000,  0.0000)
   2 O      2.107533    0.508090    1.540712    ( 0.0000,  0.0000,  0.0000)
   3 O      3.869373   -0.072395   -0.828750    ( 0.0000,  0.0000,  0.0000)
   4 O      2.107821    2.976875    1.540792    ( 0.0000,  0.0000,  0.0000)
   5 O      3.869084   -2.541141   -0.828671    ( 0.0000,  0.0000,  0.0000)
   6 O     -1.360390   -0.072375   -1.202141    ( 0.0000,  0.0000,  0.0000)
   7 O     -3.122230    0.508109    1.167321    ( 0.0000,  0.0000,  0.0000)
   8 O     -4.413461   -1.306992   -0.794251    ( 0.0000,  0.0000,  0.0000)
   9 O     -0.069585    1.742707    1.575662    ( 0.0000,  0.0000,  0.0000)
  10 O      5.160604    1.742707    1.132822    ( 0.0000,  0.0000,  0.0000)
  11 O      0.816728   -1.306992   -1.237091    ( 0.0000,  0.0000,  0.0000)
  12 Mn    -2.570809   -1.307302    0.247161    ( 0.0000,  0.0000,  1.0000)
  13 Mn    -1.912021    1.743016   -2.122906    ( 0.0000,  0.0000, -1.0000)
  14 Mn     3.317952    1.743017    0.091411    ( 0.0000,  0.0000, -1.0000)
  15 Mn     2.659164   -1.307302    2.471478    ( 0.0000,  0.0000,  1.0000)
  16 P     -0.620664   -1.306816   -1.828465    ( 0.0000,  0.0000,  0.0000)
  17 P     -3.862097    1.742530    0.541238    ( 0.0000,  0.0000,  0.0000)
  18 P      1.367807    1.742530    2.167036    ( 0.0000,  0.0000,  0.0000)
  19 P      4.609240   -1.306816   -0.202666    ( 0.0000,  0.0000,  0.0000)
  20 O     -0.646437   -1.306845    1.374751    ( 0.0000,  0.0000,  0.0000)
  21 O     -3.836504    1.742559   -0.995565    ( 0.0000,  0.0000,  0.0000)
  22 O      1.393580    1.742559   -1.036179    ( 0.0000,  0.0000,  0.0000)
  23 O      4.583647   -1.306845    1.334136    ( 0.0000,  0.0000,  0.0000)
  24 Li    -4.856429   -2.832143   -2.200714    ( 0.0000,  0.0000,  0.0000)
  25 Li     0.373571   -2.832143    0.169286    ( 0.0000,  0.0000,  0.0000)
  26 Li    -4.856429    0.217857   -2.200714    ( 0.0000,  0.0000,  0.0000)
  27 Li     0.373571    0.217857    0.169286    ( 0.0000,  0.0000,  0.0000)

Unit cell:
           periodic     x           y           z      points  spacing
  1. axis:    yes   10.460000    0.000000    0.000000    60     0.1743
  2. axis:    yes    0.000000    6.100000    0.000000    35     0.1743
  3. axis:    yes    0.000000    0.000000    4.740000    27     0.1756

  Lengths:  10.460000   6.100000   4.740000
  Angles:   90.000000  90.000000  90.000000

Effective grid spacing dv^(1/3) = 0.1747

                     log10-error:           total        iterations:
           time      wfs    density  force  energy       poisson  magmom
iter:   1  03:09:45                       -231.918498             +0.0000
iter:   2  03:10:07  -0.55  -0.94         -231.723037             +0.0103
iter:   3  03:10:28  -0.72  -0.98         -220.572448             +0.0129
iter:   4  03:10:49  -0.94  -1.20         -218.850161             +0.0700
iter:   5  03:11:11  -1.96  -1.36         -222.430515             +0.0354
iter:   6  03:11:32  -1.99  -1.39         -221.046460             +0.0202
iter:   7  03:11:53  -1.87  -1.57         -225.163389             -0.3057
iter:   8  03:12:14  -2.26  -1.62         -225.040898             -2.4020
iter:   9  03:12:36  -2.65  -1.79         -226.119168             -1.6662
iter:  10  03:12:57  -1.51  -1.82         -226.727495             -0.1883
iter:  11  03:13:18  -2.51  -2.14         -226.697313             -0.1206
iter:  12  03:13:40  -3.01  -2.14         -226.452316             -0.0235
iter:  13  03:14:01  -2.51  -2.25         -226.247138             -0.0187
iter:  14  03:14:22  -2.72  -2.58         -226.247721             -0.0081
iter:  15  03:14:43  -3.45  -2.75         -226.258999             -0.0096
iter:  16  03:15:05  -3.00  -2.78         -226.232974             -0.0032
iter:  17  03:15:26  -4.26  -3.22         -226.229997             -0.0016
iter:  18  03:15:47  -4.62  -3.31         -226.228826             -0.0004
iter:  19  03:16:08  -4.59  -3.35         -226.228652             -0.0002
iter:  20  03:16:30  -4.37  -3.45         -226.228491             -0.0001
iter:  21  03:16:51  -5.06  -3.63         -226.227894             -0.0001
iter:  22  03:17:12  -5.64  -3.88         -226.227833             -0.0000
iter:  23  03:17:33  -6.12  -3.98         -226.227806             +0.0000
iter:  24  03:17:54  -6.22  -4.07         -226.227759             -0.0000
iter:  25  03:18:16  -6.67  -4.19         -226.227746             -0.0000
iter:  26  03:18:37  -6.49  -4.24         -226.227741             -0.0000
iter:  27  03:18:58  -7.16  -4.29         -226.227740             -0.0000
iter:  28  03:19:19  -7.04  -4.31         -226.227742             -0.0000
iter:  29  03:19:46  -7.84  -4.47         -226.227741             -0.0000
iter:  30  03:20:07  -7.31  -4.54         -226.227739             -0.0000
iter:  31  03:20:34  -8.23  -4.64    -2.49-226.227738             -0.0000
iter:  32  03:20:55  -7.17  -4.68         -226.227738             -0.0000
iter:  33  03:21:22  -8.54  -5.09    -2.39-226.227738             -0.0000
iter:  34  03:21:49  -8.18  -5.15    -2.92-226.227737             -0.0000
iter:  35  03:22:16  -8.41  -5.22    -2.93-226.227737             -0.0000
iter:  36  03:22:42  -8.82  -5.25    -3.45-226.227737             -0.0000
iter:  37  03:23:09  -9.22  -5.30    -3.69-226.227737             -0.0000
iter:  38  03:23:36  -8.76  -5.35    -3.16-226.227737             -0.0000
iter:  39  03:24:03  -9.06  -5.64    -3.55-226.227737             -0.0000
iter:  40  03:24:29  -9.73  -5.77    -3.65-226.227737             -0.0000
iter:  41  03:24:56 -10.31  -5.80    -4.03-226.227737             -0.0000
iter:  42  03:25:23  -9.43  -5.83    -3.63-226.227737             -0.0000
iter:  43  03:25:49 -10.49  -5.95    -4.32-226.227737             -0.0000
iter:  44  03:26:16  -9.66  -5.98    -3.56-226.227737             +0.0000
iter:  45  03:26:43 -10.44  -6.30    -4.03-226.227737             +0.0000
iter:  46  03:27:10 -11.20  -6.46    -4.52-226.227737             -0.0000
iter:  47  03:27:36 -11.39  -6.50    -4.56-226.227737             -0.0000
iter:  48  03:28:03 -11.16  -6.56    -4.21-226.227737             -0.0000
iter:  49  03:28:30 -11.41  -6.70    -4.77-226.227737             -0.0000
iter:  50  03:28:57 -12.16  -6.82    -5.13-226.227737             -0.0000
iter:  51  03:29:23 -11.87  -6.86    -4.73-226.227737             -0.0000
iter:  52  03:29:50 -11.88  -6.99    -5.02-226.227737             -0.0000
iter:  53  03:30:17 -11.97  -7.05    -4.75-226.227737             -0.0000
iter:  54  03:30:43 -12.59  -7.34    -5.38-226.227737             -0.0000
iter:  55  03:31:10 -12.26  -7.40    -5.05-226.227737             +0.0000
iter:  56  03:31:37 -13.27  -7.64    -5.50-226.227737             +0.0000
iter:  57  03:32:04 -14.07  -7.66    -5.98-226.227737             +0.0000
iter:  58  03:32:30 -13.19  -7.68    -5.47-226.227737             +0.0000
iter:  59  03:32:57 -13.93  -7.80    -5.84-226.227737             +0.0000
iter:  60  03:33:24 -14.75  -7.86    -6.59-226.227737             +0.0000

Converged after 60 iterations.

Dipole moment: (10.672357, 1.412733, -6.258192) |e|*Ang

Total magnetic moment: (0.000000, 0.000000, 0.000000)
Local magnetic moments:
   0 O  ( 0.000000,  0.000000, -0.000488)
   1 O  ( 0.000000,  0.000000,  0.000533)
   2 O  ( 0.000000,  0.000000,  0.000314)
   3 O  ( 0.000000,  0.000000, -0.000182)
   4 O  ( 0.000000,  0.000000,  0.000295)
   5 O  ( 0.000000,  0.000000, -0.000162)
   6 O  ( 0.000000,  0.000000, -0.000508)
   7 O  ( 0.000000,  0.000000,  0.000553)
   8 O  ( 0.000000,  0.000000,  0.028702)
   9 O  ( 0.000000,  0.000000, -0.028777)
  10 O  ( 0.000000,  0.000000, -0.028669)
  11 O  ( 0.000000,  0.000000,  0.028896)
  12 Mn ( 0.000000,  0.000000,  4.448192)
  13 Mn ( 0.000000,  0.000000, -4.448250)
  14 Mn ( 0.000000,  0.000000, -4.447978)
  15 Mn ( 0.000000,  0.000000,  4.448093)
  16 P  ( 0.000000,  0.000000,  0.001659)
  17 P  ( 0.000000,  0.000000, -0.001543)
  18 P  ( 0.000000,  0.000000, -0.001718)
  19 P  ( 0.000000,  0.000000,  0.001555)
  20 O  ( 0.000000,  0.000000,  0.025317)
  21 O  ( 0.000000,  0.000000, -0.025293)
  22 O  ( 0.000000,  0.000000, -0.025364)
  23 O  ( 0.000000,  0.000000,  0.025088)
  24 Li ( 0.000000,  0.000000,  0.000002)
  25 Li ( 0.000000,  0.000000,  0.000001)
  26 Li ( 0.000000,  0.000000,  0.000002)
  27 Li ( 0.000000,  0.000000,  0.000001)

Energy contributions relative to reference atoms: (reference = -196157.275402)

Kinetic:       +217.396880
Potential:     -195.271698
External:        +0.000000
XC:            -250.393935
Entropy (-ST):   -0.000000
Local:           +2.041016
--------------------------
Free energy:   -226.227737
Extrapolated:  -226.227737

Spin contamination: 9.560023 electrons
Showing only first 2 kpts
                      Up                     Down
 Kpt  Band  Eigenvalues  Occupancy  Eigenvalues  Occupancy
  0    88      5.10792    1.00000      5.10947    1.00000
  0    89      5.13204    1.00000      5.13400    1.00000
  0    90      7.28888    0.00000      7.29047    0.00000
  0    91      7.30645    0.00000      7.31040    0.00000

  1    88      5.13417    1.00000      5.13531    1.00000
  1    89      5.16336    1.00000      5.16475    1.00000
  1    90      7.23170    0.00000      7.23230    0.00000
  1    91      7.24374    0.00000      7.24601    0.00000


Fermi level: 6.00611

Gap: 1.972 eV
Transition (v -> c):
  (s=1, k=69, n=89, [-0.08, 0.42, -0.12]) -> (s=0, k=85, n=90, [0.08, 0.08, -0.12])
Writing to born-0.01-15z+.gpw (mode='all')

Timing:                              incl.     excl.
-----------------------------------------------------------
Hamiltonian:                         0.276     0.002   0.0% |
 Atomic:                             0.089     0.089   0.0% |
  XC Correction:                     0.000     0.000   0.0% |
 Calculate atomic Hamiltonians:      0.092     0.092   0.0% |
 Communicate:                        0.000     0.000   0.0% |
 Initialize Hamiltonian:             0.000     0.000   0.0% |
 Poisson:                            0.001     0.001   0.0% |
 XC 3D grid:                         0.091     0.091   0.0% |
LCAO initialization:                70.076     0.676   0.0% |
 LCAO eigensolver:                  17.905     0.002   0.0% |
  Calculate projections:             0.029     0.029   0.0% |
  DenseAtomicCorrection:             0.043     0.043   0.0% |
  Distribute overlap matrix:         0.024     0.024   0.0% |
  Orbital Layouts:                   0.277     0.277   0.0% |
  Potential matrix:                 17.446    17.446   0.5% |
  Sum over cells:                    0.084     0.084   0.0% |
 LCAO to grid:                      50.218    50.218   1.3% ||
 Set positions (LCAO WFS):           1.277     0.180   0.0% |
  Basic WFS set positions:           0.001     0.001   0.0% |
  Basis functions set positions:     0.000     0.000   0.0% |
  P tci:                             0.515     0.515   0.0% |
  ST tci:                            0.367     0.367   0.0% |
  mktci:                             0.212     0.212   0.0% |
PWDescriptor:                        0.025     0.025   0.0% |
SCF-cycle:                        1442.479     5.955   0.2% |
 Davidson:                        1206.622   386.101  10.2% |---|
  Apply H:                          80.536    78.154   2.1% ||
   HMM T:                            2.382     2.382   0.1% |
  Subspace diag:                   173.365     0.178   0.0% |
   calc_h_matrix:                  110.562    30.176   0.8% |
    Apply H:                        80.386    78.085   2.1% ||
     HMM T:                          2.301     2.301   0.1% |
   diagonalize:                      6.171     6.171   0.2% |
   rotate_psi:                      56.454    56.454   1.5% ||
  calc. matrices:                  360.991   201.528   5.3% |-|
   Apply H:                        159.463   154.811   4.1% |-|
    HMM T:                           4.652     4.652   0.1% |
  diagonalize:                      93.110    93.110   2.5% ||
  rotate_psi:                      112.519   112.519   3.0% ||
 Density:                           48.241     0.001   0.0% |
  Atomic density matrices:           0.790     0.790   0.0% |
  Mix:                               8.170     8.170   0.2% |
  Multipole moments:                 0.021     0.021   0.0% |
  Pseudo density:                   39.258    39.256   1.0% |
   Symmetrize density:               0.002     0.002   0.0% |
 Forces:                           164.750   164.750   4.3% |-|
 Hamiltonian:                       14.608     0.126   0.0% |
  Atomic:                            3.351     3.351   0.1% |
   XC Correction:                    0.000     0.000   0.0% |
  Calculate atomic Hamiltonians:     5.613     5.613   0.1% |
  Communicate:                       0.011     0.011   0.0% |
  Poisson:                           0.054     0.054   0.0% |
  XC 3D grid:                        5.452     5.452   0.1% |
 Orthonormalize:                     2.305     0.004   0.0% |
  calc_s_matrix:                     0.266     0.266   0.0% |
  inverse-cholesky:                  0.040     0.040   0.0% |
  projections:                       1.503     1.503   0.0% |
  rotate_psi_s:                      0.492     0.492   0.0% |
Set symmetry:                        0.000     0.000   0.0% |
Other:                            2279.013  2279.013  60.1% |-----------------------|
-----------------------------------------------------------
Total:                                      3791.869 100.0%

Memory usage: 13.06 GiB
Date: Wed Mar 31 04:11:22 2021
