
  ___ ___ ___ _ _ _  
 |   |   |_  | | | | 
 | | | | | . | | | | 
 |__ |  _|___|_____|  20.10.1b1
 |___|_|             

User:   madkru@g064.nifl.fysik.dtu.dk
Date:   Mon Mar 22 08:04:52 2021
Arch:   x86_64
Pid:    60512
Python: 3.7.4
gpaw:   /home/niflheim/madkru/venv_folder/gpaw/gpaw (d0d1ca1c71)
_gpaw:  /home/niflheim/madkru/venv_folder/gpaw/build/lib.linux-x86_64-sandybridge-3.7/
        _gpaw.cpython-37m-x86_64-linux-gnu.so (4fd39e8b1e)
ase:    /home/niflheim/madkru/venv_folder/ase/ase (version 3.21.0b1-7e6c206a91)
numpy:  /home/niflheim/madkru/venv_folder/lib/python3.7/site-packages/numpy (version 1.19.4)
scipy:  /home/niflheim/madkru/venv_folder/lib/python3.7/site-packages/scipy (version 1.5.4)
libxc:  4.3.4
units:  Angstrom and eV
cores: 32
OMP_NUM_THREADS: 1

Input parameters:
  convergence: {bands: occupied,
                density: 0.0001,
                eigenstates: 4e-08,
                energy: 0.0005,
                forces: 1e-06}
  kpts: [6 6 4]
  mode: {ecut: 600.0,
         gammacentered: False,
         name: pw}
  occupations: {fixmagmom: False,
                name: fermi-dirac,
                width: 0.001}
  symmetry: {point_group: False,
             time_reversal: False}

System changes: positions, numbers, cell, pbc, initial_charges, initial_magmoms 

Initialize ...

O-setup:
  name: Oxygen
  id: 9b9d51c344dea68c822856295a461509
  Z: 8.0
  valence: 6
  core: 2
  charge: 0.0
  file: /home/modules/software/GPAW-setups/0.9.20000/O.LDA.gz
  compensation charges: gauss, rc=0.21, lmax=2
  cutoffs: 1.17(filt), 0.83(core),
  valence states:
                energy  radius
    2s(2.00)   -23.752   0.688
    2p(4.00)    -9.195   0.598
    *s           3.459   0.688
    *p          18.016   0.598
    *d           0.000   0.619

  Using partial waves for O as LCAO basis

Mn-setup:
  name: Manganese
  id: 0d715a8018be061a6e9ea6f2d364ac92
  Z: 25.0
  valence: 15
  core: 10
  charge: 0.0
  file: /home/modules/software/GPAW-setups/0.9.20000/Mn.LDA.gz
  compensation charges: gauss, rc=0.38, lmax=2
  cutoffs: 2.14(filt), 0.86(core),
  valence states:
                energy  radius
    3s(2.00)   -85.387   1.275
    4s(2.00)    -5.282   1.275
    3p(6.00)   -54.493   1.281
    4p(0.00)    -1.471   1.281
    3d(5.00)    -7.009   1.138
    *d          20.203   1.138

  Using partial waves for Mn as LCAO basis

P-setup:
  name: Phosphorus
  id: a5561c299094968922a179ab894d2e2d
  Z: 15.0
  valence: 5
  core: 10
  charge: 0.0
  file: /home/modules/software/GPAW-setups/0.9.20000/P.LDA.gz
  compensation charges: gauss, rc=0.30, lmax=2
  cutoffs: 1.69(filt), 1.81(core),
  valence states:
                energy  radius
    3s(2.00)   -14.015   0.953
    3p(3.00)    -5.596   0.953
    *s          13.197   0.953
    *p          21.615   0.953
    *d           0.000   0.953

  Using partial waves for P as LCAO basis

Li-setup:
  name: Lithium
  id: b73562207f97a71b6967473b66fe8b65
  Z: 3.0
  valence: 1
  core: 2
  charge: 0.0
  file: /home/modules/software/GPAW-setups/0.9.20000/Li.LDA.gz
  compensation charges: gauss, rc=0.33, lmax=2
  cutoffs: 1.91(filt), 2.55(core),
  valence states:
                energy  radius
    2s(1.00)    -2.874   1.058
    2p(0.00)    -1.126   1.058
    *s          24.338   1.058

  Using partial waves for Li as LCAO basis

Reference energy: -196157.275402

Spin-polarized calculation.
Magnetic moment: 0.000000

Convergence criteria:
  Maximum total energy change: 0.0005 eV / electron
  Maximum integral of absolute density change: 0.0001 electrons
  Maximum integral of absolute eigenstate change: 4e-08 eV^2
  Maximum change in atomic force: 1e-06 eV / Ang
  Maximum number of iterations: 333

Symmetries present (total): 1

  ( 1  0  0)
  ( 0  1  0)
  ( 0  0  1)

144 k-points: 6 x 6 x 4 Monkhorst-Pack grid
144 k-points in the irreducible part of the Brillouin zone
       k-points in crystal coordinates                weights
   0:    -0.41666667   -0.41666667   -0.37500000          1/144
   1:    -0.41666667   -0.41666667   -0.12500000          1/144
   2:    -0.41666667   -0.41666667    0.12500000          1/144
   3:    -0.41666667   -0.41666667    0.37500000          1/144
   4:    -0.41666667   -0.25000000   -0.37500000          1/144
   5:    -0.41666667   -0.25000000   -0.12500000          1/144
   6:    -0.41666667   -0.25000000    0.12500000          1/144
   7:    -0.41666667   -0.25000000    0.37500000          1/144
   8:    -0.41666667   -0.08333333   -0.37500000          1/144
   9:    -0.41666667   -0.08333333   -0.12500000          1/144
          ...
 143:     0.41666667    0.41666667    0.37500000          1/144

Wave functions: Plane wave expansion
  Cutoff energy: 600.000 eV
  Number of coefficients (min, max): 10068, 10125
  Pulay-stress correction: 0.000000 eV/Ang^3 (de/decut=0.000000)
  Using FFTW library
  ScaLapack parameters: grid=1x1, blocksize=None
  Wavefunction extrapolation:
    Improved wavefunction reuse through dual PAW basis 

  Fermi-Dirac: width=0.0010 eV

Eigensolver
   Davidson(niter=2, smin=None, normalize=True) 

Densities:
  Coarse grid: 60*35*27 grid
  Fine grid: 120*70*54 grid
  Total Charge: 0.000000 

Density mixing:
  Method: difference
  Backend: pulay
  Linear mixing parameter: 0.05
  Mixing with 5 old densities
  Damping of long wave oscillations: 50 

Hamiltonian:
  XC and Coulomb potentials evaluated on a 120*70*54 grid
  Using the LDA Exchange-Correlation functional
 

Memory estimate:
  Process memory now: 13030.55 MiB
  Calculator: 375.55 MiB
    Density: 20.02 MiB
      Arrays: 7.57 MiB
      Localized functions: 9.42 MiB
      Mixer: 3.03 MiB
    Hamiltonian: 5.90 MiB
      Arrays: 5.62 MiB
      XC: 0.00 MiB
      Poisson: 0.00 MiB
      vbar: 0.27 MiB
    Wavefunctions: 349.64 MiB
      Arrays psit_nG: 311.46 MiB
      Eigensolver: 19.99 MiB
      Projections: 5.41 MiB
      Projectors: 9.73 MiB
      PW-descriptor: 3.03 MiB

Total number of cores used: 32
Parallelization over k-points: 16
Domain decomposition: 2 x 1 x 1

Number of atoms: 28
Number of atomic orbitals: 148
Number of bands in calculation: 112
Number of valence electrons: 180
Bands to converge: occupied

... initialized

Initializing position-dependent things.

Density initialized from atomic densities
Creating initial wave functions:
  112 bands from LCAO basis set

     .-------------------------.  
    /|         OP              |  
   / |O            O        O  |  
  /  |       O            O  P |  
 *   |O    Mn      O           |  
 |   |          OLi          O |  
 |   .P-O--------------Mn------.  
 |  /          Li    O  Mn  O /   
 | /Li O           PO        /    
 |/       Mn                /     
 *Li-----------------------*      

Positions:
   0 O     -1.360678   -2.541161   -1.202221    ( 0.0000,  0.0000,  0.0000)
   1 O     -3.121941    2.976855    1.167242    ( 0.0000,  0.0000,  0.0000)
   2 O      2.107533    0.508090    1.540712    ( 0.0000,  0.0000,  0.0000)
   3 O      3.869373   -0.072395   -0.828750    ( 0.0000,  0.0000,  0.0000)
   4 O      2.107821    2.976875    1.540792    ( 0.0000,  0.0000,  0.0000)
   5 O      3.869084   -2.551141   -0.828671    ( 0.0000,  0.0000,  0.0000)
   6 O     -1.360390   -0.072375   -1.202141    ( 0.0000,  0.0000,  0.0000)
   7 O     -3.122230    0.508109    1.167321    ( 0.0000,  0.0000,  0.0000)
   8 O     -4.413461   -1.306992   -0.794251    ( 0.0000,  0.0000,  0.0000)
   9 O     -0.069585    1.742707    1.575662    ( 0.0000,  0.0000,  0.0000)
  10 O      5.160604    1.742707    1.132822    ( 0.0000,  0.0000,  0.0000)
  11 O      0.816728   -1.306992   -1.237091    ( 0.0000,  0.0000,  0.0000)
  12 Mn    -2.570809   -1.307302    0.247161    ( 0.0000,  0.0000,  1.0000)
  13 Mn    -1.912021    1.743016   -2.122906    ( 0.0000,  0.0000, -1.0000)
  14 Mn     3.317952    1.743017    0.091411    ( 0.0000,  0.0000, -1.0000)
  15 Mn     2.659164   -1.307302    2.461478    ( 0.0000,  0.0000,  1.0000)
  16 P     -0.620664   -1.306816   -1.828465    ( 0.0000,  0.0000,  0.0000)
  17 P     -3.862097    1.742530    0.541238    ( 0.0000,  0.0000,  0.0000)
  18 P      1.367807    1.742530    2.167036    ( 0.0000,  0.0000,  0.0000)
  19 P      4.609240   -1.306816   -0.202666    ( 0.0000,  0.0000,  0.0000)
  20 O     -0.646437   -1.306845    1.374751    ( 0.0000,  0.0000,  0.0000)
  21 O     -3.836504    1.742559   -0.995565    ( 0.0000,  0.0000,  0.0000)
  22 O      1.393580    1.742559   -1.036179    ( 0.0000,  0.0000,  0.0000)
  23 O      4.583647   -1.306845    1.334136    ( 0.0000,  0.0000,  0.0000)
  24 Li    -4.856429   -2.832143   -2.200714    ( 0.0000,  0.0000,  0.0000)
  25 Li     0.373571   -2.832143    0.169286    ( 0.0000,  0.0000,  0.0000)
  26 Li    -4.856429    0.217857   -2.200714    ( 0.0000,  0.0000,  0.0000)
  27 Li     0.373571    0.217857    0.169286    ( 0.0000,  0.0000,  0.0000)

Unit cell:
           periodic     x           y           z      points  spacing
  1. axis:    yes   10.460000    0.000000    0.000000    60     0.1743
  2. axis:    yes    0.000000    6.100000    0.000000    35     0.1743
  3. axis:    yes    0.000000    0.000000    4.740000    27     0.1756

  Lengths:  10.460000   6.100000   4.740000
  Angles:   90.000000  90.000000  90.000000

Effective grid spacing dv^(1/3) = 0.1747

                     log10-error:           total        iterations:
           time      wfs    density  force  energy       poisson  magmom
iter:   1  08:07:55                       -231.921996             +0.0000
iter:   2  08:08:34  -0.55  -0.94         -231.718107             +0.0146
iter:   3  08:09:14  -0.72  -0.98         -220.588512             +0.0183
iter:   4  08:09:53  -0.95  -1.20         -218.875635             +0.0060
iter:   5  08:10:33  -1.93  -1.36         -222.178895             +0.0039
iter:   6  08:11:12  -1.99  -1.44         -221.134984             +0.0017
iter:   7  08:11:52  -2.25  -1.68         -223.865503             +0.0012
iter:   8  08:12:31  -1.67  -1.89         -226.498092             +0.0002
iter:   9  08:13:11  -2.04  -1.94         -226.586062             +0.0001
iter:  10  08:13:50  -2.31  -1.99         -226.577263             +0.0000
iter:  11  08:14:29  -2.46  -2.05         -226.520635             +0.0000
iter:  12  08:15:09  -2.35  -2.15         -226.260678             -0.0000
iter:  13  08:15:48  -2.67  -2.34         -226.243029             +0.0000
iter:  14  08:16:27  -3.48  -2.69         -226.231446             +0.0000
iter:  15  08:17:07  -3.83  -2.78         -226.229309             +0.0000
iter:  16  08:17:46  -4.62  -3.16         -226.229434             +0.0000
iter:  17  08:18:25  -4.85  -3.22         -226.227696             +0.0000
iter:  18  08:19:05  -5.38  -3.42         -226.227180             +0.0000
iter:  19  08:19:44  -4.76  -3.46         -226.226768             +0.0000
iter:  20  08:20:23  -4.91  -3.55         -226.226640             +0.0000
iter:  21  08:21:03  -5.99  -4.11         -226.226655             +0.0000
iter:  22  08:21:42  -6.02  -4.15         -226.226666             +0.0000
iter:  23  08:22:21  -6.62  -4.13         -226.226671             +0.0000
iter:  24  08:23:01  -6.65  -4.26         -226.226657             +0.0000
iter:  25  08:23:51  -7.50  -4.36         -226.226656             +0.0000
iter:  26  08:24:30  -6.65  -4.39         -226.226655             +0.0000
iter:  27  08:25:09  -6.75  -4.66         -226.226652             +0.0000
iter:  28  08:25:59  -8.14  -4.90    -2.02-226.226651             +0.0000
iter:  29  08:26:49  -7.59  -5.03    -3.00-226.226650             +0.0000
iter:  30  08:27:39  -8.10  -5.08    -2.69-226.226650             +0.0000
iter:  31  08:28:29  -9.09  -5.49    -3.34-226.226650             +0.0000
iter:  32  08:29:19  -8.92  -5.64    -3.40-226.226650             +0.0000
iter:  33  08:30:09  -9.35  -5.67    -3.46-226.226650             +0.0000
iter:  34  08:30:59 -10.34  -5.85    -3.95-226.226650             +0.0000
iter:  35  08:31:49 -10.33  -5.89    -3.72-226.226650             +0.0000
iter:  36  08:32:39  -9.83  -5.98    -3.74-226.226650             +0.0000
iter:  37  08:33:29 -10.00  -6.19    -4.00-226.226650             +0.0000
iter:  38  08:34:19 -10.55  -6.17    -3.84-226.226650             +0.0000
iter:  39  08:35:09 -11.26  -6.49    -5.06-226.226650             +0.0000
iter:  40  08:35:59 -11.29  -6.51    -4.28-226.226650             +0.0000
iter:  41  08:36:49 -12.32  -6.66    -5.32-226.226650             +0.0000
iter:  42  08:37:39 -11.67  -6.63    -4.90-226.226650             +0.0000
iter:  43  08:38:29 -11.40  -6.71    -4.34-226.226650             +0.0000
iter:  44  08:39:19 -12.38  -6.98    -5.17-226.226650             +0.0000
iter:  45  08:40:09 -12.53  -7.04    -4.88-226.226650             -0.0000
iter:  46  08:40:59 -13.02  -7.13    -5.16-226.226650             -0.0000
iter:  47  08:41:49 -12.57  -7.16    -5.26-226.226650             +0.0000
iter:  48  08:42:39 -13.36  -7.25    -5.38-226.226650             +0.0000
iter:  49  08:43:29 -13.09  -7.31    -5.29-226.226650             -0.0000
iter:  50  08:44:19 -13.18  -7.44    -5.42-226.226650             -0.0000
iter:  51  08:45:09 -12.91  -7.50    -5.43-226.226650             +0.0000
iter:  52  08:45:59 -13.81  -7.70    -6.15-226.226650             +0.0000

Converged after 52 iterations.

Dipole moment: (10.673134, 1.416821, -6.266200) |e|*Ang

Total magnetic moment: (0.000000, 0.000000, 0.000000)
Local magnetic moments:
   0 O  ( 0.000000,  0.000000, -0.000506)
   1 O  ( 0.000000,  0.000000,  0.000548)
   2 O  ( 0.000000,  0.000000,  0.000757)
   3 O  ( 0.000000,  0.000000, -0.000413)
   4 O  ( 0.000000,  0.000000,  0.000486)
   5 O  ( 0.000000,  0.000000, -0.000926)
   6 O  ( 0.000000,  0.000000, -0.000528)
   7 O  ( 0.000000,  0.000000,  0.000562)
   8 O  ( 0.000000,  0.000000,  0.028483)
   9 O  ( 0.000000,  0.000000, -0.028718)
  10 O  ( 0.000000,  0.000000, -0.028703)
  11 O  ( 0.000000,  0.000000,  0.028712)
  12 Mn ( 0.000000,  0.000000,  4.448058)
  13 Mn ( 0.000000,  0.000000, -4.448255)
  14 Mn ( 0.000000,  0.000000, -4.446788)
  15 Mn ( 0.000000,  0.000000,  4.448049)
  16 P  ( 0.000000,  0.000000,  0.001550)
  17 P  ( 0.000000,  0.000000, -0.001561)
  18 P  ( 0.000000,  0.000000, -0.001572)
  19 P  ( 0.000000,  0.000000,  0.001236)
  20 O  ( 0.000000,  0.000000,  0.025337)
  21 O  ( 0.000000,  0.000000, -0.025305)
  22 O  ( 0.000000,  0.000000, -0.025357)
  23 O  ( 0.000000,  0.000000,  0.025178)
  24 Li ( 0.000000,  0.000000, -0.000017)
  25 Li ( 0.000000,  0.000000, -0.000001)
  26 Li ( 0.000000,  0.000000, -0.000001)
  27 Li ( 0.000000,  0.000000, -0.000001)

Energy contributions relative to reference atoms: (reference = -196157.275402)

Kinetic:       +216.845628
Potential:     -194.845046
External:        +0.000000
XC:            -250.269337
Entropy (-ST):   -0.000000
Local:           +2.042105
--------------------------
Free energy:   -226.226650
Extrapolated:  -226.226650

Spin contamination: 9.559426 electrons
Showing only first 2 kpts
                      Up                     Down
 Kpt  Band  Eigenvalues  Occupancy  Eigenvalues  Occupancy
  0    88      5.10707    0.00694      5.11460    0.00694
  0    89      5.13168    0.00694      5.14240    0.00694
  0    90      7.29282    0.00000      7.28597    0.00000
  0    91      7.31129    0.00000      7.30360    0.00000

  1    88      5.13286    0.00694      5.14038    0.00694
  1    89      5.16194    0.00694      5.17273    0.00694
  1    90      7.23528    0.00000      7.22829    0.00000
  1    91      7.24884    0.00000      7.24021    0.00000


Fermi level: 6.47538

Gap: 1.962 eV
Transition (v -> c):
  (s=1, k=74, n=89, [0.08, -0.42, 0.12]) -> (s=1, k=62, n=90, [-0.08, 0.08, 0.12])
Writing to born-0.01-5y-.gpw (mode='all')

Timing:                              incl.     excl.
-----------------------------------------------------------
Hamiltonian:                         0.414     0.002   0.0% |
 Atomic:                             0.054     0.054   0.0% |
  XC Correction:                     0.000     0.000   0.0% |
 Calculate atomic Hamiltonians:      0.181     0.181   0.0% |
 Communicate:                        0.002     0.002   0.0% |
 Initialize Hamiltonian:             0.000     0.000   0.0% |
 Poisson:                            0.001     0.001   0.0% |
 XC 3D grid:                         0.174     0.174   0.0% |
LCAO initialization:               134.625     0.707   0.0% |
 LCAO eigensolver:                  34.090     0.002   0.0% |
  Calculate projections:             0.056     0.056   0.0% |
  DenseAtomicCorrection:             0.083     0.083   0.0% |
  Distribute overlap matrix:         0.400     0.400   0.0% |
  Orbital Layouts:                   0.362     0.362   0.0% |
  Potential matrix:                 33.086    33.086   0.6% |
  Sum over cells:                    0.102     0.102   0.0% |
 LCAO to grid:                      97.564    97.564   1.7% ||
 Set positions (LCAO WFS):           2.264     0.345   0.0% |
  Basic WFS set positions:           0.002     0.002   0.0% |
  Basis functions set positions:     0.000     0.000   0.0% |
  P tci:                             1.057     1.057   0.0% |
  ST tci:                            0.654     0.654   0.0% |
  mktci:                             0.205     0.205   0.0% |
PWDescriptor:                        0.026     0.026   0.0% |
SCF-cycle:                        2330.264     7.515   0.1% |
 Davidson:                        1943.413   634.033  10.9% |---|
  Apply H:                         136.606   131.745   2.3% ||
   HMM T:                            4.861     4.861   0.1% |
  Subspace diag:                   287.166     0.163   0.0% |
   calc_h_matrix:                  185.914    51.459   0.9% |
    Apply H:                       134.455   129.950   2.2% ||
     HMM T:                          4.505     4.505   0.1% |
   diagonalize:                      6.435     6.435   0.1% |
   rotate_psi:                      94.654    94.654   1.6% ||
  calc. matrices:                  606.974   343.870   5.9% |-|
   Apply H:                        263.104   254.831   4.4% |-|
    HMM T:                           8.273     8.273   0.1% |
  diagonalize:                      86.726    86.726   1.5% ||
  rotate_psi:                      191.908   191.908   3.3% ||
 Density:                           76.984     0.001   0.0% |
  Atomic density matrices:           1.383     1.383   0.0% |
  Mix:                              12.577    12.577   0.2% |
  Multipole moments:                 0.032     0.032   0.0% |
  Pseudo density:                   62.992    62.990   1.1% |
   Symmetrize density:               0.002     0.002   0.0% |
 Forces:                           276.409   276.409   4.8% |-|
 Hamiltonian:                       21.532     0.123   0.0% |
  Atomic:                            2.782     2.781   0.0% |
   XC Correction:                    0.000     0.000   0.0% |
  Calculate atomic Hamiltonians:     9.302     9.302   0.2% |
  Communicate:                       0.098     0.098   0.0% |
  Poisson:                           0.081     0.081   0.0% |
  XC 3D grid:                        9.146     9.146   0.2% |
 Orthonormalize:                     4.411     0.003   0.0% |
  calc_s_matrix:                     0.524     0.524   0.0% |
  inverse-cholesky:                  0.054     0.054   0.0% |
  projections:                       2.897     2.897   0.0% |
  rotate_psi_s:                      0.933     0.933   0.0% |
Set symmetry:                        0.000     0.000   0.0% |
Other:                            3352.516  3352.516  57.6% |----------------------|
-----------------------------------------------------------
Total:                                      5817.844 100.0%

Memory usage: 12.82 GiB
Date: Mon Mar 22 09:41:50 2021
