
  ___ ___ ___ _ _ _  
 |   |   |_  | | | | 
 | | | | | . | | | | 
 |__ |  _|___|_____|  20.10.1b1
 |___|_|             

User:   madkru@g064.nifl.fysik.dtu.dk
Date:   Mon Mar 22 18:24:47 2021
Arch:   x86_64
Pid:    60512
Python: 3.7.4
gpaw:   /home/niflheim/madkru/venv_folder/gpaw/gpaw (d0d1ca1c71)
_gpaw:  /home/niflheim/madkru/venv_folder/gpaw/build/lib.linux-x86_64-sandybridge-3.7/
        _gpaw.cpython-37m-x86_64-linux-gnu.so (4fd39e8b1e)
ase:    /home/niflheim/madkru/venv_folder/ase/ase (version 3.21.0b1-7e6c206a91)
numpy:  /home/niflheim/madkru/venv_folder/lib/python3.7/site-packages/numpy (version 1.19.4)
scipy:  /home/niflheim/madkru/venv_folder/lib/python3.7/site-packages/scipy (version 1.5.4)
libxc:  4.3.4
units:  Angstrom and eV
cores: 32
OMP_NUM_THREADS: 1

Input parameters:
  convergence: {bands: occupied,
                density: 0.0001,
                eigenstates: 4e-08,
                energy: 0.0005,
                forces: 1e-06}
  kpts: [6 6 4]
  mode: {ecut: 600.0,
         gammacentered: False,
         name: pw}
  occupations: {fixmagmom: False,
                name: fermi-dirac,
                width: 0.001}
  symmetry: {point_group: False,
             time_reversal: False}

System changes: positions, numbers, cell, pbc, initial_charges, initial_magmoms 

Initialize ...

O-setup:
  name: Oxygen
  id: 9b9d51c344dea68c822856295a461509
  Z: 8.0
  valence: 6
  core: 2
  charge: 0.0
  file: /home/modules/software/GPAW-setups/0.9.20000/O.LDA.gz
  compensation charges: gauss, rc=0.21, lmax=2
  cutoffs: 1.17(filt), 0.83(core),
  valence states:
                energy  radius
    2s(2.00)   -23.752   0.688
    2p(4.00)    -9.195   0.598
    *s           3.459   0.688
    *p          18.016   0.598
    *d           0.000   0.619

  Using partial waves for O as LCAO basis

Mn-setup:
  name: Manganese
  id: 0d715a8018be061a6e9ea6f2d364ac92
  Z: 25.0
  valence: 15
  core: 10
  charge: 0.0
  file: /home/modules/software/GPAW-setups/0.9.20000/Mn.LDA.gz
  compensation charges: gauss, rc=0.38, lmax=2
  cutoffs: 2.14(filt), 0.86(core),
  valence states:
                energy  radius
    3s(2.00)   -85.387   1.275
    4s(2.00)    -5.282   1.275
    3p(6.00)   -54.493   1.281
    4p(0.00)    -1.471   1.281
    3d(5.00)    -7.009   1.138
    *d          20.203   1.138

  Using partial waves for Mn as LCAO basis

P-setup:
  name: Phosphorus
  id: a5561c299094968922a179ab894d2e2d
  Z: 15.0
  valence: 5
  core: 10
  charge: 0.0
  file: /home/modules/software/GPAW-setups/0.9.20000/P.LDA.gz
  compensation charges: gauss, rc=0.30, lmax=2
  cutoffs: 1.69(filt), 1.81(core),
  valence states:
                energy  radius
    3s(2.00)   -14.015   0.953
    3p(3.00)    -5.596   0.953
    *s          13.197   0.953
    *p          21.615   0.953
    *d           0.000   0.953

  Using partial waves for P as LCAO basis

Li-setup:
  name: Lithium
  id: b73562207f97a71b6967473b66fe8b65
  Z: 3.0
  valence: 1
  core: 2
  charge: 0.0
  file: /home/modules/software/GPAW-setups/0.9.20000/Li.LDA.gz
  compensation charges: gauss, rc=0.33, lmax=2
  cutoffs: 1.91(filt), 2.55(core),
  valence states:
                energy  radius
    2s(1.00)    -2.874   1.058
    2p(0.00)    -1.126   1.058
    *s          24.338   1.058

  Using partial waves for Li as LCAO basis

Reference energy: -196157.275402

Spin-polarized calculation.
Magnetic moment: 0.000000

Convergence criteria:
  Maximum total energy change: 0.0005 eV / electron
  Maximum integral of absolute density change: 0.0001 electrons
  Maximum integral of absolute eigenstate change: 4e-08 eV^2
  Maximum change in atomic force: 1e-06 eV / Ang
  Maximum number of iterations: 333

Symmetries present (total): 1

  ( 1  0  0)
  ( 0  1  0)
  ( 0  0  1)

144 k-points: 6 x 6 x 4 Monkhorst-Pack grid
144 k-points in the irreducible part of the Brillouin zone
       k-points in crystal coordinates                weights
   0:    -0.41666667   -0.41666667   -0.37500000          1/144
   1:    -0.41666667   -0.41666667   -0.12500000          1/144
   2:    -0.41666667   -0.41666667    0.12500000          1/144
   3:    -0.41666667   -0.41666667    0.37500000          1/144
   4:    -0.41666667   -0.25000000   -0.37500000          1/144
   5:    -0.41666667   -0.25000000   -0.12500000          1/144
   6:    -0.41666667   -0.25000000    0.12500000          1/144
   7:    -0.41666667   -0.25000000    0.37500000          1/144
   8:    -0.41666667   -0.08333333   -0.37500000          1/144
   9:    -0.41666667   -0.08333333   -0.12500000          1/144
          ...
 143:     0.41666667    0.41666667    0.37500000          1/144

Wave functions: Plane wave expansion
  Cutoff energy: 600.000 eV
  Number of coefficients (min, max): 10068, 10125
  Pulay-stress correction: 0.000000 eV/Ang^3 (de/decut=0.000000)
  Using FFTW library
  ScaLapack parameters: grid=1x1, blocksize=None
  Wavefunction extrapolation:
    Improved wavefunction reuse through dual PAW basis 

  Fermi-Dirac: width=0.0010 eV

Eigensolver
   Davidson(niter=2, smin=None, normalize=True) 

Densities:
  Coarse grid: 60*35*27 grid
  Fine grid: 120*70*54 grid
  Total Charge: 0.000000 

Density mixing:
  Method: difference
  Backend: pulay
  Linear mixing parameter: 0.05
  Mixing with 5 old densities
  Damping of long wave oscillations: 50 

Hamiltonian:
  XC and Coulomb potentials evaluated on a 120*70*54 grid
  Using the LDA Exchange-Correlation functional
 

Memory estimate:
  Process memory now: 13351.39 MiB
  Calculator: 375.55 MiB
    Density: 20.02 MiB
      Arrays: 7.57 MiB
      Localized functions: 9.42 MiB
      Mixer: 3.03 MiB
    Hamiltonian: 5.90 MiB
      Arrays: 5.62 MiB
      XC: 0.00 MiB
      Poisson: 0.00 MiB
      vbar: 0.27 MiB
    Wavefunctions: 349.64 MiB
      Arrays psit_nG: 311.46 MiB
      Eigensolver: 19.99 MiB
      Projections: 5.41 MiB
      Projectors: 9.73 MiB
      PW-descriptor: 3.03 MiB

Total number of cores used: 32
Parallelization over k-points: 16
Domain decomposition: 2 x 1 x 1

Number of atoms: 28
Number of atomic orbitals: 148
Number of bands in calculation: 112
Number of valence electrons: 180
Bands to converge: occupied

... initialized

Initializing position-dependent things.

Density initialized from atomic densities
Creating initial wave functions:
  112 bands from LCAO basis set

     .-------------------------.  
    /|         OP              |  
   / |O            O        O  |  
  /  |       O            O  P |  
 *   |O    Mn      O           |  
 |   |          OLi          O |  
 |   .P-O--------------Mn------.  
 |  /          Li    O  Mn  O /   
 | /Li O           PO        /    
 |/       Mn                /     
 *Li-----------------------*      

Positions:
   0 O     -1.360678   -2.541161   -1.202221    ( 0.0000,  0.0000,  0.0000)
   1 O     -3.121941    2.976855    1.167242    ( 0.0000,  0.0000,  0.0000)
   2 O      2.107533    0.508090    1.540712    ( 0.0000,  0.0000,  0.0000)
   3 O      3.869373   -0.072395   -0.828750    ( 0.0000,  0.0000,  0.0000)
   4 O      2.107821    2.976875    1.540792    ( 0.0000,  0.0000,  0.0000)
   5 O      3.869084   -2.541141   -0.828671    ( 0.0000,  0.0000,  0.0000)
   6 O     -1.360390   -0.072375   -1.202141    ( 0.0000,  0.0000,  0.0000)
   7 O     -3.112230    0.508109    1.167321    ( 0.0000,  0.0000,  0.0000)
   8 O     -4.413461   -1.306992   -0.794251    ( 0.0000,  0.0000,  0.0000)
   9 O     -0.069585    1.742707    1.575662    ( 0.0000,  0.0000,  0.0000)
  10 O      5.160604    1.742707    1.132822    ( 0.0000,  0.0000,  0.0000)
  11 O      0.816728   -1.306992   -1.237091    ( 0.0000,  0.0000,  0.0000)
  12 Mn    -2.570809   -1.307302    0.247161    ( 0.0000,  0.0000,  1.0000)
  13 Mn    -1.912021    1.743016   -2.122906    ( 0.0000,  0.0000, -1.0000)
  14 Mn     3.317952    1.743017    0.091411    ( 0.0000,  0.0000, -1.0000)
  15 Mn     2.659164   -1.307302    2.461478    ( 0.0000,  0.0000,  1.0000)
  16 P     -0.620664   -1.306816   -1.828465    ( 0.0000,  0.0000,  0.0000)
  17 P     -3.862097    1.742530    0.541238    ( 0.0000,  0.0000,  0.0000)
  18 P      1.367807    1.742530    2.167036    ( 0.0000,  0.0000,  0.0000)
  19 P      4.609240   -1.306816   -0.202666    ( 0.0000,  0.0000,  0.0000)
  20 O     -0.646437   -1.306845    1.374751    ( 0.0000,  0.0000,  0.0000)
  21 O     -3.836504    1.742559   -0.995565    ( 0.0000,  0.0000,  0.0000)
  22 O      1.393580    1.742559   -1.036179    ( 0.0000,  0.0000,  0.0000)
  23 O      4.583647   -1.306845    1.334136    ( 0.0000,  0.0000,  0.0000)
  24 Li    -4.856429   -2.832143   -2.200714    ( 0.0000,  0.0000,  0.0000)
  25 Li     0.373571   -2.832143    0.169286    ( 0.0000,  0.0000,  0.0000)
  26 Li    -4.856429    0.217857   -2.200714    ( 0.0000,  0.0000,  0.0000)
  27 Li     0.373571    0.217857    0.169286    ( 0.0000,  0.0000,  0.0000)

Unit cell:
           periodic     x           y           z      points  spacing
  1. axis:    yes   10.460000    0.000000    0.000000    60     0.1743
  2. axis:    yes    0.000000    6.100000    0.000000    35     0.1743
  3. axis:    yes    0.000000    0.000000    4.740000    27     0.1756

  Lengths:  10.460000   6.100000   4.740000
  Angles:   90.000000  90.000000  90.000000

Effective grid spacing dv^(1/3) = 0.1747

                     log10-error:           total        iterations:
           time      wfs    density  force  energy       poisson  magmom
iter:   1  18:27:47                       -231.918846             +0.0000
iter:   2  18:28:26  -0.55  -0.94         -231.715194             -0.0001
iter:   3  18:29:06  -0.72  -0.98         -220.584886             -0.0001
iter:   4  18:29:45  -0.96  -1.20         -218.864967             -0.0000
iter:   5  18:30:25  -1.93  -1.36         -221.098137             -0.0000
iter:   6  18:31:04  -1.95  -1.51         -219.735912             +0.1199
iter:   7  18:31:44  -2.25  -1.67         -221.540348             -0.0353
iter:   8  18:32:23  -2.76  -1.92         -219.377374             -0.0516
iter:   9  18:33:03  -2.46  -1.98         -221.631156             -0.0192
iter:  10  18:33:42  -2.34  -1.99         -224.061392             -0.0904
iter:  11  18:34:22  -2.87  -1.90         -225.275880             -0.0448
iter:  12  18:35:01  -2.38  -1.86         -227.146584             +0.0018
iter:  13  18:35:40  -2.31  -1.88         -226.975277             +0.0034
iter:  14  18:36:20  -2.90  -1.93         -226.827327             +0.0010
iter:  15  18:36:59  -1.85  -1.96         -226.593674             +0.0003
iter:  16  18:37:39  -2.98  -2.21         -226.473089             +0.0003
iter:  17  18:38:18  -2.37  -2.27         -226.393016             +0.0001
iter:  18  18:38:58  -3.13  -2.42         -226.356809             +0.0001
iter:  19  18:39:37  -3.62  -2.56         -226.298679             +0.0000
iter:  20  18:40:16  -2.87  -2.60         -226.236203             +0.0000
iter:  21  18:40:56  -3.45  -2.89         -226.243074             +0.0000
iter:  22  18:41:35  -4.45  -2.92         -226.235717             +0.0000
iter:  23  18:42:14  -3.96  -2.98         -226.228896             +0.0000
iter:  24  18:42:54  -4.31  -3.30         -226.228758             +0.0000
iter:  25  18:43:33  -5.07  -3.47         -226.227888             +0.0000
iter:  26  18:44:12  -5.05  -3.49         -226.227724             +0.0000
iter:  27  18:44:52  -5.65  -3.69         -226.227654             -0.0000
iter:  28  18:45:31  -5.65  -3.80         -226.227472             -0.0000
iter:  29  18:46:10  -6.35  -3.93         -226.227423             +0.0000
iter:  30  18:46:50  -6.23  -4.06         -226.227383             +0.0000
iter:  31  18:47:29  -6.75  -4.18         -226.227383             +0.0000
iter:  32  18:48:19  -7.56  -4.26         -226.227380             +0.0000
iter:  33  18:48:59  -6.20  -4.33         -226.227372             -0.0000
iter:  34  18:49:49  -7.41  -4.57    -1.94-226.227370             +0.0000
iter:  35  18:50:28  -6.57  -4.58         -226.227369             +0.0000
iter:  36  18:51:18  -7.54  -4.84    -2.24-226.227365             +0.0000
iter:  37  18:52:08  -8.21  -5.12    -3.10-226.227365             +0.0000
iter:  38  18:52:58  -8.48  -5.18    -2.82-226.227365             +0.0000
iter:  39  18:53:48  -9.14  -5.36    -3.38-226.227365             +0.0000
iter:  40  18:54:38  -8.78  -5.40    -3.40-226.227365             +0.0000
iter:  41  18:55:28  -9.69  -5.57    -3.36-226.227365             +0.0000
iter:  42  18:56:18  -9.61  -5.65    -3.61-226.227365             +0.0000
iter:  43  18:57:08 -10.40  -5.80    -4.03-226.227365             +0.0000
iter:  44  18:57:58  -9.50  -5.86    -3.69-226.227365             -0.0000
iter:  45  18:58:48 -10.45  -6.11    -4.36-226.227365             +0.0000
iter:  46  18:59:38  -9.85  -6.14    -3.89-226.227365             +0.0000
iter:  47  19:00:28 -10.77  -6.27    -4.15-226.227365             +0.0000
iter:  48  19:01:18 -10.67  -6.37    -4.25-226.227365             -0.0000
iter:  49  19:02:08 -11.50  -6.60    -4.64-226.227365             -0.0000
iter:  50  19:02:58 -11.92  -6.69    -4.68-226.227365             -0.0000
iter:  51  19:03:48 -11.89  -6.76    -4.52-226.227365             -0.0000
iter:  52  19:04:38 -11.82  -6.88    -4.76-226.227365             -0.0000
iter:  53  19:05:28 -12.45  -6.97    -5.07-226.227365             -0.0000
iter:  54  19:06:18 -12.27  -7.05    -5.10-226.227365             -0.0000
iter:  55  19:07:07 -12.67  -7.17    -5.35-226.227365             -0.0000
iter:  56  19:07:57 -12.81  -7.23    -5.02-226.227365             -0.0000
iter:  57  19:08:47 -13.02  -7.50    -5.42-226.227365             -0.0000
iter:  58  19:09:37 -13.48  -7.54    -5.49-226.227365             -0.0000
iter:  59  19:10:27 -13.34  -7.60    -5.40-226.227365             -0.0000
iter:  60  19:11:17 -14.16  -7.70    -6.02-226.227365             -0.0000

Converged after 60 iterations.

Dipole moment: (10.666724, 1.407970, -6.270925) |e|*Ang

Total magnetic moment: (0.000000, 0.000000, -0.000000)
Local magnetic moments:
   0 O  ( 0.000000,  0.000000, -0.000451)
   1 O  ( 0.000000,  0.000000,  0.000514)
   2 O  ( 0.000000,  0.000000,  0.000518)
   3 O  ( 0.000000,  0.000000, -0.000577)
   4 O  ( 0.000000,  0.000000,  0.000499)
   5 O  ( 0.000000,  0.000000, -0.000554)
   6 O  ( 0.000000,  0.000000, -0.000516)
   7 O  ( 0.000000,  0.000000,  0.000509)
   8 O  ( 0.000000,  0.000000,  0.028646)
   9 O  ( 0.000000,  0.000000, -0.028702)
  10 O  ( 0.000000,  0.000000, -0.028575)
  11 O  ( 0.000000,  0.000000,  0.028756)
  12 Mn ( 0.000000,  0.000000,  4.447418)
  13 Mn ( 0.000000,  0.000000, -4.447656)
  14 Mn ( 0.000000,  0.000000, -4.448139)
  15 Mn ( 0.000000,  0.000000,  4.448235)
  16 P  ( 0.000000,  0.000000,  0.001546)
  17 P  ( 0.000000,  0.000000, -0.001584)
  18 P  ( 0.000000,  0.000000, -0.001568)
  19 P  ( 0.000000,  0.000000,  0.001556)
  20 O  ( 0.000000,  0.000000,  0.025350)
  21 O  ( 0.000000,  0.000000, -0.025271)
  22 O  ( 0.000000,  0.000000, -0.025357)
  23 O  ( 0.000000,  0.000000,  0.025281)
  24 Li ( 0.000000,  0.000000,  0.000003)
  25 Li ( 0.000000,  0.000000, -0.000000)
  26 Li ( 0.000000,  0.000000, -0.000004)
  27 Li ( 0.000000,  0.000000,  0.000000)

Energy contributions relative to reference atoms: (reference = -196157.275402)

Kinetic:       +217.087269
Potential:     -195.035986
External:        +0.000000
XC:            -250.320297
Entropy (-ST):   -0.000000
Local:           +2.041650
--------------------------
Free energy:   -226.227365
Extrapolated:  -226.227365

Spin contamination: 9.559613 electrons
Showing only first 2 kpts
                      Up                     Down
 Kpt  Band  Eigenvalues  Occupancy  Eigenvalues  Occupancy
  0    88      5.11202    0.00694      5.10988    0.00694
  0    89      5.13903    0.00694      5.13693    0.00694
  0    90      7.28786    0.00000      7.29072    0.00000
  0    91      7.31155    0.00000      7.30907    0.00000

  1    88      5.13790    0.00694      5.13606    0.00694
  1    89      5.16930    0.00694      5.16704    0.00694
  1    90      7.23008    0.00000      7.23324    0.00000
  1    91      7.25116    0.00000      7.24665    0.00000


Fermi level: 6.16486

Gap: 1.970 eV
Transition (v -> c):
  (s=0, k=94, n=89, [0.08, 0.42, 0.12]) -> (s=0, k=86, n=90, [0.08, 0.08, 0.12])
Writing to born-0.01-7x+.gpw (mode='all')

Timing:                              incl.     excl.
-----------------------------------------------------------
Hamiltonian:                         0.416     0.002   0.0% |
 Atomic:                             0.054     0.054   0.0% |
  XC Correction:                     0.000     0.000   0.0% |
 Calculate atomic Hamiltonians:      0.181     0.181   0.0% |
 Communicate:                        0.002     0.002   0.0% |
 Initialize Hamiltonian:             0.000     0.000   0.0% |
 Poisson:                            0.002     0.002   0.0% |
 XC 3D grid:                         0.175     0.175   0.0% |
LCAO initialization:               136.109     0.676   0.0% |
 LCAO eigensolver:                  33.955     0.002   0.0% |
  Calculate projections:             0.057     0.057   0.0% |
  DenseAtomicCorrection:             0.083     0.083   0.0% |
  Distribute overlap matrix:         0.255     0.255   0.0% |
  Orbital Layouts:                   0.362     0.362   0.0% |
  Potential matrix:                 33.107    33.107   0.6% |
  Sum over cells:                    0.089     0.089   0.0% |
 LCAO to grid:                      99.182    99.182   1.7% ||
 Set positions (LCAO WFS):           2.296     0.347   0.0% |
  Basic WFS set positions:           0.001     0.001   0.0% |
  Basis functions set positions:     0.000     0.000   0.0% |
  P tci:                             1.090     1.090   0.0% |
  ST tci:                            0.653     0.653   0.0% |
  mktci:                             0.205     0.205   0.0% |
PWDescriptor:                        0.026     0.026   0.0% |
SCF-cycle:                        2652.079    11.928   0.2% |
 Davidson:                        2234.328   730.321  12.3% |----|
  Apply H:                         154.687   150.259   2.5% ||
   HMM T:                            4.429     4.429   0.1% |
  Subspace diag:                   329.093     0.185   0.0% |
   calc_h_matrix:                  212.785    59.234   1.0% |
    Apply H:                       153.551   149.249   2.5% ||
     HMM T:                          4.302     4.302   0.1% |
   diagonalize:                      7.286     7.286   0.1% |
   rotate_psi:                     108.836   108.836   1.8% ||
  calc. matrices:                  698.766   396.347   6.7% |--|
   Apply H:                        302.419   294.190   4.9% |-|
    HMM T:                           8.229     8.229   0.1% |
  diagonalize:                      99.844    99.844   1.7% ||
  rotate_psi:                      221.617   221.617   3.7% ||
 Density:                           89.521     0.001   0.0% |
  Atomic density matrices:           1.665     1.665   0.0% |
  Mix:                              14.426    14.426   0.2% |
  Multipole moments:                 0.035     0.035   0.0% |
  Pseudo density:                   73.393    73.391   1.2% |
   Symmetrize density:               0.002     0.002   0.0% |
 Forces:                           287.040   287.040   4.8% |-|
 Hamiltonian:                       24.856     0.146   0.0% |
  Atomic:                            3.326     3.326   0.1% |
   XC Correction:                    0.000     0.000   0.0% |
  Calculate atomic Hamiltonians:    10.689    10.689   0.2% |
  Communicate:                       0.083     0.083   0.0% |
  Poisson:                           0.093     0.093   0.0% |
  XC 3D grid:                       10.518    10.518   0.2% |
 Orthonormalize:                     4.406     0.004   0.0% |
  calc_s_matrix:                     0.523     0.523   0.0% |
  inverse-cholesky:                  0.055     0.055   0.0% |
  projections:                       2.894     2.894   0.0% |
  rotate_psi_s:                      0.931     0.931   0.0% |
Set symmetry:                        0.000     0.000   0.0% |
Other:                            3166.698  3166.698  53.2% |--------------------|
-----------------------------------------------------------
Total:                                      5955.328 100.0%

Memory usage: 13.06 GiB
Date: Mon Mar 22 20:04:02 2021
