
  ___ ___ ___ _ _ _  
 |   |   |_  | | | | 
 | | | | | . | | | | 
 |__ |  _|___|_____|  21.1.1b1
 |___|_|             

User:   madkru@g043.nifl.fysik.dtu.dk
Date:   Tue Mar 30 00:57:45 2021
Arch:   x86_64
Pid:    39387
Python: 3.8.6
gpaw:   /home/niflheim/madkru/venv_madkru/gpaw/gpaw (e6f0d78a31)
_gpaw:  /home/niflheim/madkru/venv_madkru/gpaw/build/lib.linux-x86_64-sandybridge-3.8/
        _gpaw.cpython-38-x86_64-linux-gnu.so (e6f0d78a31)
ase:    /home/niflheim/madkru/venv_madkru/ase/ase (version 3.22.0b1-4d5a73cb29)
numpy:  /home/modules/software/SciPy-bundle/2020.11-foss-2020b/lib/python3.8/site-packages/numpy (version 1.19.4)
scipy:  /home/modules/software/SciPy-bundle/2020.11-foss-2020b/lib/python3.8/site-packages/scipy (version 1.5.4)
libxc:  4.3.4
units:  Angstrom and eV
cores: 64
OpenMP: False
OMP_NUM_THREADS: 1

Input parameters:
  convergence: {bands: occupied,
                density: 0.0001,
                eigenstates: 4e-08,
                energy: 0.0005,
                forces: 1e-06}
  kpts: [6 6 4]
  maxiter: 1000
  mode: {ecut: 600.0,
         gammacentered: False,
         name: pw}
  occupations: {fixmagmom: False,
                name: fermi-dirac,
                width: 0.001}
  symmetry: {point_group: False,
             time_reversal: False}

System changes: positions, numbers, cell, pbc, initial_charges, initial_magmoms 

Initialize ...

O-setup:
  name: Oxygen
  id: 9b9d51c344dea68c822856295a461509
  Z: 8.0
  valence: 6
  core: 2
  charge: 0.0
  file: /home/modules/software/GPAW-setups/0.9.20000/O.LDA.gz
  compensation charges: gauss, rc=0.21, lmax=2
  cutoffs: 1.17(filt), 0.83(core),
  valence states:
                energy  radius
    2s(2.00)   -23.752   0.688
    2p(4.00)    -9.195   0.598
    *s           3.459   0.688
    *p          18.016   0.598
    *d           0.000   0.619

  Using partial waves for O as LCAO basis

Mn-setup:
  name: Manganese
  id: 0d715a8018be061a6e9ea6f2d364ac92
  Z: 25.0
  valence: 15
  core: 10
  charge: 0.0
  file: /home/modules/software/GPAW-setups/0.9.20000/Mn.LDA.gz
  compensation charges: gauss, rc=0.38, lmax=2
  cutoffs: 2.14(filt), 0.86(core),
  valence states:
                energy  radius
    3s(2.00)   -85.387   1.275
    4s(2.00)    -5.282   1.275
    3p(6.00)   -54.493   1.281
    4p(0.00)    -1.471   1.281
    3d(5.00)    -7.009   1.138
    *d          20.203   1.138

  Using partial waves for Mn as LCAO basis

P-setup:
  name: Phosphorus
  id: a5561c299094968922a179ab894d2e2d
  Z: 15.0
  valence: 5
  core: 10
  charge: 0.0
  file: /home/modules/software/GPAW-setups/0.9.20000/P.LDA.gz
  compensation charges: gauss, rc=0.30, lmax=2
  cutoffs: 1.69(filt), 1.81(core),
  valence states:
                energy  radius
    3s(2.00)   -14.015   0.953
    3p(3.00)    -5.596   0.953
    *s          13.197   0.953
    *p          21.615   0.953
    *d           0.000   0.953

  Using partial waves for P as LCAO basis

Li-setup:
  name: Lithium
  id: b73562207f97a71b6967473b66fe8b65
  Z: 3.0
  valence: 1
  core: 2
  charge: 0.0
  file: /home/modules/software/GPAW-setups/0.9.20000/Li.LDA.gz
  compensation charges: gauss, rc=0.33, lmax=2
  cutoffs: 1.91(filt), 2.55(core),
  valence states:
                energy  radius
    2s(1.00)    -2.874   1.058
    2p(0.00)    -1.126   1.058
    *s          24.338   1.058

  Using partial waves for Li as LCAO basis

Reference energy: -196157.275402

Spin-polarized calculation.
Magnetic moment: 0.000000

Convergence criteria:
  Maximum total energy change: 0.0005 eV / electron
  Maximum integral of absolute density change: 0.0001 electrons
  Maximum integral of absolute eigenstate change: 4e-08 eV^2
  Maximum change in atomic force: 1e-06 eV / Ang
  Maximum number of iterations: 1000

Symmetries present (total): 1

  ( 1  0  0)
  ( 0  1  0)
  ( 0  0  1)

144 k-points: 6 x 6 x 4 Monkhorst-Pack grid
144 k-points in the irreducible part of the Brillouin zone
       k-points in crystal coordinates                weights
   0:    -0.41666667   -0.41666667   -0.37500000          1/144
   1:    -0.41666667   -0.41666667   -0.12500000          1/144
   2:    -0.41666667   -0.41666667    0.12500000          1/144
   3:    -0.41666667   -0.41666667    0.37500000          1/144
   4:    -0.41666667   -0.25000000   -0.37500000          1/144
   5:    -0.41666667   -0.25000000   -0.12500000          1/144
   6:    -0.41666667   -0.25000000    0.12500000          1/144
   7:    -0.41666667   -0.25000000    0.37500000          1/144
   8:    -0.41666667   -0.08333333   -0.37500000          1/144
   9:    -0.41666667   -0.08333333   -0.12500000          1/144
          ...
 143:     0.41666667    0.41666667    0.37500000          1/144

Wave functions: Plane wave expansion
  Cutoff energy: 600.000 eV
  Number of coefficients (min, max): 10068, 10125
  Pulay-stress correction: 0.000000 eV/Ang^3 (de/decut=0.000000)
  Using FFTW library
  ScaLapack parameters: grid=1x1, blocksize=None
  Wavefunction extrapolation:
    Improved wavefunction reuse through dual PAW basis 

  Fermi-Dirac: width=0.0010 eV

Eigensolver
   Davidson(niter=2) 

Densities:
  Coarse grid: 60*35*27 grid
  Fine grid: 120*70*54 grid
  Total Charge: 0.000000 

Density mixing:
  Method: difference
  Backend: pulay
  Linear mixing parameter: 0.05
  Mixing with 5 old densities
  Damping of long wave oscillations: 50 

Hamiltonian:
  XC and Coulomb potentials evaluated on a 120*70*54 grid
  Using the LDA Exchange-Correlation functional
 

Memory estimate:
  Process memory now: 209.96 MiB
  Calculator: 354.82 MiB
    Density: 10.06 MiB
      Arrays: 3.79 MiB
      Localized functions: 4.71 MiB
      Mixer: 1.56 MiB
    Hamiltonian: 2.95 MiB
      Arrays: 2.82 MiB
      XC: 0.00 MiB
      Poisson: 0.00 MiB
      vbar: 0.14 MiB
    Wavefunctions: 341.80 MiB
      Arrays psit_nG: 311.46 MiB
      Eigensolver: 19.99 MiB
      Projections: 2.71 MiB
      Projectors: 4.87 MiB
      PW-descriptor: 2.77 MiB

Total number of cores used: 64
Parallelization over k-points: 16
Domain decomposition: 2 x 2 x 1

Number of atoms: 28
Number of atomic orbitals: 148
Number of bands in calculation: 112
Number of valence electrons: 180
Bands to converge: occupied

... initialized

Initializing position-dependent things.

Density initialized from atomic densities
Creating initial wave functions:
  112 bands from LCAO basis set

     .-------------------------.  
    /|         OP              |  
   / |O            O        O  |  
  /  |       O            O  P |  
 *   |O    Mn      O           |  
 |   |          OLi          O |  
 |   .P-O--------------Mn------.  
 |  /          Li    O  Mn  O /   
 | /Li O           PO        /    
 |/       Mn                /     
 *Li-----------------------*      

Positions:
   0 O     -1.360678   -2.541161   -1.202221    ( 0.0000,  0.0000,  0.0000)
   1 O     -3.121941    2.976855    1.167242    ( 0.0000,  0.0000,  0.0000)
   2 O      2.107533    0.508090    1.540712    ( 0.0000,  0.0000,  0.0000)
   3 O      3.869373   -0.072395   -0.828750    ( 0.0000,  0.0000,  0.0000)
   4 O      2.107821    2.976875    1.540792    ( 0.0000,  0.0000,  0.0000)
   5 O      3.869084   -2.541141   -0.828671    ( 0.0000,  0.0000,  0.0000)
   6 O     -1.360390   -0.072375   -1.202141    ( 0.0000,  0.0000,  0.0000)
   7 O     -3.122230    0.508109    1.167321    ( 0.0000,  0.0000,  0.0000)
   8 O     -4.413461   -1.306992   -0.794251    ( 0.0000,  0.0000,  0.0000)
   9 O     -0.079585    1.742707    1.575662    ( 0.0000,  0.0000,  0.0000)
  10 O      5.160604    1.742707    1.132822    ( 0.0000,  0.0000,  0.0000)
  11 O      0.816728   -1.306992   -1.237091    ( 0.0000,  0.0000,  0.0000)
  12 Mn    -2.570809   -1.307302    0.247161    ( 0.0000,  0.0000,  1.0000)
  13 Mn    -1.912021    1.743016   -2.122906    ( 0.0000,  0.0000, -1.0000)
  14 Mn     3.317952    1.743017    0.091411    ( 0.0000,  0.0000, -1.0000)
  15 Mn     2.659164   -1.307302    2.461478    ( 0.0000,  0.0000,  1.0000)
  16 P     -0.620664   -1.306816   -1.828465    ( 0.0000,  0.0000,  0.0000)
  17 P     -3.862097    1.742530    0.541238    ( 0.0000,  0.0000,  0.0000)
  18 P      1.367807    1.742530    2.167036    ( 0.0000,  0.0000,  0.0000)
  19 P      4.609240   -1.306816   -0.202666    ( 0.0000,  0.0000,  0.0000)
  20 O     -0.646437   -1.306845    1.374751    ( 0.0000,  0.0000,  0.0000)
  21 O     -3.836504    1.742559   -0.995565    ( 0.0000,  0.0000,  0.0000)
  22 O      1.393580    1.742559   -1.036179    ( 0.0000,  0.0000,  0.0000)
  23 O      4.583647   -1.306845    1.334136    ( 0.0000,  0.0000,  0.0000)
  24 Li    -4.856429   -2.832143   -2.200714    ( 0.0000,  0.0000,  0.0000)
  25 Li     0.373571   -2.832143    0.169286    ( 0.0000,  0.0000,  0.0000)
  26 Li    -4.856429    0.217857   -2.200714    ( 0.0000,  0.0000,  0.0000)
  27 Li     0.373571    0.217857    0.169286    ( 0.0000,  0.0000,  0.0000)

Unit cell:
           periodic     x           y           z      points  spacing
  1. axis:    yes   10.460000    0.000000    0.000000    60     0.1743
  2. axis:    yes    0.000000    6.100000    0.000000    35     0.1743
  3. axis:    yes    0.000000    0.000000    4.740000    27     0.1756

  Lengths:  10.460000   6.100000   4.740000
  Angles:   90.000000  90.000000  90.000000

Effective grid spacing dv^(1/3) = 0.1747

                     log10-error:           total        iterations:
           time      wfs    density  force  energy       poisson  magmom
iter:   1  00:59:19                       -231.917048             +0.0000
iter:   2  00:59:40  -0.55  -0.94         -231.714572             +0.0003
iter:   3  01:00:01  -0.72  -0.98         -220.592371             +0.0004
iter:   4  01:00:22  -0.96  -1.20         -218.881074             +0.0001
iter:   5  01:00:43  -1.97  -1.36         -220.539038             +0.0001
iter:   6  01:01:05  -1.69  -1.56         -217.797911             +0.0000
iter:   7  01:01:26  -2.27  -1.93         -217.918178             +0.0000
iter:   8  01:01:47  -3.17  -1.83         -218.383253             -0.2114
iter:   9  01:02:08  -3.04  -1.84         -218.573626             -0.0252
iter:  10  01:02:30  -2.79  -1.85         -218.054287             -0.0225
iter:  11  01:02:51  -3.13  -1.85         -218.785267             -0.0082
iter:  12  01:03:12  -2.46  -1.85         -219.212305             -0.6882
iter:  13  01:03:34  -2.29  -1.81         -219.969789             -0.1676
iter:  14  01:03:55  -2.62  -1.91         -220.454644             -0.1742
iter:  15  01:04:16  -2.47  -1.85         -221.675894             +0.9480
iter:  16  01:04:37  -2.62  -1.95         -223.807091             +2.4477
iter:  17  01:04:59  -2.73  -1.92         -224.724979             +4.0794
iter:  18  01:05:20  -2.97  -1.89         -224.672026             +4.0176
iter:  19  01:05:41  -2.51  -1.90         -224.716741             +4.0095
iter:  20  01:06:02  -2.72  -1.88         -224.447213             +4.0060
iter:  21  01:06:23  -2.36  -1.88         -224.332945             +4.0019
iter:  22  01:06:45  -2.22  -1.91         -224.613882             +3.9820
iter:  23  01:07:06  -2.87  -1.96         -224.863357             +3.0839
iter:  24  01:07:27  -3.10  -1.99         -224.246429             +4.1043
iter:  25  01:07:48  -2.48  -2.00         -224.005400             +4.0657
iter:  26  01:08:10  -2.63  -2.17         -224.049097             +3.7917
iter:  27  01:08:31  -3.65  -2.30         -223.922977             +3.9669
iter:  28  01:08:52  -3.69  -2.32         -223.933749             +3.9760
iter:  29  01:09:13  -2.68  -2.40         -223.910344             +3.9944
iter:  30  01:09:34  -3.52  -2.63         -223.900397             +3.9977
iter:  31  01:09:56  -3.67  -2.70         -223.885747             +4.0000
iter:  32  01:10:17  -4.23  -2.78         -223.879674             +3.9997
iter:  33  01:10:38  -3.78  -2.94         -223.881705             +3.9998
iter:  34  01:10:59  -4.47  -3.12         -223.876236             +3.9999
iter:  35  01:11:20  -4.50  -3.22         -223.880102             +4.0000
iter:  36  01:11:42  -4.88  -3.39         -223.882487             +4.0000
iter:  37  01:12:03  -5.53  -3.43         -223.883562             +4.0000
iter:  38  01:12:24  -5.18  -3.39         -223.885886             +4.0000
iter:  39  01:12:45  -5.88  -3.31         -223.886561             +4.0000
iter:  40  01:13:06  -5.62  -3.28         -223.885334             +4.0000
iter:  41  01:13:27  -5.55  -3.38         -223.886082             +4.0000
iter:  42  01:13:49  -4.58  -3.34         -223.887082             +4.0000
iter:  43  01:14:10  -5.79  -3.26         -223.886605             +4.0000
iter:  44  01:14:31  -5.66  -3.35         -223.886622             +4.0000
iter:  45  01:14:52  -5.01  -3.35         -223.887822             +4.0000
iter:  46  01:15:13  -5.41  -3.28         -223.886428             +4.0000
iter:  47  01:15:35  -5.16  -3.37         -223.885778             +4.0000
iter:  48  01:15:56  -4.47  -3.45         -223.886172             +4.0000
iter:  49  01:16:17  -5.22  -3.35         -223.886322             +4.0000
iter:  50  01:16:38  -5.71  -3.29         -223.887033             +4.0000
iter:  51  01:16:59  -5.31  -3.31         -223.886802             +4.0000
iter:  52  01:17:20  -5.53  -3.33         -223.885999             +4.0000
iter:  53  01:17:42  -5.27  -3.32         -223.888443             +4.0000
iter:  54  01:18:03  -4.55  -3.20         -223.885646             +4.0000
iter:  55  01:18:24  -5.40  -3.44         -223.885012             +4.0000
iter:  56  01:18:45  -6.07  -3.49         -223.885412             +4.0000
iter:  57  01:19:06  -5.49  -3.45         -223.885155             +4.0000
iter:  58  01:19:27  -6.22  -3.47         -223.885941             +4.0000
iter:  59  01:19:49  -5.65  -3.39         -223.884495             +4.0000
iter:  60  01:20:10  -5.60  -3.53         -223.884190             +4.0000
iter:  61  01:20:31  -4.89  -3.57         -223.884031             +4.0000
iter:  62  01:20:52  -5.81  -3.81         -223.884112             +4.0000
iter:  63  01:21:13  -6.22  -3.86         -223.883909             +4.0000
iter:  64  01:21:35  -6.65  -3.95         -223.883911             +4.0000
iter:  65  01:21:56  -6.34  -3.99         -223.883952             +4.0000
iter:  66  01:22:17  -6.58  -3.98         -223.884005             +4.0000
iter:  67  01:22:38  -6.26  -3.94         -223.883952             +4.0000
iter:  68  01:22:59  -6.25  -4.02         -223.883959             +4.0000
iter:  69  01:23:20  -6.50  -3.99         -223.883971             +4.0000
iter:  70  01:23:42  -5.87  -3.95         -223.884049             +4.0000
iter:  71  01:24:03  -6.05  -3.91         -223.883928             +4.0000
iter:  72  01:24:24  -6.00  -4.02         -223.884161             +4.0000
iter:  73  01:24:45  -6.24  -3.81         -223.883951             +4.0000
iter:  74  01:25:06  -6.03  -3.94         -223.883935             +4.0000
iter:  75  01:25:27  -6.61  -4.05         -223.883970             +4.0000
iter:  76  01:25:49  -6.93  -4.08         -223.883925             +4.0000
iter:  77  01:26:10  -5.98  -4.07         -223.883875             +4.0000
iter:  78  01:26:31  -6.20  -4.10         -223.883953             +4.0000
iter:  79  01:26:52  -7.24  -4.13         -223.883995             +4.0000
iter:  80  01:27:13  -6.46  -4.18         -223.883961             +4.0000
iter:  81  01:27:34  -6.58  -4.21         -223.883867             +4.0000
iter:  82  01:27:56  -7.03  -4.30         -223.883974             +4.0000
iter:  83  01:28:17  -7.37  -4.51         -223.884013             +4.0000
iter:  84  01:28:38  -7.30  -4.44         -223.883980             +4.0000
iter:  85  01:28:59  -6.76  -4.59         -223.883935             +4.0000
iter:  86  01:29:20  -6.45  -4.57         -223.883991             +4.0000
iter:  87  01:29:47  -7.75  -4.79         -223.883996             +4.0000
iter:  88  01:30:08  -7.14  -4.80         -223.884068             +4.0000
iter:  89  01:30:29  -5.98  -4.44         -223.883737             +4.0000
iter:  90  01:30:50  -5.38  -4.07         -223.884845             +4.0000
iter:  91  01:31:12  -5.35  -3.66         -223.883746             +4.0000
iter:  92  01:31:33  -5.52  -3.89         -223.883920             +4.0000
iter:  93  01:31:54  -5.76  -3.50         -223.883732             +4.0000
iter:  94  01:32:15  -6.96  -3.94         -223.883647             +4.0000
iter:  95  01:32:36  -5.94  -3.88         -223.883914             +4.0000
iter:  96  01:32:57  -6.32  -3.96         -223.884005             +4.0000
iter:  97  01:33:18  -6.09  -3.89         -223.884048             +4.0000
iter:  98  01:33:40  -7.08  -3.87         -223.884037             +4.0000
iter:  99  01:34:01  -6.70  -3.85         -223.884290             +4.0000
iter: 100  01:34:22  -6.33  -3.71         -223.884625             +4.0000
iter: 101  01:34:44  -5.71  -3.58         -223.885888             +4.0000
iter: 102  01:35:05  -5.27  -3.35         -223.883718             +4.0000
iter: 103  01:35:26  -4.63  -3.93         -223.883171             +4.0000
iter: 104  01:35:47  -5.32  -3.70         -223.884026             +4.0000
iter: 105  01:36:08  -6.51  -3.84         -223.883966             +4.0000
iter: 106  01:36:29  -5.81  -3.88         -223.883650             +4.0000
iter: 107  01:36:50  -6.93  -4.10         -223.883688             +4.0000
iter: 108  01:37:12  -6.99  -4.64         -223.883710             +4.0000
iter: 109  01:37:33  -6.87  -4.70         -223.883767             +4.0000
iter: 110  01:37:54  -6.51  -4.34         -223.883886             +4.0000
iter: 111  01:38:15  -7.06  -4.14         -223.883896             +4.0000
iter: 112  01:38:36  -7.08  -4.15         -223.883904             +4.0000
iter: 113  01:39:03  -7.96  -4.17    -1.37-223.883909             +4.0000
iter: 114  01:39:30  -8.17  -4.17    -2.59-223.883907             +4.0000
iter: 115  01:39:56  -7.40  -4.18    -2.24-223.883909             +4.0000
iter: 116  01:40:23  -8.48  -4.12    -3.10-223.883913             +4.0000
iter: 117  01:40:49  -7.42  -4.12    -2.09-223.883891             +4.0000
iter: 118  01:41:11  -7.31  -4.10         -223.883900             +4.0000
iter: 119  01:41:32  -6.39  -4.18         -223.883884             +4.0000
iter: 120  01:41:53  -6.63  -4.04         -223.883872             +4.0000
iter: 121  01:42:14  -7.22  -4.09         -223.883909             +4.0000
iter: 122  01:42:35  -6.34  -4.15         -223.883867             +4.0000
iter: 123  01:42:56  -6.52  -4.04         -223.883893             +4.0000
iter: 124  01:43:17  -6.86  -3.90         -223.883796             +4.0000
iter: 125  01:43:39  -6.79  -3.95         -223.884021             +4.0000
iter: 126  01:44:00  -7.78  -3.90         -223.883997             +4.0000
iter: 127  01:44:21  -6.87  -3.92         -223.883978             +4.0000
iter: 128  01:44:42  -6.25  -3.92         -223.883663             +4.0000
iter: 129  01:45:03  -6.40  -4.01         -223.883758             +4.0000
iter: 130  01:45:24  -6.28  -3.91         -223.883724             +4.0000
iter: 131  01:45:45  -6.22  -3.95         -223.883708             +4.0000
iter: 132  01:46:06  -6.97  -3.97         -223.883799             +4.0000
iter: 133  01:46:28  -5.92  -4.09         -223.884099             +4.0000
iter: 134  01:46:49  -6.52  -3.92         -223.884382             +4.0000
iter: 135  01:47:10  -6.10  -3.80         -223.883817             +4.0000
iter: 136  01:47:31  -5.72  -4.08         -223.883158             +4.0000
iter: 137  01:47:52  -4.77  -4.32         -223.883884             +4.0000
iter: 138  01:48:13  -5.66  -3.93         -223.883889             +4.0000
iter: 139  01:48:34  -6.31  -4.17         -223.883592             +4.0000
iter: 140  01:48:55  -5.78  -4.59         -223.882631             +4.0000
iter: 141  01:49:17  -5.69  -3.82         -223.881854             +4.0000
iter: 142  01:49:38  -5.27  -3.55         -223.881355             +4.0000
iter: 143  01:49:59  -4.85  -3.36         -223.883685             +4.0000
iter: 144  01:50:20  -4.26  -3.17         -223.887697             +4.0000
iter: 145  01:50:41  -4.91  -3.20         -223.896115             +4.0000
iter: 146  01:51:02  -4.26  -3.06         -223.868382             +4.0000
iter: 147  01:51:23  -3.59  -3.79         -223.907664             +4.0000
iter: 148  01:51:45  -3.95  -2.75         -223.890436             +4.0000
iter: 149  01:52:06  -5.00  -3.10         -223.914547             +4.0000
iter: 150  01:52:27  -5.82  -2.87         -223.906401             +4.0000
iter: 151  01:52:48  -5.49  -2.93         -223.901114             +4.0000
iter: 152  01:53:09  -5.39  -2.99         -223.902150             +4.0000
iter: 153  01:53:30  -4.97  -2.97         -223.914305             +4.0000
iter: 154  01:53:51  -4.14  -2.89         -223.872767             +4.0000
iter: 155  01:54:13  -4.94  -3.13         -223.883576             +4.0000
iter: 156  01:54:34  -4.94  -2.99         -223.897466             +4.0000
iter: 157  01:54:55  -4.48  -2.90         -223.878871             +4.0000
iter: 158  01:55:16  -5.23  -3.18         -223.875315             +4.0000
iter: 159  01:55:37  -5.93  -3.34         -223.876769             +4.0000
iter: 160  01:55:58  -4.89  -3.27         -223.882989             +4.0000
iter: 161  01:56:19  -5.23  -3.11         -223.878348             +4.0000
iter: 162  01:56:41  -4.80  -3.35         -223.871868             +4.0000
iter: 163  01:57:02  -4.44  -3.52         -223.886031             +4.0000
iter: 164  01:57:23  -4.70  -3.20         -223.897839             +4.0000
iter: 165  01:57:44  -4.71  -2.95         -223.884408             +4.0000
iter: 166  01:58:05  -4.95  -3.29         -223.877836             +4.0000
iter: 167  01:58:26  -4.69  -3.72         -223.889751             +4.0000
iter: 168  01:58:47  -5.19  -3.12         -223.896023             +4.0000
iter: 169  01:59:08  -4.55  -3.00         -223.877170             +4.0000
iter: 170  01:59:30  -4.77  -3.65         -223.891054             +4.0000
iter: 171  01:59:51  -6.22  -3.05         -223.888062             +4.0000
iter: 172  02:00:12  -4.95  -3.13         -223.878652             +4.0000
iter: 173  02:00:33  -5.47  -3.55         -223.884066             +4.0000
iter: 174  02:00:54  -6.26  -3.26         -223.883886             +4.0000
iter: 175  02:01:15  -5.83  -3.24         -223.887020             +4.0000
iter: 176  02:01:36  -5.10  -3.14         -223.880462             +4.0000
iter: 177  02:01:57  -5.08  -3.57         -223.876821             +4.0000
iter: 178  02:02:19  -4.63  -4.07         -223.887265             +4.0000
iter: 179  02:02:40  -5.45  -3.16         -223.890656             +4.0000
iter: 180  02:03:01  -5.95  -3.09         -223.891046             +4.0000
iter: 181  02:03:23  -5.31  -3.08         -223.900663             +4.0000
iter: 182  02:03:44  -3.96  -2.96         -223.866034             +4.0000
iter: 183  02:04:05  -3.50  -3.41         -223.891883             +4.0000
iter: 184  02:04:26  -4.84  -2.97         -223.886822             +4.0000
iter: 185  02:04:47  -5.15  -3.10         -223.876712             +4.0000
iter: 186  02:05:08  -5.25  -3.22         -223.860548             +4.0000
iter: 187  02:05:30  -5.17  -3.41         -223.811519             +4.0000
iter: 188  02:05:51  -5.04  -3.70         -223.808854             +4.0000
iter: 189  02:06:12  -4.65  -3.72         -223.876167             +4.0000
iter: 190  02:06:33  -4.55  -3.38         -223.843774             +4.0000
iter: 191  02:06:54  -4.18  -3.03         -223.918226             +4.0000
iter: 192  02:07:15  -4.70  -3.23         -223.917931             +4.0000
iter: 193  02:07:36  -5.11  -2.96         -223.918665             +4.0000
iter: 194  02:07:57  -3.88  -2.90         -223.960854             +4.0000
iter: 195  02:08:19  -3.95  -3.06         -223.959838             +4.0000
iter: 196  02:08:40  -4.59  -2.72         -224.009524             +4.0000
iter: 197  02:09:01  -3.89  -2.71         -224.259816             +4.0000
iter: 198  02:09:22  -4.19  -2.65         -224.364947             +4.0000
iter: 199  02:09:43  -4.17  -2.65         -224.225934             +4.0000
iter: 200  02:10:04  -3.47  -2.60         -223.355251             +4.0000
iter: 201  02:10:25  -4.14  -2.49         -223.285025             +4.0000
iter: 202  02:10:47  -3.21  -2.52         -225.081224             +4.0000
iter: 203  02:11:08  -3.94  -2.54         -225.134444             +4.0000
iter: 204  02:11:29  -2.85  -2.50         -226.358050             +4.0000
iter: 205  02:11:50  -3.77  -2.35         -224.973385             +4.0000
iter: 206  02:12:11  -3.05  -2.36         -222.958666             +4.0000
iter: 207  02:12:32  -3.12  -2.43         -223.604111             +4.0000
iter: 208  02:12:53  -3.72  -2.47         -222.471924             +3.9918
iter: 209  02:13:15  -2.88  -2.45         -223.926292             +3.9943
iter: 210  02:13:36  -3.27  -2.46         -223.284900             +3.9665
iter: 211  02:13:57  -3.20  -2.58         -224.813933             +3.9292
iter: 212  02:14:18  -4.08  -2.57         -224.860063             +3.9165
iter: 213  02:14:39  -3.91  -2.56         -224.731016             +3.8973
iter: 214  02:15:00  -3.49  -2.64         -223.735594             +3.9092
iter: 215  02:15:21  -3.50  -2.81         -223.751656             +3.2743
iter: 216  02:15:43  -3.07  -2.59         -222.687550             +4.6315
iter: 217  02:16:04  -3.58  -2.77         -223.318692             +4.7502
iter: 218  02:16:25  -3.68  -2.82         -223.740648             +4.1776
iter: 219  02:16:46  -4.03  -2.80         -223.483380             +3.9985
iter: 220  02:17:07  -4.33  -2.79         -223.109459             +4.0756
iter: 221  02:17:28  -3.84  -2.73         -223.398097             +4.0242
iter: 222  02:17:50  -3.95  -2.70         -223.119267             +3.9531
iter: 223  02:18:11  -3.96  -2.71         -223.517182             +3.8029
iter: 224  02:18:32  -3.51  -2.71         -222.633519             +3.6949
iter: 225  02:18:53  -4.05  -2.56         -222.843557             +3.5561
iter: 226  02:19:14  -3.26  -2.58         -224.086881             +3.7343
iter: 227  02:19:36  -3.48  -2.58         -223.259129             +3.3178
iter: 228  02:19:57  -3.37  -2.65         -222.241583             +3.8070
iter: 229  02:20:18  -3.83  -2.70         -222.185622             +3.8658
iter: 230  02:20:39  -3.58  -2.72         -222.337432             +3.5686
iter: 231  02:21:00  -3.75  -2.76         -222.508658             +3.9970
iter: 232  02:21:22  -4.14  -2.68         -222.536180             +3.9153
iter: 233  02:21:43  -3.95  -2.71         -222.658308             +3.8315
iter: 234  02:22:04  -4.41  -2.87         -222.481738             +3.9093
iter: 235  02:22:25  -4.30  -2.77         -222.477203             +3.8893
iter: 236  02:22:46  -3.90  -2.81         -222.563070             +3.8587
iter: 237  02:23:07  -4.13  -3.01         -222.683373             +3.8642
iter: 238  02:23:29  -4.10  -3.11         -222.907565             +3.8275
iter: 239  02:23:50  -4.19  -2.94         -223.045091             +3.8741
iter: 240  02:24:11  -3.55  -2.96         -223.426269             +3.0620
iter: 241  02:24:32  -3.46  -2.60         -222.760652             +4.1112
iter: 242  02:24:53  -3.99  -3.20         -222.702513             +4.3834
iter: 243  02:25:14  -4.13  -3.07         -222.873181             +4.4164
iter: 244  02:25:35  -3.77  -3.12         -223.015637             +4.1138
iter: 245  02:25:57  -4.54  -3.11         -223.151727             +4.0213
iter: 246  02:26:18  -4.88  -3.09         -223.256895             +4.0046
iter: 247  02:26:39  -4.62  -3.09         -223.200736             +4.0064
iter: 248  02:27:00  -4.05  -3.15         -223.503310             +4.0015
iter: 249  02:27:21  -4.37  -3.24         -223.900058             +3.9885
iter: 250  02:27:42  -4.60  -3.18         -224.101830             +3.9884
iter: 251  02:28:04  -5.01  -3.08         -223.838200             +4.0029
iter: 252  02:28:25  -4.70  -3.22         -223.888471             +3.9698
iter: 253  02:28:46  -4.61  -3.25         -224.012492             +4.0348
iter: 254  02:29:07  -4.92  -3.31         -224.099768             +4.0216
iter: 255  02:29:28  -4.61  -3.30         -224.137625             +4.0341
iter: 256  02:29:49  -4.63  -3.19         -224.372979             +4.0137
iter: 257  02:30:11  -5.18  -3.14         -224.343985             +4.0093
iter: 258  02:30:32  -5.10  -3.14         -224.370651             +4.0069
iter: 259  02:30:53  -4.85  -3.17         -224.254593             +3.9895
iter: 260  02:31:14  -4.62  -3.16         -224.228974             +4.0081
iter: 261  02:31:35  -4.87  -3.21         -224.083021             +3.9394
iter: 262  02:31:56  -4.99  -2.98         -224.224830             +4.0274
iter: 263  02:32:17  -4.64  -3.14         -224.206656             +4.0311
iter: 264  02:32:39  -5.07  -3.11         -224.189493             +4.0310
iter: 265  02:33:00  -5.17  -3.18         -224.227745             +3.9636
iter: 266  02:33:21  -4.57  -3.07         -224.102721             +4.0661
iter: 267  02:33:42  -4.59  -3.29         -224.103759             +3.9931
iter: 268  02:34:03  -4.86  -3.21         -224.060339             +4.1105
iter: 269  02:34:25  -5.10  -3.37         -224.016024             +4.1581
iter: 270  02:34:46  -4.63  -3.25         -224.008792             +4.0064
iter: 271  02:35:07  -3.96  -3.27         -224.285093             +4.3544
iter: 272  02:35:28  -3.47  -2.96         -224.442421             +3.4628
iter: 273  02:35:49  -3.26  -2.55         -224.104999             +4.5639
iter: 274  02:36:10  -3.71  -2.85         -224.007211             +4.8901
iter: 275  02:36:31  -3.46  -2.74         -224.153289             +4.0272
iter: 276  02:36:53  -4.12  -2.99         -224.792359             +4.0028
iter: 277  02:37:14  -3.87  -2.84         -223.394009             +4.0137
iter: 278  02:37:35  -4.53  -2.75         -223.509059             +3.9672
iter: 279  02:37:56  -3.03  -2.69         -224.370554             +4.2070
iter: 280  02:38:17  -3.21  -2.86         -224.632437             +3.5832
iter: 281  02:38:38  -4.09  -2.57         -224.420403             +3.6005
iter: 282  02:38:59  -3.91  -2.78         -223.543034             +3.5820
iter: 283  02:39:21  -3.58  -2.59         -224.886913             +3.6528
iter: 284  02:39:42  -3.10  -2.69         -226.160983             +3.2439
iter: 285  02:40:03  -3.36  -2.49         -226.026829             +3.5175
iter: 286  02:40:24  -3.53  -2.57         -226.494738             +2.8843
iter: 287  02:40:45  -3.21  -2.57         -226.264726             +2.0963
iter: 288  02:41:06  -3.43  -2.39         -224.304950             +3.0292
iter: 289  02:41:28  -3.18  -2.51         -224.526249             +3.7154
iter: 290  02:41:49  -2.85  -2.53         -224.305087             +2.0405
iter: 291  02:42:10  -1.70  -2.35         -207.904202             +11.1537
iter: 292  02:42:31  -1.27  -2.28         -225.268696             -0.4392
iter: 293  02:42:52  -2.14  -2.30         -227.184769             -0.2264
iter: 294  02:43:13  -3.06  -2.33         -225.839244             -0.0310
iter: 295  02:43:34  -2.78  -2.31         -228.650272             -0.0191
iter: 296  02:43:56  -3.10  -2.37         -226.605391             -0.0088
iter: 297  02:44:17  -3.30  -2.45         -225.855820             -0.0062
iter: 298  02:44:38  -3.09  -2.50         -225.807231             -0.0018
iter: 299  02:44:59  -3.91  -3.00         -225.285568             -0.0008
iter: 300  02:45:20  -3.78  -3.19         -225.160476             -0.0000
iter: 301  02:45:41  -3.86  -3.26         -225.028912             -0.0000
iter: 302  02:46:02  -4.26  -3.25         -224.658278             -0.0000
iter: 303  02:46:23  -4.91  -3.30         -224.704454             -0.0000
iter: 304  02:46:44  -3.63  -3.39         -224.854041             -0.0000
iter: 305  02:47:06  -4.17  -3.33         -225.020783             -0.0000
iter: 306  02:47:27  -4.08  -3.28         -225.393179             -0.0000
iter: 307  02:47:48  -5.02  -3.22         -225.312785             -0.0000
iter: 308  02:48:09  -5.03  -3.19         -225.454705             -0.0000
iter: 309  02:48:30  -4.88  -3.21         -225.630120             -0.0000
iter: 310  02:48:51  -5.01  -3.21         -225.781641             -0.0000
iter: 311  02:49:12  -5.21  -3.27         -226.059344             -0.0000
iter: 312  02:49:33  -5.15  -3.28         -226.098291             -0.0000
iter: 313  02:49:55  -5.17  -3.33         -226.159465             -0.0000
iter: 314  02:50:16  -5.22  -3.33         -226.028511             -0.0000
iter: 315  02:50:37  -4.94  -3.37         -225.853622             -0.0000
iter: 316  02:50:58  -5.34  -3.57         -225.974971             -0.0000
iter: 317  02:51:19  -5.71  -3.63         -225.830526             -0.0000
iter: 318  02:51:40  -5.86  -3.72         -225.796476             -0.0000
iter: 319  02:52:01  -5.91  -3.76         -225.912103             -0.0000
iter: 320  02:52:22  -5.24  -3.89         -226.050571             -0.0000
iter: 321  02:52:44  -6.01  -4.18         -226.057471             -0.0000
iter: 322  02:53:05  -5.50  -4.21         -226.076812             -0.0000
iter: 323  02:53:26  -5.95  -4.19         -226.116136             +0.0000
iter: 324  02:53:47  -6.07  -4.13         -226.135185             +0.0000
iter: 325  02:54:08  -6.36  -4.16         -226.144477             +0.0000
iter: 326  02:54:29  -6.67  -4.17         -226.140133             +0.0000
iter: 327  02:54:50  -6.53  -4.19         -226.146125             +0.0000
iter: 328  02:55:11  -6.17  -4.23         -226.171036             +0.0000
iter: 329  02:55:33  -6.96  -4.31         -226.161940             +0.0000
iter: 330  02:55:59  -7.90  -4.30    -0.13-226.162319             +0.0000
iter: 331  02:56:20  -7.17  -4.30         -226.163796             +0.0000
iter: 332  02:56:41  -7.17  -4.31         -226.163877             +0.0000
iter: 333  02:57:03  -6.44  -4.32         -226.159410             +0.0000
iter: 334  02:57:24  -7.06  -4.28         -226.162679             +0.0000
iter: 335  02:57:50  -7.55  -4.25    -2.09-226.168388             +0.0000
iter: 336  02:58:11  -7.13  -4.30         -226.175826             +0.0000
iter: 337  02:58:38  -7.73  -4.35    -1.95-226.180384             +0.0000
iter: 338  02:58:59  -7.16  -4.34         -226.182048             +0.0000
iter: 339  02:59:20  -7.01  -4.34         -226.182732             +0.0000
iter: 340  02:59:41  -6.92  -4.38         -226.186103             +0.0000
iter: 341  03:00:03  -7.36  -4.37         -226.181778             +0.0000
iter: 342  03:00:24  -7.10  -4.38         -226.180952             +0.0000
iter: 343  03:00:45  -6.68  -4.42         -226.186583             +0.0000
iter: 344  03:01:06  -6.77  -4.29         -226.183257             +0.0000
iter: 345  03:01:33  -7.55  -4.45    -1.78-226.185657             +0.0000
iter: 346  03:01:54  -7.29  -4.45         -226.188609             +0.0000
iter: 347  03:02:15  -7.04  -4.55         -226.183941             +0.0000
iter: 348  03:02:42  -7.57  -4.89    -1.75-226.184000             +0.0000
iter: 349  03:03:09  -8.01  -4.92    -2.54-226.185030             +0.0000
iter: 350  03:03:35  -7.42  -4.95    -2.80-226.185785             +0.0000
iter: 351  03:04:02  -7.68  -5.01    -2.97-226.191310             +0.0000
iter: 352  03:04:28  -7.47  -4.96    -2.81-226.200736             +0.0000
iter: 353  03:04:55  -7.64  -5.01    -2.88-226.208132             +0.0000
iter: 354  03:05:22  -7.90  -4.95    -3.09-226.209045             +0.0000
iter: 355  03:05:48  -7.45  -4.89    -2.83-226.208508             +0.0000
iter: 356  03:06:15  -7.68  -4.78    -2.74-226.205084             +0.0000
iter: 357  03:06:41  -8.25  -4.73    -3.19-226.205282             +0.0000
iter: 358  03:07:08  -7.99  -4.70    -2.99-226.211466             +0.0000
iter: 359  03:07:35  -8.36  -4.66    -3.09-226.211538             +0.0000
iter: 360  03:08:01  -8.13  -4.65    -2.86-226.211862             +0.0000
iter: 361  03:08:28  -7.89  -4.68    -2.99-226.207413             +0.0000
iter: 362  03:08:55  -8.19  -4.67    -3.01-226.209448             +0.0000
iter: 363  03:09:21  -7.42  -4.69    -2.42-226.218752             +0.0000
iter: 364  03:09:48  -8.02  -4.95    -2.46-226.220940             +0.0000
iter: 365  03:10:14  -7.90  -4.88    -2.50-226.232581             +0.0000
iter: 366  03:10:41  -8.29  -4.93    -2.68-226.232801             +0.0000
iter: 367  03:11:08  -8.04  -4.97    -2.56-226.233374             +0.0000
iter: 368  03:11:34  -8.35  -5.09    -2.80-226.234356             +0.0000
iter: 369  03:12:01  -8.69  -5.09    -3.08-226.233356             +0.0000
iter: 370  03:12:27  -8.92  -5.07    -3.03-226.233628             +0.0000
iter: 371  03:12:54  -8.48  -5.08    -3.16-226.230833             +0.0000
iter: 372  03:13:21  -8.05  -5.09    -2.72-226.225786             +0.0000
iter: 373  03:13:47  -8.50  -5.12    -2.87-226.227005             +0.0000
iter: 374  03:14:14  -9.08  -5.15    -3.24-226.227383             +0.0000
iter: 375  03:14:40  -9.09  -5.16    -2.95-226.227934             +0.0000
iter: 376  03:15:07  -7.91  -5.27    -2.73-226.227664             +0.0000
iter: 377  03:15:34  -8.81  -5.48    -3.22-226.227558             +0.0000
iter: 378  03:16:00  -8.03  -5.58    -2.90-226.226108             +0.0000
iter: 379  03:16:27  -8.88  -5.43    -3.30-226.225354             +0.0000
iter: 380  03:16:54  -9.22  -5.50    -3.22-226.224837             +0.0000
iter: 381  03:17:20  -9.22  -5.54    -3.55-226.225563             +0.0000
iter: 382  03:17:47  -9.05  -5.43    -3.02-226.224213             +0.0000
iter: 383  03:18:13  -9.50  -5.51    -3.32-226.223404             +0.0000
iter: 384  03:18:40  -8.97  -5.47    -3.35-226.224118             +0.0000
iter: 385  03:19:07  -8.73  -5.64    -3.54-226.224644             +0.0000
iter: 386  03:19:33  -9.18  -5.76    -3.54-226.224433             +0.0000
iter: 387  03:20:00  -9.47  -5.86    -3.66-226.224604             +0.0000
iter: 388  03:20:26  -8.95  -5.79    -3.73-226.226190             +0.0000
iter: 389  03:20:53  -9.47  -5.64    -3.62-226.225770             +0.0000
iter: 390  03:21:20  -9.01  -5.57    -3.55-226.226799             +0.0000
iter: 391  03:21:46  -9.56  -5.54    -3.77-226.226303             +0.0000
iter: 392  03:22:13  -9.11  -5.52    -3.37-226.226314             +0.0000
iter: 393  03:22:39  -9.27  -5.48    -3.17-226.227194             +0.0000
iter: 394  03:23:06  -9.96  -5.48    -3.34-226.227859             +0.0000
iter: 395  03:23:33  -9.30  -5.42    -2.86-226.225780             +0.0000
iter: 396  03:23:59  -9.39  -5.49    -3.60-226.225768             +0.0000
iter: 397  03:24:26  -8.77  -5.45    -2.96-226.224809             +0.0000
iter: 398  03:24:53  -9.35  -5.49    -3.05-226.226066             +0.0000
iter: 399  03:25:19  -9.94  -5.51    -3.38-226.226480             +0.0000
iter: 400  03:25:46  -9.56  -5.50    -3.18-226.224852             +0.0000
iter: 401  03:26:12  -9.69  -5.54    -3.20-226.224780             +0.0000
iter: 402  03:26:39  -9.49  -5.56    -3.07-226.225293             +0.0000
iter: 403  03:27:06  -9.72  -5.50    -3.47-226.225506             +0.0000
iter: 404  03:27:32 -10.11  -5.46    -3.32-226.225484             +0.0000
iter: 405  03:27:59  -9.47  -5.49    -3.56-226.225844             +0.0000
iter: 406  03:28:26  -9.41  -5.43    -2.84-226.223719             +0.0000
iter: 407  03:28:52 -10.08  -5.54    -3.62-226.223742             +0.0000
iter: 408  03:29:19 -10.08  -5.54    -3.76-226.223699             +0.0000
iter: 409  03:29:45  -9.69  -5.59    -3.11-226.225307             +0.0000
iter: 410  03:30:12  -9.96  -5.80    -3.10-226.225494             +0.0000
iter: 411  03:30:39 -10.51  -6.20    -4.07-226.225343             +0.0000
iter: 412  03:31:05 -10.12  -6.24    -4.13-226.225182             +0.0000
iter: 413  03:31:32  -9.99  -6.22    -3.84-226.225289             +0.0000
iter: 414  03:31:59 -10.09  -6.19    -4.39-226.225589             +0.0000
iter: 415  03:32:25 -10.36  -6.19    -3.79-226.225932             +0.0000
iter: 416  03:32:52 -10.72  -6.13    -3.83-226.226130             +0.0000
iter: 417  03:33:18 -10.65  -6.19    -3.95-226.225945             +0.0000
iter: 418  03:33:45 -10.80  -6.22    -4.22-226.225911             +0.0000
iter: 419  03:34:12 -10.38  -6.33    -3.61-226.226308             +0.0000
iter: 420  03:34:39 -10.52  -6.39    -3.89-226.226417             +0.0000
iter: 421  03:35:05 -10.61  -6.47    -3.76-226.226272             +0.0000
iter: 422  03:35:32 -11.30  -6.51    -4.35-226.226183             +0.0000
iter: 423  03:35:59 -11.33  -6.52    -4.48-226.226053             +0.0000
iter: 424  03:36:25 -11.47  -6.56    -4.09-226.226007             +0.0000
iter: 425  03:36:52 -10.98  -6.69    -4.20-226.225871             +0.0000
iter: 426  03:37:18 -11.28  -7.05    -4.62-226.225875             +0.0000
iter: 427  03:37:45 -11.15  -7.01    -4.44-226.225922             +0.0000
iter: 428  03:38:12 -10.86  -6.70    -4.56-226.225921             +0.0000
iter: 429  03:38:38 -11.49  -6.52    -4.83-226.225955             +0.0000
iter: 430  03:39:05 -11.66  -6.53    -5.15-226.225975             +0.0000
iter: 431  03:39:32 -11.69  -6.49    -5.15-226.225981             +0.0000
iter: 432  03:39:58 -11.10  -6.50    -4.52-226.226090             +0.0000
iter: 433  03:40:25 -10.98  -6.53    -4.30-226.225953             +0.0000
iter: 434  03:40:51 -11.39  -6.69    -4.62-226.225896             +0.0000
iter: 435  03:41:18 -11.84  -6.70    -5.07-226.225901             +0.0000
iter: 436  03:41:45 -11.58  -6.69    -4.44-226.226002             +0.0000
iter: 437  03:42:11 -11.25  -6.60    -4.65-226.225979             +0.0000
iter: 438  03:42:38 -11.45  -6.59    -4.69-226.225999             +0.0000
iter: 439  03:43:04 -11.89  -6.67    -5.00-226.226000             +0.0000
iter: 440  03:43:31 -11.50  -6.69    -4.74-226.226054             +0.0000
iter: 441  03:43:58 -11.88  -6.80    -4.90-226.226028             +0.0000
iter: 442  03:44:24 -11.73  -6.81    -4.53-226.225958             +0.0000
iter: 443  03:44:51 -11.97  -6.78    -4.71-226.226022             +0.0000
iter: 444  03:45:17 -11.73  -6.74    -4.66-226.226090             +0.0000
iter: 445  03:45:44 -12.22  -7.01    -4.73-226.226106             +0.0000
iter: 446  03:46:11 -12.37  -7.14    -5.24-226.226085             +0.0000
iter: 447  03:46:37 -12.30  -7.18    -5.07-226.226058             +0.0000
iter: 448  03:47:04 -11.98  -7.21    -4.79-226.226063             +0.0000
iter: 449  03:47:30 -12.93  -7.05    -5.25-226.226059             +0.0000
iter: 450  03:47:57 -12.39  -7.07    -5.19-226.226073             +0.0000
iter: 451  03:48:24 -11.96  -7.14    -4.68-226.226064             +0.0000
iter: 452  03:48:50 -12.31  -7.09    -5.06-226.226084             +0.0000
iter: 453  03:49:17 -12.35  -7.16    -5.10-226.226091             +0.0000
iter: 454  03:49:44 -12.77  -7.19    -4.63-226.226078             +0.0000
iter: 455  03:50:10 -12.16  -7.19    -4.77-226.226111             +0.0000
iter: 456  03:50:37 -12.77  -7.21    -4.96-226.226110             +0.0000
iter: 457  03:51:03 -11.80  -7.21    -4.85-226.226140             +0.0000
iter: 458  03:51:30 -11.97  -7.25    -4.53-226.226145             +0.0000
iter: 459  03:51:57 -12.57  -7.16    -4.63-226.226114             +0.0000
iter: 460  03:52:23 -12.68  -7.08    -4.78-226.226102             +0.0000
iter: 461  03:52:50 -12.94  -7.06    -5.04-226.226117             +0.0000
iter: 462  03:53:17 -12.18  -7.04    -5.06-226.226119             +0.0000
iter: 463  03:53:43 -12.56  -7.05    -4.55-226.226145             +0.0000
iter: 464  03:54:10 -12.49  -7.32    -4.63-226.226174             +0.0000
iter: 465  03:54:36 -13.30  -7.39    -5.01-226.226166             +0.0000
iter: 466  03:55:03 -12.46  -7.43    -4.70-226.226147             +0.0000
iter: 467  03:55:30 -13.16  -7.33    -5.09-226.226151             +0.0000
iter: 468  03:55:56 -13.12  -7.21    -5.27-226.226145             +0.0000
iter: 469  03:56:23 -13.28  -7.22    -5.10-226.226157             +0.0000
iter: 470  03:56:50 -12.75  -7.27    -4.76-226.226168             +0.0000
iter: 471  03:57:16 -13.08  -7.39    -5.32-226.226167             +0.0000
iter: 472  03:57:43 -13.17  -7.49    -5.36-226.226154             +0.0000
iter: 473  03:58:09 -12.58  -7.49    -4.97-226.226172             +0.0000
iter: 474  03:58:36 -11.94  -7.44    -4.28-226.226157             +0.0000
iter: 475  03:59:03 -12.89  -7.10    -6.17-226.226147             +0.0000

Converged after 475 iterations.

Dipole moment: (11.435215, 1.412639, -6.269185) |e|*Ang

Total magnetic moment: (0.000000, 0.000000, 0.000000)
Local magnetic moments:
   0 O  ( 0.000000,  0.000000, -0.000533)
   1 O  ( 0.000000,  0.000000,  0.000555)
   2 O  ( 0.000000,  0.000000,  0.000451)
   3 O  ( 0.000000,  0.000000, -0.000557)
   4 O  ( 0.000000,  0.000000,  0.000432)
   5 O  ( 0.000000,  0.000000, -0.000537)
   6 O  ( 0.000000,  0.000000, -0.000552)
   7 O  ( 0.000000,  0.000000,  0.000575)
   8 O  ( 0.000000,  0.000000,  0.028613)
   9 O  ( 0.000000,  0.000000, -0.029078)
  10 O  ( 0.000000,  0.000000, -0.028779)
  11 O  ( 0.000000,  0.000000,  0.028779)
  12 Mn ( 0.000000,  0.000000,  4.448082)
  13 Mn ( 0.000000,  0.000000, -4.447072)
  14 Mn ( 0.000000,  0.000000, -4.448176)
  15 Mn ( 0.000000,  0.000000,  4.448232)
  16 P  ( 0.000000,  0.000000,  0.001523)
  17 P  ( 0.000000,  0.000000, -0.001541)
  18 P  ( 0.000000,  0.000000, -0.001752)
  19 P  ( 0.000000,  0.000000,  0.001558)
  20 O  ( 0.000000,  0.000000,  0.025312)
  21 O  ( 0.000000,  0.000000, -0.025115)
  22 O  ( 0.000000,  0.000000, -0.025278)
  23 O  ( 0.000000,  0.000000,  0.025305)
  24 Li ( 0.000000,  0.000000, -0.000000)
  25 Li ( 0.000000,  0.000000, -0.000024)
  26 Li ( 0.000000,  0.000000, -0.000000)
  27 Li ( 0.000000,  0.000000, -0.000024)

Energy contributions relative to reference atoms: (reference = -196157.275402)

Kinetic:       +216.755465
Potential:     -194.774231
External:        +0.000000
XC:            -250.249813
Entropy (-ST):   -0.000000
Local:           +2.042432
--------------------------
Free energy:   -226.226147
Extrapolated:  -226.226147

Spin contamination: 9.560279 electrons
Showing only first 2 kpts
                      Up                     Down
 Kpt  Band  Eigenvalues  Occupancy  Eigenvalues  Occupancy
  0    88      5.10597    1.00000      5.11023    1.00000
  0    89      5.13687    1.00000      5.15528    1.00000
  0    90      7.28431    0.00000      7.28519    0.00000
  0    91      7.31855    0.00000      7.30832    0.00000

  1    88      5.13202    1.00000      5.13745    1.00000
  1    89      5.16703    1.00000      5.18519    1.00000
  1    90      7.22576    0.00000      7.22706    0.00000
  1    91      7.25790    0.00000      7.24678    0.00000


Fermi level: 6.17849

Gap: 1.954 eV
Transition (v -> c):
  (s=1, k=50, n=89, [-0.08, -0.42, 0.12]) -> (s=1, k=85, n=90, [0.08, 0.08, -0.12])
Writing to born-0.01-9x-.gpw (mode='all')

Timing:                              incl.     excl.
-----------------------------------------------------------
Hamiltonian:                         0.309     0.003   0.0% |
 Atomic:                             0.066     0.066   0.0% |
  XC Correction:                     0.000     0.000   0.0% |
 Calculate atomic Hamiltonians:      0.125     0.125   0.0% |
 Communicate:                        0.022     0.022   0.0% |
 Initialize Hamiltonian:             0.000     0.000   0.0% |
 Poisson:                            0.001     0.001   0.0% |
 XC 3D grid:                         0.092     0.092   0.0% |
LCAO initialization:                69.693     0.681   0.0% |
 LCAO eigensolver:                  18.008     0.003   0.0% |
  Calculate projections:             0.032     0.032   0.0% |
  DenseAtomicCorrection:             0.044     0.044   0.0% |
  Distribute overlap matrix:         0.005     0.005   0.0% |
  Orbital Layouts:                   0.287     0.287   0.0% |
  Potential matrix:                 17.546    17.546   0.1% |
  Sum over cells:                    0.091     0.091   0.0% |
 LCAO to grid:                      49.685    49.685   0.4% |
 Set positions (LCAO WFS):           1.319     0.181   0.0% |
  Basic WFS set positions:           0.002     0.002   0.0% |
  Basis functions set positions:     0.000     0.000   0.0% |
  P tci:                             0.550     0.550   0.0% |
  ST tci:                            0.372     0.372   0.0% |
  mktci:                             0.214     0.214   0.0% |
PWDescriptor:                        0.025     0.025   0.0% |
SCF-cycle:                       10806.551    39.314   0.3% |
 Davidson:                        9507.376  3054.550  23.9% |---------|
  Apply H:                         631.985   612.931   4.8% |-|
   HMM T:                           19.054    19.054   0.1% |
  Subspace diag:                  1359.373     1.331   0.0% |
   calc_h_matrix:                  862.432   238.689   1.9% ||
    Apply H:                       623.743   605.526   4.7% |-|
     HMM T:                         18.218    18.218   0.1% |
   diagonalize:                     48.064    48.064   0.4% |
   rotate_psi:                     447.545   447.545   3.5% ||
  calc. matrices:                 2834.158  1590.469  12.4% |----|
   Apply H:                       1243.690  1207.242   9.4% |---|
    HMM T:                          36.448    36.448   0.3% |
  diagonalize:                     736.559   736.559   5.8% |-|
  rotate_psi:                      890.751   890.751   7.0% |--|
 Density:                          381.504     0.011   0.0% |
  Atomic density matrices:           6.310     6.310   0.0% |
  Mix:                              66.246    66.246   0.5% |
  Multipole moments:                 0.168     0.168   0.0% |
  Pseudo density:                  308.770   308.757   2.4% ||
   Symmetrize density:               0.012     0.012   0.0% |
 Forces:                           758.126   758.126   5.9% |-|
 Hamiltonian:                      117.951     0.971   0.0% |
  Atomic:                           26.645    26.643   0.2% |
   XC Correction:                    0.003     0.003   0.0% |
  Calculate atomic Hamiltonians:    45.221    45.221   0.4% |
  Communicate:                       0.149     0.149   0.0% |
  Poisson:                           0.424     0.424   0.0% |
  XC 3D grid:                       44.540    44.540   0.3% |
 Orthonormalize:                     2.279     0.003   0.0% |
  calc_s_matrix:                     0.265     0.265   0.0% |
  inverse-cholesky:                  0.040     0.040   0.0% |
  projections:                       1.488     1.488   0.0% |
  rotate_psi_s:                      0.483     0.483   0.0% |
Set symmetry:                        0.000     0.000   0.0% |
Other:                            1918.993  1918.993  15.0% |-----|
-----------------------------------------------------------
Total:                                     12795.571 100.0%

Memory usage: 11.95 GiB
Date: Tue Mar 30 04:31:00 2021
