
  ___ ___ ___ _ _ _  
 |   |   |_  | | | | 
 | | | | | . | | | | 
 |__ |  _|___|_____|  20.10.1b1
 |___|_|             

User:   madkru@g064.nifl.fysik.dtu.dk
Date:   Mon Mar 22 15:29:25 2021
Arch:   x86_64
Pid:    60512
Python: 3.7.4
gpaw:   /home/niflheim/madkru/venv_folder/gpaw/gpaw (d0d1ca1c71)
_gpaw:  /home/niflheim/madkru/venv_folder/gpaw/build/lib.linux-x86_64-sandybridge-3.7/
        _gpaw.cpython-37m-x86_64-linux-gnu.so (4fd39e8b1e)
ase:    /home/niflheim/madkru/venv_folder/ase/ase (version 3.21.0b1-7e6c206a91)
numpy:  /home/niflheim/madkru/venv_folder/lib/python3.7/site-packages/numpy (version 1.19.4)
scipy:  /home/niflheim/madkru/venv_folder/lib/python3.7/site-packages/scipy (version 1.5.4)
libxc:  4.3.4
units:  Angstrom and eV
cores: 32
OMP_NUM_THREADS: 1

Input parameters:
  convergence: {bands: occupied,
                density: 0.0001,
                eigenstates: 4e-08,
                energy: 0.0005,
                forces: 1e-06}
  kpts: [6 6 4]
  mode: {ecut: 600.0,
         gammacentered: False,
         name: pw}
  occupations: {fixmagmom: False,
                name: fermi-dirac,
                width: 0.001}
  symmetry: {point_group: False,
             time_reversal: False}

System changes: positions, numbers, cell, pbc, initial_charges, initial_magmoms 

Initialize ...

O-setup:
  name: Oxygen
  id: 9b9d51c344dea68c822856295a461509
  Z: 8.0
  valence: 6
  core: 2
  charge: 0.0
  file: /home/modules/software/GPAW-setups/0.9.20000/O.LDA.gz
  compensation charges: gauss, rc=0.21, lmax=2
  cutoffs: 1.17(filt), 0.83(core),
  valence states:
                energy  radius
    2s(2.00)   -23.752   0.688
    2p(4.00)    -9.195   0.598
    *s           3.459   0.688
    *p          18.016   0.598
    *d           0.000   0.619

  Using partial waves for O as LCAO basis

Mn-setup:
  name: Manganese
  id: 0d715a8018be061a6e9ea6f2d364ac92
  Z: 25.0
  valence: 15
  core: 10
  charge: 0.0
  file: /home/modules/software/GPAW-setups/0.9.20000/Mn.LDA.gz
  compensation charges: gauss, rc=0.38, lmax=2
  cutoffs: 2.14(filt), 0.86(core),
  valence states:
                energy  radius
    3s(2.00)   -85.387   1.275
    4s(2.00)    -5.282   1.275
    3p(6.00)   -54.493   1.281
    4p(0.00)    -1.471   1.281
    3d(5.00)    -7.009   1.138
    *d          20.203   1.138

  Using partial waves for Mn as LCAO basis

P-setup:
  name: Phosphorus
  id: a5561c299094968922a179ab894d2e2d
  Z: 15.0
  valence: 5
  core: 10
  charge: 0.0
  file: /home/modules/software/GPAW-setups/0.9.20000/P.LDA.gz
  compensation charges: gauss, rc=0.30, lmax=2
  cutoffs: 1.69(filt), 1.81(core),
  valence states:
                energy  radius
    3s(2.00)   -14.015   0.953
    3p(3.00)    -5.596   0.953
    *s          13.197   0.953
    *p          21.615   0.953
    *d           0.000   0.953

  Using partial waves for P as LCAO basis

Li-setup:
  name: Lithium
  id: b73562207f97a71b6967473b66fe8b65
  Z: 3.0
  valence: 1
  core: 2
  charge: 0.0
  file: /home/modules/software/GPAW-setups/0.9.20000/Li.LDA.gz
  compensation charges: gauss, rc=0.33, lmax=2
  cutoffs: 1.91(filt), 2.55(core),
  valence states:
                energy  radius
    2s(1.00)    -2.874   1.058
    2p(0.00)    -1.126   1.058
    *s          24.338   1.058

  Using partial waves for Li as LCAO basis

Reference energy: -196157.275402

Spin-polarized calculation.
Magnetic moment: 0.000000

Convergence criteria:
  Maximum total energy change: 0.0005 eV / electron
  Maximum integral of absolute density change: 0.0001 electrons
  Maximum integral of absolute eigenstate change: 4e-08 eV^2
  Maximum change in atomic force: 1e-06 eV / Ang
  Maximum number of iterations: 333

Symmetries present (total): 1

  ( 1  0  0)
  ( 0  1  0)
  ( 0  0  1)

144 k-points: 6 x 6 x 4 Monkhorst-Pack grid
144 k-points in the irreducible part of the Brillouin zone
       k-points in crystal coordinates                weights
   0:    -0.41666667   -0.41666667   -0.37500000          1/144
   1:    -0.41666667   -0.41666667   -0.12500000          1/144
   2:    -0.41666667   -0.41666667    0.12500000          1/144
   3:    -0.41666667   -0.41666667    0.37500000          1/144
   4:    -0.41666667   -0.25000000   -0.37500000          1/144
   5:    -0.41666667   -0.25000000   -0.12500000          1/144
   6:    -0.41666667   -0.25000000    0.12500000          1/144
   7:    -0.41666667   -0.25000000    0.37500000          1/144
   8:    -0.41666667   -0.08333333   -0.37500000          1/144
   9:    -0.41666667   -0.08333333   -0.12500000          1/144
          ...
 143:     0.41666667    0.41666667    0.37500000          1/144

Wave functions: Plane wave expansion
  Cutoff energy: 600.000 eV
  Number of coefficients (min, max): 10068, 10125
  Pulay-stress correction: 0.000000 eV/Ang^3 (de/decut=0.000000)
  Using FFTW library
  ScaLapack parameters: grid=1x1, blocksize=None
  Wavefunction extrapolation:
    Improved wavefunction reuse through dual PAW basis 

  Fermi-Dirac: width=0.0010 eV

Eigensolver
   Davidson(niter=2, smin=None, normalize=True) 

Densities:
  Coarse grid: 60*35*27 grid
  Fine grid: 120*70*54 grid
  Total Charge: 0.000000 

Density mixing:
  Method: difference
  Backend: pulay
  Linear mixing parameter: 0.05
  Mixing with 5 old densities
  Damping of long wave oscillations: 50 

Hamiltonian:
  XC and Coulomb potentials evaluated on a 120*70*54 grid
  Using the LDA Exchange-Correlation functional
 

Memory estimate:
  Process memory now: 13288.76 MiB
  Calculator: 375.55 MiB
    Density: 20.02 MiB
      Arrays: 7.57 MiB
      Localized functions: 9.42 MiB
      Mixer: 3.03 MiB
    Hamiltonian: 5.90 MiB
      Arrays: 5.62 MiB
      XC: 0.00 MiB
      Poisson: 0.00 MiB
      vbar: 0.27 MiB
    Wavefunctions: 349.64 MiB
      Arrays psit_nG: 311.46 MiB
      Eigensolver: 19.99 MiB
      Projections: 5.41 MiB
      Projectors: 9.73 MiB
      PW-descriptor: 3.03 MiB

Total number of cores used: 32
Parallelization over k-points: 16
Domain decomposition: 2 x 1 x 1

Number of atoms: 28
Number of atomic orbitals: 148
Number of bands in calculation: 112
Number of valence electrons: 180
Bands to converge: occupied

... initialized

Initializing position-dependent things.

Density initialized from atomic densities
Creating initial wave functions:
  112 bands from LCAO basis set

     .-------------------------.  
    /|         OP              |  
   / |O            O        O  |  
  /  |       O            O  P |  
 *   |O    Mn      O           |  
 |   |          OLi          O |  
 |   .P-O--------------Mn------.  
 |  /          Li    O  Mn  O /   
 | /Li O           PO        /    
 |/       Mn                /     
 *Li-----------------------*      

Positions:
   0 O     -1.360678   -2.541161   -1.202221    ( 0.0000,  0.0000,  0.0000)
   1 O     -3.121941    2.976855    1.167242    ( 0.0000,  0.0000,  0.0000)
   2 O      2.107533    0.508090    1.540712    ( 0.0000,  0.0000,  0.0000)
   3 O      3.869373   -0.072395   -0.828750    ( 0.0000,  0.0000,  0.0000)
   4 O      2.107821    2.976875    1.540792    ( 0.0000,  0.0000,  0.0000)
   5 O      3.869084   -2.541141   -0.828671    ( 0.0000,  0.0000,  0.0000)
   6 O     -1.360390   -0.072375   -1.212141    ( 0.0000,  0.0000,  0.0000)
   7 O     -3.122230    0.508109    1.167321    ( 0.0000,  0.0000,  0.0000)
   8 O     -4.413461   -1.306992   -0.794251    ( 0.0000,  0.0000,  0.0000)
   9 O     -0.069585    1.742707    1.575662    ( 0.0000,  0.0000,  0.0000)
  10 O      5.160604    1.742707    1.132822    ( 0.0000,  0.0000,  0.0000)
  11 O      0.816728   -1.306992   -1.237091    ( 0.0000,  0.0000,  0.0000)
  12 Mn    -2.570809   -1.307302    0.247161    ( 0.0000,  0.0000,  1.0000)
  13 Mn    -1.912021    1.743016   -2.122906    ( 0.0000,  0.0000, -1.0000)
  14 Mn     3.317952    1.743017    0.091411    ( 0.0000,  0.0000, -1.0000)
  15 Mn     2.659164   -1.307302    2.461478    ( 0.0000,  0.0000,  1.0000)
  16 P     -0.620664   -1.306816   -1.828465    ( 0.0000,  0.0000,  0.0000)
  17 P     -3.862097    1.742530    0.541238    ( 0.0000,  0.0000,  0.0000)
  18 P      1.367807    1.742530    2.167036    ( 0.0000,  0.0000,  0.0000)
  19 P      4.609240   -1.306816   -0.202666    ( 0.0000,  0.0000,  0.0000)
  20 O     -0.646437   -1.306845    1.374751    ( 0.0000,  0.0000,  0.0000)
  21 O     -3.836504    1.742559   -0.995565    ( 0.0000,  0.0000,  0.0000)
  22 O      1.393580    1.742559   -1.036179    ( 0.0000,  0.0000,  0.0000)
  23 O      4.583647   -1.306845    1.334136    ( 0.0000,  0.0000,  0.0000)
  24 Li    -4.856429   -2.832143   -2.200714    ( 0.0000,  0.0000,  0.0000)
  25 Li     0.373571   -2.832143    0.169286    ( 0.0000,  0.0000,  0.0000)
  26 Li    -4.856429    0.217857   -2.200714    ( 0.0000,  0.0000,  0.0000)
  27 Li     0.373571    0.217857    0.169286    ( 0.0000,  0.0000,  0.0000)

Unit cell:
           periodic     x           y           z      points  spacing
  1. axis:    yes   10.460000    0.000000    0.000000    60     0.1743
  2. axis:    yes    0.000000    6.100000    0.000000    35     0.1743
  3. axis:    yes    0.000000    0.000000    4.740000    27     0.1756

  Lengths:  10.460000   6.100000   4.740000
  Angles:   90.000000  90.000000  90.000000

Effective grid spacing dv^(1/3) = 0.1747

                     log10-error:           total        iterations:
           time      wfs    density  force  energy       poisson  magmom
iter:   1  15:32:25                       -231.918626             +0.0000
iter:   2  15:33:05  -0.55  -0.94         -231.737911             +0.0052
iter:   3  15:33:44  -0.72  -0.98         -220.589212             +0.0066
iter:   4  15:34:24  -0.96  -1.20         -218.875366             +0.0022
iter:   5  15:35:03  -1.94  -1.36         -220.848405             +0.0014
iter:   6  15:35:42  -1.88  -1.53         -219.641396             +0.1562
iter:   7  15:36:22  -2.22  -1.64         -220.198632             -0.2721
iter:   8  15:37:01  -2.57  -1.93         -219.525385             -0.1560
iter:   9  15:37:41  -2.13  -1.85         -224.026215             -0.3343
iter:  10  15:38:20  -2.36  -1.91         -226.788535             -0.0992
iter:  11  15:38:59  -2.71  -1.87         -227.226607             +0.0117
iter:  12  15:39:39  -3.74  -1.85         -227.297550             +0.0014
iter:  13  15:40:18  -3.28  -1.85         -227.196919             +0.0002
iter:  14  15:40:57  -1.57  -1.87         -228.678464             +0.0004
iter:  15  15:41:37  -2.99  -1.87         -228.005286             +0.0000
iter:  16  15:42:16  -2.76  -1.92         -228.000736             -0.0003
iter:  17  15:42:56  -2.52  -1.91         -230.116954             -0.0002
iter:  18  15:43:35  -2.14  -1.85         -226.118255             -0.0001
iter:  19  15:44:14  -3.18  -1.94         -226.107835             -0.0000
iter:  20  15:44:54  -3.04  -1.97         -225.844480             -0.0000
iter:  21  15:45:33  -3.28  -2.11         -225.777390             -0.0000
iter:  22  15:46:13  -2.42  -2.07         -225.224872             -0.0000
iter:  23  15:46:52  -2.24  -2.22         -225.659999             -0.0000
iter:  24  15:47:32  -2.75  -2.28         -226.117969             -0.0000
iter:  25  15:48:11  -2.99  -2.36         -226.424998             -0.0000
iter:  26  15:48:51  -3.66  -2.46         -226.435243             +0.0000
iter:  27  15:49:30  -2.56  -2.55         -226.277965             +0.0000
iter:  28  15:50:09  -3.78  -2.77         -226.261950             +0.0000
iter:  29  15:50:48  -3.27  -2.85         -226.241142             -0.0000
iter:  30  15:51:28  -3.30  -3.01         -226.242557             -0.0000
iter:  31  15:52:07  -4.50  -3.04         -226.235620             -0.0000
iter:  32  15:52:47  -4.21  -3.13         -226.232616             -0.0000
iter:  33  15:53:26  -4.35  -3.19         -226.228848             -0.0000
iter:  34  15:54:05  -4.75  -3.33         -226.228176             -0.0000
iter:  35  15:54:45  -4.79  -3.38         -226.227667             -0.0000
iter:  36  15:55:24  -5.40  -3.62         -226.227679             -0.0000
iter:  37  15:56:03  -5.92  -3.68         -226.227695             -0.0000
iter:  38  15:56:43  -5.51  -3.75         -226.227617             -0.0000
iter:  39  15:57:22  -6.18  -3.88         -226.227578             -0.0000
iter:  40  15:58:02  -6.53  -3.93         -226.227562             +0.0000
iter:  41  15:58:41  -6.38  -3.97         -226.227527             +0.0000
iter:  42  15:59:21  -6.64  -4.38         -226.227509             +0.0000
iter:  43  16:00:00  -7.34  -4.42         -226.227506             +0.0000
iter:  44  16:00:50  -7.51  -4.46         -226.227504             +0.0000
iter:  45  16:01:29  -7.01  -4.52         -226.227504             +0.0000
iter:  46  16:02:19  -7.52  -4.72    -2.44-226.227503             +0.0000
iter:  47  16:03:09  -8.59  -4.90    -3.18-226.227503             +0.0000
iter:  48  16:03:59  -8.14  -4.96    -2.68-226.227503             +0.0000
iter:  49  16:04:49  -8.33  -5.02    -3.00-226.227503             +0.0000
iter:  50  16:05:39  -8.86  -5.11    -3.49-226.227503             +0.0000
iter:  51  16:06:29  -8.39  -5.15    -3.11-226.227503             +0.0000
iter:  52  16:07:19  -8.05  -5.22    -3.14-226.227503             +0.0000
iter:  53  16:08:09  -9.38  -5.54    -3.75-226.227503             +0.0000
iter:  54  16:08:59  -9.37  -5.60    -3.38-226.227503             +0.0000
iter:  55  16:09:49  -9.34  -5.70    -3.14-226.227503             +0.0000
iter:  56  16:10:39  -9.80  -5.88    -4.02-226.227503             +0.0000
iter:  57  16:11:29  -9.62  -5.94    -3.76-226.227503             +0.0000
iter:  58  16:12:19 -10.74  -6.34    -3.88-226.227503             +0.0000
iter:  59  16:13:09 -10.39  -6.41    -4.30-226.227503             +0.0000
iter:  60  16:13:59 -11.46  -6.57    -4.22-226.227503             +0.0000
iter:  61  16:14:49 -12.29  -6.62    -5.01-226.227503             +0.0000
iter:  62  16:15:39 -11.63  -6.71    -4.84-226.227503             +0.0000
iter:  63  16:16:29 -11.53  -6.94    -4.60-226.227503             +0.0000
iter:  64  16:17:19 -12.32  -7.14    -5.10-226.227503             +0.0000
iter:  65  16:18:09 -12.88  -7.20    -5.39-226.227503             +0.0000
iter:  66  16:18:59 -12.55  -7.25    -5.16-226.227503             +0.0000
iter:  67  16:19:49 -12.99  -7.37    -5.15-226.227503             +0.0000
iter:  68  16:20:39 -12.56  -7.49    -5.25-226.227503             +0.0000
iter:  69  16:21:29 -12.81  -7.66    -5.37-226.227503             +0.0000
iter:  70  16:22:19 -13.27  -7.72    -5.25-226.227503             +0.0000
iter:  71  16:23:09 -14.37  -7.85    -6.23-226.227503             +0.0000

Converged after 71 iterations.

Dipole moment: (10.671792, 1.409132, -6.270180) |e|*Ang

Total magnetic moment: (0.000000, 0.000000, 0.000000)
Local magnetic moments:
   0 O  ( 0.000000,  0.000000, -0.000523)
   1 O  ( 0.000000,  0.000000,  0.000664)
   2 O  ( 0.000000,  0.000000,  0.000527)
   3 O  ( 0.000000,  0.000000, -0.000557)
   4 O  ( 0.000000,  0.000000,  0.000505)
   5 O  ( 0.000000,  0.000000, -0.000541)
   6 O  ( 0.000000,  0.000000, -0.000822)
   7 O  ( 0.000000,  0.000000,  0.000508)
   8 O  ( 0.000000,  0.000000,  0.028682)
   9 O  ( 0.000000,  0.000000, -0.028754)
  10 O  ( 0.000000,  0.000000, -0.028685)
  11 O  ( 0.000000,  0.000000,  0.028623)
  12 Mn ( 0.000000,  0.000000,  4.448581)
  13 Mn ( 0.000000,  0.000000, -4.447895)
  14 Mn ( 0.000000,  0.000000, -4.448170)
  15 Mn ( 0.000000,  0.000000,  4.448233)
  16 P  ( 0.000000,  0.000000,  0.001389)
  17 P  ( 0.000000,  0.000000, -0.001550)
  18 P  ( 0.000000,  0.000000, -0.001565)
  19 P  ( 0.000000,  0.000000,  0.001532)
  20 O  ( 0.000000,  0.000000,  0.025336)
  21 O  ( 0.000000,  0.000000, -0.025321)
  22 O  ( 0.000000,  0.000000, -0.025323)
  23 O  ( 0.000000,  0.000000,  0.025302)
  24 Li ( 0.000000,  0.000000, -0.000001)
  25 Li ( 0.000000,  0.000000, -0.000000)
  26 Li ( 0.000000,  0.000000,  0.000001)
  27 Li ( 0.000000,  0.000000, -0.000006)

Energy contributions relative to reference atoms: (reference = -196157.275402)

Kinetic:       +217.600118
Potential:     -195.426544
External:        +0.000000
XC:            -250.441421
Entropy (-ST):   -0.000000
Local:           +2.040343
--------------------------
Free energy:   -226.227503
Extrapolated:  -226.227503

Spin contamination: 9.560526 electrons
Showing only first 2 kpts
                      Up                     Down
 Kpt  Band  Eigenvalues  Occupancy  Eigenvalues  Occupancy
  0    88      5.10778    0.00694      5.11145    0.00694
  0    89      5.13211    0.00694      5.13590    0.00694
  0    90      7.28841    0.00000      7.28555    0.00000
  0    91      7.30620    0.00000      7.30441    0.00000

  1    88      5.13358    0.00694      5.13698    0.00694
  1    89      5.16216    0.00694      5.16615    0.00694
  1    90      7.23130    0.00000      7.22882    0.00000
  1    91      7.24349    0.00000      7.24202    0.00000


Fermi level: 6.16309

Gap: 1.969 eV
Transition (v -> c):
  (s=1, k=70, n=89, [-0.08, 0.42, 0.12]) -> (s=1, k=82, n=90, [0.08, -0.08, 0.12])
Writing to born-0.01-6z-.gpw (mode='all')

Timing:                              incl.     excl.
-----------------------------------------------------------
Hamiltonian:                         0.411     0.002   0.0% |
 Atomic:                             0.054     0.054   0.0% |
  XC Correction:                     0.000     0.000   0.0% |
 Calculate atomic Hamiltonians:      0.178     0.178   0.0% |
 Communicate:                        0.002     0.002   0.0% |
 Initialize Hamiltonian:             0.000     0.000   0.0% |
 Poisson:                            0.002     0.002   0.0% |
 XC 3D grid:                         0.172     0.172   0.0% |
LCAO initialization:               135.711     0.679   0.0% |
 LCAO eigensolver:                  34.439     0.003   0.0% |
  Calculate projections:             0.056     0.056   0.0% |
  DenseAtomicCorrection:             0.083     0.083   0.0% |
  Distribute overlap matrix:         0.301     0.301   0.0% |
  Orbital Layouts:                   0.363     0.363   0.0% |
  Potential matrix:                 33.530    33.530   0.5% |
  Sum over cells:                    0.103     0.103   0.0% |
 LCAO to grid:                      98.317    98.317   1.6% ||
 Set positions (LCAO WFS):           2.277     0.346   0.0% |
  Basic WFS set positions:           0.001     0.001   0.0% |
  Basis functions set positions:     0.000     0.000   0.0% |
  P tci:                             1.059     1.059   0.0% |
  ST tci:                            0.661     0.661   0.0% |
  mktci:                             0.209     0.209   0.0% |
PWDescriptor:                        0.025     0.025   0.0% |
SCF-cycle:                        3086.293    10.774   0.2% |
 Davidson:                        2648.957   864.056  13.7% |----|
  Apply H:                         185.214   179.659   2.8% ||
   HMM T:                            5.555     5.555   0.1% |
  Subspace diag:                   391.006     0.226   0.0% |
   calc_h_matrix:                  253.194    70.165   1.1% |
    Apply H:                       183.029   177.653   2.8% ||
     HMM T:                          5.376     5.376   0.1% |
   diagonalize:                      8.629     8.629   0.1% |
   rotate_psi:                     128.957   128.957   2.0% ||
  calc. matrices:                  828.008   469.058   7.4% |--|
   Apply H:                        358.950   348.791   5.5% |-|
    HMM T:                          10.159    10.159   0.2% |
  diagonalize:                     118.512   118.512   1.9% ||
  rotate_psi:                      262.160   262.160   4.2% |-|
 Density:                          105.772     0.002   0.0% |
  Atomic density matrices:           1.863     1.863   0.0% |
  Mix:                              17.216    17.216   0.3% |
  Multipole moments:                 0.042     0.042   0.0% |
  Pseudo density:                   86.649    86.646   1.4% ||
   Symmetrize density:               0.002     0.002   0.0% |
 Forces:                           286.897   286.897   4.5% |-|
 Hamiltonian:                       29.488     0.166   0.0% |
  Atomic:                            3.829     3.829   0.1% |
   XC Correction:                    0.001     0.001   0.0% |
  Calculate atomic Hamiltonians:    12.734    12.734   0.2% |
  Communicate:                       0.122     0.122   0.0% |
  Poisson:                           0.116     0.116   0.0% |
  XC 3D grid:                       12.520    12.520   0.2% |
 Orthonormalize:                     4.406     0.004   0.0% |
  calc_s_matrix:                     0.523     0.523   0.0% |
  inverse-cholesky:                  0.054     0.054   0.0% |
  projections:                       2.891     2.891   0.0% |
  rotate_psi_s:                      0.935     0.935   0.0% |
Set symmetry:                        0.000     0.000   0.0% |
Other:                            3091.575  3091.575  49.0% |-------------------|
-----------------------------------------------------------
Total:                                      6314.015 100.0%

Memory usage: 13.04 GiB
Date: Mon Mar 22 17:14:39 2021
