
  ___ ___ ___ _ _ _  
 |   |   |_  | | | | 
 | | | | | . | | | | 
 |__ |  _|___|_____|  21.1.1b1
 |___|_|             

User:   madkru@g043.nifl.fysik.dtu.dk
Date:   Wed Mar 31 10:13:36 2021
Arch:   x86_64
Pid:    39387
Python: 3.8.6
gpaw:   /home/niflheim/madkru/venv_madkru/gpaw/gpaw (e6f0d78a31)
_gpaw:  /home/niflheim/madkru/venv_madkru/gpaw/build/lib.linux-x86_64-sandybridge-3.8/
        _gpaw.cpython-38-x86_64-linux-gnu.so (e6f0d78a31)
ase:    /home/niflheim/madkru/venv_madkru/ase/ase (version 3.22.0b1-4d5a73cb29)
numpy:  /home/modules/software/SciPy-bundle/2020.11-foss-2020b/lib/python3.8/site-packages/numpy (version 1.19.4)
scipy:  /home/modules/software/SciPy-bundle/2020.11-foss-2020b/lib/python3.8/site-packages/scipy (version 1.5.4)
libxc:  4.3.4
units:  Angstrom and eV
cores: 64
OpenMP: False
OMP_NUM_THREADS: 1

Input parameters:
  convergence: {bands: occupied,
                density: 0.0001,
                eigenstates: 4e-08,
                energy: 0.0005,
                forces: 1e-06}
  kpts: [6 6 4]
  maxiter: 1000
  mode: {ecut: 600.0,
         gammacentered: False,
         name: pw}
  occupations: {fixmagmom: False,
                name: fermi-dirac,
                width: 0.001}
  symmetry: {point_group: False,
             time_reversal: False}

System changes: positions, numbers, cell, pbc, initial_charges, initial_magmoms 

Initialize ...

O-setup:
  name: Oxygen
  id: 9b9d51c344dea68c822856295a461509
  Z: 8.0
  valence: 6
  core: 2
  charge: 0.0
  file: /home/modules/software/GPAW-setups/0.9.20000/O.LDA.gz
  compensation charges: gauss, rc=0.21, lmax=2
  cutoffs: 1.17(filt), 0.83(core),
  valence states:
                energy  radius
    2s(2.00)   -23.752   0.688
    2p(4.00)    -9.195   0.598
    *s           3.459   0.688
    *p          18.016   0.598
    *d           0.000   0.619

  Using partial waves for O as LCAO basis

Mn-setup:
  name: Manganese
  id: 0d715a8018be061a6e9ea6f2d364ac92
  Z: 25.0
  valence: 15
  core: 10
  charge: 0.0
  file: /home/modules/software/GPAW-setups/0.9.20000/Mn.LDA.gz
  compensation charges: gauss, rc=0.38, lmax=2
  cutoffs: 2.14(filt), 0.86(core),
  valence states:
                energy  radius
    3s(2.00)   -85.387   1.275
    4s(2.00)    -5.282   1.275
    3p(6.00)   -54.493   1.281
    4p(0.00)    -1.471   1.281
    3d(5.00)    -7.009   1.138
    *d          20.203   1.138

  Using partial waves for Mn as LCAO basis

P-setup:
  name: Phosphorus
  id: a5561c299094968922a179ab894d2e2d
  Z: 15.0
  valence: 5
  core: 10
  charge: 0.0
  file: /home/modules/software/GPAW-setups/0.9.20000/P.LDA.gz
  compensation charges: gauss, rc=0.30, lmax=2
  cutoffs: 1.69(filt), 1.81(core),
  valence states:
                energy  radius
    3s(2.00)   -14.015   0.953
    3p(3.00)    -5.596   0.953
    *s          13.197   0.953
    *p          21.615   0.953
    *d           0.000   0.953

  Using partial waves for P as LCAO basis

Li-setup:
  name: Lithium
  id: b73562207f97a71b6967473b66fe8b65
  Z: 3.0
  valence: 1
  core: 2
  charge: 0.0
  file: /home/modules/software/GPAW-setups/0.9.20000/Li.LDA.gz
  compensation charges: gauss, rc=0.33, lmax=2
  cutoffs: 1.91(filt), 2.55(core),
  valence states:
                energy  radius
    2s(1.00)    -2.874   1.058
    2p(0.00)    -1.126   1.058
    *s          24.338   1.058

  Using partial waves for Li as LCAO basis

Reference energy: -196157.275402

Spin-polarized calculation.
Magnetic moment: 0.000000

Convergence criteria:
  Maximum total energy change: 0.0005 eV / electron
  Maximum integral of absolute density change: 0.0001 electrons
  Maximum integral of absolute eigenstate change: 4e-08 eV^2
  Maximum change in atomic force: 1e-06 eV / Ang
  Maximum number of iterations: 1000

Symmetries present (total): 1

  ( 1  0  0)
  ( 0  1  0)
  ( 0  0  1)

144 k-points: 6 x 6 x 4 Monkhorst-Pack grid
144 k-points in the irreducible part of the Brillouin zone
       k-points in crystal coordinates                weights
   0:    -0.41666667   -0.41666667   -0.37500000          1/144
   1:    -0.41666667   -0.41666667   -0.12500000          1/144
   2:    -0.41666667   -0.41666667    0.12500000          1/144
   3:    -0.41666667   -0.41666667    0.37500000          1/144
   4:    -0.41666667   -0.25000000   -0.37500000          1/144
   5:    -0.41666667   -0.25000000   -0.12500000          1/144
   6:    -0.41666667   -0.25000000    0.12500000          1/144
   7:    -0.41666667   -0.25000000    0.37500000          1/144
   8:    -0.41666667   -0.08333333   -0.37500000          1/144
   9:    -0.41666667   -0.08333333   -0.12500000          1/144
          ...
 143:     0.41666667    0.41666667    0.37500000          1/144

Wave functions: Plane wave expansion
  Cutoff energy: 600.000 eV
  Number of coefficients (min, max): 10068, 10125
  Pulay-stress correction: 0.000000 eV/Ang^3 (de/decut=0.000000)
  Using FFTW library
  ScaLapack parameters: grid=1x1, blocksize=None
  Wavefunction extrapolation:
    Improved wavefunction reuse through dual PAW basis 

  Fermi-Dirac: width=0.0010 eV

Eigensolver
   Davidson(niter=2) 

Densities:
  Coarse grid: 60*35*27 grid
  Fine grid: 120*70*54 grid
  Total Charge: 0.000000 

Density mixing:
  Method: difference
  Backend: pulay
  Linear mixing parameter: 0.05
  Mixing with 5 old densities
  Damping of long wave oscillations: 50 

Hamiltonian:
  XC and Coulomb potentials evaluated on a 120*70*54 grid
  Using the LDA Exchange-Correlation functional
 

Memory estimate:
  Process memory now: 13651.03 MiB
  Calculator: 354.82 MiB
    Density: 10.06 MiB
      Arrays: 3.79 MiB
      Localized functions: 4.71 MiB
      Mixer: 1.56 MiB
    Hamiltonian: 2.95 MiB
      Arrays: 2.82 MiB
      XC: 0.00 MiB
      Poisson: 0.00 MiB
      vbar: 0.14 MiB
    Wavefunctions: 341.80 MiB
      Arrays psit_nG: 311.46 MiB
      Eigensolver: 19.99 MiB
      Projections: 2.71 MiB
      Projectors: 4.87 MiB
      PW-descriptor: 2.77 MiB

Total number of cores used: 64
Parallelization over k-points: 16
Domain decomposition: 2 x 2 x 1

Number of atoms: 28
Number of atomic orbitals: 148
Number of bands in calculation: 112
Number of valence electrons: 180
Bands to converge: occupied

... initialized

Initializing position-dependent things.

Density initialized from atomic densities
Creating initial wave functions:
  112 bands from LCAO basis set

     .-------------------------.  
    /|         OP              |  
   / |O            O        O  |  
  /  |       O            O  P |  
 *   |O    Mn      O           |  
 |   |          OLi          O |  
 |   .P-O--------------Mn------.  
 |  /          Li    O  Mn  O /   
 | /Li O           PO        /    
 |/       Mn                /     
 *Li-----------------------*      

Positions:
   0 O     -1.360678   -2.541161   -1.202221    ( 0.0000,  0.0000,  0.0000)
   1 O     -3.121941    2.976855    1.167242    ( 0.0000,  0.0000,  0.0000)
   2 O      2.107533    0.508090    1.540712    ( 0.0000,  0.0000,  0.0000)
   3 O      3.869373   -0.072395   -0.828750    ( 0.0000,  0.0000,  0.0000)
   4 O      2.107821    2.976875    1.540792    ( 0.0000,  0.0000,  0.0000)
   5 O      3.869084   -2.541141   -0.828671    ( 0.0000,  0.0000,  0.0000)
   6 O     -1.360390   -0.072375   -1.202141    ( 0.0000,  0.0000,  0.0000)
   7 O     -3.122230    0.508109    1.167321    ( 0.0000,  0.0000,  0.0000)
   8 O     -4.413461   -1.306992   -0.794251    ( 0.0000,  0.0000,  0.0000)
   9 O     -0.069585    1.742707    1.575662    ( 0.0000,  0.0000,  0.0000)
  10 O      5.160604    1.742707    1.132822    ( 0.0000,  0.0000,  0.0000)
  11 O      0.816728   -1.306992   -1.237091    ( 0.0000,  0.0000,  0.0000)
  12 Mn    -2.570809   -1.307302    0.247161    ( 0.0000,  0.0000,  1.0000)
  13 Mn    -1.912021    1.743016   -2.122906    ( 0.0000,  0.0000, -1.0000)
  14 Mn     3.317952    1.743017    0.091411    ( 0.0000,  0.0000, -1.0000)
  15 Mn     2.659164   -1.307302    2.461478    ( 0.0000,  0.0000,  1.0000)
  16 P     -0.620664   -1.306816   -1.828465    ( 0.0000,  0.0000,  0.0000)
  17 P     -3.862097    1.742530    0.551238    ( 0.0000,  0.0000,  0.0000)
  18 P      1.367807    1.742530    2.167036    ( 0.0000,  0.0000,  0.0000)
  19 P      4.609240   -1.306816   -0.202666    ( 0.0000,  0.0000,  0.0000)
  20 O     -0.646437   -1.306845    1.374751    ( 0.0000,  0.0000,  0.0000)
  21 O     -3.836504    1.742559   -0.995565    ( 0.0000,  0.0000,  0.0000)
  22 O      1.393580    1.742559   -1.036179    ( 0.0000,  0.0000,  0.0000)
  23 O      4.583647   -1.306845    1.334136    ( 0.0000,  0.0000,  0.0000)
  24 Li    -4.856429   -2.832143   -2.200714    ( 0.0000,  0.0000,  0.0000)
  25 Li     0.373571   -2.832143    0.169286    ( 0.0000,  0.0000,  0.0000)
  26 Li    -4.856429    0.217857   -2.200714    ( 0.0000,  0.0000,  0.0000)
  27 Li     0.373571    0.217857    0.169286    ( 0.0000,  0.0000,  0.0000)

Unit cell:
           periodic     x           y           z      points  spacing
  1. axis:    yes   10.460000    0.000000    0.000000    60     0.1743
  2. axis:    yes    0.000000    6.100000    0.000000    35     0.1743
  3. axis:    yes    0.000000    0.000000    4.740000    27     0.1756

  Lengths:  10.460000   6.100000   4.740000
  Angles:   90.000000  90.000000  90.000000

Effective grid spacing dv^(1/3) = 0.1747

                     log10-error:           total        iterations:
           time      wfs    density  force  energy       poisson  magmom
iter:   1  10:15:11                       -231.909858             +0.0000
iter:   2  10:15:32  -0.55  -0.94         -231.729463             +0.0087
iter:   3  10:15:54  -0.72  -0.98         -220.576518             +0.0109
iter:   4  10:16:15  -0.96  -1.20         -218.858629             +0.0036
iter:   5  10:16:36  -1.92  -1.36         -221.182767             +0.0023
iter:   6  10:16:58  -1.95  -1.51         -220.282603             +0.0012
iter:   7  10:17:19  -2.15  -1.62         -224.327206             -0.1051
iter:   8  10:17:40  -2.53  -1.88         -223.375376             -0.2128
iter:   9  10:18:01  -2.31  -1.86         -226.875704             -0.0260
iter:  10  10:18:23  -2.59  -1.80         -227.975796             +0.0149
iter:  11  10:18:44  -2.23  -1.80         -227.277890             +0.0052
iter:  12  10:19:05  -1.79  -1.89         -226.952038             +0.0027
iter:  13  10:19:26  -2.31  -2.00         -226.757408             +0.0020
iter:  14  10:19:48  -1.48  -2.07         -227.046200             +0.0006
iter:  15  10:20:09  -1.48  -1.95         -226.657674             +0.0008
iter:  16  10:20:30  -2.68  -2.22         -226.302159             +0.0002
iter:  17  10:20:52  -3.13  -2.65         -226.246883             +0.0001
iter:  18  10:21:13  -3.69  -2.77         -226.233667             +0.0001
iter:  19  10:21:34  -3.36  -2.83         -226.228986             +0.0000
iter:  20  10:21:55  -3.99  -3.02         -226.230166             +0.0000
iter:  21  10:22:17  -3.83  -3.09         -226.225493             +0.0000
iter:  22  10:22:38  -4.44  -3.26         -226.225566             +0.0000
iter:  23  10:22:59  -4.72  -3.49         -226.225109             +0.0000
iter:  24  10:23:20  -5.32  -3.56         -226.225129             +0.0000
iter:  25  10:23:42  -4.93  -3.67         -226.225141             +0.0000
iter:  26  10:24:03  -5.79  -3.99         -226.224891             +0.0000
iter:  27  10:24:24  -5.93  -4.21         -226.224853             +0.0000
iter:  28  10:24:46  -6.71  -4.36         -226.224838             +0.0000
iter:  29  10:25:12  -7.63  -4.55         -226.224836             +0.0000
iter:  30  10:25:34  -7.35  -4.59         -226.224835             +0.0000
iter:  31  10:26:00  -7.75  -4.68    -2.46-226.224834             +0.0000
iter:  32  10:26:27  -7.75  -4.78    -2.93-226.224834             +0.0000
iter:  33  10:26:54  -8.74  -4.84    -3.61-226.224834             +0.0000
iter:  34  10:27:21  -7.94  -4.87    -2.85-226.224833             -0.0000
iter:  35  10:27:47  -8.62  -5.10    -3.43-226.224834             -0.0000
iter:  36  10:28:14  -8.92  -5.19    -3.37-226.224833             -0.0000
iter:  37  10:28:41  -8.40  -5.24    -3.24-226.224833             -0.0000
iter:  38  10:29:08  -8.96  -5.31    -3.37-226.224833             -0.0000
iter:  39  10:29:34  -9.29  -5.43    -3.83-226.224833             -0.0000
iter:  40  10:30:01  -9.26  -5.48    -3.54-226.224833             +0.0000
iter:  41  10:30:28  -9.88  -5.55    -3.62-226.224833             +0.0000
iter:  42  10:30:55  -9.86  -5.68    -3.70-226.224833             +0.0000
iter:  43  10:31:21 -11.08  -5.85    -4.74-226.224833             +0.0000
iter:  44  10:31:48  -9.76  -5.89    -3.82-226.224833             +0.0000
iter:  45  10:32:15 -10.34  -6.22    -4.07-226.224833             +0.0000
iter:  46  10:32:42 -10.40  -6.32    -4.26-226.224833             +0.0000
iter:  47  10:33:08 -11.10  -6.52    -5.10-226.224833             +0.0000
iter:  48  10:33:35 -11.00  -6.58    -4.32-226.224833             -0.0000
iter:  49  10:34:02 -11.40  -6.64    -4.60-226.224833             -0.0000
iter:  50  10:34:29 -11.66  -6.78    -4.89-226.224833             -0.0000
iter:  51  10:34:56 -11.77  -6.84    -4.98-226.224833             -0.0000
iter:  52  10:35:22 -12.28  -6.99    -5.35-226.224833             -0.0000
iter:  53  10:35:49 -11.87  -7.04    -4.66-226.224833             -0.0000
iter:  54  10:36:16 -12.12  -7.25    -4.85-226.224833             -0.0000
iter:  55  10:36:43 -12.83  -7.43    -5.59-226.224833             -0.0000
iter:  56  10:37:09 -13.34  -7.52    -5.74-226.224833             -0.0000
iter:  57  10:37:36 -12.91  -7.59    -5.44-226.224833             -0.0000
iter:  58  10:38:03 -13.69  -7.73    -5.73-226.224833             -0.0000
iter:  59  10:38:30 -14.84  -7.82    -6.19-226.224833             -0.0000

Converged after 59 iterations.

Dipole moment: (10.670717, 1.418146, -6.194769) |e|*Ang

Total magnetic moment: (0.000000, 0.000000, -0.000000)
Local magnetic moments:
   0 O  ( 0.000000,  0.000000, -0.000496)
   1 O  ( 0.000000,  0.000000,  0.000374)
   2 O  ( 0.000000,  0.000000,  0.000534)
   3 O  ( 0.000000,  0.000000, -0.000538)
   4 O  ( 0.000000,  0.000000,  0.000515)
   5 O  ( 0.000000,  0.000000, -0.000518)
   6 O  ( 0.000000,  0.000000, -0.000516)
   7 O  ( 0.000000,  0.000000,  0.000394)
   8 O  ( 0.000000,  0.000000,  0.028706)
   9 O  ( 0.000000,  0.000000, -0.028604)
  10 O  ( 0.000000,  0.000000, -0.028454)
  11 O  ( 0.000000,  0.000000,  0.028710)
  12 Mn ( 0.000000,  0.000000,  4.448576)
  13 Mn ( 0.000000,  0.000000, -4.448167)
  14 Mn ( 0.000000,  0.000000, -4.448413)
  15 Mn ( 0.000000,  0.000000,  4.448255)
  16 P  ( 0.000000,  0.000000,  0.001544)
  17 P  ( 0.000000,  0.000000, -0.001414)
  18 P  ( 0.000000,  0.000000, -0.001556)
  19 P  ( 0.000000,  0.000000,  0.001540)
  20 O  ( 0.000000,  0.000000,  0.025294)
  21 O  ( 0.000000,  0.000000, -0.025684)
  22 O  ( 0.000000,  0.000000, -0.025360)
  23 O  ( 0.000000,  0.000000,  0.025303)
  24 Li ( 0.000000,  0.000000, -0.000003)
  25 Li ( 0.000000,  0.000000, -0.000000)
  26 Li ( 0.000000,  0.000000, -0.000003)
  27 Li ( 0.000000,  0.000000, -0.000000)

Energy contributions relative to reference atoms: (reference = -196157.275402)

Kinetic:       +217.381569
Potential:     -195.246051
External:        +0.000000
XC:            -250.401310
Entropy (-ST):   -0.000000
Local:           +2.040960
--------------------------
Free energy:   -226.224833
Extrapolated:  -226.224833

Spin contamination: 9.560647 electrons
Showing only first 2 kpts
                      Up                     Down
 Kpt  Band  Eigenvalues  Occupancy  Eigenvalues  Occupancy
  0    88      5.10417    1.00000      5.10754    1.00000
  0    89      5.12923    1.00000      5.13768    1.00000
  0    90      7.28678    0.00000      7.28410    0.00000
  0    91      7.30726    0.00000      7.30275    0.00000

  1    88      5.12995    1.00000      5.13398    1.00000
  1    89      5.15968    1.00000      5.16717    1.00000
  1    90      7.22930    0.00000      7.22687    0.00000
  1    91      7.24428    0.00000      7.24030    0.00000


Fermi level: 6.15699

Gap: 1.968 eV
Transition (v -> c):
  (s=1, k=73, n=89, [0.08, -0.42, -0.12]) -> (s=1, k=86, n=90, [0.08, 0.08, 0.12])
Writing to born-0.01-17z+.gpw (mode='all')

Timing:                              incl.     excl.
-----------------------------------------------------------
Hamiltonian:                         0.266     0.003   0.0% |
 Atomic:                             0.078     0.078   0.0% |
  XC Correction:                     0.000     0.000   0.0% |
 Calculate atomic Hamiltonians:      0.093     0.093   0.0% |
 Communicate:                        0.000     0.000   0.0% |
 Initialize Hamiltonian:             0.000     0.000   0.0% |
 Poisson:                            0.001     0.001   0.0% |
 XC 3D grid:                         0.091     0.091   0.0% |
LCAO initialization:                70.977     0.676   0.0% |
 LCAO eigensolver:                  18.015     0.003   0.0% |
  Calculate projections:             0.029     0.029   0.0% |
  DenseAtomicCorrection:             0.043     0.043   0.0% |
  Distribute overlap matrix:         0.078     0.078   0.0% |
  Orbital Layouts:                   0.280     0.280   0.0% |
  Potential matrix:                 17.487    17.487   0.5% |
  Sum over cells:                    0.095     0.095   0.0% |
 LCAO to grid:                      50.970    50.970   1.4% ||
 Set positions (LCAO WFS):           1.316     0.215   0.0% |
  Basic WFS set positions:           0.002     0.002   0.0% |
  Basis functions set positions:     0.000     0.000   0.0% |
  P tci:                             0.514     0.514   0.0% |
  ST tci:                            0.371     0.371   0.0% |
  mktci:                             0.214     0.214   0.0% |
PWDescriptor:                        0.025     0.025   0.0% |
SCF-cycle:                        1421.473     5.320   0.1% |
 Davidson:                        1187.388   378.504  10.1% |---|
  Apply H:                          80.739    78.220   2.1% ||
   HMM T:                            2.519     2.519   0.1% |
  Subspace diag:                   170.911     0.174   0.0% |
   calc_h_matrix:                  108.956    29.864   0.8% |
    Apply H:                        79.091    76.817   2.0% ||
     HMM T:                          2.274     2.274   0.1% |
   diagonalize:                      6.076     6.076   0.2% |
   rotate_psi:                      55.706    55.706   1.5% ||
  calc. matrices:                  354.492   197.728   5.3% |-|
   Apply H:                        156.763   152.208   4.0% |-|
    HMM T:                           4.556     4.556   0.1% |
  diagonalize:                      91.690    91.690   2.4% ||
  rotate_psi:                      111.052   111.052   3.0% ||
 Density:                           47.538     0.001   0.0% |
  Atomic density matrices:           0.784     0.784   0.0% |
  Mix:                               8.016     8.016   0.2% |
  Multipole moments:                 0.022     0.022   0.0% |
  Pseudo density:                   38.715    38.713   1.0% |
   Symmetrize density:               0.002     0.002   0.0% |
 Forces:                           164.457   164.457   4.4% |-|
 Hamiltonian:                       14.455     0.128   0.0% |
  Atomic:                            3.382     3.381   0.1% |
   XC Correction:                    0.000     0.000   0.0% |
  Calculate atomic Hamiltonians:     5.529     5.529   0.1% |
  Communicate:                       0.014     0.014   0.0% |
  Poisson:                           0.054     0.054   0.0% |
  XC 3D grid:                        5.349     5.349   0.1% |
 Orthonormalize:                     2.316     0.003   0.0% |
  calc_s_matrix:                     0.269     0.269   0.0% |
  inverse-cholesky:                  0.040     0.040   0.0% |
  projections:                       1.505     1.505   0.0% |
  rotate_psi_s:                      0.498     0.498   0.0% |
Set symmetry:                        0.000     0.000   0.0% |
Other:                            2270.294  2270.294  60.3% |-----------------------|
-----------------------------------------------------------
Total:                                      3763.035 100.0%

Memory usage: 13.37 GiB
Date: Wed Mar 31 11:16:19 2021
