
  ___ ___ ___ _ _ _  
 |   |   |_  | | | | 
 | | | | | . | | | | 
 |__ |  _|___|_____|  21.1.1b1
 |___|_|             

User:   madkru@g043.nifl.fysik.dtu.dk
Date:   Tue Mar 30 15:05:57 2021
Arch:   x86_64
Pid:    39387
Python: 3.8.6
gpaw:   /home/niflheim/madkru/venv_madkru/gpaw/gpaw (e6f0d78a31)
_gpaw:  /home/niflheim/madkru/venv_madkru/gpaw/build/lib.linux-x86_64-sandybridge-3.8/
        _gpaw.cpython-38-x86_64-linux-gnu.so (e6f0d78a31)
ase:    /home/niflheim/madkru/venv_madkru/ase/ase (version 3.22.0b1-4d5a73cb29)
numpy:  /home/modules/software/SciPy-bundle/2020.11-foss-2020b/lib/python3.8/site-packages/numpy (version 1.19.4)
scipy:  /home/modules/software/SciPy-bundle/2020.11-foss-2020b/lib/python3.8/site-packages/scipy (version 1.5.4)
libxc:  4.3.4
units:  Angstrom and eV
cores: 64
OpenMP: False
OMP_NUM_THREADS: 1

Input parameters:
  convergence: {bands: occupied,
                density: 0.0001,
                eigenstates: 4e-08,
                energy: 0.0005,
                forces: 1e-06}
  kpts: [6 6 4]
  maxiter: 1000
  mode: {ecut: 600.0,
         gammacentered: False,
         name: pw}
  occupations: {fixmagmom: False,
                name: fermi-dirac,
                width: 0.001}
  symmetry: {point_group: False,
             time_reversal: False}

System changes: positions, numbers, cell, pbc, initial_charges, initial_magmoms 

Initialize ...

O-setup:
  name: Oxygen
  id: 9b9d51c344dea68c822856295a461509
  Z: 8.0
  valence: 6
  core: 2
  charge: 0.0
  file: /home/modules/software/GPAW-setups/0.9.20000/O.LDA.gz
  compensation charges: gauss, rc=0.21, lmax=2
  cutoffs: 1.17(filt), 0.83(core),
  valence states:
                energy  radius
    2s(2.00)   -23.752   0.688
    2p(4.00)    -9.195   0.598
    *s           3.459   0.688
    *p          18.016   0.598
    *d           0.000   0.619

  Using partial waves for O as LCAO basis

Mn-setup:
  name: Manganese
  id: 0d715a8018be061a6e9ea6f2d364ac92
  Z: 25.0
  valence: 15
  core: 10
  charge: 0.0
  file: /home/modules/software/GPAW-setups/0.9.20000/Mn.LDA.gz
  compensation charges: gauss, rc=0.38, lmax=2
  cutoffs: 2.14(filt), 0.86(core),
  valence states:
                energy  radius
    3s(2.00)   -85.387   1.275
    4s(2.00)    -5.282   1.275
    3p(6.00)   -54.493   1.281
    4p(0.00)    -1.471   1.281
    3d(5.00)    -7.009   1.138
    *d          20.203   1.138

  Using partial waves for Mn as LCAO basis

P-setup:
  name: Phosphorus
  id: a5561c299094968922a179ab894d2e2d
  Z: 15.0
  valence: 5
  core: 10
  charge: 0.0
  file: /home/modules/software/GPAW-setups/0.9.20000/P.LDA.gz
  compensation charges: gauss, rc=0.30, lmax=2
  cutoffs: 1.69(filt), 1.81(core),
  valence states:
                energy  radius
    3s(2.00)   -14.015   0.953
    3p(3.00)    -5.596   0.953
    *s          13.197   0.953
    *p          21.615   0.953
    *d           0.000   0.953

  Using partial waves for P as LCAO basis

Li-setup:
  name: Lithium
  id: b73562207f97a71b6967473b66fe8b65
  Z: 3.0
  valence: 1
  core: 2
  charge: 0.0
  file: /home/modules/software/GPAW-setups/0.9.20000/Li.LDA.gz
  compensation charges: gauss, rc=0.33, lmax=2
  cutoffs: 1.91(filt), 2.55(core),
  valence states:
                energy  radius
    2s(1.00)    -2.874   1.058
    2p(0.00)    -1.126   1.058
    *s          24.338   1.058

  Using partial waves for Li as LCAO basis

Reference energy: -196157.275402

Spin-polarized calculation.
Magnetic moment: 0.000000

Convergence criteria:
  Maximum total energy change: 0.0005 eV / electron
  Maximum integral of absolute density change: 0.0001 electrons
  Maximum integral of absolute eigenstate change: 4e-08 eV^2
  Maximum change in atomic force: 1e-06 eV / Ang
  Maximum number of iterations: 1000

Symmetries present (total): 1

  ( 1  0  0)
  ( 0  1  0)
  ( 0  0  1)

144 k-points: 6 x 6 x 4 Monkhorst-Pack grid
144 k-points in the irreducible part of the Brillouin zone
       k-points in crystal coordinates                weights
   0:    -0.41666667   -0.41666667   -0.37500000          1/144
   1:    -0.41666667   -0.41666667   -0.12500000          1/144
   2:    -0.41666667   -0.41666667    0.12500000          1/144
   3:    -0.41666667   -0.41666667    0.37500000          1/144
   4:    -0.41666667   -0.25000000   -0.37500000          1/144
   5:    -0.41666667   -0.25000000   -0.12500000          1/144
   6:    -0.41666667   -0.25000000    0.12500000          1/144
   7:    -0.41666667   -0.25000000    0.37500000          1/144
   8:    -0.41666667   -0.08333333   -0.37500000          1/144
   9:    -0.41666667   -0.08333333   -0.12500000          1/144
          ...
 143:     0.41666667    0.41666667    0.37500000          1/144

Wave functions: Plane wave expansion
  Cutoff energy: 600.000 eV
  Number of coefficients (min, max): 10068, 10125
  Pulay-stress correction: 0.000000 eV/Ang^3 (de/decut=0.000000)
  Using FFTW library
  ScaLapack parameters: grid=1x1, blocksize=None
  Wavefunction extrapolation:
    Improved wavefunction reuse through dual PAW basis 

  Fermi-Dirac: width=0.0010 eV

Eigensolver
   Davidson(niter=2) 

Densities:
  Coarse grid: 60*35*27 grid
  Fine grid: 120*70*54 grid
  Total Charge: 0.000000 

Density mixing:
  Method: difference
  Backend: pulay
  Linear mixing parameter: 0.05
  Mixing with 5 old densities
  Damping of long wave oscillations: 50 

Hamiltonian:
  XC and Coulomb potentials evaluated on a 120*70*54 grid
  Using the LDA Exchange-Correlation functional
 

Memory estimate:
  Process memory now: 12764.59 MiB
  Calculator: 354.82 MiB
    Density: 10.06 MiB
      Arrays: 3.79 MiB
      Localized functions: 4.71 MiB
      Mixer: 1.56 MiB
    Hamiltonian: 2.95 MiB
      Arrays: 2.82 MiB
      XC: 0.00 MiB
      Poisson: 0.00 MiB
      vbar: 0.14 MiB
    Wavefunctions: 341.80 MiB
      Arrays psit_nG: 311.46 MiB
      Eigensolver: 19.99 MiB
      Projections: 2.71 MiB
      Projectors: 4.87 MiB
      PW-descriptor: 2.77 MiB

Total number of cores used: 64
Parallelization over k-points: 16
Domain decomposition: 2 x 2 x 1

Number of atoms: 28
Number of atomic orbitals: 148
Number of bands in calculation: 112
Number of valence electrons: 180
Bands to converge: occupied

... initialized

Initializing position-dependent things.

Density initialized from atomic densities
Creating initial wave functions:
  112 bands from LCAO basis set

     .-------------------------.  
    /|         OP              |  
   / |O            O        O  |  
  /  |       O            O  P |  
 *   |O    Mn      O           |  
 |   |          OLi          O |  
 |   .P-O--------------Mn------.  
 |  /          Li    O  Mn  O /   
 | /Li O           PO        /    
 |/       Mn                /     
 *Li-----------------------*      

Positions:
   0 O     -1.360678   -2.541161   -1.202221    ( 0.0000,  0.0000,  0.0000)
   1 O     -3.121941    2.976855    1.167242    ( 0.0000,  0.0000,  0.0000)
   2 O      2.107533    0.508090    1.540712    ( 0.0000,  0.0000,  0.0000)
   3 O      3.869373   -0.072395   -0.828750    ( 0.0000,  0.0000,  0.0000)
   4 O      2.107821    2.976875    1.540792    ( 0.0000,  0.0000,  0.0000)
   5 O      3.869084   -2.541141   -0.828671    ( 0.0000,  0.0000,  0.0000)
   6 O     -1.360390   -0.072375   -1.202141    ( 0.0000,  0.0000,  0.0000)
   7 O     -3.122230    0.508109    1.167321    ( 0.0000,  0.0000,  0.0000)
   8 O     -4.413461   -1.306992   -0.794251    ( 0.0000,  0.0000,  0.0000)
   9 O     -0.069585    1.742707    1.575662    ( 0.0000,  0.0000,  0.0000)
  10 O      5.160604    1.742707    1.132822    ( 0.0000,  0.0000,  0.0000)
  11 O      0.816728   -1.306992   -1.237091    ( 0.0000,  0.0000,  0.0000)
  12 Mn    -2.570809   -1.317302    0.247161    ( 0.0000,  0.0000,  1.0000)
  13 Mn    -1.912021    1.743016   -2.122906    ( 0.0000,  0.0000, -1.0000)
  14 Mn     3.317952    1.743017    0.091411    ( 0.0000,  0.0000, -1.0000)
  15 Mn     2.659164   -1.307302    2.461478    ( 0.0000,  0.0000,  1.0000)
  16 P     -0.620664   -1.306816   -1.828465    ( 0.0000,  0.0000,  0.0000)
  17 P     -3.862097    1.742530    0.541238    ( 0.0000,  0.0000,  0.0000)
  18 P      1.367807    1.742530    2.167036    ( 0.0000,  0.0000,  0.0000)
  19 P      4.609240   -1.306816   -0.202666    ( 0.0000,  0.0000,  0.0000)
  20 O     -0.646437   -1.306845    1.374751    ( 0.0000,  0.0000,  0.0000)
  21 O     -3.836504    1.742559   -0.995565    ( 0.0000,  0.0000,  0.0000)
  22 O      1.393580    1.742559   -1.036179    ( 0.0000,  0.0000,  0.0000)
  23 O      4.583647   -1.306845    1.334136    ( 0.0000,  0.0000,  0.0000)
  24 Li    -4.856429   -2.832143   -2.200714    ( 0.0000,  0.0000,  0.0000)
  25 Li     0.373571   -2.832143    0.169286    ( 0.0000,  0.0000,  0.0000)
  26 Li    -4.856429    0.217857   -2.200714    ( 0.0000,  0.0000,  0.0000)
  27 Li     0.373571    0.217857    0.169286    ( 0.0000,  0.0000,  0.0000)

Unit cell:
           periodic     x           y           z      points  spacing
  1. axis:    yes   10.460000    0.000000    0.000000    60     0.1743
  2. axis:    yes    0.000000    6.100000    0.000000    35     0.1743
  3. axis:    yes    0.000000    0.000000    4.740000    27     0.1756

  Lengths:  10.460000   6.100000   4.740000
  Angles:   90.000000  90.000000  90.000000

Effective grid spacing dv^(1/3) = 0.1747

                     log10-error:           total        iterations:
           time      wfs    density  force  energy       poisson  magmom
iter:   1  15:07:33                       -231.920270             +0.0000
iter:   2  15:07:54  -0.55  -0.94         -231.731255             +0.0049
iter:   3  15:08:15  -0.72  -0.98         -220.584492             +0.0062
iter:   4  15:08:37  -0.96  -1.20         -218.866135             +0.0020
iter:   5  15:08:58  -1.93  -1.36         -221.160191             +0.0013
iter:   6  15:09:19  -1.98  -1.50         -219.917867             +0.0007
iter:   7  15:09:40  -2.24  -1.68         -222.274645             +0.0201
iter:   8  15:10:02  -2.76  -1.90         -219.568257             +0.0254
iter:   9  15:10:23  -2.46  -1.97         -222.527545             +0.4028
iter:  10  15:10:44  -2.29  -1.96         -226.035933             +0.9432
iter:  11  15:11:06  -2.53  -1.87         -227.400226             +0.0948
iter:  12  15:11:27  -2.72  -1.82         -227.120757             +0.0112
iter:  13  15:11:48  -2.20  -1.88         -226.749984             +0.0083
iter:  14  15:12:09  -1.98  -1.98         -226.584707             +0.0038
iter:  15  15:12:31  -2.44  -2.14         -226.433105             +0.0026
iter:  16  15:12:52  -2.58  -2.34         -226.287521             +0.0002
iter:  17  15:13:13  -3.33  -2.51         -226.267798             +0.0004
iter:  18  15:13:34  -3.02  -2.61         -226.257956             +0.0001
iter:  19  15:13:56  -3.81  -2.81         -226.260829             +0.0001
iter:  20  15:14:17  -3.85  -2.86         -226.239006             +0.0000
iter:  21  15:14:38  -4.20  -3.04         -226.232725             +0.0000
iter:  22  15:14:59  -4.68  -3.05         -226.230886             +0.0000
iter:  23  15:15:21  -4.30  -3.11         -226.228470             +0.0000
iter:  24  15:15:42  -4.74  -3.19         -226.228470             +0.0000
iter:  25  15:16:03  -4.52  -3.23         -226.227933             +0.0000
iter:  26  15:16:24  -5.24  -3.56         -226.227755             +0.0000
iter:  27  15:16:46  -4.77  -3.65         -226.228274             -0.0000
iter:  28  15:17:07  -5.54  -3.77         -226.227753             -0.0000
iter:  29  15:17:28  -5.81  -4.03         -226.227673             -0.0000
iter:  30  15:17:49  -6.24  -4.11         -226.227694             -0.0000
iter:  31  15:18:10  -6.04  -4.24         -226.227659             -0.0000
iter:  32  15:18:32  -7.39  -4.56         -226.227657             -0.0000
iter:  33  15:18:53  -6.84  -4.61         -226.227661             +0.0000
iter:  34  15:19:14  -7.21  -4.68         -226.227658             +0.0000
iter:  35  15:19:35  -7.37  -4.86         -226.227659             +0.0000
iter:  36  15:20:02  -8.02  -4.92         -226.227658             +0.0000
iter:  37  15:20:29  -7.64  -5.04    -2.70-226.227659             +0.0000
iter:  38  15:20:55  -8.07  -5.12    -2.85-226.227658             +0.0000
iter:  39  15:21:22  -9.39  -5.51    -3.38-226.227658             +0.0000
iter:  40  15:21:49  -8.65  -5.64    -3.07-226.227658             +0.0000
iter:  41  15:22:16  -9.44  -5.90    -3.67-226.227658             +0.0000
iter:  42  15:22:42  -9.98  -6.04    -4.30-226.227658             +0.0000
iter:  43  15:23:09  -9.99  -6.12    -4.07-226.227658             +0.0000
iter:  44  15:23:36 -10.12  -6.19    -4.06-226.227658             -0.0000
iter:  45  15:24:02 -11.50  -6.24    -4.72-226.227658             +0.0000
iter:  46  15:24:29  -9.85  -6.26    -3.80-226.227658             +0.0000
iter:  47  15:24:56  -9.88  -6.21    -3.74-226.227658             +0.0000
iter:  48  15:25:23 -10.77  -6.43    -4.12-226.227658             +0.0000
iter:  49  15:25:49 -11.79  -6.59    -4.51-226.227658             +0.0000
iter:  50  15:26:16 -10.93  -6.71    -4.39-226.227658             +0.0000
iter:  51  15:26:43 -11.48  -6.92    -4.56-226.227658             +0.0000
iter:  52  15:27:09 -11.79  -7.02    -4.74-226.227658             +0.0000
iter:  53  15:27:36 -11.75  -7.32    -4.79-226.227658             +0.0000
iter:  54  15:28:03 -12.36  -7.25    -4.94-226.227658             +0.0000
iter:  55  15:28:29 -13.37  -7.49    -5.65-226.227658             +0.0000
iter:  56  15:28:56 -13.59  -7.56    -5.49-226.227658             +0.0000
iter:  57  15:29:23 -12.63  -7.63    -5.20-226.227658             +0.0000
iter:  58  15:29:50 -12.95  -7.62    -5.29-226.227658             +0.0000
iter:  59  15:30:16 -14.14  -7.79    -6.28-226.227658             +0.0000

Converged after 59 iterations.

Dipole moment: (10.671453, 1.387270, -6.269785) |e|*Ang

Total magnetic moment: (0.000000, 0.000000, 0.000000)
Local magnetic moments:
   0 O  ( 0.000000,  0.000000, -0.000135)
   1 O  ( 0.000000,  0.000000,  0.001048)
   2 O  ( 0.000000,  0.000000,  0.000539)
   3 O  ( 0.000000,  0.000000, -0.000539)
   4 O  ( 0.000000,  0.000000,  0.000517)
   5 O  ( 0.000000,  0.000000, -0.000548)
   6 O  ( 0.000000,  0.000000, -0.000925)
   7 O  ( 0.000000,  0.000000,  0.000045)
   8 O  ( 0.000000,  0.000000,  0.028694)
   9 O  ( 0.000000,  0.000000, -0.028702)
  10 O  ( 0.000000,  0.000000, -0.028692)
  11 O  ( 0.000000,  0.000000,  0.028702)
  12 Mn ( 0.000000,  0.000000,  4.448114)
  13 Mn ( 0.000000,  0.000000, -4.448233)
  14 Mn ( 0.000000,  0.000000, -4.448161)
  15 Mn ( 0.000000,  0.000000,  4.448242)
  16 P  ( 0.000000,  0.000000,  0.001559)
  17 P  ( 0.000000,  0.000000, -0.001541)
  18 P  ( 0.000000,  0.000000, -0.001557)
  19 P  ( 0.000000,  0.000000,  0.001543)
  20 O  ( 0.000000,  0.000000,  0.025317)
  21 O  ( 0.000000,  0.000000, -0.025305)
  22 O  ( 0.000000,  0.000000, -0.025315)
  23 O  ( 0.000000,  0.000000,  0.025306)
  24 Li ( 0.000000,  0.000000,  0.000002)
  25 Li ( 0.000000,  0.000000, -0.000005)
  26 Li ( 0.000000,  0.000000, -0.000001)
  27 Li ( 0.000000,  0.000000,  0.000005)

Energy contributions relative to reference atoms: (reference = -196157.275402)

Kinetic:       +217.355325
Potential:     -195.239806
External:        +0.000000
XC:            -250.384307
Entropy (-ST):   -0.000000
Local:           +2.041130
--------------------------
Free energy:   -226.227658
Extrapolated:  -226.227658

Spin contamination: 9.560405 electrons
Showing only first 2 kpts
                      Up                     Down
 Kpt  Band  Eigenvalues  Occupancy  Eigenvalues  Occupancy
  0    88      5.10996    1.00000      5.10993    1.00000
  0    89      5.13402    1.00000      5.13428    1.00000
  0    90      7.28866    0.00000      7.28860    0.00000
  0    91      7.30636    0.00000      7.30634    0.00000

  1    88      5.13542    1.00000      5.13563    1.00000
  1    89      5.16472    1.00000      5.16477    1.00000
  1    90      7.23145    0.00000      7.23143    0.00000
  1    91      7.24366    0.00000      7.24365    0.00000


Fermi level: 6.50576

Gap: 1.972 eV
Transition (v -> c):
  (s=0, k=74, n=89, [0.08, -0.42, 0.12]) -> (s=0, k=82, n=90, [0.08, -0.08, 0.12])
Writing to born-0.01-12y-.gpw (mode='all')

Timing:                              incl.     excl.
-----------------------------------------------------------
Hamiltonian:                         0.270     0.002   0.0% |
 Atomic:                             0.085     0.085   0.0% |
  XC Correction:                     0.000     0.000   0.0% |
 Calculate atomic Hamiltonians:      0.091     0.091   0.0% |
 Communicate:                        0.000     0.000   0.0% |
 Initialize Hamiltonian:             0.000     0.000   0.0% |
 Poisson:                            0.001     0.001   0.0% |
 XC 3D grid:                         0.091     0.091   0.0% |
LCAO initialization:                70.194     0.673   0.0% |
 LCAO eigensolver:                  18.011     0.002   0.0% |
  Calculate projections:             0.029     0.029   0.0% |
  DenseAtomicCorrection:             0.043     0.043   0.0% |
  Distribute overlap matrix:         0.006     0.006   0.0% |
  Orbital Layouts:                   0.277     0.277   0.0% |
  Potential matrix:                 17.567    17.567   0.4% |
  Sum over cells:                    0.086     0.086   0.0% |
 LCAO to grid:                      50.065    50.065   1.3% ||
 Set positions (LCAO WFS):           1.445     0.347   0.0% |
  Basic WFS set positions:           0.002     0.002   0.0% |
  Basis functions set positions:     0.000     0.000   0.0% |
  P tci:                             0.515     0.515   0.0% |
  ST tci:                            0.368     0.368   0.0% |
  mktci:                             0.212     0.212   0.0% |
PWDescriptor:                        0.025     0.025   0.0% |
SCF-cycle:                        1387.508     5.179   0.1% |
 Davidson:                        1186.653   379.443   9.6% |---|
  Apply H:                          79.936    77.518   2.0% ||
   HMM T:                            2.419     2.419   0.1% |
  Subspace diag:                   170.577     0.171   0.0% |
   calc_h_matrix:                  108.705    29.680   0.8% |
    Apply H:                        79.025    76.741   1.9% ||
     HMM T:                          2.284     2.284   0.1% |
   diagonalize:                      6.090     6.090   0.2% |
   rotate_psi:                      55.611    55.611   1.4% ||
  calc. matrices:                  354.560   197.637   5.0% |-|
   Apply H:                        156.923   152.306   3.9% |-|
    HMM T:                           4.617     4.617   0.1% |
  diagonalize:                      91.380    91.380   2.3% ||
  rotate_psi:                      110.756   110.756   2.8% ||
 Density:                           47.170     0.001   0.0% |
  Atomic density matrices:           0.772     0.772   0.0% |
  Mix:                               8.075     8.075   0.2% |
  Multipole moments:                 0.021     0.021   0.0% |
  Pseudo density:                   38.300    38.298   1.0% |
   Symmetrize density:               0.002     0.002   0.0% |
 Forces:                           131.787   131.787   3.3% ||
 Hamiltonian:                       14.428     0.124   0.0% |
  Atomic:                            3.310     3.310   0.1% |
   XC Correction:                    0.000     0.000   0.0% |
  Calculate atomic Hamiltonians:     5.545     5.545   0.1% |
  Communicate:                       0.013     0.013   0.0% |
  Poisson:                           0.053     0.053   0.0% |
  XC 3D grid:                        5.382     5.382   0.1% |
 Orthonormalize:                     2.290     0.004   0.0% |
  calc_s_matrix:                     0.267     0.267   0.0% |
  inverse-cholesky:                  0.041     0.041   0.0% |
  projections:                       1.486     1.486   0.0% |
  rotate_psi_s:                      0.493     0.493   0.0% |
Set symmetry:                        0.000     0.000   0.0% |
Other:                            2490.132  2490.132  63.1% |------------------------|
-----------------------------------------------------------
Total:                                      3948.129 100.0%

Memory usage: 12.48 GiB
Date: Tue Mar 30 16:11:45 2021
