
  ___ ___ ___ _ _ _  
 |   |   |_  | | | | 
 | | | | | . | | | | 
 |__ |  _|___|_____|  20.10.1b1
 |___|_|             

User:   madkru@g064.nifl.fysik.dtu.dk
Date:   Mon Mar 22 19:20:57 2021
Arch:   x86_64
Pid:    60512
Python: 3.7.4
gpaw:   /home/niflheim/madkru/venv_folder/gpaw/gpaw (d0d1ca1c71)
_gpaw:  /home/niflheim/madkru/venv_folder/gpaw/build/lib.linux-x86_64-sandybridge-3.7/
        _gpaw.cpython-37m-x86_64-linux-gnu.so (4fd39e8b1e)
ase:    /home/niflheim/madkru/venv_folder/ase/ase (version 3.21.0b1-7e6c206a91)
numpy:  /home/niflheim/madkru/venv_folder/lib/python3.7/site-packages/numpy (version 1.19.4)
scipy:  /home/niflheim/madkru/venv_folder/lib/python3.7/site-packages/scipy (version 1.5.4)
libxc:  4.3.4
units:  Angstrom and eV
cores: 32
OMP_NUM_THREADS: 1

Input parameters:
  convergence: {bands: occupied,
                density: 0.0001,
                eigenstates: 4e-08,
                energy: 0.0005,
                forces: 1e-06}
  kpts: [6 6 4]
  mode: {ecut: 600.0,
         gammacentered: False,
         name: pw}
  occupations: {fixmagmom: False,
                name: fermi-dirac,
                width: 0.001}
  symmetry: {point_group: False,
             time_reversal: False}

System changes: positions, numbers, cell, pbc, initial_charges, initial_magmoms 

Initialize ...

O-setup:
  name: Oxygen
  id: 9b9d51c344dea68c822856295a461509
  Z: 8.0
  valence: 6
  core: 2
  charge: 0.0
  file: /home/modules/software/GPAW-setups/0.9.20000/O.LDA.gz
  compensation charges: gauss, rc=0.21, lmax=2
  cutoffs: 1.17(filt), 0.83(core),
  valence states:
                energy  radius
    2s(2.00)   -23.752   0.688
    2p(4.00)    -9.195   0.598
    *s           3.459   0.688
    *p          18.016   0.598
    *d           0.000   0.619

  Using partial waves for O as LCAO basis

Mn-setup:
  name: Manganese
  id: 0d715a8018be061a6e9ea6f2d364ac92
  Z: 25.0
  valence: 15
  core: 10
  charge: 0.0
  file: /home/modules/software/GPAW-setups/0.9.20000/Mn.LDA.gz
  compensation charges: gauss, rc=0.38, lmax=2
  cutoffs: 2.14(filt), 0.86(core),
  valence states:
                energy  radius
    3s(2.00)   -85.387   1.275
    4s(2.00)    -5.282   1.275
    3p(6.00)   -54.493   1.281
    4p(0.00)    -1.471   1.281
    3d(5.00)    -7.009   1.138
    *d          20.203   1.138

  Using partial waves for Mn as LCAO basis

P-setup:
  name: Phosphorus
  id: a5561c299094968922a179ab894d2e2d
  Z: 15.0
  valence: 5
  core: 10
  charge: 0.0
  file: /home/modules/software/GPAW-setups/0.9.20000/P.LDA.gz
  compensation charges: gauss, rc=0.30, lmax=2
  cutoffs: 1.69(filt), 1.81(core),
  valence states:
                energy  radius
    3s(2.00)   -14.015   0.953
    3p(3.00)    -5.596   0.953
    *s          13.197   0.953
    *p          21.615   0.953
    *d           0.000   0.953

  Using partial waves for P as LCAO basis

Li-setup:
  name: Lithium
  id: b73562207f97a71b6967473b66fe8b65
  Z: 3.0
  valence: 1
  core: 2
  charge: 0.0
  file: /home/modules/software/GPAW-setups/0.9.20000/Li.LDA.gz
  compensation charges: gauss, rc=0.33, lmax=2
  cutoffs: 1.91(filt), 2.55(core),
  valence states:
                energy  radius
    2s(1.00)    -2.874   1.058
    2p(0.00)    -1.126   1.058
    *s          24.338   1.058

  Using partial waves for Li as LCAO basis

Reference energy: -196157.275402

Spin-polarized calculation.
Magnetic moment: 0.000000

Convergence criteria:
  Maximum total energy change: 0.0005 eV / electron
  Maximum integral of absolute density change: 0.0001 electrons
  Maximum integral of absolute eigenstate change: 4e-08 eV^2
  Maximum change in atomic force: 1e-06 eV / Ang
  Maximum number of iterations: 333

Symmetries present (total): 1

  ( 1  0  0)
  ( 0  1  0)
  ( 0  0  1)

144 k-points: 6 x 6 x 4 Monkhorst-Pack grid
144 k-points in the irreducible part of the Brillouin zone
       k-points in crystal coordinates                weights
   0:    -0.41666667   -0.41666667   -0.37500000          1/144
   1:    -0.41666667   -0.41666667   -0.12500000          1/144
   2:    -0.41666667   -0.41666667    0.12500000          1/144
   3:    -0.41666667   -0.41666667    0.37500000          1/144
   4:    -0.41666667   -0.25000000   -0.37500000          1/144
   5:    -0.41666667   -0.25000000   -0.12500000          1/144
   6:    -0.41666667   -0.25000000    0.12500000          1/144
   7:    -0.41666667   -0.25000000    0.37500000          1/144
   8:    -0.41666667   -0.08333333   -0.37500000          1/144
   9:    -0.41666667   -0.08333333   -0.12500000          1/144
          ...
 143:     0.41666667    0.41666667    0.37500000          1/144

Wave functions: Plane wave expansion
  Cutoff energy: 600.000 eV
  Number of coefficients (min, max): 10068, 10125
  Pulay-stress correction: 0.000000 eV/Ang^3 (de/decut=0.000000)
  Using FFTW library
  ScaLapack parameters: grid=1x1, blocksize=None
  Wavefunction extrapolation:
    Improved wavefunction reuse through dual PAW basis 

  Fermi-Dirac: width=0.0010 eV

Eigensolver
   Davidson(niter=2, smin=None, normalize=True) 

Densities:
  Coarse grid: 60*35*27 grid
  Fine grid: 120*70*54 grid
  Total Charge: 0.000000 

Density mixing:
  Method: difference
  Backend: pulay
  Linear mixing parameter: 0.05
  Mixing with 5 old densities
  Damping of long wave oscillations: 50 

Hamiltonian:
  XC and Coulomb potentials evaluated on a 120*70*54 grid
  Using the LDA Exchange-Correlation functional
 

Memory estimate:
  Process memory now: 13378.04 MiB
  Calculator: 375.55 MiB
    Density: 20.02 MiB
      Arrays: 7.57 MiB
      Localized functions: 9.42 MiB
      Mixer: 3.03 MiB
    Hamiltonian: 5.90 MiB
      Arrays: 5.62 MiB
      XC: 0.00 MiB
      Poisson: 0.00 MiB
      vbar: 0.27 MiB
    Wavefunctions: 349.64 MiB
      Arrays psit_nG: 311.46 MiB
      Eigensolver: 19.99 MiB
      Projections: 5.41 MiB
      Projectors: 9.73 MiB
      PW-descriptor: 3.03 MiB

Total number of cores used: 32
Parallelization over k-points: 16
Domain decomposition: 2 x 1 x 1

Number of atoms: 28
Number of atomic orbitals: 148
Number of bands in calculation: 112
Number of valence electrons: 180
Bands to converge: occupied

... initialized

Initializing position-dependent things.

Density initialized from atomic densities
Creating initial wave functions:
  112 bands from LCAO basis set

     .-------------------------.  
    /|         OP              |  
   / |O            O        O  |  
  /  |       O            O  P |  
 *   |O    Mn      O           |  
 |   |          OLi          O |  
 |   .P-O--------------Mn------.  
 |  /          Li    O  Mn  O /   
 | /Li O           PO        /    
 |/       Mn                /     
 *Li-----------------------*      

Positions:
   0 O     -1.360678   -2.541161   -1.202221    ( 0.0000,  0.0000,  0.0000)
   1 O     -3.121941    2.976855    1.167242    ( 0.0000,  0.0000,  0.0000)
   2 O      2.107533    0.508090    1.540712    ( 0.0000,  0.0000,  0.0000)
   3 O      3.869373   -0.072395   -0.828750    ( 0.0000,  0.0000,  0.0000)
   4 O      2.107821    2.976875    1.540792    ( 0.0000,  0.0000,  0.0000)
   5 O      3.869084   -2.541141   -0.828671    ( 0.0000,  0.0000,  0.0000)
   6 O     -1.360390   -0.072375   -1.202141    ( 0.0000,  0.0000,  0.0000)
   7 O     -3.122230    0.498109    1.167321    ( 0.0000,  0.0000,  0.0000)
   8 O     -4.413461   -1.306992   -0.794251    ( 0.0000,  0.0000,  0.0000)
   9 O     -0.069585    1.742707    1.575662    ( 0.0000,  0.0000,  0.0000)
  10 O      5.160604    1.742707    1.132822    ( 0.0000,  0.0000,  0.0000)
  11 O      0.816728   -1.306992   -1.237091    ( 0.0000,  0.0000,  0.0000)
  12 Mn    -2.570809   -1.307302    0.247161    ( 0.0000,  0.0000,  1.0000)
  13 Mn    -1.912021    1.743016   -2.122906    ( 0.0000,  0.0000, -1.0000)
  14 Mn     3.317952    1.743017    0.091411    ( 0.0000,  0.0000, -1.0000)
  15 Mn     2.659164   -1.307302    2.461478    ( 0.0000,  0.0000,  1.0000)
  16 P     -0.620664   -1.306816   -1.828465    ( 0.0000,  0.0000,  0.0000)
  17 P     -3.862097    1.742530    0.541238    ( 0.0000,  0.0000,  0.0000)
  18 P      1.367807    1.742530    2.167036    ( 0.0000,  0.0000,  0.0000)
  19 P      4.609240   -1.306816   -0.202666    ( 0.0000,  0.0000,  0.0000)
  20 O     -0.646437   -1.306845    1.374751    ( 0.0000,  0.0000,  0.0000)
  21 O     -3.836504    1.742559   -0.995565    ( 0.0000,  0.0000,  0.0000)
  22 O      1.393580    1.742559   -1.036179    ( 0.0000,  0.0000,  0.0000)
  23 O      4.583647   -1.306845    1.334136    ( 0.0000,  0.0000,  0.0000)
  24 Li    -4.856429   -2.832143   -2.200714    ( 0.0000,  0.0000,  0.0000)
  25 Li     0.373571   -2.832143    0.169286    ( 0.0000,  0.0000,  0.0000)
  26 Li    -4.856429    0.217857   -2.200714    ( 0.0000,  0.0000,  0.0000)
  27 Li     0.373571    0.217857    0.169286    ( 0.0000,  0.0000,  0.0000)

Unit cell:
           periodic     x           y           z      points  spacing
  1. axis:    yes   10.460000    0.000000    0.000000    60     0.1743
  2. axis:    yes    0.000000    6.100000    0.000000    35     0.1743
  3. axis:    yes    0.000000    0.000000    4.740000    27     0.1756

  Lengths:  10.460000   6.100000   4.740000
  Angles:   90.000000  90.000000  90.000000

Effective grid spacing dv^(1/3) = 0.1747

                     log10-error:           total        iterations:
           time      wfs    density  force  energy       poisson  magmom
iter:   1  19:23:56                       -231.922034             +0.0000
iter:   2  19:24:36  -0.55  -0.94         -231.718211             -0.0043
iter:   3  19:25:15  -0.72  -0.98         -220.590808             -0.0054
iter:   4  19:25:54  -0.95  -1.20         -218.881436             -0.0017
iter:   5  19:26:34  -1.93  -1.36         -222.351530             -0.0011
iter:   6  19:27:13  -1.99  -1.42         -221.516856             +0.0053
iter:   7  19:27:53  -1.82  -1.58         -224.920987             +0.6899
iter:   8  19:28:32  -2.33  -1.62         -224.869366             -0.2812
iter:   9  19:29:11  -2.66  -1.83         -226.156317             -0.6206
iter:  10  19:29:51  -2.62  -1.82         -227.061256             -0.3027
iter:  11  19:30:30  -2.40  -1.80         -226.939711             -0.0823
iter:  12  19:31:10  -2.80  -1.76         -226.839396             -0.0231
iter:  13  19:31:49  -1.90  -1.80         -226.847159             -0.0133
iter:  14  19:32:28  -2.11  -2.09         -226.346225             -0.0081
iter:  15  19:33:08  -2.76  -2.28         -226.313590             -0.0027
iter:  16  19:33:47  -2.24  -2.36         -226.426396             -0.0008
iter:  17  19:34:26  -2.88  -2.53         -226.252491             -0.0006
iter:  18  19:35:06  -3.83  -2.87         -226.240827             -0.0002
iter:  19  19:35:45  -3.59  -2.92         -226.229459             -0.0000
iter:  20  19:36:24  -3.88  -3.27         -226.226953             -0.0000
iter:  21  19:37:04  -4.99  -3.34         -226.226992             -0.0000
iter:  22  19:37:43  -4.82  -3.38         -226.227188             +0.0000
iter:  23  19:38:22  -5.14  -3.50         -226.226667             +0.0000
iter:  24  19:39:02  -5.74  -3.59         -226.226651             +0.0000
iter:  25  19:39:41  -5.13  -3.62         -226.226898             +0.0000
iter:  26  19:40:21  -5.46  -3.82         -226.226666             +0.0000
iter:  27  19:41:00  -6.75  -4.06         -226.226656             +0.0000
iter:  28  19:41:39  -6.03  -4.10         -226.226641             -0.0000
iter:  29  19:42:19  -6.59  -4.25         -226.226628             -0.0000
iter:  30  19:42:58  -7.06  -4.36         -226.226628             +0.0000
iter:  31  19:43:37  -6.87  -4.43         -226.226631             +0.0000
iter:  32  19:44:17  -6.85  -4.55         -226.226628             +0.0000
iter:  33  19:45:07  -7.52  -4.56         -226.226627             +0.0000
iter:  34  19:45:57  -7.84  -4.92    -3.01-226.226627             +0.0000
iter:  35  19:46:47  -8.50  -5.02    -2.93-226.226627             +0.0000
iter:  36  19:47:37  -7.96  -5.09    -2.65-226.226627             +0.0000
iter:  37  19:48:27  -9.01  -5.43    -3.42-226.226627             +0.0000
iter:  38  19:49:17  -8.49  -5.47    -3.06-226.226627             +0.0000
iter:  39  19:50:07  -9.72  -5.84    -3.63-226.226627             +0.0000
iter:  40  19:50:56 -10.08  -5.90    -3.79-226.226627             +0.0000
iter:  41  19:51:46 -10.36  -5.97    -4.17-226.226627             +0.0000
iter:  42  19:52:36  -9.94  -6.03    -3.75-226.226627             +0.0000
iter:  43  19:53:26 -11.04  -6.42    -4.10-226.226627             +0.0000
iter:  44  19:54:16 -11.69  -6.53    -4.69-226.226627             +0.0000
iter:  45  19:55:06 -10.96  -6.58    -4.30-226.226627             +0.0000
iter:  46  19:55:56 -11.79  -6.86    -4.70-226.226627             +0.0000
iter:  47  19:56:46 -12.28  -6.97    -5.02-226.226627             +0.0000
iter:  48  19:57:36 -12.01  -7.02    -4.79-226.226627             +0.0000
iter:  49  19:58:26 -13.24  -7.17    -5.31-226.226627             +0.0000
iter:  50  19:59:16 -12.66  -7.23    -4.87-226.226627             +0.0000
iter:  51  20:00:06 -12.54  -7.37    -5.29-226.226627             +0.0000
iter:  52  20:00:56 -13.55  -7.53    -5.54-226.226627             +0.0000
iter:  53  20:01:46 -13.53  -7.59    -5.39-226.226627             +0.0000
iter:  54  20:02:36 -14.19  -7.70    -6.22-226.226627             +0.0000

Converged after 54 iterations.

Dipole moment: (10.670204, 1.261715, -6.271132) |e|*Ang

Total magnetic moment: (0.000000, 0.000000, 0.000000)
Local magnetic moments:
   0 O  ( 0.000000,  0.000000, -0.000738)
   1 O  ( 0.000000,  0.000000,  0.000393)
   2 O  ( 0.000000,  0.000000,  0.000525)
   3 O  ( 0.000000,  0.000000, -0.000569)
   4 O  ( 0.000000,  0.000000,  0.000508)
   5 O  ( 0.000000,  0.000000, -0.000542)
   6 O  ( 0.000000,  0.000000, -0.000506)
   7 O  ( 0.000000,  0.000000,  0.000946)
   8 O  ( 0.000000,  0.000000,  0.028703)
   9 O  ( 0.000000,  0.000000, -0.028712)
  10 O  ( 0.000000,  0.000000, -0.028483)
  11 O  ( 0.000000,  0.000000,  0.028718)
  12 Mn ( 0.000000,  0.000000,  4.446787)
  13 Mn ( 0.000000,  0.000000, -4.448047)
  14 Mn ( 0.000000,  0.000000, -4.448057)
  15 Mn ( 0.000000,  0.000000,  4.448256)
  16 P  ( 0.000000,  0.000000,  0.001572)
  17 P  ( 0.000000,  0.000000, -0.001235)
  18 P  ( 0.000000,  0.000000, -0.001550)
  19 P  ( 0.000000,  0.000000,  0.001561)
  20 O  ( 0.000000,  0.000000,  0.025357)
  21 O  ( 0.000000,  0.000000, -0.025178)
  22 O  ( 0.000000,  0.000000, -0.025337)
  23 O  ( 0.000000,  0.000000,  0.025305)
  24 Li ( 0.000000,  0.000000,  0.000001)
  25 Li ( 0.000000,  0.000000,  0.000001)
  26 Li ( 0.000000,  0.000000,  0.000017)
  27 Li ( 0.000000,  0.000000,  0.000001)

Energy contributions relative to reference atoms: (reference = -196157.275402)

Kinetic:       +216.845754
Potential:     -194.845288
External:        +0.000000
XC:            -250.269318
Entropy (-ST):   -0.000000
Local:           +2.042226
--------------------------
Free energy:   -226.226627
Extrapolated:  -226.226627

Spin contamination: 9.559428 electrons
Showing only first 2 kpts
                      Up                     Down
 Kpt  Band  Eigenvalues  Occupancy  Eigenvalues  Occupancy
  0    88      5.11458    0.00694      5.10713    0.00694
  0    89      5.14276    0.00694      5.13177    0.00694
  0    90      7.28598    0.00000      7.29282    0.00000
  0    91      7.30366    0.00000      7.31119    0.00000

  1    88      5.14061    0.00694      5.13285    0.00694
  1    89      5.17291    0.00694      5.16203    0.00694
  1    90      7.22833    0.00000      7.23530    0.00000
  1    91      7.24021    0.00000      7.24876    0.00000


Fermi level: 5.50131

Gap: 1.962 eV
Transition (v -> c):
  (s=0, k=49, n=89, [-0.08, -0.42, -0.12]) -> (s=0, k=58, n=90, [-0.08, -0.08, 0.12])
Writing to born-0.01-7y-.gpw (mode='all')

Timing:                              incl.     excl.
-----------------------------------------------------------
Hamiltonian:                         0.458     0.003   0.0% |
 Atomic:                             0.111     0.111   0.0% |
  XC Correction:                     0.000     0.000   0.0% |
 Calculate atomic Hamiltonians:      0.174     0.174   0.0% |
 Communicate:                        0.002     0.002   0.0% |
 Initialize Hamiltonian:             0.000     0.000   0.0% |
 Poisson:                            0.002     0.002   0.0% |
 XC 3D grid:                         0.166     0.166   0.0% |
LCAO initialization:               134.783     0.679   0.0% |
 LCAO eigensolver:                  34.214     0.002   0.0% |
  Calculate projections:             0.057     0.057   0.0% |
  DenseAtomicCorrection:             0.083     0.083   0.0% |
  Distribute overlap matrix:         0.332     0.332   0.0% |
  Orbital Layouts:                   0.363     0.363   0.0% |
  Potential matrix:                 33.287    33.287   0.6% |
  Sum over cells:                    0.090     0.090   0.0% |
 LCAO to grid:                      97.618    97.618   1.6% ||
 Set positions (LCAO WFS):           2.272     0.346   0.0% |
  Basic WFS set positions:           0.001     0.001   0.0% |
  Basis functions set positions:     0.000     0.000   0.0% |
  P tci:                             1.061     1.061   0.0% |
  ST tci:                            0.657     0.657   0.0% |
  mktci:                             0.206     0.206   0.0% |
PWDescriptor:                        0.025     0.025   0.0% |
SCF-cycle:                        2361.720     4.117   0.1% |
 Davidson:                        2017.149   657.282  11.0% |---|
  Apply H:                         141.922   137.224   2.3% ||
   HMM T:                            4.698     4.698   0.1% |
  Subspace diag:                   298.155     0.175   0.0% |
   calc_h_matrix:                  193.261    53.499   0.9% |
    Apply H:                       139.762   135.255   2.3% ||
     HMM T:                          4.507     4.507   0.1% |
   diagonalize:                      6.614     6.614   0.1% |
   rotate_psi:                      98.105    98.105   1.6% ||
  calc. matrices:                  629.901   357.344   6.0% |-|
   Apply H:                        272.557   264.240   4.4% |-|
    HMM T:                           8.317     8.317   0.1% |
  diagonalize:                      90.489    90.489   1.5% ||
  rotate_psi:                      199.401   199.401   3.3% ||
 Density:                           79.848     0.001   0.0% |
  Atomic density matrices:           1.426     1.426   0.0% |
  Mix:                              13.116    13.116   0.2% |
  Multipole moments:                 0.032     0.032   0.0% |
  Pseudo density:                   65.273    65.271   1.1% |
   Symmetrize density:               0.002     0.002   0.0% |
 Forces:                           233.821   233.821   3.9% |-|
 Hamiltonian:                       22.381     0.125   0.0% |
  Atomic:                            2.899     2.898   0.0% |
   XC Correction:                    0.000     0.000   0.0% |
  Calculate atomic Hamiltonians:     9.678     9.678   0.2% |
  Communicate:                       0.100     0.100   0.0% |
  Poisson:                           0.089     0.089   0.0% |
  XC 3D grid:                        9.490     9.490   0.2% |
 Orthonormalize:                     4.404     0.004   0.0% |
  calc_s_matrix:                     0.523     0.523   0.0% |
  inverse-cholesky:                  0.054     0.054   0.0% |
  projections:                       2.893     2.893   0.0% |
  rotate_psi_s:                      0.931     0.931   0.0% |
Set symmetry:                        0.000     0.000   0.0% |
Other:                            3478.442  3478.442  58.2% |----------------------|
-----------------------------------------------------------
Total:                                      5975.428 100.0%

Memory usage: 13.08 GiB
Date: Mon Mar 22 21:00:32 2021
