
  ___ ___ ___ _ _ _  
 |   |   |_  | | | | 
 | | | | | . | | | | 
 |__ |  _|___|_____|  20.10.1b1
 |___|_|             

User:   madkru@g064.nifl.fysik.dtu.dk
Date:   Sun Mar 21 02:59:33 2021
Arch:   x86_64
Pid:    60512
Python: 3.7.4
gpaw:   /home/niflheim/madkru/venv_folder/gpaw/gpaw (d0d1ca1c71)
_gpaw:  /home/niflheim/madkru/venv_folder/gpaw/build/lib.linux-x86_64-sandybridge-3.7/
        _gpaw.cpython-37m-x86_64-linux-gnu.so (4fd39e8b1e)
ase:    /home/niflheim/madkru/venv_folder/ase/ase (version 3.21.0b1-7e6c206a91)
numpy:  /home/niflheim/madkru/venv_folder/lib/python3.7/site-packages/numpy (version 1.19.4)
scipy:  /home/niflheim/madkru/venv_folder/lib/python3.7/site-packages/scipy (version 1.5.4)
libxc:  4.3.4
units:  Angstrom and eV
cores: 32
OMP_NUM_THREADS: 1

Input parameters:
  convergence: {bands: occupied,
                density: 0.0001,
                eigenstates: 4e-08,
                energy: 0.0005,
                forces: 1e-06}
  kpts: [6 6 4]
  mode: {ecut: 600.0,
         gammacentered: False,
         name: pw}
  occupations: {fixmagmom: False,
                name: fermi-dirac,
                width: 0.001}
  symmetry: {point_group: False,
             time_reversal: False}

System changes: positions, numbers, cell, pbc, initial_charges, initial_magmoms 

Initialize ...

O-setup:
  name: Oxygen
  id: 9b9d51c344dea68c822856295a461509
  Z: 8.0
  valence: 6
  core: 2
  charge: 0.0
  file: /home/modules/software/GPAW-setups/0.9.20000/O.LDA.gz
  compensation charges: gauss, rc=0.21, lmax=2
  cutoffs: 1.17(filt), 0.83(core),
  valence states:
                energy  radius
    2s(2.00)   -23.752   0.688
    2p(4.00)    -9.195   0.598
    *s           3.459   0.688
    *p          18.016   0.598
    *d           0.000   0.619

  Using partial waves for O as LCAO basis

Mn-setup:
  name: Manganese
  id: 0d715a8018be061a6e9ea6f2d364ac92
  Z: 25.0
  valence: 15
  core: 10
  charge: 0.0
  file: /home/modules/software/GPAW-setups/0.9.20000/Mn.LDA.gz
  compensation charges: gauss, rc=0.38, lmax=2
  cutoffs: 2.14(filt), 0.86(core),
  valence states:
                energy  radius
    3s(2.00)   -85.387   1.275
    4s(2.00)    -5.282   1.275
    3p(6.00)   -54.493   1.281
    4p(0.00)    -1.471   1.281
    3d(5.00)    -7.009   1.138
    *d          20.203   1.138

  Using partial waves for Mn as LCAO basis

P-setup:
  name: Phosphorus
  id: a5561c299094968922a179ab894d2e2d
  Z: 15.0
  valence: 5
  core: 10
  charge: 0.0
  file: /home/modules/software/GPAW-setups/0.9.20000/P.LDA.gz
  compensation charges: gauss, rc=0.30, lmax=2
  cutoffs: 1.69(filt), 1.81(core),
  valence states:
                energy  radius
    3s(2.00)   -14.015   0.953
    3p(3.00)    -5.596   0.953
    *s          13.197   0.953
    *p          21.615   0.953
    *d           0.000   0.953

  Using partial waves for P as LCAO basis

Li-setup:
  name: Lithium
  id: b73562207f97a71b6967473b66fe8b65
  Z: 3.0
  valence: 1
  core: 2
  charge: 0.0
  file: /home/modules/software/GPAW-setups/0.9.20000/Li.LDA.gz
  compensation charges: gauss, rc=0.33, lmax=2
  cutoffs: 1.91(filt), 2.55(core),
  valence states:
                energy  radius
    2s(1.00)    -2.874   1.058
    2p(0.00)    -1.126   1.058
    *s          24.338   1.058

  Using partial waves for Li as LCAO basis

Reference energy: -196157.275402

Spin-polarized calculation.
Magnetic moment: 0.000000

Convergence criteria:
  Maximum total energy change: 0.0005 eV / electron
  Maximum integral of absolute density change: 0.0001 electrons
  Maximum integral of absolute eigenstate change: 4e-08 eV^2
  Maximum change in atomic force: 1e-06 eV / Ang
  Maximum number of iterations: 333

Symmetries present (total): 1

  ( 1  0  0)
  ( 0  1  0)
  ( 0  0  1)

144 k-points: 6 x 6 x 4 Monkhorst-Pack grid
144 k-points in the irreducible part of the Brillouin zone
       k-points in crystal coordinates                weights
   0:    -0.41666667   -0.41666667   -0.37500000          1/144
   1:    -0.41666667   -0.41666667   -0.12500000          1/144
   2:    -0.41666667   -0.41666667    0.12500000          1/144
   3:    -0.41666667   -0.41666667    0.37500000          1/144
   4:    -0.41666667   -0.25000000   -0.37500000          1/144
   5:    -0.41666667   -0.25000000   -0.12500000          1/144
   6:    -0.41666667   -0.25000000    0.12500000          1/144
   7:    -0.41666667   -0.25000000    0.37500000          1/144
   8:    -0.41666667   -0.08333333   -0.37500000          1/144
   9:    -0.41666667   -0.08333333   -0.12500000          1/144
          ...
 143:     0.41666667    0.41666667    0.37500000          1/144

Wave functions: Plane wave expansion
  Cutoff energy: 600.000 eV
  Number of coefficients (min, max): 10068, 10125
  Pulay-stress correction: 0.000000 eV/Ang^3 (de/decut=0.000000)
  Using FFTW library
  ScaLapack parameters: grid=1x1, blocksize=None
  Wavefunction extrapolation:
    Improved wavefunction reuse through dual PAW basis 

  Fermi-Dirac: width=0.0010 eV

Eigensolver
   Davidson(niter=2, smin=None, normalize=True) 

Densities:
  Coarse grid: 60*35*27 grid
  Fine grid: 120*70*54 grid
  Total Charge: 0.000000 

Density mixing:
  Method: difference
  Backend: pulay
  Linear mixing parameter: 0.05
  Mixing with 5 old densities
  Damping of long wave oscillations: 50 

Hamiltonian:
  XC and Coulomb potentials evaluated on a 120*70*54 grid
  Using the LDA Exchange-Correlation functional
 

Memory estimate:
  Process memory now: 125.85 MiB
  Calculator: 375.55 MiB
    Density: 20.02 MiB
      Arrays: 7.57 MiB
      Localized functions: 9.42 MiB
      Mixer: 3.03 MiB
    Hamiltonian: 5.90 MiB
      Arrays: 5.62 MiB
      XC: 0.00 MiB
      Poisson: 0.00 MiB
      vbar: 0.27 MiB
    Wavefunctions: 349.64 MiB
      Arrays psit_nG: 311.46 MiB
      Eigensolver: 19.99 MiB
      Projections: 5.41 MiB
      Projectors: 9.73 MiB
      PW-descriptor: 3.03 MiB

Total number of cores used: 32
Parallelization over k-points: 16
Domain decomposition: 2 x 1 x 1

Number of atoms: 28
Number of atomic orbitals: 148
Number of bands in calculation: 112
Number of valence electrons: 180
Bands to converge: occupied

... initialized

Initializing position-dependent things.

Density initialized from atomic densities
Creating initial wave functions:
  112 bands from LCAO basis set

     .-------------------------.  
    /|         OP              |  
   / |O            O        O  |  
  /  |       O            O  P |  
 *   |O    Mn      O           |  
 |   |          OLi          O |  
 |   .P-O--------------Mn------.  
 |  /          Li    O  Mn  O /   
 | /Li O           PO        /    
 |/       Mn                /     
 *Li-----------------------*      

Positions:
   0 O     -1.370678   -2.541161   -1.202221    ( 0.0000,  0.0000,  0.0000)
   1 O     -3.121941    2.976855    1.167242    ( 0.0000,  0.0000,  0.0000)
   2 O      2.107533    0.508090    1.540712    ( 0.0000,  0.0000,  0.0000)
   3 O      3.869373   -0.072395   -0.828750    ( 0.0000,  0.0000,  0.0000)
   4 O      2.107821    2.976875    1.540792    ( 0.0000,  0.0000,  0.0000)
   5 O      3.869084   -2.541141   -0.828671    ( 0.0000,  0.0000,  0.0000)
   6 O     -1.360390   -0.072375   -1.202141    ( 0.0000,  0.0000,  0.0000)
   7 O     -3.122230    0.508109    1.167321    ( 0.0000,  0.0000,  0.0000)
   8 O     -4.413461   -1.306992   -0.794251    ( 0.0000,  0.0000,  0.0000)
   9 O     -0.069585    1.742707    1.575662    ( 0.0000,  0.0000,  0.0000)
  10 O      5.160604    1.742707    1.132822    ( 0.0000,  0.0000,  0.0000)
  11 O      0.816728   -1.306992   -1.237091    ( 0.0000,  0.0000,  0.0000)
  12 Mn    -2.570809   -1.307302    0.247161    ( 0.0000,  0.0000,  1.0000)
  13 Mn    -1.912021    1.743016   -2.122906    ( 0.0000,  0.0000, -1.0000)
  14 Mn     3.317952    1.743017    0.091411    ( 0.0000,  0.0000, -1.0000)
  15 Mn     2.659164   -1.307302    2.461478    ( 0.0000,  0.0000,  1.0000)
  16 P     -0.620664   -1.306816   -1.828465    ( 0.0000,  0.0000,  0.0000)
  17 P     -3.862097    1.742530    0.541238    ( 0.0000,  0.0000,  0.0000)
  18 P      1.367807    1.742530    2.167036    ( 0.0000,  0.0000,  0.0000)
  19 P      4.609240   -1.306816   -0.202666    ( 0.0000,  0.0000,  0.0000)
  20 O     -0.646437   -1.306845    1.374751    ( 0.0000,  0.0000,  0.0000)
  21 O     -3.836504    1.742559   -0.995565    ( 0.0000,  0.0000,  0.0000)
  22 O      1.393580    1.742559   -1.036179    ( 0.0000,  0.0000,  0.0000)
  23 O      4.583647   -1.306845    1.334136    ( 0.0000,  0.0000,  0.0000)
  24 Li    -4.856429   -2.832143   -2.200714    ( 0.0000,  0.0000,  0.0000)
  25 Li     0.373571   -2.832143    0.169286    ( 0.0000,  0.0000,  0.0000)
  26 Li    -4.856429    0.217857   -2.200714    ( 0.0000,  0.0000,  0.0000)
  27 Li     0.373571    0.217857    0.169286    ( 0.0000,  0.0000,  0.0000)

Unit cell:
           periodic     x           y           z      points  spacing
  1. axis:    yes   10.460000    0.000000    0.000000    60     0.1743
  2. axis:    yes    0.000000    6.100000    0.000000    35     0.1743
  3. axis:    yes    0.000000    0.000000    4.740000    27     0.1756

  Lengths:  10.460000   6.100000   4.740000
  Angles:   90.000000  90.000000  90.000000

Effective grid spacing dv^(1/3) = 0.1747

                     log10-error:           total        iterations:
           time      wfs    density  force  energy       poisson  magmom
iter:   1  03:02:24                       -231.918805             +0.0000
iter:   2  03:03:04  -0.55  -0.94         -231.715248             +0.0103
iter:   3  03:03:43  -0.72  -0.98         -220.590221             +0.0129
iter:   4  03:04:23  -0.95  -1.20         -218.877570             +0.0208
iter:   5  03:05:02  -1.93  -1.36         -222.400339             +0.0109
iter:   6  03:05:42  -2.01  -1.40         -221.904666             +0.0209
iter:   7  03:06:22  -1.80  -1.55         -224.589276             -0.0074
iter:   8  03:07:01  -2.32  -1.59         -224.596968             -1.3699
iter:   9  03:07:41  -2.62  -1.81         -226.053094             -1.4413
iter:  10  03:08:20  -1.85  -1.82         -226.732802             -0.4550
iter:  11  03:09:00  -1.77  -1.97         -227.562569             -0.1386
iter:  12  03:09:39  -2.80  -1.90         -227.425344             -0.1382
iter:  13  03:10:19  -3.18  -1.93         -227.501955             -0.0410
iter:  14  03:10:58  -3.21  -1.96         -228.070458             +0.0134
iter:  15  03:11:38  -2.52  -1.86         -226.565481             -0.0113
iter:  16  03:12:17  -2.57  -2.01         -225.765695             -0.0028
iter:  17  03:12:57  -3.05  -2.17         -225.943679             -0.0032
iter:  18  03:13:36  -2.65  -2.17         -225.777248             -0.0010
iter:  19  03:14:16  -2.90  -2.35         -225.700345             -0.0014
iter:  20  03:14:55  -3.06  -2.38         -226.265412             +0.0003
iter:  21  03:15:35  -3.19  -2.46         -226.255294             +0.0003
iter:  22  03:16:14  -3.33  -2.61         -226.238714             +0.0001
iter:  23  03:16:54  -3.87  -2.86         -226.236901             +0.0000
iter:  24  03:17:33  -3.76  -3.00         -226.230157             +0.0000
iter:  25  03:18:13  -4.96  -3.25         -226.229407             +0.0000
iter:  26  03:18:52  -4.25  -3.31         -226.228521             -0.0000
iter:  27  03:19:32  -4.55  -3.42         -226.227933             +0.0000
iter:  28  03:20:11  -5.11  -3.49         -226.227580             +0.0000
iter:  29  03:20:51  -5.81  -3.69         -226.227552             +0.0000
iter:  30  03:21:30  -5.44  -3.73         -226.227431             -0.0000
iter:  31  03:22:10  -6.60  -3.82         -226.227417             +0.0000
iter:  32  03:22:49  -5.68  -3.86         -226.227421             +0.0000
iter:  33  03:23:29  -6.23  -4.17         -226.227380             +0.0000
iter:  34  03:24:08  -6.54  -4.33         -226.227382             +0.0000
iter:  35  03:24:58  -7.62  -4.39         -226.227379             +0.0000
iter:  36  03:25:48  -7.57  -4.45    -2.83-226.227379             +0.0000
iter:  37  03:26:39  -8.06  -4.51    -2.87-226.227379             +0.0000
iter:  38  03:27:18  -7.31  -4.55         -226.227377             +0.0000
iter:  39  03:28:08  -8.00  -4.70    -2.18-226.227377             +0.0000
iter:  40  03:28:48  -7.21  -4.76         -226.227377             +0.0000
iter:  41  03:29:38  -8.38  -5.04    -2.70-226.227376             +0.0000
iter:  42  03:30:28  -8.59  -5.10    -3.32-226.227376             -0.0000
iter:  43  03:31:18  -9.02  -5.17    -3.47-226.227376             -0.0000
iter:  44  03:32:08  -8.34  -5.21    -2.81-226.227376             -0.0000
iter:  45  03:32:58  -9.09  -5.46    -3.50-226.227376             -0.0000
iter:  46  03:33:48  -8.90  -5.51    -3.26-226.227376             +0.0000
iter:  47  03:34:38  -9.16  -5.69    -3.52-226.227376             +0.0000
iter:  48  03:35:28 -10.43  -5.89    -4.17-226.227376             +0.0000
iter:  49  03:36:19 -10.16  -5.95    -3.90-226.227376             +0.0000
iter:  50  03:37:09  -9.69  -6.03    -3.83-226.227376             +0.0000
iter:  51  03:37:59 -10.03  -6.15    -3.85-226.227376             +0.0000
iter:  52  03:38:49 -11.19  -6.38    -4.62-226.227376             +0.0000
iter:  53  03:39:39 -11.02  -6.43    -4.53-226.227376             +0.0000
iter:  54  03:40:29 -11.27  -6.51    -4.46-226.227376             +0.0000
iter:  55  03:41:19 -11.64  -6.65    -4.67-226.227376             +0.0000
iter:  56  03:42:09 -11.42  -6.73    -4.53-226.227376             +0.0000
iter:  57  03:42:59 -11.98  -6.99    -4.81-226.227376             +0.0000
iter:  58  03:43:49 -12.65  -7.17    -5.25-226.227376             +0.0000
iter:  59  03:44:39 -13.57  -7.23    -5.84-226.227376             +0.0000
iter:  60  03:45:30 -12.45  -7.27    -5.14-226.227376             +0.0000
iter:  61  03:46:20 -13.34  -7.54    -5.47-226.227376             +0.0000
iter:  62  03:47:10 -14.18  -7.58    -5.67-226.227376             +0.0000
iter:  63  03:48:00 -13.39  -7.72    -5.52-226.227376             +0.0000
iter:  64  03:48:50 -13.31  -7.83    -5.52-226.227376             +0.0000
iter:  65  03:49:40 -14.70  -8.18    -6.19-226.227376             +0.0000

Converged after 65 iterations.

Dipole moment: (10.667719, 1.414106, -6.269320) |e|*Ang

Total magnetic moment: (0.000000, 0.000000, 0.000000)
Local magnetic moments:
   0 O  ( 0.000000,  0.000000, -0.000474)
   1 O  ( 0.000000,  0.000000,  0.000511)
   2 O  ( 0.000000,  0.000000,  0.000558)
   3 O  ( 0.000000,  0.000000, -0.000535)
   4 O  ( 0.000000,  0.000000,  0.000542)
   5 O  ( 0.000000,  0.000000, -0.000514)
   6 O  ( 0.000000,  0.000000, -0.000519)
   7 O  ( 0.000000,  0.000000,  0.000485)
   8 O  ( 0.000000,  0.000000,  0.028693)
   9 O  ( 0.000000,  0.000000, -0.028654)
  10 O  ( 0.000000,  0.000000, -0.028747)
  11 O  ( 0.000000,  0.000000,  0.028583)
  12 Mn ( 0.000000,  0.000000,  4.447576)
  13 Mn ( 0.000000,  0.000000, -4.447497)
  14 Mn ( 0.000000,  0.000000, -4.448154)
  15 Mn ( 0.000000,  0.000000,  4.448220)
  16 P  ( 0.000000,  0.000000,  0.001599)
  17 P  ( 0.000000,  0.000000, -0.001532)
  18 P  ( 0.000000,  0.000000, -0.001570)
  19 P  ( 0.000000,  0.000000,  0.001554)
  20 O  ( 0.000000,  0.000000,  0.025280)
  21 O  ( 0.000000,  0.000000, -0.025342)
  22 O  ( 0.000000,  0.000000, -0.025290)
  23 O  ( 0.000000,  0.000000,  0.025348)
  24 Li ( 0.000000,  0.000000, -0.000000)
  25 Li ( 0.000000,  0.000000,  0.000004)
  26 Li ( 0.000000,  0.000000,  0.000000)
  27 Li ( 0.000000,  0.000000, -0.000003)

Energy contributions relative to reference atoms: (reference = -196157.275402)

Kinetic:       +217.087490
Potential:     -195.036002
External:        +0.000000
XC:            -250.320357
Entropy (-ST):   -0.000000
Local:           +2.041493
--------------------------
Free energy:   -226.227376
Extrapolated:  -226.227376

Spin contamination: 9.559606 electrons
Showing only first 2 kpts
                      Up                     Down
 Kpt  Band  Eigenvalues  Occupancy  Eigenvalues  Occupancy
  0    88      5.10891    0.00694      5.11285    0.00694
  0    89      5.13790    0.00694      5.13821    0.00694
  0    90      7.28972    0.00000      7.28935    0.00000
  0    91      7.31027    0.00000      7.30982    0.00000

  1    88      5.13474    0.00694      5.13873    0.00694
  1    89      5.16836    0.00694      5.16847    0.00694
  1    90      7.23213    0.00000      7.23175    0.00000
  1    91      7.24785    0.00000      7.24942    0.00000


Fermi level: 5.71832

Gap: 1.970 eV
Transition (v -> c):
  (s=1, k=70, n=89, [-0.08, 0.42, 0.12]) -> (s=1, k=62, n=90, [-0.08, 0.08, 0.12])
Writing to born-0.01-0x-.gpw (mode='all')

Timing:                              incl.     excl.
-----------------------------------------------------------
Hamiltonian:                         0.425     0.002   0.0% |
 Atomic:                             0.056     0.056   0.0% |
  XC Correction:                     0.000     0.000   0.0% |
 Calculate atomic Hamiltonians:      0.191     0.191   0.0% |
 Communicate:                        0.004     0.004   0.0% |
 Initialize Hamiltonian:             0.000     0.000   0.0% |
 Poisson:                            0.002     0.002   0.0% |
 XC 3D grid:                         0.170     0.170   0.0% |
LCAO initialization:               125.339     0.677   0.0% |
 LCAO eigensolver:                  33.438     0.003   0.0% |
  Calculate projections:             0.057     0.057   0.0% |
  DenseAtomicCorrection:             0.084     0.084   0.0% |
  Distribute overlap matrix:         0.167     0.167   0.0% |
  Orbital Layouts:                   0.346     0.346   0.0% |
  Potential matrix:                 32.678    32.678   0.5% |
  Sum over cells:                    0.102     0.102   0.0% |
 LCAO to grid:                      88.879    88.879   1.3% ||
 Set positions (LCAO WFS):           2.345     0.360   0.0% |
  Basic WFS set positions:           0.001     0.001   0.0% |
  Basis functions set positions:     0.000     0.000   0.0% |
  P tci:                             1.101     1.101   0.0% |
  ST tci:                            0.673     0.673   0.0% |
  mktci:                             0.210     0.210   0.0% |
PWDescriptor:                        0.026     0.026   0.0% |
SCF-cycle:                        2878.615     5.220   0.1% |
 Davidson:                        2436.447   792.101  11.7% |----|
  Apply H:                         172.193   166.803   2.5% ||
   HMM T:                            5.390     5.390   0.1% |
  Subspace diag:                   361.136     0.214   0.0% |
   calc_h_matrix:                  234.894    64.455   1.0% |
    Apply H:                       170.439   165.239   2.4% ||
     HMM T:                          5.199     5.199   0.1% |
   diagonalize:                      7.739     7.739   0.1% |
   rotate_psi:                     118.289   118.289   1.7% ||
  calc. matrices:                  762.309   430.242   6.4% |--|
   Apply H:                        332.067   322.336   4.8% |-|
    HMM T:                           9.731     9.731   0.1% |
  diagonalize:                     108.862   108.862   1.6% ||
  rotate_psi:                      239.845   239.845   3.5% ||
 Density:                           97.473     0.002   0.0% |
  Atomic density matrices:           1.785     1.785   0.0% |
  Mix:                              15.797    15.797   0.2% |
  Multipole moments:                 0.041     0.041   0.0% |
  Pseudo density:                   79.848    79.846   1.2% |
   Symmetrize density:               0.002     0.002   0.0% |
 Forces:                           308.187   308.187   4.6% |-|
 Hamiltonian:                       26.854     0.157   0.0% |
  Atomic:                            3.599     3.598   0.1% |
   XC Correction:                    0.000     0.000   0.0% |
  Calculate atomic Hamiltonians:    11.570    11.570   0.2% |
  Communicate:                       0.109     0.109   0.0% |
  Poisson:                           0.119     0.119   0.0% |
  XC 3D grid:                       11.300    11.300   0.2% |
 Orthonormalize:                     4.435     0.004   0.0% |
  calc_s_matrix:                     0.525     0.525   0.0% |
  inverse-cholesky:                  0.050     0.050   0.0% |
  projections:                       2.918     2.918   0.0% |
  rotate_psi_s:                      0.938     0.938   0.0% |
Set symmetry:                        0.000     0.000   0.0% |
Other:                            3759.099  3759.099  55.6% |---------------------|
-----------------------------------------------------------
Total:                                      6763.505 100.0%

Memory usage: 11.82 GiB
Date: Sun Mar 21 04:52:17 2021
