
  ___ ___ ___ _ _ _  
 |   |   |_  | | | | 
 | | | | | . | | | | 
 |__ |  _|___|_____|  21.1.1b1
 |___|_|             

User:   madkru@g043.nifl.fysik.dtu.dk
Date:   Wed Mar 31 00:55:48 2021
Arch:   x86_64
Pid:    39387
Python: 3.8.6
gpaw:   /home/niflheim/madkru/venv_madkru/gpaw/gpaw (e6f0d78a31)
_gpaw:  /home/niflheim/madkru/venv_madkru/gpaw/build/lib.linux-x86_64-sandybridge-3.8/
        _gpaw.cpython-38-x86_64-linux-gnu.so (e6f0d78a31)
ase:    /home/niflheim/madkru/venv_madkru/ase/ase (version 3.22.0b1-4d5a73cb29)
numpy:  /home/modules/software/SciPy-bundle/2020.11-foss-2020b/lib/python3.8/site-packages/numpy (version 1.19.4)
scipy:  /home/modules/software/SciPy-bundle/2020.11-foss-2020b/lib/python3.8/site-packages/scipy (version 1.5.4)
libxc:  4.3.4
units:  Angstrom and eV
cores: 64
OpenMP: False
OMP_NUM_THREADS: 1

Input parameters:
  convergence: {bands: occupied,
                density: 0.0001,
                eigenstates: 4e-08,
                energy: 0.0005,
                forces: 1e-06}
  kpts: [6 6 4]
  maxiter: 1000
  mode: {ecut: 600.0,
         gammacentered: False,
         name: pw}
  occupations: {fixmagmom: False,
                name: fermi-dirac,
                width: 0.001}
  symmetry: {point_group: False,
             time_reversal: False}

System changes: positions, numbers, cell, pbc, initial_charges, initial_magmoms 

Initialize ...

O-setup:
  name: Oxygen
  id: 9b9d51c344dea68c822856295a461509
  Z: 8.0
  valence: 6
  core: 2
  charge: 0.0
  file: /home/modules/software/GPAW-setups/0.9.20000/O.LDA.gz
  compensation charges: gauss, rc=0.21, lmax=2
  cutoffs: 1.17(filt), 0.83(core),
  valence states:
                energy  radius
    2s(2.00)   -23.752   0.688
    2p(4.00)    -9.195   0.598
    *s           3.459   0.688
    *p          18.016   0.598
    *d           0.000   0.619

  Using partial waves for O as LCAO basis

Mn-setup:
  name: Manganese
  id: 0d715a8018be061a6e9ea6f2d364ac92
  Z: 25.0
  valence: 15
  core: 10
  charge: 0.0
  file: /home/modules/software/GPAW-setups/0.9.20000/Mn.LDA.gz
  compensation charges: gauss, rc=0.38, lmax=2
  cutoffs: 2.14(filt), 0.86(core),
  valence states:
                energy  radius
    3s(2.00)   -85.387   1.275
    4s(2.00)    -5.282   1.275
    3p(6.00)   -54.493   1.281
    4p(0.00)    -1.471   1.281
    3d(5.00)    -7.009   1.138
    *d          20.203   1.138

  Using partial waves for Mn as LCAO basis

P-setup:
  name: Phosphorus
  id: a5561c299094968922a179ab894d2e2d
  Z: 15.0
  valence: 5
  core: 10
  charge: 0.0
  file: /home/modules/software/GPAW-setups/0.9.20000/P.LDA.gz
  compensation charges: gauss, rc=0.30, lmax=2
  cutoffs: 1.69(filt), 1.81(core),
  valence states:
                energy  radius
    3s(2.00)   -14.015   0.953
    3p(3.00)    -5.596   0.953
    *s          13.197   0.953
    *p          21.615   0.953
    *d           0.000   0.953

  Using partial waves for P as LCAO basis

Li-setup:
  name: Lithium
  id: b73562207f97a71b6967473b66fe8b65
  Z: 3.0
  valence: 1
  core: 2
  charge: 0.0
  file: /home/modules/software/GPAW-setups/0.9.20000/Li.LDA.gz
  compensation charges: gauss, rc=0.33, lmax=2
  cutoffs: 1.91(filt), 2.55(core),
  valence states:
                energy  radius
    2s(1.00)    -2.874   1.058
    2p(0.00)    -1.126   1.058
    *s          24.338   1.058

  Using partial waves for Li as LCAO basis

Reference energy: -196157.275402

Spin-polarized calculation.
Magnetic moment: 0.000000

Convergence criteria:
  Maximum total energy change: 0.0005 eV / electron
  Maximum integral of absolute density change: 0.0001 electrons
  Maximum integral of absolute eigenstate change: 4e-08 eV^2
  Maximum change in atomic force: 1e-06 eV / Ang
  Maximum number of iterations: 1000

Symmetries present (total): 1

  ( 1  0  0)
  ( 0  1  0)
  ( 0  0  1)

144 k-points: 6 x 6 x 4 Monkhorst-Pack grid
144 k-points in the irreducible part of the Brillouin zone
       k-points in crystal coordinates                weights
   0:    -0.41666667   -0.41666667   -0.37500000          1/144
   1:    -0.41666667   -0.41666667   -0.12500000          1/144
   2:    -0.41666667   -0.41666667    0.12500000          1/144
   3:    -0.41666667   -0.41666667    0.37500000          1/144
   4:    -0.41666667   -0.25000000   -0.37500000          1/144
   5:    -0.41666667   -0.25000000   -0.12500000          1/144
   6:    -0.41666667   -0.25000000    0.12500000          1/144
   7:    -0.41666667   -0.25000000    0.37500000          1/144
   8:    -0.41666667   -0.08333333   -0.37500000          1/144
   9:    -0.41666667   -0.08333333   -0.12500000          1/144
          ...
 143:     0.41666667    0.41666667    0.37500000          1/144

Wave functions: Plane wave expansion
  Cutoff energy: 600.000 eV
  Number of coefficients (min, max): 10068, 10125
  Pulay-stress correction: 0.000000 eV/Ang^3 (de/decut=0.000000)
  Using FFTW library
  ScaLapack parameters: grid=1x1, blocksize=None
  Wavefunction extrapolation:
    Improved wavefunction reuse through dual PAW basis 

  Fermi-Dirac: width=0.0010 eV

Eigensolver
   Davidson(niter=2) 

Densities:
  Coarse grid: 60*35*27 grid
  Fine grid: 120*70*54 grid
  Total Charge: 0.000000 

Density mixing:
  Method: difference
  Backend: pulay
  Linear mixing parameter: 0.05
  Mixing with 5 old densities
  Damping of long wave oscillations: 50 

Hamiltonian:
  XC and Coulomb potentials evaluated on a 120*70*54 grid
  Using the LDA Exchange-Correlation functional
 

Memory estimate:
  Process memory now: 13229.51 MiB
  Calculator: 354.82 MiB
    Density: 10.06 MiB
      Arrays: 3.79 MiB
      Localized functions: 4.71 MiB
      Mixer: 1.56 MiB
    Hamiltonian: 2.95 MiB
      Arrays: 2.82 MiB
      XC: 0.00 MiB
      Poisson: 0.00 MiB
      vbar: 0.14 MiB
    Wavefunctions: 341.80 MiB
      Arrays psit_nG: 311.46 MiB
      Eigensolver: 19.99 MiB
      Projections: 2.71 MiB
      Projectors: 4.87 MiB
      PW-descriptor: 2.77 MiB

Total number of cores used: 64
Parallelization over k-points: 16
Domain decomposition: 2 x 2 x 1

Number of atoms: 28
Number of atomic orbitals: 148
Number of bands in calculation: 112
Number of valence electrons: 180
Bands to converge: occupied

... initialized

Initializing position-dependent things.

Density initialized from atomic densities
Creating initial wave functions:
  112 bands from LCAO basis set

     .-------------------------.  
    /|         OP              |  
   / |O            O        O  |  
  /  |       O            O  P |  
 *   |O    Mn      O           |  
 |   |          OLi          O |  
 |   .P-O--------------Mn------.  
 |  /          Li    O  Mn  O /   
 | /Li O           PO        /    
 |/       Mn                /     
 *Li-----------------------*      

Positions:
   0 O     -1.360678   -2.541161   -1.202221    ( 0.0000,  0.0000,  0.0000)
   1 O     -3.121941    2.976855    1.167242    ( 0.0000,  0.0000,  0.0000)
   2 O      2.107533    0.508090    1.540712    ( 0.0000,  0.0000,  0.0000)
   3 O      3.869373   -0.072395   -0.828750    ( 0.0000,  0.0000,  0.0000)
   4 O      2.107821    2.976875    1.540792    ( 0.0000,  0.0000,  0.0000)
   5 O      3.869084   -2.541141   -0.828671    ( 0.0000,  0.0000,  0.0000)
   6 O     -1.360390   -0.072375   -1.202141    ( 0.0000,  0.0000,  0.0000)
   7 O     -3.122230    0.508109    1.167321    ( 0.0000,  0.0000,  0.0000)
   8 O     -4.413461   -1.306992   -0.794251    ( 0.0000,  0.0000,  0.0000)
   9 O     -0.069585    1.742707    1.575662    ( 0.0000,  0.0000,  0.0000)
  10 O      5.160604    1.742707    1.132822    ( 0.0000,  0.0000,  0.0000)
  11 O      0.816728   -1.306992   -1.237091    ( 0.0000,  0.0000,  0.0000)
  12 Mn    -2.570809   -1.307302    0.247161    ( 0.0000,  0.0000,  1.0000)
  13 Mn    -1.912021    1.743016   -2.122906    ( 0.0000,  0.0000, -1.0000)
  14 Mn     3.317952    1.743017    0.091411    ( 0.0000,  0.0000, -1.0000)
  15 Mn     2.669164   -1.307302    2.461478    ( 0.0000,  0.0000,  1.0000)
  16 P     -0.620664   -1.306816   -1.828465    ( 0.0000,  0.0000,  0.0000)
  17 P     -3.862097    1.742530    0.541238    ( 0.0000,  0.0000,  0.0000)
  18 P      1.367807    1.742530    2.167036    ( 0.0000,  0.0000,  0.0000)
  19 P      4.609240   -1.306816   -0.202666    ( 0.0000,  0.0000,  0.0000)
  20 O     -0.646437   -1.306845    1.374751    ( 0.0000,  0.0000,  0.0000)
  21 O     -3.836504    1.742559   -0.995565    ( 0.0000,  0.0000,  0.0000)
  22 O      1.393580    1.742559   -1.036179    ( 0.0000,  0.0000,  0.0000)
  23 O      4.583647   -1.306845    1.334136    ( 0.0000,  0.0000,  0.0000)
  24 Li    -4.856429   -2.832143   -2.200714    ( 0.0000,  0.0000,  0.0000)
  25 Li     0.373571   -2.832143    0.169286    ( 0.0000,  0.0000,  0.0000)
  26 Li    -4.856429    0.217857   -2.200714    ( 0.0000,  0.0000,  0.0000)
  27 Li     0.373571    0.217857    0.169286    ( 0.0000,  0.0000,  0.0000)

Unit cell:
           periodic     x           y           z      points  spacing
  1. axis:    yes   10.460000    0.000000    0.000000    60     0.1743
  2. axis:    yes    0.000000    6.100000    0.000000    35     0.1743
  3. axis:    yes    0.000000    0.000000    4.740000    27     0.1756

  Lengths:  10.460000   6.100000   4.740000
  Angles:   90.000000  90.000000  90.000000

Effective grid spacing dv^(1/3) = 0.1747

                     log10-error:           total        iterations:
           time      wfs    density  force  energy       poisson  magmom
iter:   1  00:57:24                       -231.921361             +0.0000
iter:   2  00:57:45  -0.55  -0.94         -231.718329             +0.0054
iter:   3  00:58:06  -0.72  -0.98         -220.580695             +0.0068
iter:   4  00:58:27  -0.94  -1.20         -218.858591             +0.0024
iter:   5  00:58:49  -1.92  -1.36         -222.379889             +0.0015
iter:   6  00:59:10  -1.98  -1.42         -220.858234             +0.0007
iter:   7  00:59:31  -2.03  -1.64         -224.278186             -0.0195
iter:   8  00:59:53  -2.05  -1.82         -225.741869             -0.3426
iter:   9  01:00:14  -2.62  -1.82         -226.641711             -0.1574
iter:  10  01:00:35  -1.81  -1.83         -226.580723             -0.0073
iter:  11  01:00:56  -2.45  -2.03         -226.514246             -0.0039
iter:  12  01:01:18  -2.63  -2.17         -226.292659             -0.0005
iter:  13  01:01:39  -2.40  -2.39         -226.509001             -0.0007
iter:  14  01:02:00  -2.45  -2.28         -226.261167             -0.0002
iter:  15  01:02:21  -2.66  -2.60         -226.262266             -0.0001
iter:  16  01:02:42  -3.06  -2.66         -226.233663             -0.0001
iter:  17  01:03:04  -3.71  -2.93         -226.243079             -0.0000
iter:  18  01:03:25  -4.48  -3.01         -226.234800             +0.0000
iter:  19  01:03:47  -3.96  -3.09         -226.231014             -0.0000
iter:  20  01:04:08  -4.59  -3.26         -226.228450             +0.0000
iter:  21  01:04:29  -5.02  -3.32         -226.229334             -0.0000
iter:  22  01:04:50  -5.47  -3.57         -226.228598             -0.0000
iter:  23  01:05:11  -4.55  -3.67         -226.227658             -0.0000
iter:  24  01:05:33  -5.67  -3.99         -226.227469             -0.0000
iter:  25  01:05:54  -5.92  -4.10         -226.227590             +0.0000
iter:  26  01:06:15  -7.00  -4.14         -226.227595             +0.0000
iter:  27  01:06:36  -6.52  -4.20         -226.227577             +0.0000
iter:  28  01:06:57  -6.83  -4.49         -226.227575             +0.0000
iter:  29  01:07:19  -7.29  -4.55         -226.227574             +0.0000
iter:  30  01:07:45  -7.79  -4.65         -226.227575             +0.0000
iter:  31  01:08:12  -8.01  -4.84    -3.09-226.227575             -0.0000
iter:  32  01:08:39  -7.41  -4.95    -2.75-226.227573             -0.0000
iter:  33  01:09:06  -8.09  -5.16    -3.23-226.227573             -0.0000
iter:  34  01:09:32  -8.75  -5.38    -3.36-226.227573             +0.0000
iter:  35  01:09:59  -9.30  -5.53    -3.59-226.227573             +0.0000
iter:  36  01:10:26  -9.43  -5.66    -3.57-226.227573             +0.0000
iter:  37  01:10:52  -9.43  -5.81    -3.95-226.227573             +0.0000
iter:  38  01:11:19  -9.95  -5.86    -4.06-226.227573             +0.0000
iter:  39  01:11:46 -10.10  -5.89    -3.99-226.227573             +0.0000
iter:  40  01:12:12 -10.07  -6.23    -4.18-226.227573             -0.0000
iter:  41  01:12:39 -10.65  -6.44    -4.60-226.227573             -0.0000
iter:  42  01:13:06 -11.15  -6.46    -4.51-226.227573             -0.0000
iter:  43  01:13:33 -11.09  -6.56    -4.21-226.227573             -0.0000
iter:  44  01:13:59 -12.15  -6.92    -5.03-226.227573             +0.0000
iter:  45  01:14:26 -11.84  -6.97    -4.95-226.227573             +0.0000
iter:  46  01:14:53 -12.12  -7.06    -4.67-226.227573             -0.0000
iter:  47  01:15:19 -11.79  -7.10    -4.63-226.227573             -0.0000
iter:  48  01:15:46 -12.56  -7.18    -4.94-226.227573             -0.0000
iter:  49  01:16:13 -13.35  -7.63    -5.52-226.227573             -0.0000
iter:  50  01:16:40 -13.50  -7.71    -5.58-226.227573             -0.0000
iter:  51  01:17:06 -14.37  -7.85    -5.75-226.227573             +0.0000
iter:  52  01:17:33 -14.73  -7.91    -5.84-226.227573             -0.0000
iter:  53  01:18:00 -14.88  -7.97    -6.01-226.227573             +0.0000

Converged after 53 iterations.

Dipole moment: (10.679790, 1.411885, -6.271160) |e|*Ang

Total magnetic moment: (0.000000, 0.000000, 0.000000)
Local magnetic moments:
   0 O  ( 0.000000,  0.000000, -0.000541)
   1 O  ( 0.000000,  0.000000,  0.000555)
   2 O  ( 0.000000,  0.000000,  0.000300)
   3 O  ( 0.000000,  0.000000, -0.000193)
   4 O  ( 0.000000,  0.000000,  0.000280)
   5 O  ( 0.000000,  0.000000, -0.000174)
   6 O  ( 0.000000,  0.000000, -0.000561)
   7 O  ( 0.000000,  0.000000,  0.000575)
   8 O  ( 0.000000,  0.000000,  0.028625)
   9 O  ( 0.000000,  0.000000, -0.028723)
  10 O  ( 0.000000,  0.000000, -0.028662)
  11 O  ( 0.000000,  0.000000,  0.028258)
  12 Mn ( 0.000000,  0.000000,  4.448130)
  13 Mn ( 0.000000,  0.000000, -4.448250)
  14 Mn ( 0.000000,  0.000000, -4.447975)
  15 Mn ( 0.000000,  0.000000,  4.448508)
  16 P  ( 0.000000,  0.000000,  0.001434)
  17 P  ( 0.000000,  0.000000, -0.001539)
  18 P  ( 0.000000,  0.000000, -0.001603)
  19 P  ( 0.000000,  0.000000,  0.001713)
  20 O  ( 0.000000,  0.000000,  0.025345)
  21 O  ( 0.000000,  0.000000, -0.025274)
  22 O  ( 0.000000,  0.000000, -0.025371)
  23 O  ( 0.000000,  0.000000,  0.025679)
  24 Li ( 0.000000,  0.000000, -0.000003)
  25 Li ( 0.000000,  0.000000, -0.000010)
  26 Li ( 0.000000,  0.000000, -0.000003)
  27 Li ( 0.000000,  0.000000, -0.000010)

Energy contributions relative to reference atoms: (reference = -196157.275402)

Kinetic:       +217.353274
Potential:     -195.233108
External:        +0.000000
XC:            -250.388930
Entropy (-ST):   -0.000000
Local:           +2.041191
--------------------------
Free energy:   -226.227573
Extrapolated:  -226.227573

Spin contamination: 9.559995 electrons
Showing only first 2 kpts
                      Up                     Down
 Kpt  Band  Eigenvalues  Occupancy  Eigenvalues  Occupancy
  0    88      5.10662    1.00000      5.10886    1.00000
  0    89      5.13351    1.00000      5.13371    1.00000
  0    90      7.28737    0.00000      7.28915    0.00000
  0    91      7.30680    0.00000      7.30740    0.00000

  1    88      5.13303    1.00000      5.13466    1.00000
  1    89      5.16377    1.00000      5.16417    1.00000
  1    90      7.22975    0.00000      7.23259    0.00000
  1    91      7.24427    0.00000      7.24524    0.00000


Fermi level: 6.08558

Gap: 1.972 eV
Transition (v -> c):
  (s=1, k=70, n=89, [-0.08, 0.42, 0.12]) -> (s=0, k=57, n=90, [-0.08, -0.08, -0.12])
Writing to born-0.01-15x+.gpw (mode='all')

Timing:                              incl.     excl.
-----------------------------------------------------------
Hamiltonian:                         0.267     0.002   0.0% |
 Atomic:                             0.083     0.083   0.0% |
  XC Correction:                     0.000     0.000   0.0% |
 Calculate atomic Hamiltonians:      0.090     0.090   0.0% |
 Communicate:                        0.000     0.000   0.0% |
 Initialize Hamiltonian:             0.000     0.000   0.0% |
 Poisson:                            0.001     0.001   0.0% |
 XC 3D grid:                         0.090     0.090   0.0% |
LCAO initialization:                70.821     0.675   0.0% |
 LCAO eigensolver:                  17.977     0.002   0.0% |
  Calculate projections:             0.030     0.030   0.0% |
  DenseAtomicCorrection:             0.043     0.043   0.0% |
  Distribute overlap matrix:         0.010     0.010   0.0% |
  Orbital Layouts:                   0.279     0.279   0.0% |
  Potential matrix:                 17.518    17.518   0.5% |
  Sum over cells:                    0.095     0.095   0.0% |
 LCAO to grid:                      50.891    50.891   1.5% ||
 Set positions (LCAO WFS):           1.278     0.180   0.0% |
  Basic WFS set positions:           0.001     0.001   0.0% |
  Basis functions set positions:     0.000     0.000   0.0% |
  P tci:                             0.516     0.516   0.0% |
  ST tci:                            0.369     0.369   0.0% |
  mktci:                             0.212     0.212   0.0% |
PWDescriptor:                        0.025     0.025   0.0% |
SCF-cycle:                        1259.096     6.037   0.2% |
 Davidson:                        1063.946   340.814   9.9% |---|
  Apply H:                          70.984    68.857   2.0% ||
   HMM T:                            2.127     2.127   0.1% |
  Subspace diag:                   152.786     0.156   0.0% |
   calc_h_matrix:                   97.405    26.649   0.8% |
    Apply H:                        70.756    68.713   2.0% ||
     HMM T:                          2.043     2.043   0.1% |
   diagonalize:                      5.411     5.411   0.2% |
   rotate_psi:                      49.815    49.815   1.4% ||
  calc. matrices:                  317.991   177.846   5.2% |-|
   Apply H:                        140.146   136.040   4.0% |-|
    HMM T:                           4.106     4.106   0.1% |
  diagonalize:                      82.012    82.012   2.4% ||
  rotate_psi:                       99.359    99.359   2.9% ||
 Density:                           42.140     0.001   0.0% |
  Atomic density matrices:           0.695     0.695   0.0% |
  Mix:                               7.194     7.194   0.2% |
  Multipole moments:                 0.019     0.019   0.0% |
  Pseudo density:                   34.232    34.231   1.0% |
   Symmetrize density:               0.001     0.001   0.0% |
 Forces:                           131.725   131.725   3.8% |-|
 Hamiltonian:                       12.936     0.112   0.0% |
  Atomic:                            3.069     3.069   0.1% |
   XC Correction:                    0.000     0.000   0.0% |
  Calculate atomic Hamiltonians:     4.882     4.882   0.1% |
  Communicate:                       0.022     0.022   0.0% |
  Poisson:                           0.047     0.047   0.0% |
  XC 3D grid:                        4.803     4.803   0.1% |
 Orthonormalize:                     2.311     0.003   0.0% |
  calc_s_matrix:                     0.266     0.266   0.0% |
  inverse-cholesky:                  0.041     0.041   0.0% |
  projections:                       1.501     1.501   0.0% |
  rotate_psi_s:                      0.500     0.500   0.0% |
Set symmetry:                        0.000     0.000   0.0% |
Other:                            2110.330  2110.330  61.3% |------------------------|
-----------------------------------------------------------
Total:                                      3440.539 100.0%

Memory usage: 12.96 GiB
Date: Wed Mar 31 01:53:09 2021
