
  ___ ___ ___ _ _ _  
 |   |   |_  | | | | 
 | | | | | . | | | | 
 |__ |  _|___|_____|  21.1.1b1
 |___|_|             

User:   madkru@g043.nifl.fysik.dtu.dk
Date:   Tue Mar 30 04:38:43 2021
Arch:   x86_64
Pid:    39387
Python: 3.8.6
gpaw:   /home/niflheim/madkru/venv_madkru/gpaw/gpaw (e6f0d78a31)
_gpaw:  /home/niflheim/madkru/venv_madkru/gpaw/build/lib.linux-x86_64-sandybridge-3.8/
        _gpaw.cpython-38-x86_64-linux-gnu.so (e6f0d78a31)
ase:    /home/niflheim/madkru/venv_madkru/ase/ase (version 3.22.0b1-4d5a73cb29)
numpy:  /home/modules/software/SciPy-bundle/2020.11-foss-2020b/lib/python3.8/site-packages/numpy (version 1.19.4)
scipy:  /home/modules/software/SciPy-bundle/2020.11-foss-2020b/lib/python3.8/site-packages/scipy (version 1.5.4)
libxc:  4.3.4
units:  Angstrom and eV
cores: 64
OpenMP: False
OMP_NUM_THREADS: 1

Input parameters:
  convergence: {bands: occupied,
                density: 0.0001,
                eigenstates: 4e-08,
                energy: 0.0005,
                forces: 1e-06}
  kpts: [6 6 4]
  maxiter: 1000
  mode: {ecut: 600.0,
         gammacentered: False,
         name: pw}
  occupations: {fixmagmom: False,
                name: fermi-dirac,
                width: 0.001}
  symmetry: {point_group: False,
             time_reversal: False}

System changes: positions, numbers, cell, pbc, initial_charges, initial_magmoms 

Initialize ...

O-setup:
  name: Oxygen
  id: 9b9d51c344dea68c822856295a461509
  Z: 8.0
  valence: 6
  core: 2
  charge: 0.0
  file: /home/modules/software/GPAW-setups/0.9.20000/O.LDA.gz
  compensation charges: gauss, rc=0.21, lmax=2
  cutoffs: 1.17(filt), 0.83(core),
  valence states:
                energy  radius
    2s(2.00)   -23.752   0.688
    2p(4.00)    -9.195   0.598
    *s           3.459   0.688
    *p          18.016   0.598
    *d           0.000   0.619

  Using partial waves for O as LCAO basis

Mn-setup:
  name: Manganese
  id: 0d715a8018be061a6e9ea6f2d364ac92
  Z: 25.0
  valence: 15
  core: 10
  charge: 0.0
  file: /home/modules/software/GPAW-setups/0.9.20000/Mn.LDA.gz
  compensation charges: gauss, rc=0.38, lmax=2
  cutoffs: 2.14(filt), 0.86(core),
  valence states:
                energy  radius
    3s(2.00)   -85.387   1.275
    4s(2.00)    -5.282   1.275
    3p(6.00)   -54.493   1.281
    4p(0.00)    -1.471   1.281
    3d(5.00)    -7.009   1.138
    *d          20.203   1.138

  Using partial waves for Mn as LCAO basis

P-setup:
  name: Phosphorus
  id: a5561c299094968922a179ab894d2e2d
  Z: 15.0
  valence: 5
  core: 10
  charge: 0.0
  file: /home/modules/software/GPAW-setups/0.9.20000/P.LDA.gz
  compensation charges: gauss, rc=0.30, lmax=2
  cutoffs: 1.69(filt), 1.81(core),
  valence states:
                energy  radius
    3s(2.00)   -14.015   0.953
    3p(3.00)    -5.596   0.953
    *s          13.197   0.953
    *p          21.615   0.953
    *d           0.000   0.953

  Using partial waves for P as LCAO basis

Li-setup:
  name: Lithium
  id: b73562207f97a71b6967473b66fe8b65
  Z: 3.0
  valence: 1
  core: 2
  charge: 0.0
  file: /home/modules/software/GPAW-setups/0.9.20000/Li.LDA.gz
  compensation charges: gauss, rc=0.33, lmax=2
  cutoffs: 1.91(filt), 2.55(core),
  valence states:
                energy  radius
    2s(1.00)    -2.874   1.058
    2p(0.00)    -1.126   1.058
    *s          24.338   1.058

  Using partial waves for Li as LCAO basis

Reference energy: -196157.275402

Spin-polarized calculation.
Magnetic moment: 0.000000

Convergence criteria:
  Maximum total energy change: 0.0005 eV / electron
  Maximum integral of absolute density change: 0.0001 electrons
  Maximum integral of absolute eigenstate change: 4e-08 eV^2
  Maximum change in atomic force: 1e-06 eV / Ang
  Maximum number of iterations: 1000

Symmetries present (total): 1

  ( 1  0  0)
  ( 0  1  0)
  ( 0  0  1)

144 k-points: 6 x 6 x 4 Monkhorst-Pack grid
144 k-points in the irreducible part of the Brillouin zone
       k-points in crystal coordinates                weights
   0:    -0.41666667   -0.41666667   -0.37500000          1/144
   1:    -0.41666667   -0.41666667   -0.12500000          1/144
   2:    -0.41666667   -0.41666667    0.12500000          1/144
   3:    -0.41666667   -0.41666667    0.37500000          1/144
   4:    -0.41666667   -0.25000000   -0.37500000          1/144
   5:    -0.41666667   -0.25000000   -0.12500000          1/144
   6:    -0.41666667   -0.25000000    0.12500000          1/144
   7:    -0.41666667   -0.25000000    0.37500000          1/144
   8:    -0.41666667   -0.08333333   -0.37500000          1/144
   9:    -0.41666667   -0.08333333   -0.12500000          1/144
          ...
 143:     0.41666667    0.41666667    0.37500000          1/144

Wave functions: Plane wave expansion
  Cutoff energy: 600.000 eV
  Number of coefficients (min, max): 10068, 10125
  Pulay-stress correction: 0.000000 eV/Ang^3 (de/decut=0.000000)
  Using FFTW library
  ScaLapack parameters: grid=1x1, blocksize=None
  Wavefunction extrapolation:
    Improved wavefunction reuse through dual PAW basis 

  Fermi-Dirac: width=0.0010 eV

Eigensolver
   Davidson(niter=2) 

Densities:
  Coarse grid: 60*35*27 grid
  Fine grid: 120*70*54 grid
  Total Charge: 0.000000 

Density mixing:
  Method: difference
  Backend: pulay
  Linear mixing parameter: 0.05
  Mixing with 5 old densities
  Damping of long wave oscillations: 50 

Hamiltonian:
  XC and Coulomb potentials evaluated on a 120*70*54 grid
  Using the LDA Exchange-Correlation functional
 

Memory estimate:
  Process memory now: 12252.21 MiB
  Calculator: 354.82 MiB
    Density: 10.06 MiB
      Arrays: 3.79 MiB
      Localized functions: 4.71 MiB
      Mixer: 1.56 MiB
    Hamiltonian: 2.95 MiB
      Arrays: 2.82 MiB
      XC: 0.00 MiB
      Poisson: 0.00 MiB
      vbar: 0.14 MiB
    Wavefunctions: 341.80 MiB
      Arrays psit_nG: 311.46 MiB
      Eigensolver: 19.99 MiB
      Projections: 2.71 MiB
      Projectors: 4.87 MiB
      PW-descriptor: 2.77 MiB

Total number of cores used: 64
Parallelization over k-points: 16
Domain decomposition: 2 x 2 x 1

Number of atoms: 28
Number of atomic orbitals: 148
Number of bands in calculation: 112
Number of valence electrons: 180
Bands to converge: occupied

... initialized

Initializing position-dependent things.

Density initialized from atomic densities
Creating initial wave functions:
  112 bands from LCAO basis set

     .-------------------------.  
    /|         OP              |  
   / |O            O        O  |  
  /  |       O            O  P |  
 *   |O    Mn      O           |  
 |   |          OLi          O |  
 |   .P-O--------------Mn------.  
 |  /          Li    O  Mn  O /   
 | /Li O           PO        /    
 |/       Mn                /     
 *Li-----------------------*      

Positions:
   0 O     -1.360678   -2.541161   -1.202221    ( 0.0000,  0.0000,  0.0000)
   1 O     -3.121941    2.976855    1.167242    ( 0.0000,  0.0000,  0.0000)
   2 O      2.107533    0.508090    1.540712    ( 0.0000,  0.0000,  0.0000)
   3 O      3.869373   -0.072395   -0.828750    ( 0.0000,  0.0000,  0.0000)
   4 O      2.107821    2.976875    1.540792    ( 0.0000,  0.0000,  0.0000)
   5 O      3.869084   -2.541141   -0.828671    ( 0.0000,  0.0000,  0.0000)
   6 O     -1.360390   -0.072375   -1.202141    ( 0.0000,  0.0000,  0.0000)
   7 O     -3.122230    0.508109    1.167321    ( 0.0000,  0.0000,  0.0000)
   8 O     -4.413461   -1.306992   -0.794251    ( 0.0000,  0.0000,  0.0000)
   9 O     -0.069585    1.732707    1.575662    ( 0.0000,  0.0000,  0.0000)
  10 O      5.160604    1.742707    1.132822    ( 0.0000,  0.0000,  0.0000)
  11 O      0.816728   -1.306992   -1.237091    ( 0.0000,  0.0000,  0.0000)
  12 Mn    -2.570809   -1.307302    0.247161    ( 0.0000,  0.0000,  1.0000)
  13 Mn    -1.912021    1.743016   -2.122906    ( 0.0000,  0.0000, -1.0000)
  14 Mn     3.317952    1.743017    0.091411    ( 0.0000,  0.0000, -1.0000)
  15 Mn     2.659164   -1.307302    2.461478    ( 0.0000,  0.0000,  1.0000)
  16 P     -0.620664   -1.306816   -1.828465    ( 0.0000,  0.0000,  0.0000)
  17 P     -3.862097    1.742530    0.541238    ( 0.0000,  0.0000,  0.0000)
  18 P      1.367807    1.742530    2.167036    ( 0.0000,  0.0000,  0.0000)
  19 P      4.609240   -1.306816   -0.202666    ( 0.0000,  0.0000,  0.0000)
  20 O     -0.646437   -1.306845    1.374751    ( 0.0000,  0.0000,  0.0000)
  21 O     -3.836504    1.742559   -0.995565    ( 0.0000,  0.0000,  0.0000)
  22 O      1.393580    1.742559   -1.036179    ( 0.0000,  0.0000,  0.0000)
  23 O      4.583647   -1.306845    1.334136    ( 0.0000,  0.0000,  0.0000)
  24 Li    -4.856429   -2.832143   -2.200714    ( 0.0000,  0.0000,  0.0000)
  25 Li     0.373571   -2.832143    0.169286    ( 0.0000,  0.0000,  0.0000)
  26 Li    -4.856429    0.217857   -2.200714    ( 0.0000,  0.0000,  0.0000)
  27 Li     0.373571    0.217857    0.169286    ( 0.0000,  0.0000,  0.0000)

Unit cell:
           periodic     x           y           z      points  spacing
  1. axis:    yes   10.460000    0.000000    0.000000    60     0.1743
  2. axis:    yes    0.000000    6.100000    0.000000    35     0.1743
  3. axis:    yes    0.000000    0.000000    4.740000    27     0.1756

  Lengths:  10.460000   6.100000   4.740000
  Angles:   90.000000  90.000000  90.000000

Effective grid spacing dv^(1/3) = 0.1747

                     log10-error:           total        iterations:
           time      wfs    density  force  energy       poisson  magmom
iter:   1  04:40:17                       -231.920196             +0.0000
iter:   2  04:40:38  -0.55  -0.94         -231.730820             +0.0052
iter:   3  04:40:59  -0.72  -0.98         -220.584667             +0.0065
iter:   4  04:41:20  -0.96  -1.20         -218.866114             +0.0021
iter:   5  04:41:41  -1.94  -1.36         -221.244693             +0.0014
iter:   6  04:42:03  -1.98  -1.50         -219.965123             +0.0007
iter:   7  04:42:24  -2.22  -1.68         -222.861149             +0.1469
iter:   8  04:42:45  -2.74  -1.89         -219.822512             +0.2010
iter:   9  04:43:06  -2.21  -1.94         -224.883105             +0.6781
iter:  10  04:43:27  -2.25  -1.88         -227.174551             +0.0597
iter:  11  04:43:49  -2.93  -1.84         -227.315563             -0.0131
iter:  12  04:44:10  -3.28  -1.80         -227.203349             -0.0039
iter:  13  04:44:31  -1.37  -1.82         -228.412234             -0.0024
iter:  14  04:44:52  -2.78  -1.88         -227.211756             -0.0012
iter:  15  04:45:13  -2.85  -2.07         -226.888164             -0.0003
iter:  16  04:45:34  -2.57  -2.09         -226.567115             +0.0000
iter:  17  04:45:56  -2.10  -2.16         -226.370550             +0.0000
iter:  18  04:46:17  -2.93  -2.35         -226.382472             +0.0000
iter:  19  04:46:38  -2.24  -2.35         -226.269012             +0.0000
iter:  20  04:46:59  -3.54  -2.70         -226.250255             +0.0000
iter:  21  04:47:20  -3.00  -2.74         -226.240748             -0.0000
iter:  22  04:47:41  -3.30  -2.88         -226.238691             +0.0000
iter:  23  04:48:02  -4.67  -3.03         -226.232820             +0.0000
iter:  24  04:48:24  -4.39  -3.10         -226.229040             +0.0000
iter:  25  04:48:45  -4.11  -3.19         -226.231875             +0.0000
iter:  26  04:49:06  -3.91  -3.26         -226.228204             +0.0000
iter:  27  04:49:27  -5.26  -3.45         -226.227982             +0.0000
iter:  28  04:49:48  -5.16  -3.59         -226.228002             +0.0000
iter:  29  04:50:09  -5.58  -3.68         -226.227870             +0.0000
iter:  30  04:50:31  -5.53  -3.77         -226.227900             -0.0000
iter:  31  04:50:52  -5.54  -3.81         -226.227741             +0.0000
iter:  32  04:51:13  -6.25  -4.13         -226.227749             -0.0000
iter:  33  04:51:34  -6.12  -4.18         -226.227710             -0.0000
iter:  34  04:51:55  -6.55  -4.30         -226.227698             -0.0000
iter:  35  04:52:16  -7.25  -4.40         -226.227698             -0.0000
iter:  36  04:52:37  -6.60  -4.46         -226.227703             +0.0000
iter:  37  04:52:59  -6.76  -4.59         -226.227698             -0.0000
iter:  38  04:53:25  -8.34  -4.89         -226.227697             +0.0000
iter:  39  04:53:46  -7.18  -4.93         -226.227696             +0.0000
iter:  40  04:54:13  -7.69  -4.99    -2.69-226.227695             +0.0000
iter:  41  04:54:40  -8.47  -5.17    -3.05-226.227695             +0.0000
iter:  42  04:55:06  -8.73  -5.29    -3.34-226.227695             +0.0000
iter:  43  04:55:33  -9.23  -5.34    -3.46-226.227695             +0.0000
iter:  44  04:55:59  -8.84  -5.45    -3.35-226.227695             -0.0000
iter:  45  04:56:26  -9.33  -5.73    -3.45-226.227695             -0.0000
iter:  46  04:56:53 -10.25  -5.84    -4.46-226.227695             -0.0000
iter:  47  04:57:19  -9.47  -5.88    -3.60-226.227695             -0.0000
iter:  48  04:57:46 -10.29  -6.04    -4.26-226.227695             -0.0000
iter:  49  04:58:13 -10.12  -6.08    -4.00-226.227695             -0.0000
iter:  50  04:58:39 -10.31  -6.26    -4.18-226.227695             -0.0000
iter:  51  04:59:06 -11.01  -6.63    -4.85-226.227695             +0.0000
iter:  52  04:59:33 -11.36  -6.65    -4.55-226.227695             -0.0000
iter:  53  04:59:59 -11.18  -6.77    -4.60-226.227695             -0.0000
iter:  54  05:00:26 -11.42  -6.73    -4.59-226.227695             -0.0000
iter:  55  05:00:53 -11.71  -6.95    -4.99-226.227695             -0.0000
iter:  56  05:01:19 -11.94  -7.03    -4.99-226.227695             +0.0000
iter:  57  05:01:46 -12.30  -7.19    -5.19-226.227695             -0.0000
iter:  58  05:02:13 -13.30  -7.28    -5.44-226.227695             -0.0000
iter:  59  05:02:39 -13.06  -7.33    -5.37-226.227695             -0.0000
iter:  60  05:03:06 -14.20  -7.36    -6.35-226.227695             -0.0000

Converged after 60 iterations.

Dipole moment: (10.671440, 1.417028, -6.269770) |e|*Ang

Total magnetic moment: (0.000000, 0.000000, -0.000000)
Local magnetic moments:
   0 O  ( 0.000000,  0.000000, -0.000547)
   1 O  ( 0.000000,  0.000000,  0.000534)
   2 O  ( 0.000000,  0.000000,  0.000515)
   3 O  ( 0.000000,  0.000000, -0.000553)
   4 O  ( 0.000000,  0.000000,  0.000541)
   5 O  ( 0.000000,  0.000000, -0.000534)
   6 O  ( 0.000000,  0.000000, -0.000509)
   7 O  ( 0.000000,  0.000000,  0.000552)
   8 O  ( 0.000000,  0.000000,  0.028692)
   9 O  ( 0.000000,  0.000000, -0.028702)
  10 O  ( 0.000000,  0.000000, -0.028693)
  11 O  ( 0.000000,  0.000000,  0.028702)
  12 Mn ( 0.000000,  0.000000,  4.448162)
  13 Mn ( 0.000000,  0.000000, -4.448240)
  14 Mn ( 0.000000,  0.000000, -4.448159)
  15 Mn ( 0.000000,  0.000000,  4.448241)
  16 P  ( 0.000000,  0.000000,  0.001558)
  17 P  ( 0.000000,  0.000000, -0.001543)
  18 P  ( 0.000000,  0.000000, -0.001557)
  19 P  ( 0.000000,  0.000000,  0.001543)
  20 O  ( 0.000000,  0.000000,  0.025315)
  21 O  ( 0.000000,  0.000000, -0.025306)
  22 O  ( 0.000000,  0.000000, -0.025314)
  23 O  ( 0.000000,  0.000000,  0.025306)
  24 Li ( 0.000000,  0.000000, -0.000000)
  25 Li ( 0.000000,  0.000000,  0.000015)
  26 Li ( 0.000000,  0.000000,  0.000000)
  27 Li ( 0.000000,  0.000000, -0.000015)

Energy contributions relative to reference atoms: (reference = -196157.275402)

Kinetic:       +217.350200
Potential:     -195.235597
External:        +0.000000
XC:            -250.383493
Entropy (-ST):   -0.000000
Local:           +2.041195
--------------------------
Free energy:   -226.227695
Extrapolated:  -226.227695

Spin contamination: 9.560410 electrons
Showing only first 2 kpts
                      Up                     Down
 Kpt  Band  Eigenvalues  Occupancy  Eigenvalues  Occupancy
  0    88      5.10991    1.00000      5.11010    1.00000
  0    89      5.13435    1.00000      5.13421    1.00000
  0    90      7.28864    0.00000      7.28865    0.00000
  0    91      7.30636    0.00000      7.30638    0.00000

  1    88      5.13561    1.00000      5.13559    1.00000
  1    89      5.16482    1.00000      5.16490    1.00000
  1    90      7.23142    0.00000      7.23145    0.00000
  1    91      7.24367    0.00000      7.24367    0.00000


Fermi level: 5.83631

Gap: 1.972 eV
Transition (v -> c):
  (s=1, k=50, n=89, [-0.08, -0.42, 0.12]) -> (s=0, k=85, n=90, [0.08, 0.08, -0.12])
Writing to born-0.01-9y-.gpw (mode='all')

Timing:                              incl.     excl.
-----------------------------------------------------------
Hamiltonian:                         0.274     0.003   0.0% |
 Atomic:                             0.091     0.091   0.0% |
  XC Correction:                     0.000     0.000   0.0% |
 Calculate atomic Hamiltonians:      0.088     0.088   0.0% |
 Communicate:                        0.000     0.000   0.0% |
 Initialize Hamiltonian:             0.000     0.000   0.0% |
 Poisson:                            0.001     0.001   0.0% |
 XC 3D grid:                         0.091     0.091   0.0% |
LCAO initialization:                70.011     0.673   0.0% |
 LCAO eigensolver:                  17.994     0.002   0.0% |
  Calculate projections:             0.029     0.029   0.0% |
  DenseAtomicCorrection:             0.043     0.043   0.0% |
  Distribute overlap matrix:         0.006     0.006   0.0% |
  Orbital Layouts:                   0.280     0.280   0.0% |
  Potential matrix:                 17.547    17.547   0.5% |
  Sum over cells:                    0.087     0.087   0.0% |
 LCAO to grid:                      50.072    50.072   1.3% ||
 Set positions (LCAO WFS):           1.273     0.179   0.0% |
  Basic WFS set positions:           0.001     0.001   0.0% |
  Basis functions set positions:     0.000     0.000   0.0% |
  P tci:                             0.513     0.513   0.0% |
  ST tci:                            0.367     0.367   0.0% |
  mktci:                             0.212     0.212   0.0% |
PWDescriptor:                        0.024     0.024   0.0% |
SCF-cycle:                        1391.721     3.956   0.1% |
 Davidson:                        1202.544   386.093  10.3% |---|
  Apply H:                          79.815    77.451   2.1% ||
   HMM T:                            2.364     2.364   0.1% |
  Subspace diag:                   172.136     0.174   0.0% |
   calc_h_matrix:                  109.439    30.152   0.8% |
    Apply H:                        79.287    76.904   2.1% ||
     HMM T:                          2.383     2.383   0.1% |
   diagonalize:                      6.104     6.104   0.2% |
   rotate_psi:                      56.419    56.419   1.5% ||
  calc. matrices:                  359.242   201.234   5.4% |-|
   Apply H:                        158.008   153.360   4.1% |-|
    HMM T:                           4.648     4.648   0.1% |
  diagonalize:                      92.871    92.871   2.5% ||
  rotate_psi:                      112.388   112.388   3.0% ||
 Density:                           47.370     0.001   0.0% |
  Atomic density matrices:           0.788     0.788   0.0% |
  Mix:                               8.128     8.128   0.2% |
  Multipole moments:                 0.021     0.021   0.0% |
  Pseudo density:                   38.432    38.430   1.0% |
   Symmetrize density:               0.002     0.002   0.0% |
 Forces:                           120.872   120.872   3.2% ||
 Hamiltonian:                       14.698     0.126   0.0% |
  Atomic:                            3.470     3.469   0.1% |
   XC Correction:                    0.000     0.000   0.0% |
  Calculate atomic Hamiltonians:     5.561     5.561   0.1% |
  Communicate:                       0.021     0.021   0.0% |
  Poisson:                           0.053     0.053   0.0% |
  XC 3D grid:                        5.468     5.468   0.1% |
 Orthonormalize:                     2.281     0.003   0.0% |
  calc_s_matrix:                     0.265     0.265   0.0% |
  inverse-cholesky:                  0.039     0.039   0.0% |
  projections:                       1.490     1.490   0.0% |
  rotate_psi_s:                      0.484     0.484   0.0% |
Set symmetry:                        0.000     0.000   0.0% |
Other:                            2281.402  2281.402  60.9% |-----------------------|
-----------------------------------------------------------
Total:                                      3743.433 100.0%

Memory usage: 12.00 GiB
Date: Tue Mar 30 05:41:06 2021
