
  ___ ___ ___ _ _ _  
 |   |   |_  | | | | 
 | | | | | . | | | | 
 |__ |  _|___|_____|  20.10.1b1
 |___|_|             

User:   madkru@g064.nifl.fysik.dtu.dk
Date:   Sun Mar 21 09:32:54 2021
Arch:   x86_64
Pid:    60512
Python: 3.7.4
gpaw:   /home/niflheim/madkru/venv_folder/gpaw/gpaw (d0d1ca1c71)
_gpaw:  /home/niflheim/madkru/venv_folder/gpaw/build/lib.linux-x86_64-sandybridge-3.7/
        _gpaw.cpython-37m-x86_64-linux-gnu.so (4fd39e8b1e)
ase:    /home/niflheim/madkru/venv_folder/ase/ase (version 3.21.0b1-7e6c206a91)
numpy:  /home/niflheim/madkru/venv_folder/lib/python3.7/site-packages/numpy (version 1.19.4)
scipy:  /home/niflheim/madkru/venv_folder/lib/python3.7/site-packages/scipy (version 1.5.4)
libxc:  4.3.4
units:  Angstrom and eV
cores: 32
OMP_NUM_THREADS: 1

Input parameters:
  convergence: {bands: occupied,
                density: 0.0001,
                eigenstates: 4e-08,
                energy: 0.0005,
                forces: 1e-06}
  kpts: [6 6 4]
  mode: {ecut: 600.0,
         gammacentered: False,
         name: pw}
  occupations: {fixmagmom: False,
                name: fermi-dirac,
                width: 0.001}
  symmetry: {point_group: False,
             time_reversal: False}

System changes: positions, numbers, cell, pbc, initial_charges, initial_magmoms 

Initialize ...

O-setup:
  name: Oxygen
  id: 9b9d51c344dea68c822856295a461509
  Z: 8.0
  valence: 6
  core: 2
  charge: 0.0
  file: /home/modules/software/GPAW-setups/0.9.20000/O.LDA.gz
  compensation charges: gauss, rc=0.21, lmax=2
  cutoffs: 1.17(filt), 0.83(core),
  valence states:
                energy  radius
    2s(2.00)   -23.752   0.688
    2p(4.00)    -9.195   0.598
    *s           3.459   0.688
    *p          18.016   0.598
    *d           0.000   0.619

  Using partial waves for O as LCAO basis

Mn-setup:
  name: Manganese
  id: 0d715a8018be061a6e9ea6f2d364ac92
  Z: 25.0
  valence: 15
  core: 10
  charge: 0.0
  file: /home/modules/software/GPAW-setups/0.9.20000/Mn.LDA.gz
  compensation charges: gauss, rc=0.38, lmax=2
  cutoffs: 2.14(filt), 0.86(core),
  valence states:
                energy  radius
    3s(2.00)   -85.387   1.275
    4s(2.00)    -5.282   1.275
    3p(6.00)   -54.493   1.281
    4p(0.00)    -1.471   1.281
    3d(5.00)    -7.009   1.138
    *d          20.203   1.138

  Using partial waves for Mn as LCAO basis

P-setup:
  name: Phosphorus
  id: a5561c299094968922a179ab894d2e2d
  Z: 15.0
  valence: 5
  core: 10
  charge: 0.0
  file: /home/modules/software/GPAW-setups/0.9.20000/P.LDA.gz
  compensation charges: gauss, rc=0.30, lmax=2
  cutoffs: 1.69(filt), 1.81(core),
  valence states:
                energy  radius
    3s(2.00)   -14.015   0.953
    3p(3.00)    -5.596   0.953
    *s          13.197   0.953
    *p          21.615   0.953
    *d           0.000   0.953

  Using partial waves for P as LCAO basis

Li-setup:
  name: Lithium
  id: b73562207f97a71b6967473b66fe8b65
  Z: 3.0
  valence: 1
  core: 2
  charge: 0.0
  file: /home/modules/software/GPAW-setups/0.9.20000/Li.LDA.gz
  compensation charges: gauss, rc=0.33, lmax=2
  cutoffs: 1.91(filt), 2.55(core),
  valence states:
                energy  radius
    2s(1.00)    -2.874   1.058
    2p(0.00)    -1.126   1.058
    *s          24.338   1.058

  Using partial waves for Li as LCAO basis

Reference energy: -196157.275402

Spin-polarized calculation.
Magnetic moment: 0.000000

Convergence criteria:
  Maximum total energy change: 0.0005 eV / electron
  Maximum integral of absolute density change: 0.0001 electrons
  Maximum integral of absolute eigenstate change: 4e-08 eV^2
  Maximum change in atomic force: 1e-06 eV / Ang
  Maximum number of iterations: 333

Symmetries present (total): 1

  ( 1  0  0)
  ( 0  1  0)
  ( 0  0  1)

144 k-points: 6 x 6 x 4 Monkhorst-Pack grid
144 k-points in the irreducible part of the Brillouin zone
       k-points in crystal coordinates                weights
   0:    -0.41666667   -0.41666667   -0.37500000          1/144
   1:    -0.41666667   -0.41666667   -0.12500000          1/144
   2:    -0.41666667   -0.41666667    0.12500000          1/144
   3:    -0.41666667   -0.41666667    0.37500000          1/144
   4:    -0.41666667   -0.25000000   -0.37500000          1/144
   5:    -0.41666667   -0.25000000   -0.12500000          1/144
   6:    -0.41666667   -0.25000000    0.12500000          1/144
   7:    -0.41666667   -0.25000000    0.37500000          1/144
   8:    -0.41666667   -0.08333333   -0.37500000          1/144
   9:    -0.41666667   -0.08333333   -0.12500000          1/144
          ...
 143:     0.41666667    0.41666667    0.37500000          1/144

Wave functions: Plane wave expansion
  Cutoff energy: 600.000 eV
  Number of coefficients (min, max): 10068, 10125
  Pulay-stress correction: 0.000000 eV/Ang^3 (de/decut=0.000000)
  Using FFTW library
  ScaLapack parameters: grid=1x1, blocksize=None
  Wavefunction extrapolation:
    Improved wavefunction reuse through dual PAW basis 

  Fermi-Dirac: width=0.0010 eV

Eigensolver
   Davidson(niter=2, smin=None, normalize=True) 

Densities:
  Coarse grid: 60*35*27 grid
  Fine grid: 120*70*54 grid
  Total Charge: 0.000000 

Density mixing:
  Method: difference
  Backend: pulay
  Linear mixing parameter: 0.05
  Mixing with 5 old densities
  Damping of long wave oscillations: 50 

Hamiltonian:
  XC and Coulomb potentials evaluated on a 120*70*54 grid
  Using the LDA Exchange-Correlation functional
 

Memory estimate:
  Process memory now: 12325.34 MiB
  Calculator: 375.55 MiB
    Density: 20.02 MiB
      Arrays: 7.57 MiB
      Localized functions: 9.42 MiB
      Mixer: 3.03 MiB
    Hamiltonian: 5.90 MiB
      Arrays: 5.62 MiB
      XC: 0.00 MiB
      Poisson: 0.00 MiB
      vbar: 0.27 MiB
    Wavefunctions: 349.64 MiB
      Arrays psit_nG: 311.46 MiB
      Eigensolver: 19.99 MiB
      Projections: 5.41 MiB
      Projectors: 9.73 MiB
      PW-descriptor: 3.03 MiB

Total number of cores used: 32
Parallelization over k-points: 16
Domain decomposition: 2 x 1 x 1

Number of atoms: 28
Number of atomic orbitals: 148
Number of bands in calculation: 112
Number of valence electrons: 180
Bands to converge: occupied

... initialized

Initializing position-dependent things.

Density initialized from atomic densities
Creating initial wave functions:
  112 bands from LCAO basis set

     .-------------------------.  
    /|         OP              |  
   / |O            O        O  |  
  /  |       O            O  P |  
 *   |O    Mn      O           |  
 |   |          OLi          O |  
 |   .P-O--------------Mn------.  
 |  /          Li    O  Mn  O /   
 | /Li O           PO        /    
 |/       Mn                /     
 *Li-----------------------*      

Positions:
   0 O     -1.360678   -2.541161   -1.202221    ( 0.0000,  0.0000,  0.0000)
   1 O     -3.111941    2.976855    1.167242    ( 0.0000,  0.0000,  0.0000)
   2 O      2.107533    0.508090    1.540712    ( 0.0000,  0.0000,  0.0000)
   3 O      3.869373   -0.072395   -0.828750    ( 0.0000,  0.0000,  0.0000)
   4 O      2.107821    2.976875    1.540792    ( 0.0000,  0.0000,  0.0000)
   5 O      3.869084   -2.541141   -0.828671    ( 0.0000,  0.0000,  0.0000)
   6 O     -1.360390   -0.072375   -1.202141    ( 0.0000,  0.0000,  0.0000)
   7 O     -3.122230    0.508109    1.167321    ( 0.0000,  0.0000,  0.0000)
   8 O     -4.413461   -1.306992   -0.794251    ( 0.0000,  0.0000,  0.0000)
   9 O     -0.069585    1.742707    1.575662    ( 0.0000,  0.0000,  0.0000)
  10 O      5.160604    1.742707    1.132822    ( 0.0000,  0.0000,  0.0000)
  11 O      0.816728   -1.306992   -1.237091    ( 0.0000,  0.0000,  0.0000)
  12 Mn    -2.570809   -1.307302    0.247161    ( 0.0000,  0.0000,  1.0000)
  13 Mn    -1.912021    1.743016   -2.122906    ( 0.0000,  0.0000, -1.0000)
  14 Mn     3.317952    1.743017    0.091411    ( 0.0000,  0.0000, -1.0000)
  15 Mn     2.659164   -1.307302    2.461478    ( 0.0000,  0.0000,  1.0000)
  16 P     -0.620664   -1.306816   -1.828465    ( 0.0000,  0.0000,  0.0000)
  17 P     -3.862097    1.742530    0.541238    ( 0.0000,  0.0000,  0.0000)
  18 P      1.367807    1.742530    2.167036    ( 0.0000,  0.0000,  0.0000)
  19 P      4.609240   -1.306816   -0.202666    ( 0.0000,  0.0000,  0.0000)
  20 O     -0.646437   -1.306845    1.374751    ( 0.0000,  0.0000,  0.0000)
  21 O     -3.836504    1.742559   -0.995565    ( 0.0000,  0.0000,  0.0000)
  22 O      1.393580    1.742559   -1.036179    ( 0.0000,  0.0000,  0.0000)
  23 O      4.583647   -1.306845    1.334136    ( 0.0000,  0.0000,  0.0000)
  24 Li    -4.856429   -2.832143   -2.200714    ( 0.0000,  0.0000,  0.0000)
  25 Li     0.373571   -2.832143    0.169286    ( 0.0000,  0.0000,  0.0000)
  26 Li    -4.856429    0.217857   -2.200714    ( 0.0000,  0.0000,  0.0000)
  27 Li     0.373571    0.217857    0.169286    ( 0.0000,  0.0000,  0.0000)

Unit cell:
           periodic     x           y           z      points  spacing
  1. axis:    yes   10.460000    0.000000    0.000000    60     0.1743
  2. axis:    yes    0.000000    6.100000    0.000000    35     0.1743
  3. axis:    yes    0.000000    0.000000    4.740000    27     0.1756

  Lengths:  10.460000   6.100000   4.740000
  Angles:   90.000000  90.000000  90.000000

Effective grid spacing dv^(1/3) = 0.1747

                     log10-error:           total        iterations:
           time      wfs    density  force  energy       poisson  magmom
iter:   1  09:35:51                       -231.918858             +0.0000
iter:   2  09:36:30  -0.55  -0.94         -231.715211             -0.0001
iter:   3  09:37:09  -0.72  -0.98         -220.584875             -0.0001
iter:   4  09:37:49  -0.96  -1.20         -218.864947             -0.0000
iter:   5  09:38:28  -1.93  -1.36         -221.090190             -0.0000
iter:   6  09:39:08  -1.94  -1.51         -219.726401             +0.1178
iter:   7  09:39:47  -2.24  -1.67         -221.481748             -0.0326
iter:   8  09:40:26  -2.76  -1.92         -219.359669             -0.0489
iter:   9  09:41:06  -2.46  -1.98         -221.591886             -0.0185
iter:  10  09:41:45  -2.34  -1.99         -224.005920             -0.0667
iter:  11  09:42:24  -2.89  -1.90         -225.237205             -0.0343
iter:  12  09:43:04  -2.38  -1.86         -227.153486             +0.0009
iter:  13  09:43:43  -2.32  -1.87         -226.979460             +0.0022
iter:  14  09:44:22  -2.92  -1.93         -226.838275             +0.0007
iter:  15  09:45:02  -1.87  -1.96         -226.583470             +0.0002
iter:  16  09:45:41  -2.97  -2.21         -226.478817             +0.0002
iter:  17  09:46:20  -2.23  -2.27         -226.443175             +0.0001
iter:  18  09:46:59  -3.21  -2.40         -226.354542             +0.0000
iter:  19  09:47:39  -3.38  -2.55         -226.290385             +0.0000
iter:  20  09:48:18  -2.98  -2.59         -226.247282             +0.0000
iter:  21  09:48:57  -3.44  -2.80         -226.241591             +0.0000
iter:  22  09:49:37  -3.78  -2.85         -226.229369             +0.0000
iter:  23  09:50:16  -4.04  -3.03         -226.228833             +0.0000
iter:  24  09:50:55  -4.46  -3.18         -226.228293             +0.0000
iter:  25  09:51:35  -4.61  -3.52         -226.227498             +0.0000
iter:  26  09:52:14  -5.89  -3.71         -226.227485             +0.0000
iter:  27  09:52:53  -5.42  -3.75         -226.227496             -0.0000
iter:  28  09:53:32  -5.78  -3.89         -226.227451             +0.0000
iter:  29  09:54:12  -5.49  -4.04         -226.227411             +0.0000
iter:  30  09:54:51  -6.28  -4.13         -226.227417             +0.0000
iter:  31  09:55:30  -6.69  -4.28         -226.227381             +0.0000
iter:  32  09:56:10  -6.59  -4.39         -226.227376             +0.0000
iter:  33  09:56:49  -7.02  -4.56         -226.227367             -0.0000
iter:  34  09:57:28  -7.40  -4.64         -226.227366             +0.0000
iter:  35  09:58:08  -6.84  -4.67         -226.227368             -0.0000
iter:  36  09:58:57  -7.59  -4.76         -226.227366             +0.0000
iter:  37  09:59:47  -8.38  -4.91    -3.41-226.227365             +0.0000
iter:  38  10:00:37  -7.76  -4.94    -2.57-226.227365             +0.0000
iter:  39  10:01:27  -8.14  -5.16    -2.99-226.227365             +0.0000
iter:  40  10:02:17  -8.42  -5.43    -3.18-226.227365             +0.0000
iter:  41  10:03:07  -9.16  -5.47    -3.43-226.227365             +0.0000
iter:  42  10:03:57  -8.89  -5.54    -3.03-226.227365             +0.0000
iter:  43  10:04:47  -9.86  -5.86    -3.87-226.227365             -0.0000
iter:  44  10:05:37  -9.09  -5.90    -3.37-226.227365             -0.0000
iter:  45  10:06:27  -9.57  -6.03    -3.39-226.227365             -0.0000
iter:  46  10:07:16 -10.73  -6.20    -4.11-226.227365             -0.0000
iter:  47  10:08:06 -10.55  -6.28    -4.12-226.227365             -0.0000
iter:  48  10:08:56 -10.75  -6.36    -4.15-226.227365             -0.0000
iter:  49  10:09:46 -11.40  -6.45    -4.41-226.227365             -0.0000
iter:  50  10:10:36 -11.50  -6.54    -4.77-226.227365             -0.0000
iter:  51  10:11:26 -11.00  -6.59    -4.31-226.227365             -0.0000
iter:  52  10:12:16 -11.76  -6.92    -4.75-226.227365             -0.0000
iter:  53  10:13:05 -12.66  -6.97    -5.47-226.227365             -0.0000
iter:  54  10:13:55 -12.55  -7.03    -4.79-226.227365             -0.0000
iter:  55  10:14:45 -12.21  -7.12    -4.81-226.227365             -0.0000
iter:  56  10:15:35 -12.71  -7.24    -5.15-226.227365             -0.0000
iter:  57  10:16:25 -12.46  -7.39    -5.22-226.227365             -0.0000
iter:  58  10:17:15 -13.39  -7.47    -5.23-226.227365             -0.0000
iter:  59  10:18:04 -13.04  -7.58    -5.27-226.227365             -0.0000
iter:  60  10:18:54 -13.70  -7.72    -5.88-226.227365             -0.0000
iter:  61  10:19:44 -13.40  -7.78    -5.33-226.227365             -0.0000
iter:  62  10:20:34 -13.51  -7.98    -5.47-226.227365             -0.0000
iter:  63  10:21:24 -14.30  -8.26    -6.32-226.227365             -0.0000

Converged after 63 iterations.

Dipole moment: (10.666724, 1.409903, -6.270926) |e|*Ang

Total magnetic moment: (0.000000, 0.000000, -0.000000)
Local magnetic moments:
   0 O  ( 0.000000,  0.000000, -0.000496)
   1 O  ( 0.000000,  0.000000,  0.000489)
   2 O  ( 0.000000,  0.000000,  0.000519)
   3 O  ( 0.000000,  0.000000, -0.000574)
   4 O  ( 0.000000,  0.000000,  0.000498)
   5 O  ( 0.000000,  0.000000, -0.000558)
   6 O  ( 0.000000,  0.000000, -0.000470)
   7 O  ( 0.000000,  0.000000,  0.000534)
   8 O  ( 0.000000,  0.000000,  0.028646)
   9 O  ( 0.000000,  0.000000, -0.028702)
  10 O  ( 0.000000,  0.000000, -0.028575)
  11 O  ( 0.000000,  0.000000,  0.028756)
  12 Mn ( 0.000000,  0.000000,  4.447418)
  13 Mn ( 0.000000,  0.000000, -4.447655)
  14 Mn ( 0.000000,  0.000000, -4.448139)
  15 Mn ( 0.000000,  0.000000,  4.448235)
  16 P  ( 0.000000,  0.000000,  0.001546)
  17 P  ( 0.000000,  0.000000, -0.001584)
  18 P  ( 0.000000,  0.000000, -0.001568)
  19 P  ( 0.000000,  0.000000,  0.001555)
  20 O  ( 0.000000,  0.000000,  0.025350)
  21 O  ( 0.000000,  0.000000, -0.025271)
  22 O  ( 0.000000,  0.000000, -0.025357)
  23 O  ( 0.000000,  0.000000,  0.025281)
  24 Li ( 0.000000,  0.000000, -0.000004)
  25 Li ( 0.000000,  0.000000,  0.000000)
  26 Li ( 0.000000,  0.000000,  0.000003)
  27 Li ( 0.000000,  0.000000, -0.000000)

Energy contributions relative to reference atoms: (reference = -196157.275402)

Kinetic:       +217.087309
Potential:     -195.036024
External:        +0.000000
XC:            -250.320297
Entropy (-ST):   -0.000000
Local:           +2.041648
--------------------------
Free energy:   -226.227365
Extrapolated:  -226.227365

Spin contamination: 9.559612 electrons
Showing only first 2 kpts
                      Up                     Down
 Kpt  Band  Eigenvalues  Occupancy  Eigenvalues  Occupancy
  0    88      5.11209    0.00694      5.10974    0.00694
  0    89      5.13891    0.00694      5.13698    0.00694
  0    90      7.28783    0.00000      7.29061    0.00000
  0    91      7.31160    0.00000      7.30914    0.00000

  1    88      5.13790    0.00694      5.13598    0.00694
  1    89      5.16923    0.00694      5.16699    0.00694
  1    90      7.23011    0.00000      7.23317    0.00000
  1    91      7.25114    0.00000      7.24670    0.00000


Fermi level: 6.34313

Gap: 1.970 eV
Transition (v -> c):
  (s=0, k=74, n=89, [0.08, -0.42, 0.12]) -> (s=0, k=61, n=90, [-0.08, 0.08, -0.12])
Writing to born-0.01-1x+.gpw (mode='all')

Timing:                              incl.     excl.
-----------------------------------------------------------
Hamiltonian:                         0.414     0.003   0.0% |
 Atomic:                             0.054     0.054   0.0% |
  XC Correction:                     0.000     0.000   0.0% |
 Calculate atomic Hamiltonians:      0.188     0.188   0.0% |
 Communicate:                        0.002     0.002   0.0% |
 Initialize Hamiltonian:             0.000     0.000   0.0% |
 Poisson:                            0.002     0.002   0.0% |
 XC 3D grid:                         0.165     0.165   0.0% |
LCAO initialization:               127.404     0.680   0.0% |
 LCAO eigensolver:                  33.852     0.002   0.0% |
  Calculate projections:             0.057     0.057   0.0% |
  DenseAtomicCorrection:             0.083     0.083   0.0% |
  Distribute overlap matrix:         0.228     0.228   0.0% |
  Orbital Layouts:                   0.365     0.365   0.0% |
  Potential matrix:                 33.029    33.029   0.5% |
  Sum over cells:                    0.088     0.088   0.0% |
 LCAO to grid:                      90.584    90.584   1.4% ||
 Set positions (LCAO WFS):           2.289     0.346   0.0% |
  Basic WFS set positions:           0.001     0.001   0.0% |
  Basis functions set positions:     0.000     0.000   0.0% |
  P tci:                             1.053     1.053   0.0% |
  ST tci:                            0.656     0.656   0.0% |
  mktci:                             0.233     0.233   0.0% |
PWDescriptor:                        0.025     0.025   0.0% |
SCF-cycle:                        2779.805     8.244   0.1% |
 Davidson:                        2349.597   766.760  12.1% |----|
  Apply H:                         164.039   158.688   2.5% ||
   HMM T:                            5.351     5.351   0.1% |
  Subspace diag:                   346.979     0.195   0.0% |
   calc_h_matrix:                  224.639    62.279   1.0% |
    Apply H:                       162.361   157.197   2.5% ||
     HMM T:                          5.164     5.164   0.1% |
   diagonalize:                      7.678     7.678   0.1% |
   rotate_psi:                     114.466   114.466   1.8% ||
  calc. matrices:                  734.073   416.240   6.6% |--|
   Apply H:                        317.834   308.309   4.9% |-|
    HMM T:                           9.525     9.525   0.2% |
  diagonalize:                     104.992   104.992   1.7% ||
  rotate_psi:                      232.754   232.754   3.7% ||
 Density:                           93.628     0.002   0.0% |
  Atomic density matrices:           1.665     1.665   0.0% |
  Mix:                              15.327    15.327   0.2% |
  Multipole moments:                 0.037     0.037   0.0% |
  Pseudo density:                   76.597    76.595   1.2% |
   Symmetrize density:               0.002     0.002   0.0% |
 Forces:                           297.776   297.776   4.7% |-|
 Hamiltonian:                       26.145     0.160   0.0% |
  Atomic:                            3.415     3.415   0.1% |
   XC Correction:                    0.000     0.000   0.0% |
  Calculate atomic Hamiltonians:    11.303    11.303   0.2% |
  Communicate:                       0.109     0.109   0.0% |
  Poisson:                           0.111     0.111   0.0% |
  XC 3D grid:                       11.046    11.046   0.2% |
 Orthonormalize:                     4.415     0.003   0.0% |
  calc_s_matrix:                     0.524     0.524   0.0% |
  inverse-cholesky:                  0.054     0.054   0.0% |
  projections:                       2.898     2.898   0.0% |
  rotate_psi_s:                      0.935     0.935   0.0% |
Set symmetry:                        0.000     0.000   0.0% |
Other:                            3420.315  3420.315  54.1% |---------------------|
-----------------------------------------------------------
Total:                                      6327.964 100.0%

Memory usage: 12.12 GiB
Date: Sun Mar 21 11:18:22 2021
