
  ___ ___ ___ _ _ _  
 |   |   |_  | | | | 
 | | | | | . | | | | 
 |__ |  _|___|_____|  21.1.1b1
 |___|_|             

User:   madkru@i009.nifl.fysik.dtu.dk
Date:   Fri Apr  2 02:56:40 2021
Arch:   x86_64
Pid:    31381
Python: 3.8.6
gpaw:   /home/niflheim/madkru/venv_madkru/gpaw/gpaw (e6f0d78a31)
_gpaw:  /home/niflheim/madkru/venv_madkru/gpaw/build/lib.linux-x86_64-ivybridge-3.8/
        _gpaw.cpython-38-x86_64-linux-gnu.so (e6f0d78a31)
ase:    /home/niflheim/madkru/venv_madkru/ase/ase (version 3.22.0b1-4d5a73cb29)
numpy:  /home/modules/software/SciPy-bundle/2020.11-foss-2020b/lib/python3.8/site-packages/numpy (version 1.19.4)
scipy:  /home/modules/software/SciPy-bundle/2020.11-foss-2020b/lib/python3.8/site-packages/scipy (version 1.5.4)
libxc:  4.3.4
units:  Angstrom and eV
cores: 64
OpenMP: False
OMP_NUM_THREADS: 1

Input parameters:
  convergence: {bands: occupied,
                density: 0.0001,
                eigenstates: 4e-08,
                energy: 0.0005,
                forces: 1e-06}
  kpts: [6 6 4]
  maxiter: 1000
  mode: {ecut: 600.0,
         gammacentered: False,
         name: pw}
  occupations: {fixmagmom: False,
                name: fermi-dirac,
                width: 0.001}
  symmetry: {point_group: False,
             time_reversal: False}

System changes: positions, numbers, cell, pbc, initial_charges, initial_magmoms 

Initialize ...

O-setup:
  name: Oxygen
  id: 9b9d51c344dea68c822856295a461509
  Z: 8.0
  valence: 6
  core: 2
  charge: 0.0
  file: /home/modules/software/GPAW-setups/0.9.20000/O.LDA.gz
  compensation charges: gauss, rc=0.21, lmax=2
  cutoffs: 1.17(filt), 0.83(core),
  valence states:
                energy  radius
    2s(2.00)   -23.752   0.688
    2p(4.00)    -9.195   0.598
    *s           3.459   0.688
    *p          18.016   0.598
    *d           0.000   0.619

  Using partial waves for O as LCAO basis

Mn-setup:
  name: Manganese
  id: 0d715a8018be061a6e9ea6f2d364ac92
  Z: 25.0
  valence: 15
  core: 10
  charge: 0.0
  file: /home/modules/software/GPAW-setups/0.9.20000/Mn.LDA.gz
  compensation charges: gauss, rc=0.38, lmax=2
  cutoffs: 2.14(filt), 0.86(core),
  valence states:
                energy  radius
    3s(2.00)   -85.387   1.275
    4s(2.00)    -5.282   1.275
    3p(6.00)   -54.493   1.281
    4p(0.00)    -1.471   1.281
    3d(5.00)    -7.009   1.138
    *d          20.203   1.138

  Using partial waves for Mn as LCAO basis

P-setup:
  name: Phosphorus
  id: a5561c299094968922a179ab894d2e2d
  Z: 15.0
  valence: 5
  core: 10
  charge: 0.0
  file: /home/modules/software/GPAW-setups/0.9.20000/P.LDA.gz
  compensation charges: gauss, rc=0.30, lmax=2
  cutoffs: 1.69(filt), 1.81(core),
  valence states:
                energy  radius
    3s(2.00)   -14.015   0.953
    3p(3.00)    -5.596   0.953
    *s          13.197   0.953
    *p          21.615   0.953
    *d           0.000   0.953

  Using partial waves for P as LCAO basis

Li-setup:
  name: Lithium
  id: b73562207f97a71b6967473b66fe8b65
  Z: 3.0
  valence: 1
  core: 2
  charge: 0.0
  file: /home/modules/software/GPAW-setups/0.9.20000/Li.LDA.gz
  compensation charges: gauss, rc=0.33, lmax=2
  cutoffs: 1.91(filt), 2.55(core),
  valence states:
                energy  radius
    2s(1.00)    -2.874   1.058
    2p(0.00)    -1.126   1.058
    *s          24.338   1.058

  Using partial waves for Li as LCAO basis

Reference energy: -196157.275402

Spin-polarized calculation.
Magnetic moment: 0.000000

Convergence criteria:
  Maximum total energy change: 0.0005 eV / electron
  Maximum integral of absolute density change: 0.0001 electrons
  Maximum integral of absolute eigenstate change: 4e-08 eV^2
  Maximum change in atomic force: 1e-06 eV / Ang
  Maximum number of iterations: 1000

Symmetries present (total): 1

  ( 1  0  0)
  ( 0  1  0)
  ( 0  0  1)

144 k-points: 6 x 6 x 4 Monkhorst-Pack grid
144 k-points in the irreducible part of the Brillouin zone
       k-points in crystal coordinates                weights
   0:    -0.41666667   -0.41666667   -0.37500000          1/144
   1:    -0.41666667   -0.41666667   -0.12500000          1/144
   2:    -0.41666667   -0.41666667    0.12500000          1/144
   3:    -0.41666667   -0.41666667    0.37500000          1/144
   4:    -0.41666667   -0.25000000   -0.37500000          1/144
   5:    -0.41666667   -0.25000000   -0.12500000          1/144
   6:    -0.41666667   -0.25000000    0.12500000          1/144
   7:    -0.41666667   -0.25000000    0.37500000          1/144
   8:    -0.41666667   -0.08333333   -0.37500000          1/144
   9:    -0.41666667   -0.08333333   -0.12500000          1/144
          ...
 143:     0.41666667    0.41666667    0.37500000          1/144

Wave functions: Plane wave expansion
  Cutoff energy: 600.000 eV
  Number of coefficients (min, max): 10068, 10125
  Pulay-stress correction: 0.000000 eV/Ang^3 (de/decut=0.000000)
  Using FFTW library
  ScaLapack parameters: grid=1x1, blocksize=None
  Wavefunction extrapolation:
    Improved wavefunction reuse through dual PAW basis 

  Fermi-Dirac: width=0.0010 eV

Eigensolver
   Davidson(niter=2) 

Densities:
  Coarse grid: 60*35*27 grid
  Fine grid: 120*70*54 grid
  Total Charge: 0.000000 

Density mixing:
  Method: difference
  Backend: pulay
  Linear mixing parameter: 0.05
  Mixing with 5 old densities
  Damping of long wave oscillations: 50 

Hamiltonian:
  XC and Coulomb potentials evaluated on a 120*70*54 grid
  Using the LDA Exchange-Correlation functional
 

Memory estimate:
  Process memory now: 12457.07 MiB
  Calculator: 354.82 MiB
    Density: 10.06 MiB
      Arrays: 3.79 MiB
      Localized functions: 4.71 MiB
      Mixer: 1.56 MiB
    Hamiltonian: 2.95 MiB
      Arrays: 2.82 MiB
      XC: 0.00 MiB
      Poisson: 0.00 MiB
      vbar: 0.14 MiB
    Wavefunctions: 341.80 MiB
      Arrays psit_nG: 311.46 MiB
      Eigensolver: 19.99 MiB
      Projections: 2.71 MiB
      Projectors: 4.87 MiB
      PW-descriptor: 2.77 MiB

Total number of cores used: 64
Parallelization over k-points: 16
Domain decomposition: 2 x 2 x 1

Number of atoms: 28
Number of atomic orbitals: 148
Number of bands in calculation: 112
Number of valence electrons: 180
Bands to converge: occupied

... initialized

Initializing position-dependent things.

Density initialized from atomic densities
Creating initial wave functions:
  112 bands from LCAO basis set

     .-------------------------.  
    /|         OP              |  
   / |O            O        O  |  
  /  |       O            O  P |  
 *   |O    Mn      O           |  
 |   |          OLi          O |  
 |   .P-O--------------Mn------.  
 |  /          Li    O  Mn  O /   
 | /Li O           PO        /    
 |/       Mn                /     
 *Li-----------------------*      

Positions:
   0 O     -1.360678   -2.541161   -1.202221    ( 0.0000,  0.0000,  0.0000)
   1 O     -3.121941    2.976855    1.167242    ( 0.0000,  0.0000,  0.0000)
   2 O      2.107533    0.508090    1.540712    ( 0.0000,  0.0000,  0.0000)
   3 O      3.869373   -0.072395   -0.828750    ( 0.0000,  0.0000,  0.0000)
   4 O      2.107821    2.976875    1.540792    ( 0.0000,  0.0000,  0.0000)
   5 O      3.869084   -2.541141   -0.828671    ( 0.0000,  0.0000,  0.0000)
   6 O     -1.360390   -0.072375   -1.202141    ( 0.0000,  0.0000,  0.0000)
   7 O     -3.122230    0.508109    1.167321    ( 0.0000,  0.0000,  0.0000)
   8 O     -4.413461   -1.306992   -0.794251    ( 0.0000,  0.0000,  0.0000)
   9 O     -0.069585    1.742707    1.575662    ( 0.0000,  0.0000,  0.0000)
  10 O      5.160604    1.742707    1.132822    ( 0.0000,  0.0000,  0.0000)
  11 O      0.816728   -1.306992   -1.237091    ( 0.0000,  0.0000,  0.0000)
  12 Mn    -2.570809   -1.307302    0.247161    ( 0.0000,  0.0000,  1.0000)
  13 Mn    -1.912021    1.743016   -2.122906    ( 0.0000,  0.0000, -1.0000)
  14 Mn     3.317952    1.743017    0.091411    ( 0.0000,  0.0000, -1.0000)
  15 Mn     2.659164   -1.307302    2.461478    ( 0.0000,  0.0000,  1.0000)
  16 P     -0.620664   -1.306816   -1.828465    ( 0.0000,  0.0000,  0.0000)
  17 P     -3.862097    1.742530    0.541238    ( 0.0000,  0.0000,  0.0000)
  18 P      1.367807    1.742530    2.167036    ( 0.0000,  0.0000,  0.0000)
  19 P      4.609240   -1.306816   -0.202666    ( 0.0000,  0.0000,  0.0000)
  20 O     -0.646437   -1.306845    1.374751    ( 0.0000,  0.0000,  0.0000)
  21 O     -3.836504    1.742559   -0.995565    ( 0.0000,  0.0000,  0.0000)
  22 O      1.393580    1.742559   -1.036179    ( 0.0000,  0.0000,  0.0000)
  23 O      4.583647   -1.306845    1.334136    ( 0.0000,  0.0000,  0.0000)
  24 Li    -4.856429   -2.842143   -2.200714    ( 0.0000,  0.0000,  0.0000)
  25 Li     0.373571   -2.832143    0.169286    ( 0.0000,  0.0000,  0.0000)
  26 Li    -4.856429    0.217857   -2.200714    ( 0.0000,  0.0000,  0.0000)
  27 Li     0.373571    0.217857    0.169286    ( 0.0000,  0.0000,  0.0000)

Unit cell:
           periodic     x           y           z      points  spacing
  1. axis:    yes   10.460000    0.000000    0.000000    60     0.1743
  2. axis:    yes    0.000000    6.100000    0.000000    35     0.1743
  3. axis:    yes    0.000000    0.000000    4.740000    27     0.1756

  Lengths:  10.460000   6.100000   4.740000
  Angles:   90.000000  90.000000  90.000000

Effective grid spacing dv^(1/3) = 0.1747

                     log10-error:           total        iterations:
           time      wfs    density  force  energy       poisson  magmom
iter:   1  02:58:09                       -231.920386             +0.0000
iter:   2  02:58:30  -0.55  -0.94         -231.731180             +0.0256
iter:   3  02:58:51  -0.73  -0.98         -220.597848             +0.0320
iter:   4  02:59:11  -0.92  -1.20         -218.922723             +0.2984
iter:   5  02:59:32  -1.96  -1.36         -221.905437             +0.1431
iter:   6  02:59:53  -2.13  -1.37         -220.454926             +0.0858
iter:   7  03:00:13  -2.00  -1.57         -223.955728             +0.0460
iter:   8  03:00:34  -2.21  -1.76         -225.912658             -1.3097
iter:   9  03:00:55  -2.22  -1.82         -226.669404             -0.4225
iter:  10  03:01:15  -2.13  -1.91         -226.700672             +0.0053
iter:  11  03:01:36  -2.50  -1.99         -226.363349             -0.0102
iter:  12  03:01:56  -2.38  -2.15         -226.295117             -0.0020
iter:  13  03:02:17  -3.18  -2.44         -226.250778             -0.0050
iter:  14  03:02:38  -3.36  -2.55         -226.233624             +0.0001
iter:  15  03:02:58  -3.62  -2.75         -226.231144             -0.0003
iter:  16  03:03:19  -4.51  -3.13         -226.231241             -0.0001
iter:  17  03:03:40  -5.08  -3.19         -226.229612             -0.0000
iter:  18  03:04:01  -4.50  -3.26         -226.228268             -0.0000
iter:  19  03:04:21  -5.09  -3.44         -226.228179             -0.0000
iter:  20  03:04:42  -4.85  -3.49         -226.228234             -0.0000
iter:  21  03:05:03  -5.29  -3.60         -226.227920             -0.0000
iter:  22  03:05:23  -6.28  -4.16         -226.227929             -0.0000
iter:  23  03:05:44  -6.61  -4.22         -226.227934             +0.0000
iter:  24  03:06:04  -6.57  -4.21         -226.227912             -0.0000
iter:  25  03:06:25  -7.01  -4.30         -226.227910             +0.0000
iter:  26  03:06:51  -7.59  -4.32         -226.227908             -0.0000
iter:  27  03:07:12  -7.31  -4.35         -226.227905             -0.0000
iter:  28  03:07:32  -6.87  -4.43         -226.227901             -0.0000
iter:  29  03:07:53  -7.33  -4.56         -226.227899             -0.0000
iter:  30  03:08:19  -7.74  -4.79    -2.01-226.227899             -0.0000
iter:  31  03:08:45  -8.35  -4.86    -2.98-226.227899             +0.0000
iter:  32  03:09:05  -7.37  -4.98         -226.227898             +0.0000
iter:  33  03:09:31  -8.36  -5.26    -2.55-226.227897             +0.0000
iter:  34  03:09:57  -9.23  -5.44    -3.56-226.227897             -0.0000
iter:  35  03:10:23  -9.65  -5.50    -3.33-226.227897             -0.0000
iter:  36  03:10:49  -9.72  -5.63    -3.60-226.227897             +0.0000
iter:  37  03:11:14 -10.02  -5.75    -3.68-226.227897             -0.0000
iter:  38  03:11:40  -9.78  -5.90    -3.77-226.227897             -0.0000
iter:  39  03:12:06 -10.37  -5.93    -4.16-226.227897             -0.0000
iter:  40  03:12:32 -10.06  -5.96    -3.67-226.227897             +0.0000
iter:  41  03:12:58 -10.35  -6.25    -4.07-226.227897             +0.0000
iter:  42  03:13:23 -10.73  -6.29    -4.31-226.227897             -0.0000
iter:  43  03:13:49 -10.57  -6.36    -4.16-226.227897             -0.0000
iter:  44  03:14:15 -11.25  -6.63    -4.53-226.227897             +0.0000
iter:  45  03:14:41 -12.13  -6.73    -5.31-226.227897             +0.0000
iter:  46  03:15:07 -11.39  -6.77    -4.42-226.227897             +0.0000
iter:  47  03:15:32 -11.75  -6.94    -4.72-226.227897             +0.0000
iter:  48  03:15:58 -12.81  -7.05    -5.53-226.227897             +0.0000
iter:  49  03:16:24 -12.19  -7.07    -4.66-226.227897             +0.0000
iter:  50  03:16:50 -12.13  -7.22    -4.98-226.227897             +0.0000
iter:  51  03:17:16 -13.24  -7.34    -5.69-226.227897             +0.0000
iter:  52  03:17:42 -13.02  -7.39    -5.58-226.227897             +0.0000
iter:  53  03:18:07 -13.28  -7.45    -5.49-226.227897             +0.0000
iter:  54  03:18:33 -13.10  -7.49    -5.39-226.227897             +0.0000
iter:  55  03:18:59 -13.24  -7.59    -5.49-226.227897             +0.0000
iter:  56  03:19:25 -13.26  -7.79    -5.53-226.227897             +0.0000
iter:  57  03:19:51 -14.38  -8.17    -6.22-226.227897             +0.0000

Converged after 57 iterations.

Dipole moment: (10.672083, 1.407308, -6.269478) |e|*Ang

Total magnetic moment: (0.000000, 0.000000, 0.000000)
Local magnetic moments:
   0 O  ( 0.000000,  0.000000, -0.000538)
   1 O  ( 0.000000,  0.000000,  0.000482)
   2 O  ( 0.000000,  0.000000,  0.000520)
   3 O  ( 0.000000,  0.000000, -0.000581)
   4 O  ( 0.000000,  0.000000,  0.000498)
   5 O  ( 0.000000,  0.000000, -0.000585)
   6 O  ( 0.000000,  0.000000, -0.000556)
   7 O  ( 0.000000,  0.000000,  0.000526)
   8 O  ( 0.000000,  0.000000,  0.028748)
   9 O  ( 0.000000,  0.000000, -0.028724)
  10 O  ( 0.000000,  0.000000, -0.028637)
  11 O  ( 0.000000,  0.000000,  0.028679)
  12 Mn ( 0.000000,  0.000000,  4.448235)
  13 Mn ( 0.000000,  0.000000, -4.448227)
  14 Mn ( 0.000000,  0.000000, -4.448087)
  15 Mn ( 0.000000,  0.000000,  4.448255)
  16 P  ( 0.000000,  0.000000,  0.001561)
  17 P  ( 0.000000,  0.000000, -0.001543)
  18 P  ( 0.000000,  0.000000, -0.001554)
  19 P  ( 0.000000,  0.000000,  0.001544)
  20 O  ( 0.000000,  0.000000,  0.025303)
  21 O  ( 0.000000,  0.000000, -0.025282)
  22 O  ( 0.000000,  0.000000, -0.025327)
  23 O  ( 0.000000,  0.000000,  0.025329)
  24 Li ( 0.000000,  0.000000, -0.000008)
  25 Li ( 0.000000,  0.000000,  0.000000)
  26 Li ( 0.000000,  0.000000,  0.000001)
  27 Li ( 0.000000,  0.000000,  0.000000)

Energy contributions relative to reference atoms: (reference = -196157.275402)

Kinetic:       +217.352477
Potential:     -195.237389
External:        +0.000000
XC:            -250.384134
Entropy (-ST):   -0.000000
Local:           +2.041149
--------------------------
Free energy:   -226.227897
Extrapolated:  -226.227897

Spin contamination: 9.560410 electrons
Showing only first 2 kpts
                      Up                     Down
 Kpt  Band  Eigenvalues  Occupancy  Eigenvalues  Occupancy
  0    88      5.11141    1.00000      5.10834    1.00000
  0    89      5.13590    1.00000      5.13287    1.00000
  0    90      7.28718    0.00000      7.29007    0.00000
  0    91      7.30485    0.00000      7.30789    0.00000

  1    88      5.13716    1.00000      5.13405    1.00000
  1    89      5.16642    1.00000      5.16325    1.00000
  1    90      7.23001    0.00000      7.23283    0.00000
  1    91      7.24218    0.00000      7.24518    0.00000


Fermi level: 6.58084

Gap: 1.969 eV
Transition (v -> c):
  (s=0, k=69, n=89, [-0.08, 0.42, -0.12]) -> (s=0, k=58, n=90, [-0.08, -0.08, 0.12])
Writing to born-0.01-24y-.gpw (mode='all')

Timing:                              incl.     excl.
-----------------------------------------------------------
Hamiltonian:                         0.235     0.002   0.0% |
 Atomic:                             0.071     0.071   0.0% |
  XC Correction:                     0.000     0.000   0.0% |
 Calculate atomic Hamiltonians:      0.078     0.078   0.0% |
 Communicate:                        0.000     0.000   0.0% |
 Initialize Hamiltonian:             0.000     0.000   0.0% |
 Poisson:                            0.001     0.001   0.0% |
 XC 3D grid:                         0.083     0.083   0.0% |
LCAO initialization:                66.473     0.650   0.0% |
 LCAO eigensolver:                  16.719     0.003   0.0% |
  Calculate projections:             0.029     0.029   0.0% |
  DenseAtomicCorrection:             0.046     0.046   0.0% |
  Distribute overlap matrix:         0.023     0.023   0.0% |
  Orbital Layouts:                   0.262     0.262   0.0% |
  Potential matrix:                 16.269    16.269   0.5% |
  Sum over cells:                    0.087     0.087   0.0% |
 LCAO to grid:                      47.842    47.842   1.4% ||
 Set positions (LCAO WFS):           1.262     0.178   0.0% |
  Basic WFS set positions:           0.001     0.001   0.0% |
  Basis functions set positions:     0.000     0.000   0.0% |
  P tci:                             0.508     0.508   0.0% |
  ST tci:                            0.362     0.362   0.0% |
  mktci:                             0.213     0.213   0.0% |
PWDescriptor:                        0.023     0.023   0.0% |
SCF-cycle:                        1323.555     1.568   0.0% |
 Davidson:                        1119.222   358.520  10.5% |---|
  Apply H:                          73.663    71.531   2.1% ||
   HMM T:                            2.131     2.131   0.1% |
  Subspace diag:                   160.046     0.163   0.0% |
   calc_h_matrix:                  101.266    28.343   0.8% |
    Apply H:                        72.923    70.904   2.1% ||
     HMM T:                          2.019     2.019   0.1% |
   diagonalize:                      5.751     5.751   0.2% |
   rotate_psi:                      52.866    52.866   1.5% ||
  calc. matrices:                  335.715   190.400   5.6% |-|
   Apply H:                        145.315   141.229   4.1% |-|
    HMM T:                           4.086     4.086   0.1% |
  diagonalize:                      85.160    85.160   2.5% ||
  rotate_psi:                      106.119   106.119   3.1% ||
 Density:                           42.892     0.001   0.0% |
  Atomic density matrices:           0.744     0.744   0.0% |
  Mix:                               6.983     6.983   0.2% |
  Multipole moments:                 0.020     0.020   0.0% |
  Pseudo density:                   35.144    35.142   1.0% |
   Symmetrize density:               0.002     0.002   0.0% |
 Forces:                           145.030   145.030   4.2% |-|
 Hamiltonian:                       12.566     0.116   0.0% |
  Atomic:                            3.013     3.012   0.1% |
   XC Correction:                    0.000     0.000   0.0% |
  Calculate atomic Hamiltonians:     4.661     4.661   0.1% |
  Communicate:                       0.013     0.013   0.0% |
  Poisson:                           0.042     0.042   0.0% |
  XC 3D grid:                        4.720     4.720   0.1% |
 Orthonormalize:                     2.276     0.003   0.0% |
  calc_s_matrix:                     0.267     0.267   0.0% |
  inverse-cholesky:                  0.041     0.041   0.0% |
  projections:                       1.482     1.482   0.0% |
  rotate_psi_s:                      0.482     0.482   0.0% |
Set symmetry:                        0.000     0.000   0.0% |
Other:                            2023.911  2023.911  59.3% |-----------------------|
-----------------------------------------------------------
Total:                                      3414.197 100.0%

Memory usage: 12.21 GiB
Date: Fri Apr  2 03:53:34 2021
