
  ___ ___ ___ _ _ _  
 |   |   |_  | | | | 
 | | | | | . | | | | 
 |__ |  _|___|_____|  21.1.1b1
 |___|_|             

User:   madkru@g043.nifl.fysik.dtu.dk
Date:   Tue Mar 30 12:47:50 2021
Arch:   x86_64
Pid:    39387
Python: 3.8.6
gpaw:   /home/niflheim/madkru/venv_madkru/gpaw/gpaw (e6f0d78a31)
_gpaw:  /home/niflheim/madkru/venv_madkru/gpaw/build/lib.linux-x86_64-sandybridge-3.8/
        _gpaw.cpython-38-x86_64-linux-gnu.so (e6f0d78a31)
ase:    /home/niflheim/madkru/venv_madkru/ase/ase (version 3.22.0b1-4d5a73cb29)
numpy:  /home/modules/software/SciPy-bundle/2020.11-foss-2020b/lib/python3.8/site-packages/numpy (version 1.19.4)
scipy:  /home/modules/software/SciPy-bundle/2020.11-foss-2020b/lib/python3.8/site-packages/scipy (version 1.5.4)
libxc:  4.3.4
units:  Angstrom and eV
cores: 64
OpenMP: False
OMP_NUM_THREADS: 1

Input parameters:
  convergence: {bands: occupied,
                density: 0.0001,
                eigenstates: 4e-08,
                energy: 0.0005,
                forces: 1e-06}
  kpts: [6 6 4]
  maxiter: 1000
  mode: {ecut: 600.0,
         gammacentered: False,
         name: pw}
  occupations: {fixmagmom: False,
                name: fermi-dirac,
                width: 0.001}
  symmetry: {point_group: False,
             time_reversal: False}

System changes: positions, numbers, cell, pbc, initial_charges, initial_magmoms 

Initialize ...

O-setup:
  name: Oxygen
  id: 9b9d51c344dea68c822856295a461509
  Z: 8.0
  valence: 6
  core: 2
  charge: 0.0
  file: /home/modules/software/GPAW-setups/0.9.20000/O.LDA.gz
  compensation charges: gauss, rc=0.21, lmax=2
  cutoffs: 1.17(filt), 0.83(core),
  valence states:
                energy  radius
    2s(2.00)   -23.752   0.688
    2p(4.00)    -9.195   0.598
    *s           3.459   0.688
    *p          18.016   0.598
    *d           0.000   0.619

  Using partial waves for O as LCAO basis

Mn-setup:
  name: Manganese
  id: 0d715a8018be061a6e9ea6f2d364ac92
  Z: 25.0
  valence: 15
  core: 10
  charge: 0.0
  file: /home/modules/software/GPAW-setups/0.9.20000/Mn.LDA.gz
  compensation charges: gauss, rc=0.38, lmax=2
  cutoffs: 2.14(filt), 0.86(core),
  valence states:
                energy  radius
    3s(2.00)   -85.387   1.275
    4s(2.00)    -5.282   1.275
    3p(6.00)   -54.493   1.281
    4p(0.00)    -1.471   1.281
    3d(5.00)    -7.009   1.138
    *d          20.203   1.138

  Using partial waves for Mn as LCAO basis

P-setup:
  name: Phosphorus
  id: a5561c299094968922a179ab894d2e2d
  Z: 15.0
  valence: 5
  core: 10
  charge: 0.0
  file: /home/modules/software/GPAW-setups/0.9.20000/P.LDA.gz
  compensation charges: gauss, rc=0.30, lmax=2
  cutoffs: 1.69(filt), 1.81(core),
  valence states:
                energy  radius
    3s(2.00)   -14.015   0.953
    3p(3.00)    -5.596   0.953
    *s          13.197   0.953
    *p          21.615   0.953
    *d           0.000   0.953

  Using partial waves for P as LCAO basis

Li-setup:
  name: Lithium
  id: b73562207f97a71b6967473b66fe8b65
  Z: 3.0
  valence: 1
  core: 2
  charge: 0.0
  file: /home/modules/software/GPAW-setups/0.9.20000/Li.LDA.gz
  compensation charges: gauss, rc=0.33, lmax=2
  cutoffs: 1.91(filt), 2.55(core),
  valence states:
                energy  radius
    2s(1.00)    -2.874   1.058
    2p(0.00)    -1.126   1.058
    *s          24.338   1.058

  Using partial waves for Li as LCAO basis

Reference energy: -196157.275402

Spin-polarized calculation.
Magnetic moment: 0.000000

Convergence criteria:
  Maximum total energy change: 0.0005 eV / electron
  Maximum integral of absolute density change: 0.0001 electrons
  Maximum integral of absolute eigenstate change: 4e-08 eV^2
  Maximum change in atomic force: 1e-06 eV / Ang
  Maximum number of iterations: 1000

Symmetries present (total): 1

  ( 1  0  0)
  ( 0  1  0)
  ( 0  0  1)

144 k-points: 6 x 6 x 4 Monkhorst-Pack grid
144 k-points in the irreducible part of the Brillouin zone
       k-points in crystal coordinates                weights
   0:    -0.41666667   -0.41666667   -0.37500000          1/144
   1:    -0.41666667   -0.41666667   -0.12500000          1/144
   2:    -0.41666667   -0.41666667    0.12500000          1/144
   3:    -0.41666667   -0.41666667    0.37500000          1/144
   4:    -0.41666667   -0.25000000   -0.37500000          1/144
   5:    -0.41666667   -0.25000000   -0.12500000          1/144
   6:    -0.41666667   -0.25000000    0.12500000          1/144
   7:    -0.41666667   -0.25000000    0.37500000          1/144
   8:    -0.41666667   -0.08333333   -0.37500000          1/144
   9:    -0.41666667   -0.08333333   -0.12500000          1/144
          ...
 143:     0.41666667    0.41666667    0.37500000          1/144

Wave functions: Plane wave expansion
  Cutoff energy: 600.000 eV
  Number of coefficients (min, max): 10068, 10125
  Pulay-stress correction: 0.000000 eV/Ang^3 (de/decut=0.000000)
  Using FFTW library
  ScaLapack parameters: grid=1x1, blocksize=None
  Wavefunction extrapolation:
    Improved wavefunction reuse through dual PAW basis 

  Fermi-Dirac: width=0.0010 eV

Eigensolver
   Davidson(niter=2) 

Densities:
  Coarse grid: 60*35*27 grid
  Fine grid: 120*70*54 grid
  Total Charge: 0.000000 

Density mixing:
  Method: difference
  Backend: pulay
  Linear mixing parameter: 0.05
  Mixing with 5 old densities
  Damping of long wave oscillations: 50 

Hamiltonian:
  XC and Coulomb potentials evaluated on a 120*70*54 grid
  Using the LDA Exchange-Correlation functional
 

Memory estimate:
  Process memory now: 12654.81 MiB
  Calculator: 354.82 MiB
    Density: 10.06 MiB
      Arrays: 3.79 MiB
      Localized functions: 4.71 MiB
      Mixer: 1.56 MiB
    Hamiltonian: 2.95 MiB
      Arrays: 2.82 MiB
      XC: 0.00 MiB
      Poisson: 0.00 MiB
      vbar: 0.14 MiB
    Wavefunctions: 341.80 MiB
      Arrays psit_nG: 311.46 MiB
      Eigensolver: 19.99 MiB
      Projections: 2.71 MiB
      Projectors: 4.87 MiB
      PW-descriptor: 2.77 MiB

Total number of cores used: 64
Parallelization over k-points: 16
Domain decomposition: 2 x 2 x 1

Number of atoms: 28
Number of atomic orbitals: 148
Number of bands in calculation: 112
Number of valence electrons: 180
Bands to converge: occupied

... initialized

Initializing position-dependent things.

Density initialized from atomic densities
Creating initial wave functions:
  112 bands from LCAO basis set

     .-------------------------.  
    /|         OP              |  
   / |O            O        O  |  
  /  |       O            O  P |  
 *   |O    Mn      O           |  
 |   |          OLi          O |  
 |   .P-O--------------Mn------.  
 |  /          Li    O  Mn  O /   
 | /Li O           PO        /    
 |/       Mn                /     
 *Li-----------------------*      

Positions:
   0 O     -1.360678   -2.541161   -1.202221    ( 0.0000,  0.0000,  0.0000)
   1 O     -3.121941    2.976855    1.167242    ( 0.0000,  0.0000,  0.0000)
   2 O      2.107533    0.508090    1.540712    ( 0.0000,  0.0000,  0.0000)
   3 O      3.869373   -0.072395   -0.828750    ( 0.0000,  0.0000,  0.0000)
   4 O      2.107821    2.976875    1.540792    ( 0.0000,  0.0000,  0.0000)
   5 O      3.869084   -2.541141   -0.828671    ( 0.0000,  0.0000,  0.0000)
   6 O     -1.360390   -0.072375   -1.202141    ( 0.0000,  0.0000,  0.0000)
   7 O     -3.122230    0.508109    1.167321    ( 0.0000,  0.0000,  0.0000)
   8 O     -4.413461   -1.306992   -0.794251    ( 0.0000,  0.0000,  0.0000)
   9 O     -0.069585    1.742707    1.575662    ( 0.0000,  0.0000,  0.0000)
  10 O      5.160604    1.742707    1.132822    ( 0.0000,  0.0000,  0.0000)
  11 O      0.816728   -1.306992   -1.247091    ( 0.0000,  0.0000,  0.0000)
  12 Mn    -2.570809   -1.307302    0.247161    ( 0.0000,  0.0000,  1.0000)
  13 Mn    -1.912021    1.743016   -2.122906    ( 0.0000,  0.0000, -1.0000)
  14 Mn     3.317952    1.743017    0.091411    ( 0.0000,  0.0000, -1.0000)
  15 Mn     2.659164   -1.307302    2.461478    ( 0.0000,  0.0000,  1.0000)
  16 P     -0.620664   -1.306816   -1.828465    ( 0.0000,  0.0000,  0.0000)
  17 P     -3.862097    1.742530    0.541238    ( 0.0000,  0.0000,  0.0000)
  18 P      1.367807    1.742530    2.167036    ( 0.0000,  0.0000,  0.0000)
  19 P      4.609240   -1.306816   -0.202666    ( 0.0000,  0.0000,  0.0000)
  20 O     -0.646437   -1.306845    1.374751    ( 0.0000,  0.0000,  0.0000)
  21 O     -3.836504    1.742559   -0.995565    ( 0.0000,  0.0000,  0.0000)
  22 O      1.393580    1.742559   -1.036179    ( 0.0000,  0.0000,  0.0000)
  23 O      4.583647   -1.306845    1.334136    ( 0.0000,  0.0000,  0.0000)
  24 Li    -4.856429   -2.832143   -2.200714    ( 0.0000,  0.0000,  0.0000)
  25 Li     0.373571   -2.832143    0.169286    ( 0.0000,  0.0000,  0.0000)
  26 Li    -4.856429    0.217857   -2.200714    ( 0.0000,  0.0000,  0.0000)
  27 Li     0.373571    0.217857    0.169286    ( 0.0000,  0.0000,  0.0000)

Unit cell:
           periodic     x           y           z      points  spacing
  1. axis:    yes   10.460000    0.000000    0.000000    60     0.1743
  2. axis:    yes    0.000000    6.100000    0.000000    35     0.1743
  3. axis:    yes    0.000000    0.000000    4.740000    27     0.1756

  Lengths:  10.460000   6.100000   4.740000
  Angles:   90.000000  90.000000  90.000000

Effective grid spacing dv^(1/3) = 0.1747

                     log10-error:           total        iterations:
           time      wfs    density  force  energy       poisson  magmom
iter:   1  12:49:25                       -231.918198             +0.0000
iter:   2  12:49:46  -0.55  -0.94         -231.724848             +0.0048
iter:   3  12:50:08  -0.72  -0.98         -220.588387             +0.0060
iter:   4  12:50:29  -0.96  -1.20         -218.868971             +0.0020
iter:   5  12:50:50  -1.94  -1.36         -221.282802             +0.0013
iter:   6  12:51:12  -1.99  -1.50         -219.940425             -0.0394
iter:   7  12:51:33  -2.23  -1.69         -222.865172             +0.1812
iter:   8  12:51:54  -2.72  -1.89         -219.821134             +0.2410
iter:   9  12:52:15  -2.35  -1.96         -223.783655             +0.6290
iter:  10  12:52:37  -2.41  -1.89         -226.281453             +0.2694
iter:  11  12:52:58  -2.55  -1.87         -227.379963             -0.0246
iter:  12  12:53:19  -2.33  -1.81         -226.980475             -0.0018
iter:  13  12:53:40  -2.74  -1.92         -226.851797             -0.0034
iter:  14  12:54:01  -2.91  -1.97         -226.778496             -0.0009
iter:  15  12:54:23  -1.82  -2.01         -226.921386             -0.0006
iter:  16  12:54:44  -2.47  -2.12         -226.503641             -0.0003
iter:  17  12:55:05  -2.37  -2.17         -226.488638             -0.0001
iter:  18  12:55:26  -2.54  -2.34         -226.340912             -0.0001
iter:  19  12:55:47  -2.91  -2.56         -226.278862             -0.0000
iter:  20  12:56:09  -3.57  -2.64         -226.248364             -0.0000
iter:  21  12:56:30  -3.27  -2.70         -226.242301             -0.0000
iter:  22  12:56:51  -3.86  -2.83         -226.230475             -0.0000
iter:  23  12:57:12  -3.63  -2.87         -226.236467             -0.0000
iter:  24  12:57:34  -3.87  -3.05         -226.228379             -0.0000
iter:  25  12:57:55  -4.41  -3.29         -226.229194             -0.0000
iter:  26  12:58:16  -4.63  -3.33         -226.227814             -0.0000
iter:  27  12:58:37  -4.99  -3.52         -226.228121             -0.0000
iter:  28  12:58:58  -5.22  -3.72         -226.227664             -0.0000
iter:  29  12:59:20  -5.51  -3.79         -226.227565             +0.0000
iter:  30  12:59:41  -5.68  -3.87         -226.227482             +0.0000
iter:  31  13:00:02  -6.08  -3.98         -226.227500             +0.0000
iter:  32  13:00:23  -6.22  -4.14         -226.227459             +0.0000
iter:  33  13:00:44  -6.50  -4.33         -226.227457             +0.0000
iter:  34  13:01:11  -7.56  -4.53         -226.227454             +0.0000
iter:  35  13:01:32  -7.38  -4.55         -226.227454             +0.0000
iter:  36  13:01:59  -7.46  -4.61    -2.45-226.227455             +0.0000
iter:  37  13:02:26  -8.37  -4.67    -3.10-226.227454             +0.0000
iter:  38  13:02:52  -8.22  -4.70    -2.87-226.227454             -0.0000
iter:  39  13:03:20  -7.89  -4.77    -2.68-226.227455             +0.0000
iter:  40  13:03:46  -7.94  -4.89    -3.14-226.227453             -0.0000
iter:  41  13:04:13  -8.44  -4.96    -3.32-226.227453             +0.0000
iter:  42  13:04:40  -8.24  -4.99    -2.82-226.227453             -0.0000
iter:  43  13:05:06  -8.66  -5.18    -3.36-226.227453             -0.0000
iter:  44  13:05:33  -8.96  -5.26    -3.39-226.227453             -0.0000
iter:  45  13:06:00  -8.56  -5.34    -3.08-226.227452             -0.0000
iter:  46  13:06:26  -9.28  -5.48    -3.87-226.227452             -0.0000
iter:  47  13:06:53  -9.78  -5.52    -3.53-226.227452             -0.0000
iter:  48  13:07:20  -9.60  -5.58    -3.59-226.227452             -0.0000
iter:  49  13:07:46 -10.19  -5.65    -4.30-226.227452             -0.0000
iter:  50  13:08:13  -9.85  -5.68    -3.96-226.227452             -0.0000
iter:  51  13:08:40  -9.43  -5.72    -3.67-226.227452             -0.0000
iter:  52  13:09:07 -10.26  -6.00    -4.08-226.227452             -0.0000
iter:  53  13:09:33  -9.57  -6.08    -3.68-226.227452             -0.0000
iter:  54  13:10:00 -10.46  -6.26    -3.99-226.227452             -0.0000
iter:  55  13:10:27 -11.53  -6.47    -4.92-226.227452             -0.0000
iter:  56  13:10:53 -11.10  -6.49    -4.25-226.227452             -0.0000
iter:  57  13:11:20 -11.45  -6.72    -4.47-226.227452             -0.0000
iter:  58  13:11:47 -12.48  -6.77    -5.14-226.227452             -0.0000
iter:  59  13:12:13 -11.77  -6.81    -4.82-226.227452             -0.0000
iter:  60  13:12:40 -11.85  -6.89    -4.81-226.227452             -0.0000
iter:  61  13:13:07 -11.74  -6.93    -4.74-226.227452             -0.0000
iter:  62  13:13:34 -12.97  -7.22    -5.46-226.227452             -0.0000
iter:  63  13:14:00 -12.15  -7.25    -4.99-226.227452             -0.0000
iter:  64  13:14:27 -12.50  -7.28    -5.04-226.227452             -0.0000
iter:  65  13:14:54 -13.79  -7.57    -6.15-226.227452             -0.0000

Converged after 65 iterations.

Dipole moment: (10.667888, 1.412825, -6.268285) |e|*Ang

Total magnetic moment: (0.000000, 0.000000, -0.000000)
Local magnetic moments:
   0 O  ( 0.000000,  0.000000, -0.000471)
   1 O  ( 0.000000,  0.000000,  0.000531)
   2 O  ( 0.000000,  0.000000,  0.000568)
   3 O  ( 0.000000,  0.000000, -0.000546)
   4 O  ( 0.000000,  0.000000,  0.000548)
   5 O  ( 0.000000,  0.000000, -0.000526)
   6 O  ( 0.000000,  0.000000, -0.000491)
   7 O  ( 0.000000,  0.000000,  0.000551)
   8 O  ( 0.000000,  0.000000,  0.028658)
   9 O  ( 0.000000,  0.000000, -0.028684)
  10 O  ( 0.000000,  0.000000, -0.028702)
  11 O  ( 0.000000,  0.000000,  0.028750)
  12 Mn ( 0.000000,  0.000000,  4.448249)
  13 Mn ( 0.000000,  0.000000, -4.448216)
  14 Mn ( 0.000000,  0.000000, -4.448143)
  15 Mn ( 0.000000,  0.000000,  4.447745)
  16 P  ( 0.000000,  0.000000,  0.001610)
  17 P  ( 0.000000,  0.000000, -0.001537)
  18 P  ( 0.000000,  0.000000, -0.001548)
  19 P  ( 0.000000,  0.000000,  0.001549)
  20 O  ( 0.000000,  0.000000,  0.025433)
  21 O  ( 0.000000,  0.000000, -0.025299)
  22 O  ( 0.000000,  0.000000, -0.025301)
  23 O  ( 0.000000,  0.000000,  0.025270)
  24 Li ( 0.000000,  0.000000,  0.000000)
  25 Li ( 0.000000,  0.000000, -0.000006)
  26 Li ( 0.000000,  0.000000,  0.000000)
  27 Li ( 0.000000,  0.000000, -0.000006)

Energy contributions relative to reference atoms: (reference = -196157.275402)

Kinetic:       +217.668821
Potential:     -195.483891
External:        +0.000000
XC:            -250.452613
Entropy (-ST):   -0.000000
Local:           +2.040230
--------------------------
Free energy:   -226.227452
Extrapolated:  -226.227452

Spin contamination: 9.560284 electrons
Showing only first 2 kpts
                      Up                     Down
 Kpt  Band  Eigenvalues  Occupancy  Eigenvalues  Occupancy
  0    88      5.11484    1.00000      5.11039    1.00000
  0    89      5.13955    1.00000      5.13488    1.00000
  0    90      7.28924    0.00000      7.29099    0.00000
  0    91      7.30700    0.00000      7.30853    0.00000

  1    88      5.14041    1.00000      5.13608    1.00000
  1    89      5.17011    1.00000      5.16529    1.00000
  1    90      7.23201    0.00000      7.23342    0.00000
  1    91      7.24431    0.00000      7.24552    0.00000


Fermi level: 5.71499

Gap: 1.968 eV
Transition (v -> c):
  (s=0, k=74, n=89, [0.08, -0.42, 0.12]) -> (s=0, k=86, n=90, [0.08, 0.08, 0.12])
Writing to born-0.01-11z-.gpw (mode='all')

Timing:                              incl.     excl.
-----------------------------------------------------------
Hamiltonian:                         0.262     0.002   0.0% |
 Atomic:                             0.076     0.076   0.0% |
  XC Correction:                     0.000     0.000   0.0% |
 Calculate atomic Hamiltonians:      0.091     0.091   0.0% |
 Communicate:                        0.000     0.000   0.0% |
 Initialize Hamiltonian:             0.000     0.000   0.0% |
 Poisson:                            0.001     0.001   0.0% |
 XC 3D grid:                         0.091     0.091   0.0% |
LCAO initialization:                69.800     0.674   0.0% |
 LCAO eigensolver:                  17.918     0.002   0.0% |
  Calculate projections:             0.029     0.029   0.0% |
  DenseAtomicCorrection:             0.043     0.043   0.0% |
  Distribute overlap matrix:         0.011     0.011   0.0% |
  Orbital Layouts:                   0.276     0.276   0.0% |
  Potential matrix:                 17.474    17.474   0.5% |
  Sum over cells:                    0.084     0.084   0.0% |
 LCAO to grid:                      49.930    49.930   1.4% ||
 Set positions (LCAO WFS):           1.278     0.179   0.0% |
  Basic WFS set positions:           0.002     0.002   0.0% |
  Basis functions set positions:     0.000     0.000   0.0% |
  P tci:                             0.514     0.514   0.0% |
  ST tci:                            0.370     0.370   0.0% |
  mktci:                             0.212     0.212   0.0% |
PWDescriptor:                        0.025     0.025   0.0% |
SCF-cycle:                        1552.608     6.165   0.2% |
 Davidson:                        1305.901   418.171  11.7% |----|
  Apply H:                          87.616    85.032   2.4% ||
   HMM T:                            2.584     2.584   0.1% |
  Subspace diag:                   187.212     0.189   0.0% |
   calc_h_matrix:                  119.292    32.662   0.9% |
    Apply H:                        86.630    84.165   2.3% ||
     HMM T:                          2.465     2.465   0.1% |
   diagonalize:                      6.611     6.611   0.2% |
   rotate_psi:                      61.120    61.120   1.7% ||
  calc. matrices:                  390.385   217.808   6.1% |-|
   Apply H:                        172.577   167.579   4.7% |-|
    HMM T:                           4.998     4.998   0.1% |
  diagonalize:                     100.766   100.766   2.8% ||
  rotate_psi:                      121.750   121.750   3.4% ||
 Density:                           52.028     0.002   0.0% |
  Atomic density matrices:           0.856     0.856   0.0% |
  Mix:                               9.004     9.004   0.3% |
  Multipole moments:                 0.023     0.023   0.0% |
  Pseudo density:                   42.144    42.142   1.2% |
   Symmetrize density:               0.002     0.002   0.0% |
 Forces:                           170.360   170.360   4.7% |-|
 Hamiltonian:                       15.867     0.133   0.0% |
  Atomic:                            3.618     3.618   0.1% |
   XC Correction:                    0.000     0.000   0.0% |
  Calculate atomic Hamiltonians:     6.080     6.080   0.2% |
  Communicate:                       0.013     0.013   0.0% |
  Poisson:                           0.058     0.058   0.0% |
  XC 3D grid:                        5.964     5.964   0.2% |
 Orthonormalize:                     2.288     0.003   0.0% |
  calc_s_matrix:                     0.265     0.265   0.0% |
  inverse-cholesky:                  0.040     0.040   0.0% |
  projections:                       1.497     1.497   0.0% |
  rotate_psi_s:                      0.483     0.483   0.0% |
Set symmetry:                        0.000     0.000   0.0% |
Other:                            1964.696  1964.696  54.8% |---------------------|
-----------------------------------------------------------
Total:                                      3587.390 100.0%

Memory usage: 12.40 GiB
Date: Tue Mar 30 13:47:37 2021
