
  ___ ___ ___ _ _ _  
 |   |   |_  | | | | 
 | | | | | . | | | | 
 |__ |  _|___|_____|  21.1.1b1
 |___|_|             

User:   madkru@g043.nifl.fysik.dtu.dk
Date:   Wed Mar 31 15:50:35 2021
Arch:   x86_64
Pid:    39387
Python: 3.8.6
gpaw:   /home/niflheim/madkru/venv_madkru/gpaw/gpaw (e6f0d78a31)
_gpaw:  /home/niflheim/madkru/venv_madkru/gpaw/build/lib.linux-x86_64-sandybridge-3.8/
        _gpaw.cpython-38-x86_64-linux-gnu.so (e6f0d78a31)
ase:    /home/niflheim/madkru/venv_madkru/ase/ase (version 3.22.0b1-4d5a73cb29)
numpy:  /home/modules/software/SciPy-bundle/2020.11-foss-2020b/lib/python3.8/site-packages/numpy (version 1.19.4)
scipy:  /home/modules/software/SciPy-bundle/2020.11-foss-2020b/lib/python3.8/site-packages/scipy (version 1.5.4)
libxc:  4.3.4
units:  Angstrom and eV
cores: 64
OpenMP: False
OMP_NUM_THREADS: 1

Input parameters:
  convergence: {bands: occupied,
                density: 0.0001,
                eigenstates: 4e-08,
                energy: 0.0005,
                forces: 1e-06}
  kpts: [6 6 4]
  maxiter: 1000
  mode: {ecut: 600.0,
         gammacentered: False,
         name: pw}
  occupations: {fixmagmom: False,
                name: fermi-dirac,
                width: 0.001}
  symmetry: {point_group: False,
             time_reversal: False}

System changes: positions, numbers, cell, pbc, initial_charges, initial_magmoms 

Initialize ...

O-setup:
  name: Oxygen
  id: 9b9d51c344dea68c822856295a461509
  Z: 8.0
  valence: 6
  core: 2
  charge: 0.0
  file: /home/modules/software/GPAW-setups/0.9.20000/O.LDA.gz
  compensation charges: gauss, rc=0.21, lmax=2
  cutoffs: 1.17(filt), 0.83(core),
  valence states:
                energy  radius
    2s(2.00)   -23.752   0.688
    2p(4.00)    -9.195   0.598
    *s           3.459   0.688
    *p          18.016   0.598
    *d           0.000   0.619

  Using partial waves for O as LCAO basis

Mn-setup:
  name: Manganese
  id: 0d715a8018be061a6e9ea6f2d364ac92
  Z: 25.0
  valence: 15
  core: 10
  charge: 0.0
  file: /home/modules/software/GPAW-setups/0.9.20000/Mn.LDA.gz
  compensation charges: gauss, rc=0.38, lmax=2
  cutoffs: 2.14(filt), 0.86(core),
  valence states:
                energy  radius
    3s(2.00)   -85.387   1.275
    4s(2.00)    -5.282   1.275
    3p(6.00)   -54.493   1.281
    4p(0.00)    -1.471   1.281
    3d(5.00)    -7.009   1.138
    *d          20.203   1.138

  Using partial waves for Mn as LCAO basis

P-setup:
  name: Phosphorus
  id: a5561c299094968922a179ab894d2e2d
  Z: 15.0
  valence: 5
  core: 10
  charge: 0.0
  file: /home/modules/software/GPAW-setups/0.9.20000/P.LDA.gz
  compensation charges: gauss, rc=0.30, lmax=2
  cutoffs: 1.69(filt), 1.81(core),
  valence states:
                energy  radius
    3s(2.00)   -14.015   0.953
    3p(3.00)    -5.596   0.953
    *s          13.197   0.953
    *p          21.615   0.953
    *d           0.000   0.953

  Using partial waves for P as LCAO basis

Li-setup:
  name: Lithium
  id: b73562207f97a71b6967473b66fe8b65
  Z: 3.0
  valence: 1
  core: 2
  charge: 0.0
  file: /home/modules/software/GPAW-setups/0.9.20000/Li.LDA.gz
  compensation charges: gauss, rc=0.33, lmax=2
  cutoffs: 1.91(filt), 2.55(core),
  valence states:
                energy  radius
    2s(1.00)    -2.874   1.058
    2p(0.00)    -1.126   1.058
    *s          24.338   1.058

  Using partial waves for Li as LCAO basis

Reference energy: -196157.275402

Spin-polarized calculation.
Magnetic moment: 0.000000

Convergence criteria:
  Maximum total energy change: 0.0005 eV / electron
  Maximum integral of absolute density change: 0.0001 electrons
  Maximum integral of absolute eigenstate change: 4e-08 eV^2
  Maximum change in atomic force: 1e-06 eV / Ang
  Maximum number of iterations: 1000

Symmetries present (total): 1

  ( 1  0  0)
  ( 0  1  0)
  ( 0  0  1)

144 k-points: 6 x 6 x 4 Monkhorst-Pack grid
144 k-points in the irreducible part of the Brillouin zone
       k-points in crystal coordinates                weights
   0:    -0.41666667   -0.41666667   -0.37500000          1/144
   1:    -0.41666667   -0.41666667   -0.12500000          1/144
   2:    -0.41666667   -0.41666667    0.12500000          1/144
   3:    -0.41666667   -0.41666667    0.37500000          1/144
   4:    -0.41666667   -0.25000000   -0.37500000          1/144
   5:    -0.41666667   -0.25000000   -0.12500000          1/144
   6:    -0.41666667   -0.25000000    0.12500000          1/144
   7:    -0.41666667   -0.25000000    0.37500000          1/144
   8:    -0.41666667   -0.08333333   -0.37500000          1/144
   9:    -0.41666667   -0.08333333   -0.12500000          1/144
          ...
 143:     0.41666667    0.41666667    0.37500000          1/144

Wave functions: Plane wave expansion
  Cutoff energy: 600.000 eV
  Number of coefficients (min, max): 10068, 10125
  Pulay-stress correction: 0.000000 eV/Ang^3 (de/decut=0.000000)
  Using FFTW library
  ScaLapack parameters: grid=1x1, blocksize=None
  Wavefunction extrapolation:
    Improved wavefunction reuse through dual PAW basis 

  Fermi-Dirac: width=0.0010 eV

Eigensolver
   Davidson(niter=2) 

Densities:
  Coarse grid: 60*35*27 grid
  Fine grid: 120*70*54 grid
  Total Charge: 0.000000 

Density mixing:
  Method: difference
  Backend: pulay
  Linear mixing parameter: 0.05
  Mixing with 5 old densities
  Damping of long wave oscillations: 50 

Hamiltonian:
  XC and Coulomb potentials evaluated on a 120*70*54 grid
  Using the LDA Exchange-Correlation functional
 

Memory estimate:
  Process memory now: 14415.33 MiB
  Calculator: 354.82 MiB
    Density: 10.06 MiB
      Arrays: 3.79 MiB
      Localized functions: 4.71 MiB
      Mixer: 1.56 MiB
    Hamiltonian: 2.95 MiB
      Arrays: 2.82 MiB
      XC: 0.00 MiB
      Poisson: 0.00 MiB
      vbar: 0.14 MiB
    Wavefunctions: 341.80 MiB
      Arrays psit_nG: 311.46 MiB
      Eigensolver: 19.99 MiB
      Projections: 2.71 MiB
      Projectors: 4.87 MiB
      PW-descriptor: 2.77 MiB

Total number of cores used: 64
Parallelization over k-points: 16
Domain decomposition: 2 x 2 x 1

Number of atoms: 28
Number of atomic orbitals: 148
Number of bands in calculation: 112
Number of valence electrons: 180
Bands to converge: occupied

... initialized

Initializing position-dependent things.

Density initialized from atomic densities
Creating initial wave functions:
  112 bands from LCAO basis set

     .-------------------------.  
    /|         OP              |  
   / |O            O        O  |  
  /  |       O            O  P |  
 *   |O    Mn      O           |  
 |   |          OLi          O |  
 |   .P-O--------------Mn------.  
 |  /          Li    O  Mn  O /   
 | /Li O           PO        /    
 |/       Mn                /     
 *Li-----------------------*      

Positions:
   0 O     -1.360678   -2.541161   -1.202221    ( 0.0000,  0.0000,  0.0000)
   1 O     -3.121941    2.976855    1.167242    ( 0.0000,  0.0000,  0.0000)
   2 O      2.107533    0.508090    1.540712    ( 0.0000,  0.0000,  0.0000)
   3 O      3.869373   -0.072395   -0.828750    ( 0.0000,  0.0000,  0.0000)
   4 O      2.107821    2.976875    1.540792    ( 0.0000,  0.0000,  0.0000)
   5 O      3.869084   -2.541141   -0.828671    ( 0.0000,  0.0000,  0.0000)
   6 O     -1.360390   -0.072375   -1.202141    ( 0.0000,  0.0000,  0.0000)
   7 O     -3.122230    0.508109    1.167321    ( 0.0000,  0.0000,  0.0000)
   8 O     -4.413461   -1.306992   -0.794251    ( 0.0000,  0.0000,  0.0000)
   9 O     -0.069585    1.742707    1.575662    ( 0.0000,  0.0000,  0.0000)
  10 O      5.160604    1.742707    1.132822    ( 0.0000,  0.0000,  0.0000)
  11 O      0.816728   -1.306992   -1.237091    ( 0.0000,  0.0000,  0.0000)
  12 Mn    -2.570809   -1.307302    0.247161    ( 0.0000,  0.0000,  1.0000)
  13 Mn    -1.912021    1.743016   -2.122906    ( 0.0000,  0.0000, -1.0000)
  14 Mn     3.317952    1.743017    0.091411    ( 0.0000,  0.0000, -1.0000)
  15 Mn     2.659164   -1.307302    2.461478    ( 0.0000,  0.0000,  1.0000)
  16 P     -0.620664   -1.306816   -1.828465    ( 0.0000,  0.0000,  0.0000)
  17 P     -3.862097    1.742530    0.541238    ( 0.0000,  0.0000,  0.0000)
  18 P      1.367807    1.742530    2.167036    ( 0.0000,  0.0000,  0.0000)
  19 P      4.609240   -1.316816   -0.202666    ( 0.0000,  0.0000,  0.0000)
  20 O     -0.646437   -1.306845    1.374751    ( 0.0000,  0.0000,  0.0000)
  21 O     -3.836504    1.742559   -0.995565    ( 0.0000,  0.0000,  0.0000)
  22 O      1.393580    1.742559   -1.036179    ( 0.0000,  0.0000,  0.0000)
  23 O      4.583647   -1.306845    1.334136    ( 0.0000,  0.0000,  0.0000)
  24 Li    -4.856429   -2.832143   -2.200714    ( 0.0000,  0.0000,  0.0000)
  25 Li     0.373571   -2.832143    0.169286    ( 0.0000,  0.0000,  0.0000)
  26 Li    -4.856429    0.217857   -2.200714    ( 0.0000,  0.0000,  0.0000)
  27 Li     0.373571    0.217857    0.169286    ( 0.0000,  0.0000,  0.0000)

Unit cell:
           periodic     x           y           z      points  spacing
  1. axis:    yes   10.460000    0.000000    0.000000    60     0.1743
  2. axis:    yes    0.000000    6.100000    0.000000    35     0.1743
  3. axis:    yes    0.000000    0.000000    4.740000    27     0.1756

  Lengths:  10.460000   6.100000   4.740000
  Angles:   90.000000  90.000000  90.000000

Effective grid spacing dv^(1/3) = 0.1747

                     log10-error:           total        iterations:
           time      wfs    density  force  energy       poisson  magmom
iter:   1  15:52:10                       -231.918368             +0.0000
iter:   2  15:52:31  -0.55  -0.94         -231.728994             +0.0055
iter:   3  15:52:52  -0.72  -0.98         -220.582759             +0.0068
iter:   4  15:53:14  -0.96  -1.20         -218.864308             +0.0023
iter:   5  15:53:35  -1.94  -1.36         -221.271373             +0.0015
iter:   6  15:53:56  -1.99  -1.50         -219.988788             +0.0008
iter:   7  15:54:17  -2.21  -1.68         -223.143329             +0.2033
iter:   8  15:54:39  -2.72  -1.89         -220.014643             +0.2915
iter:   9  15:55:00  -2.10  -1.93         -225.793753             +0.4505
iter:  10  15:55:21  -2.24  -1.87         -227.308470             -0.2215
iter:  11  15:55:42  -2.74  -1.82         -227.111865             -0.0297
iter:  12  15:56:04  -2.12  -1.83         -227.077951             -0.0044
iter:  13  15:56:25  -2.63  -1.84         -227.100252             -0.0111
iter:  14  15:56:46  -2.37  -1.95         -227.194401             +0.0005
iter:  15  15:57:07  -2.62  -2.07         -226.916572             -0.0067
iter:  16  15:57:29  -2.61  -2.19         -226.703005             -0.0004
iter:  17  15:57:50  -2.03  -2.26         -226.356215             -0.0003
iter:  18  15:58:11  -2.87  -2.32         -226.400600             -0.0001
iter:  19  15:58:32  -3.25  -2.40         -226.291842             -0.0004
iter:  20  15:58:54  -3.21  -2.44         -226.257170             -0.0002
iter:  21  15:59:15  -3.24  -2.60         -226.239914             -0.0000
iter:  22  15:59:36  -3.72  -2.90         -226.232235             -0.0000
iter:  23  15:59:57  -3.90  -2.98         -226.230059             -0.0000
iter:  24  16:00:19  -4.60  -3.14         -226.230343             -0.0000
iter:  25  16:00:40  -4.52  -3.22         -226.226866             +0.0000
iter:  26  16:01:01  -5.23  -3.29         -226.226408             -0.0000
iter:  27  16:01:22  -4.95  -3.33         -226.226131             -0.0000
iter:  28  16:01:43  -5.47  -3.55         -226.225842             -0.0000
iter:  29  16:02:05  -5.05  -3.60         -226.225572             -0.0000
iter:  30  16:02:26  -5.87  -3.82         -226.225608             -0.0000
iter:  31  16:02:47  -5.91  -3.90         -226.225540             +0.0000
iter:  32  16:03:09  -5.97  -3.97         -226.225587             +0.0000
iter:  33  16:03:30  -6.45  -4.02         -226.225544             +0.0000
iter:  34  16:03:51  -6.67  -4.06         -226.225555             +0.0000
iter:  35  16:04:12  -6.94  -4.15         -226.225540             +0.0000
iter:  36  16:04:34  -6.89  -4.25         -226.225523             +0.0000
iter:  37  16:04:55  -6.46  -4.29         -226.225502             +0.0000
iter:  38  16:05:16  -7.15  -4.61         -226.225502             +0.0000
iter:  39  16:05:37  -7.16  -4.63         -226.225500             +0.0000
iter:  40  16:06:04  -7.82  -4.88         -226.225500             +0.0000
iter:  41  16:06:31  -8.45  -4.89    -3.29-226.225500             -0.0000
iter:  42  16:06:57  -8.06  -4.92    -2.96-226.225499             -0.0000
iter:  43  16:07:24  -8.26  -4.97    -3.12-226.225499             -0.0000
iter:  44  16:07:51  -8.35  -5.08    -3.24-226.225499             +0.0000
iter:  45  16:08:17  -8.87  -5.19    -3.33-226.225499             +0.0000
iter:  46  16:08:44  -9.14  -5.25    -3.45-226.225499             +0.0000
iter:  47  16:09:11  -8.74  -5.32    -3.58-226.225499             +0.0000
iter:  48  16:09:38  -9.18  -5.56    -3.89-226.225499             +0.0000
iter:  49  16:10:04  -9.84  -5.64    -3.90-226.225499             +0.0000
iter:  50  16:10:31 -10.15  -5.75    -4.21-226.225499             -0.0000
iter:  51  16:10:58 -10.39  -5.83    -4.12-226.225499             -0.0000
iter:  52  16:11:24 -10.50  -5.91    -4.04-226.225499             -0.0000
iter:  53  16:11:51 -10.94  -6.00    -4.34-226.225499             -0.0000
iter:  54  16:12:18 -10.84  -6.06    -4.12-226.225499             -0.0000
iter:  55  16:12:45 -10.70  -6.17    -4.15-226.225499             -0.0000
iter:  56  16:13:11 -11.49  -6.26    -4.77-226.225499             -0.0000
iter:  57  16:13:38 -10.52  -6.28    -4.10-226.225499             -0.0000
iter:  58  16:14:05 -11.90  -6.36    -4.88-226.225499             -0.0000
iter:  59  16:14:31 -10.34  -6.38    -4.02-226.225499             -0.0000
iter:  60  16:14:58 -10.62  -6.56    -4.15-226.225499             -0.0000
iter:  61  16:15:25 -10.73  -6.63    -4.23-226.225499             -0.0000
iter:  62  16:15:51 -11.13  -6.76    -4.35-226.225499             -0.0000
iter:  63  16:16:18 -12.01  -7.21    -5.25-226.225499             -0.0000
iter:  64  16:16:45 -11.77  -7.24    -4.70-226.225499             -0.0000
iter:  65  16:17:11 -12.63  -7.33    -5.08-226.225499             -0.0000
iter:  66  16:17:38 -12.24  -7.54    -4.98-226.225499             -0.0000
iter:  67  16:18:05 -12.32  -7.56    -4.96-226.225499             -0.0000
iter:  68  16:18:32 -13.23  -7.73    -5.36-226.225499             -0.0000
iter:  69  16:18:58 -14.24  -7.99    -6.26-226.225499             -0.0000

Converged after 69 iterations.

Dipole moment: (10.671458, 1.386887, -6.269790) |e|*Ang

Total magnetic moment: (0.000000, 0.000000, -0.000000)
Local magnetic moments:
   0 O  ( 0.000000,  0.000000, -0.000521)
   1 O  ( 0.000000,  0.000000,  0.000547)
   2 O  ( 0.000000,  0.000000,  0.000556)
   3 O  ( 0.000000,  0.000000, -0.000439)
   4 O  ( 0.000000,  0.000000,  0.000499)
   5 O  ( 0.000000,  0.000000, -0.000656)
   6 O  ( 0.000000,  0.000000, -0.000536)
   7 O  ( 0.000000,  0.000000,  0.000540)
   8 O  ( 0.000000,  0.000000,  0.028694)
   9 O  ( 0.000000,  0.000000, -0.028702)
  10 O  ( 0.000000,  0.000000, -0.028692)
  11 O  ( 0.000000,  0.000000,  0.028701)
  12 Mn ( 0.000000,  0.000000,  4.448161)
  13 Mn ( 0.000000,  0.000000, -4.448240)
  14 Mn ( 0.000000,  0.000000, -4.448142)
  15 Mn ( 0.000000,  0.000000,  4.448226)
  16 P  ( 0.000000,  0.000000,  0.001558)
  17 P  ( 0.000000,  0.000000, -0.001543)
  18 P  ( 0.000000,  0.000000, -0.001558)
  19 P  ( 0.000000,  0.000000,  0.001546)
  20 O  ( 0.000000,  0.000000,  0.025314)
  21 O  ( 0.000000,  0.000000, -0.025306)
  22 O  ( 0.000000,  0.000000, -0.025315)
  23 O  ( 0.000000,  0.000000,  0.025307)
  24 Li ( 0.000000,  0.000000,  0.000004)
  25 Li ( 0.000000,  0.000000,  0.000000)
  26 Li ( 0.000000,  0.000000, -0.000004)
  27 Li ( 0.000000,  0.000000, -0.000000)

Energy contributions relative to reference atoms: (reference = -196157.275402)

Kinetic:       +217.363977
Potential:     -195.245987
External:        +0.000000
XC:            -250.384619
Entropy (-ST):   -0.000000
Local:           +2.041130
--------------------------
Free energy:   -226.225499
Extrapolated:  -226.225499

Spin contamination: 9.560396 electrons
Showing only first 2 kpts
                      Up                     Down
 Kpt  Band  Eigenvalues  Occupancy  Eigenvalues  Occupancy
  0    88      5.11012    1.00000      5.10993    1.00000
  0    89      5.13438    1.00000      5.13449    1.00000
  0    90      7.28866    0.00000      7.28865    0.00000
  0    91      7.30631    0.00000      7.30633    0.00000

  1    88      5.13568    1.00000      5.13572    1.00000
  1    89      5.16502    1.00000      5.16488    1.00000
  1    90      7.23145    0.00000      7.23143    0.00000
  1    91      7.24363    0.00000      7.24364    0.00000


Fermi level: 6.03495

Gap: 1.972 eV
Transition (v -> c):
  (s=0, k=94, n=89, [0.08, 0.42, 0.12]) -> (s=1, k=85, n=90, [0.08, 0.08, -0.12])
Writing to born-0.01-19y-.gpw (mode='all')

Timing:                              incl.     excl.
-----------------------------------------------------------
Hamiltonian:                         0.259     0.003   0.0% |
 Atomic:                             0.069     0.069   0.0% |
  XC Correction:                     0.000     0.000   0.0% |
 Calculate atomic Hamiltonians:      0.094     0.094   0.0% |
 Communicate:                        0.000     0.000   0.0% |
 Initialize Hamiltonian:             0.000     0.000   0.0% |
 Poisson:                            0.001     0.001   0.0% |
 XC 3D grid:                         0.092     0.092   0.0% |
LCAO initialization:                69.786     0.712   0.0% |
 LCAO eigensolver:                  17.947     0.002   0.0% |
  Calculate projections:             0.029     0.029   0.0% |
  DenseAtomicCorrection:             0.043     0.043   0.0% |
  Distribute overlap matrix:         0.015     0.015   0.0% |
  Orbital Layouts:                   0.280     0.280   0.0% |
  Potential matrix:                 17.488    17.488   0.4% |
  Sum over cells:                    0.090     0.090   0.0% |
 LCAO to grid:                      49.837    49.837   1.3% ||
 Set positions (LCAO WFS):           1.289     0.184   0.0% |
  Basic WFS set positions:           0.001     0.001   0.0% |
  Basis functions set positions:     0.000     0.000   0.0% |
  P tci:                             0.517     0.517   0.0% |
  ST tci:                            0.372     0.372   0.0% |
  mktci:                             0.215     0.215   0.0% |
PWDescriptor:                        0.025     0.025   0.0% |
SCF-cycle:                        1632.129     3.949   0.1% |
 Davidson:                        1389.261   443.095  11.2% |---|
  Apply H:                          94.408    91.543   2.3% ||
   HMM T:                            2.865     2.865   0.1% |
  Subspace diag:                   200.419     0.203   0.0% |
   calc_h_matrix:                  127.936    34.968   0.9% |
    Apply H:                        92.969    90.236   2.3% ||
     HMM T:                          2.732     2.732   0.1% |
   diagonalize:                      7.101     7.101   0.2% |
   rotate_psi:                      65.179    65.179   1.6% ||
  calc. matrices:                  413.992   231.364   5.8% |-|
   Apply H:                        182.628   177.450   4.5% |-|
    HMM T:                           5.178     5.178   0.1% |
  diagonalize:                     107.150   107.150   2.7% ||
  rotate_psi:                      130.197   130.197   3.3% ||
 Density:                           55.369     0.002   0.0% |
  Atomic density matrices:           0.929     0.929   0.0% |
  Mix:                               9.369     9.369   0.2% |
  Multipole moments:                 0.026     0.026   0.0% |
  Pseudo density:                   45.043    45.042   1.1% |
   Symmetrize density:               0.002     0.002   0.0% |
 Forces:                           164.400   164.400   4.1% |-|
 Hamiltonian:                       16.854     0.146   0.0% |
  Atomic:                            3.957     3.956   0.1% |
   XC Correction:                    0.000     0.000   0.0% |
  Calculate atomic Hamiltonians:     6.349     6.349   0.2% |
  Communicate:                       0.028     0.028   0.0% |
  Poisson:                           0.062     0.062   0.0% |
  XC 3D grid:                        6.313     6.313   0.2% |
 Orthonormalize:                     2.296     0.003   0.0% |
  calc_s_matrix:                     0.267     0.267   0.0% |
  inverse-cholesky:                  0.039     0.039   0.0% |
  projections:                       1.495     1.495   0.0% |
  rotate_psi_s:                      0.492     0.492   0.0% |
Set symmetry:                        0.000     0.000   0.0% |
Other:                            2266.680  2266.680  57.1% |----------------------|
-----------------------------------------------------------
Total:                                      3968.878 100.0%

Memory usage: 14.08 GiB
Date: Wed Mar 31 16:56:44 2021
