
  ___ ___ ___ _ _ _  
 |   |   |_  | | | | 
 | | | | | . | | | | 
 |__ |  _|___|_____|  21.1.1b1
 |___|_|             

User:   madkru@g043.nifl.fysik.dtu.dk
Date:   Wed Mar 31 07:16:19 2021
Arch:   x86_64
Pid:    39387
Python: 3.8.6
gpaw:   /home/niflheim/madkru/venv_madkru/gpaw/gpaw (e6f0d78a31)
_gpaw:  /home/niflheim/madkru/venv_madkru/gpaw/build/lib.linux-x86_64-sandybridge-3.8/
        _gpaw.cpython-38-x86_64-linux-gnu.so (e6f0d78a31)
ase:    /home/niflheim/madkru/venv_madkru/ase/ase (version 3.22.0b1-4d5a73cb29)
numpy:  /home/modules/software/SciPy-bundle/2020.11-foss-2020b/lib/python3.8/site-packages/numpy (version 1.19.4)
scipy:  /home/modules/software/SciPy-bundle/2020.11-foss-2020b/lib/python3.8/site-packages/scipy (version 1.5.4)
libxc:  4.3.4
units:  Angstrom and eV
cores: 64
OpenMP: False
OMP_NUM_THREADS: 1

Input parameters:
  convergence: {bands: occupied,
                density: 0.0001,
                eigenstates: 4e-08,
                energy: 0.0005,
                forces: 1e-06}
  kpts: [6 6 4]
  maxiter: 1000
  mode: {ecut: 600.0,
         gammacentered: False,
         name: pw}
  occupations: {fixmagmom: False,
                name: fermi-dirac,
                width: 0.001}
  symmetry: {point_group: False,
             time_reversal: False}

System changes: positions, numbers, cell, pbc, initial_charges, initial_magmoms 

Initialize ...

O-setup:
  name: Oxygen
  id: 9b9d51c344dea68c822856295a461509
  Z: 8.0
  valence: 6
  core: 2
  charge: 0.0
  file: /home/modules/software/GPAW-setups/0.9.20000/O.LDA.gz
  compensation charges: gauss, rc=0.21, lmax=2
  cutoffs: 1.17(filt), 0.83(core),
  valence states:
                energy  radius
    2s(2.00)   -23.752   0.688
    2p(4.00)    -9.195   0.598
    *s           3.459   0.688
    *p          18.016   0.598
    *d           0.000   0.619

  Using partial waves for O as LCAO basis

Mn-setup:
  name: Manganese
  id: 0d715a8018be061a6e9ea6f2d364ac92
  Z: 25.0
  valence: 15
  core: 10
  charge: 0.0
  file: /home/modules/software/GPAW-setups/0.9.20000/Mn.LDA.gz
  compensation charges: gauss, rc=0.38, lmax=2
  cutoffs: 2.14(filt), 0.86(core),
  valence states:
                energy  radius
    3s(2.00)   -85.387   1.275
    4s(2.00)    -5.282   1.275
    3p(6.00)   -54.493   1.281
    4p(0.00)    -1.471   1.281
    3d(5.00)    -7.009   1.138
    *d          20.203   1.138

  Using partial waves for Mn as LCAO basis

P-setup:
  name: Phosphorus
  id: a5561c299094968922a179ab894d2e2d
  Z: 15.0
  valence: 5
  core: 10
  charge: 0.0
  file: /home/modules/software/GPAW-setups/0.9.20000/P.LDA.gz
  compensation charges: gauss, rc=0.30, lmax=2
  cutoffs: 1.69(filt), 1.81(core),
  valence states:
                energy  radius
    3s(2.00)   -14.015   0.953
    3p(3.00)    -5.596   0.953
    *s          13.197   0.953
    *p          21.615   0.953
    *d           0.000   0.953

  Using partial waves for P as LCAO basis

Li-setup:
  name: Lithium
  id: b73562207f97a71b6967473b66fe8b65
  Z: 3.0
  valence: 1
  core: 2
  charge: 0.0
  file: /home/modules/software/GPAW-setups/0.9.20000/Li.LDA.gz
  compensation charges: gauss, rc=0.33, lmax=2
  cutoffs: 1.91(filt), 2.55(core),
  valence states:
                energy  radius
    2s(1.00)    -2.874   1.058
    2p(0.00)    -1.126   1.058
    *s          24.338   1.058

  Using partial waves for Li as LCAO basis

Reference energy: -196157.275402

Spin-polarized calculation.
Magnetic moment: 0.000000

Convergence criteria:
  Maximum total energy change: 0.0005 eV / electron
  Maximum integral of absolute density change: 0.0001 electrons
  Maximum integral of absolute eigenstate change: 4e-08 eV^2
  Maximum change in atomic force: 1e-06 eV / Ang
  Maximum number of iterations: 1000

Symmetries present (total): 1

  ( 1  0  0)
  ( 0  1  0)
  ( 0  0  1)

144 k-points: 6 x 6 x 4 Monkhorst-Pack grid
144 k-points in the irreducible part of the Brillouin zone
       k-points in crystal coordinates                weights
   0:    -0.41666667   -0.41666667   -0.37500000          1/144
   1:    -0.41666667   -0.41666667   -0.12500000          1/144
   2:    -0.41666667   -0.41666667    0.12500000          1/144
   3:    -0.41666667   -0.41666667    0.37500000          1/144
   4:    -0.41666667   -0.25000000   -0.37500000          1/144
   5:    -0.41666667   -0.25000000   -0.12500000          1/144
   6:    -0.41666667   -0.25000000    0.12500000          1/144
   7:    -0.41666667   -0.25000000    0.37500000          1/144
   8:    -0.41666667   -0.08333333   -0.37500000          1/144
   9:    -0.41666667   -0.08333333   -0.12500000          1/144
          ...
 143:     0.41666667    0.41666667    0.37500000          1/144

Wave functions: Plane wave expansion
  Cutoff energy: 600.000 eV
  Number of coefficients (min, max): 10068, 10125
  Pulay-stress correction: 0.000000 eV/Ang^3 (de/decut=0.000000)
  Using FFTW library
  ScaLapack parameters: grid=1x1, blocksize=None
  Wavefunction extrapolation:
    Improved wavefunction reuse through dual PAW basis 

  Fermi-Dirac: width=0.0010 eV

Eigensolver
   Davidson(niter=2) 

Densities:
  Coarse grid: 60*35*27 grid
  Fine grid: 120*70*54 grid
  Total Charge: 0.000000 

Density mixing:
  Method: difference
  Backend: pulay
  Linear mixing parameter: 0.05
  Mixing with 5 old densities
  Damping of long wave oscillations: 50 

Hamiltonian:
  XC and Coulomb potentials evaluated on a 120*70*54 grid
  Using the LDA Exchange-Correlation functional
 

Memory estimate:
  Process memory now: 13521.49 MiB
  Calculator: 354.82 MiB
    Density: 10.06 MiB
      Arrays: 3.79 MiB
      Localized functions: 4.71 MiB
      Mixer: 1.56 MiB
    Hamiltonian: 2.95 MiB
      Arrays: 2.82 MiB
      XC: 0.00 MiB
      Poisson: 0.00 MiB
      vbar: 0.14 MiB
    Wavefunctions: 341.80 MiB
      Arrays psit_nG: 311.46 MiB
      Eigensolver: 19.99 MiB
      Projections: 2.71 MiB
      Projectors: 4.87 MiB
      PW-descriptor: 2.77 MiB

Total number of cores used: 64
Parallelization over k-points: 16
Domain decomposition: 2 x 2 x 1

Number of atoms: 28
Number of atomic orbitals: 148
Number of bands in calculation: 112
Number of valence electrons: 180
Bands to converge: occupied

... initialized

Initializing position-dependent things.

Density initialized from atomic densities
Creating initial wave functions:
  112 bands from LCAO basis set

     .-------------------------.  
    /|         OP              |  
   / |O            O        O  |  
  /  |       O            O  P |  
 *   |O    Mn      O           |  
 |   |          OLi          O |  
 |   .P-O--------------Mn------.  
 |  /          Li    O  Mn  O /   
 | /Li O           PO        /    
 |/       Mn                /     
 *Li-----------------------*      

Positions:
   0 O     -1.360678   -2.541161   -1.202221    ( 0.0000,  0.0000,  0.0000)
   1 O     -3.121941    2.976855    1.167242    ( 0.0000,  0.0000,  0.0000)
   2 O      2.107533    0.508090    1.540712    ( 0.0000,  0.0000,  0.0000)
   3 O      3.869373   -0.072395   -0.828750    ( 0.0000,  0.0000,  0.0000)
   4 O      2.107821    2.976875    1.540792    ( 0.0000,  0.0000,  0.0000)
   5 O      3.869084   -2.541141   -0.828671    ( 0.0000,  0.0000,  0.0000)
   6 O     -1.360390   -0.072375   -1.202141    ( 0.0000,  0.0000,  0.0000)
   7 O     -3.122230    0.508109    1.167321    ( 0.0000,  0.0000,  0.0000)
   8 O     -4.413461   -1.306992   -0.794251    ( 0.0000,  0.0000,  0.0000)
   9 O     -0.069585    1.742707    1.575662    ( 0.0000,  0.0000,  0.0000)
  10 O      5.160604    1.742707    1.132822    ( 0.0000,  0.0000,  0.0000)
  11 O      0.816728   -1.306992   -1.237091    ( 0.0000,  0.0000,  0.0000)
  12 Mn    -2.570809   -1.307302    0.247161    ( 0.0000,  0.0000,  1.0000)
  13 Mn    -1.912021    1.743016   -2.122906    ( 0.0000,  0.0000, -1.0000)
  14 Mn     3.317952    1.743017    0.091411    ( 0.0000,  0.0000, -1.0000)
  15 Mn     2.659164   -1.307302    2.461478    ( 0.0000,  0.0000,  1.0000)
  16 P     -0.620664   -1.306816   -1.828465    ( 0.0000,  0.0000,  0.0000)
  17 P     -3.872097    1.742530    0.541238    ( 0.0000,  0.0000,  0.0000)
  18 P      1.367807    1.742530    2.167036    ( 0.0000,  0.0000,  0.0000)
  19 P      4.609240   -1.306816   -0.202666    ( 0.0000,  0.0000,  0.0000)
  20 O     -0.646437   -1.306845    1.374751    ( 0.0000,  0.0000,  0.0000)
  21 O     -3.836504    1.742559   -0.995565    ( 0.0000,  0.0000,  0.0000)
  22 O      1.393580    1.742559   -1.036179    ( 0.0000,  0.0000,  0.0000)
  23 O      4.583647   -1.306845    1.334136    ( 0.0000,  0.0000,  0.0000)
  24 Li    -4.856429   -2.832143   -2.200714    ( 0.0000,  0.0000,  0.0000)
  25 Li     0.373571   -2.832143    0.169286    ( 0.0000,  0.0000,  0.0000)
  26 Li    -4.856429    0.217857   -2.200714    ( 0.0000,  0.0000,  0.0000)
  27 Li     0.373571    0.217857    0.169286    ( 0.0000,  0.0000,  0.0000)

Unit cell:
           periodic     x           y           z      points  spacing
  1. axis:    yes   10.460000    0.000000    0.000000    60     0.1743
  2. axis:    yes    0.000000    6.100000    0.000000    35     0.1743
  3. axis:    yes    0.000000    0.000000    4.740000    27     0.1756

  Lengths:  10.460000   6.100000   4.740000
  Angles:   90.000000  90.000000  90.000000

Effective grid spacing dv^(1/3) = 0.1747

                     log10-error:           total        iterations:
           time      wfs    density  force  energy       poisson  magmom
iter:   1  07:17:54                       -231.912076             +0.0000
iter:   2  07:18:15  -0.55  -0.94         -231.720590             +0.0036
iter:   3  07:18:36  -0.72  -0.98         -220.579399             +0.0046
iter:   4  07:18:58  -0.96  -1.20         -218.851804             +0.0015
iter:   5  07:19:19  -1.95  -1.36         -221.523292             +0.0010
iter:   6  07:19:40  -2.01  -1.48         -220.569113             -0.0473
iter:   7  07:20:02  -1.95  -1.66         -224.527620             +0.3955
iter:   8  07:20:23  -2.50  -1.82         -225.133246             -0.3742
iter:   9  07:20:44  -2.49  -1.84         -226.834245             -0.3988
iter:  10  07:21:05  -2.54  -1.80         -227.194518             -0.1246
iter:  11  07:21:27  -2.73  -1.80         -227.511972             -0.0388
iter:  12  07:21:48  -3.24  -1.79         -227.235710             -0.0136
iter:  13  07:22:09  -1.30  -1.82         -227.629443             -0.0068
iter:  14  07:22:30  -2.22  -1.86         -227.192988             +0.0052
iter:  15  07:22:52  -2.84  -1.88         -227.359336             -1.3250
iter:  16  07:23:13  -2.54  -1.86         -227.690208             -3.2089
iter:  17  07:23:34  -2.12  -1.83         -224.825927             -3.5740
iter:  18  07:23:55  -2.72  -1.96         -224.916656             -3.2327
iter:  19  07:24:17  -3.30  -2.11         -224.790073             -3.6307
iter:  20  07:24:38  -2.77  -2.04         -224.646824             -3.7601
iter:  21  07:24:59  -2.73  -2.11         -225.237129             -2.5095
iter:  22  07:25:20  -2.23  -2.41         -221.642039             -5.7401
iter:  23  07:25:42  -1.88  -2.53         -215.039780             -10.8748
iter:  24  07:26:03  -1.72  -1.93         -223.445190             -3.3321
iter:  25  07:26:24  -1.88  -2.61         -225.608756             +2.8231
iter:  26  07:26:45  -2.96  -2.49         -226.240052             +0.2572
iter:  27  07:27:07  -3.47  -2.59         -226.246072             +0.0196
iter:  28  07:27:28  -3.67  -2.72         -226.244007             -0.0133
iter:  29  07:27:49  -3.45  -2.77         -226.237235             -0.0044
iter:  30  07:28:10  -3.52  -2.87         -226.236181             -0.0034
iter:  31  07:28:32  -3.59  -2.98         -226.228729             -0.0015
iter:  32  07:28:53  -4.33  -3.26         -226.227128             -0.0008
iter:  33  07:29:14  -4.13  -3.33         -226.225680             -0.0002
iter:  34  07:29:35  -5.20  -3.73         -226.225430             -0.0001
iter:  35  07:29:57  -4.92  -3.79         -226.225211             -0.0000
iter:  36  07:30:18  -5.24  -3.82         -226.225178             -0.0000
iter:  37  07:30:39  -6.01  -4.10         -226.225098             -0.0000
iter:  38  07:31:00  -6.94  -4.21         -226.225088             -0.0000
iter:  39  07:31:22  -6.68  -4.26         -226.225097             -0.0000
iter:  40  07:31:43  -6.99  -4.41         -226.225086             -0.0000
iter:  41  07:32:10  -7.44  -4.46         -226.225083             -0.0000
iter:  42  07:32:31  -7.30  -4.51         -226.225083             -0.0000
iter:  43  07:32:52  -7.29  -4.57         -226.225084             -0.0000
iter:  44  07:33:19  -7.78  -4.61    -2.12-226.225086             -0.0000
iter:  45  07:33:45  -7.76  -4.67    -2.86-226.225084             -0.0000
iter:  46  07:34:12  -7.96  -4.79    -3.11-226.225082             -0.0000
iter:  47  07:34:39  -7.53  -4.83    -2.55-226.225080             -0.0000
iter:  48  07:35:06  -8.42  -5.35    -3.33-226.225080             -0.0000
iter:  49  07:35:33  -9.01  -5.45    -3.47-226.225080             -0.0000
iter:  50  07:35:59  -9.22  -5.50    -3.19-226.225080             -0.0000
iter:  51  07:36:26  -9.19  -5.61    -3.50-226.225080             +0.0000
iter:  52  07:36:53  -9.45  -5.73    -3.77-226.225080             +0.0000
iter:  53  07:37:20  -9.43  -5.78    -3.73-226.225080             +0.0000
iter:  54  07:37:46 -10.06  -5.94    -3.94-226.225080             +0.0000
iter:  55  07:38:13 -11.17  -6.19    -4.62-226.225080             +0.0000
iter:  56  07:38:40 -10.34  -6.22    -4.03-226.225080             -0.0000
iter:  57  07:39:07 -11.03  -6.45    -4.43-226.225080             +0.0000
iter:  58  07:39:33 -11.82  -6.65    -4.65-226.225080             +0.0000
iter:  59  07:40:00 -12.09  -6.72    -4.75-226.225080             +0.0000
iter:  60  07:40:27 -11.51  -6.81    -4.78-226.225080             +0.0000
iter:  61  07:40:53 -12.60  -6.96    -5.03-226.225080             +0.0000
iter:  62  07:41:20 -12.11  -7.03    -4.86-226.225080             -0.0000
iter:  63  07:41:47 -13.00  -7.17    -5.66-226.225080             -0.0000
iter:  64  07:42:14 -12.87  -7.21    -5.21-226.225080             -0.0000
iter:  65  07:42:40 -12.86  -7.34    -5.43-226.225080             -0.0000
iter:  66  07:43:07 -12.49  -7.40    -5.21-226.225080             -0.0000
iter:  67  07:43:34 -13.26  -7.79    -5.54-226.225080             -0.0000
iter:  68  07:44:01 -13.83  -8.03    -5.95-226.225080             -0.0000
iter:  69  07:44:27 -13.88  -8.09    -5.65-226.225080             -0.0000
iter:  70  07:44:54 -15.21  -8.24    -6.60-226.225080             -0.0000

Converged after 70 iterations.

Dipole moment: (10.660077, 1.405014, -6.269933) |e|*Ang

Total magnetic moment: (0.000000, 0.000000, -0.000000)
Local magnetic moments:
   0 O  ( 0.000000,  0.000000, -0.000495)
   1 O  ( 0.000000,  0.000000,  0.000716)
   2 O  ( 0.000000,  0.000000,  0.000465)
   3 O  ( 0.000000,  0.000000, -0.000662)
   4 O  ( 0.000000,  0.000000,  0.000445)
   5 O  ( 0.000000,  0.000000, -0.000642)
   6 O  ( 0.000000,  0.000000, -0.000515)
   7 O  ( 0.000000,  0.000000,  0.000736)
   8 O  ( 0.000000,  0.000000,  0.028533)
   9 O  ( 0.000000,  0.000000, -0.028619)
  10 O  ( 0.000000,  0.000000, -0.028405)
  11 O  ( 0.000000,  0.000000,  0.028812)
  12 Mn ( 0.000000,  0.000000,  4.447999)
  13 Mn ( 0.000000,  0.000000, -4.448391)
  14 Mn ( 0.000000,  0.000000, -4.448286)
  15 Mn ( 0.000000,  0.000000,  4.448218)
  16 P  ( 0.000000,  0.000000,  0.001549)
  17 P  ( 0.000000,  0.000000, -0.001680)
  18 P  ( 0.000000,  0.000000, -0.001570)
  19 P  ( 0.000000,  0.000000,  0.001578)
  20 O  ( 0.000000,  0.000000,  0.025297)
  21 O  ( 0.000000,  0.000000, -0.025100)
  22 O  ( 0.000000,  0.000000, -0.025431)
  23 O  ( 0.000000,  0.000000,  0.025282)
  24 Li ( 0.000000,  0.000000,  0.000013)
  25 Li ( 0.000000,  0.000000,  0.000000)
  26 Li ( 0.000000,  0.000000,  0.000013)
  27 Li ( 0.000000,  0.000000,  0.000000)

Energy contributions relative to reference atoms: (reference = -196157.275402)

Kinetic:       +217.387751
Potential:     -195.269795
External:        +0.000000
XC:            -250.384138
Entropy (-ST):   -0.000000
Local:           +2.041101
--------------------------
Free energy:   -226.225080
Extrapolated:  -226.225080

Spin contamination: 9.560162 electrons
Showing only first 2 kpts
                      Up                     Down
 Kpt  Band  Eigenvalues  Occupancy  Eigenvalues  Occupancy
  0    88      5.10933    1.00000      5.09777    1.00000
  0    89      5.14524    1.00000      5.13700    1.00000
  0    90      7.27696    0.00000      7.28774    0.00000
  0    91      7.32005    0.00000      7.31620    0.00000

  1    88      5.13562    1.00000      5.12436    1.00000
  1    89      5.17509    1.00000      5.16688    1.00000
  1    90      7.21802    0.00000      7.22907    0.00000
  1    91      7.25937    0.00000      7.25516    0.00000


Fermi level: 6.13575

Gap: 1.958 eV
Transition (v -> c):
  (s=0, k=69, n=89, [-0.08, 0.42, -0.12]) -> (s=0, k=57, n=90, [-0.08, -0.08, -0.12])
Writing to born-0.01-17x-.gpw (mode='all')

Timing:                              incl.     excl.
-----------------------------------------------------------
Hamiltonian:                         0.252     0.003   0.0% |
 Atomic:                             0.064     0.064   0.0% |
  XC Correction:                     0.000     0.000   0.0% |
 Calculate atomic Hamiltonians:      0.092     0.092   0.0% |
 Communicate:                        0.001     0.001   0.0% |
 Initialize Hamiltonian:             0.000     0.000   0.0% |
 Poisson:                            0.001     0.001   0.0% |
 XC 3D grid:                         0.091     0.091   0.0% |
LCAO initialization:                70.196     0.675   0.0% |
 LCAO eigensolver:                  17.871     0.003   0.0% |
  Calculate projections:             0.029     0.029   0.0% |
  DenseAtomicCorrection:             0.043     0.043   0.0% |
  Distribute overlap matrix:         0.078     0.078   0.0% |
  Orbital Layouts:                   0.279     0.279   0.0% |
  Potential matrix:                 17.352    17.352   0.5% |
  Sum over cells:                    0.087     0.087   0.0% |
 LCAO to grid:                      50.362    50.362   1.4% ||
 Set positions (LCAO WFS):           1.289     0.190   0.0% |
  Basic WFS set positions:           0.001     0.001   0.0% |
  Basis functions set positions:     0.000     0.000   0.0% |
  P tci:                             0.515     0.515   0.0% |
  ST tci:                            0.369     0.369   0.0% |
  mktci:                             0.212     0.212   0.0% |
PWDescriptor:                        0.025     0.025   0.0% |
SCF-cycle:                        1643.422     6.885   0.2% |
 Davidson:                        1406.575   450.028  12.1% |----|
  Apply H:                          94.290    91.523   2.5% ||
   HMM T:                            2.766     2.766   0.1% |
  Subspace diag:                   202.052     0.205   0.0% |
   calc_h_matrix:                  128.746    35.195   0.9% |
    Apply H:                        93.550    90.926   2.4% ||
     HMM T:                          2.625     2.625   0.1% |
   diagonalize:                      7.069     7.069   0.2% |
   rotate_psi:                      66.032    66.032   1.8% ||
  calc. matrices:                  420.536   234.705   6.3% |--|
   Apply H:                        185.831   180.519   4.9% |-|
    HMM T:                           5.312     5.312   0.1% |
  diagonalize:                     108.281   108.281   2.9% ||
  rotate_psi:                      131.388   131.388   3.5% ||
 Density:                           56.594     0.002   0.0% |
  Atomic density matrices:           0.923     0.923   0.0% |
  Mix:                               9.686     9.686   0.3% |
  Multipole moments:                 0.026     0.026   0.0% |
  Pseudo density:                   45.957    45.955   1.2% |
   Symmetrize density:               0.002     0.002   0.0% |
 Forces:                           153.944   153.944   4.1% |-|
 Hamiltonian:                       17.110     0.145   0.0% |
  Atomic:                            3.884     3.884   0.1% |
   XC Correction:                    0.000     0.000   0.0% |
  Calculate atomic Hamiltonians:     6.555     6.555   0.2% |
  Communicate:                       0.029     0.029   0.0% |
  Poisson:                           0.065     0.065   0.0% |
  XC 3D grid:                        6.433     6.433   0.2% |
 Orthonormalize:                     2.314     0.004   0.0% |
  calc_s_matrix:                     0.266     0.266   0.0% |
  inverse-cholesky:                  0.041     0.041   0.0% |
  projections:                       1.505     1.505   0.0% |
  rotate_psi_s:                      0.498     0.498   0.0% |
Set symmetry:                        0.000     0.000   0.0% |
Other:                            2004.475  2004.475  53.9% |---------------------|
-----------------------------------------------------------
Total:                                      3718.369 100.0%

Memory usage: 13.23 GiB
Date: Wed Mar 31 08:18:17 2021
