
  ___ ___ ___ _ _ _  
 |   |   |_  | | | | 
 | | | | | . | | | | 
 |__ |  _|___|_____|  20.10.1b1
 |___|_|             

User:   madkru@g064.nifl.fysik.dtu.dk
Date:   Mon Mar 22 09:49:23 2021
Arch:   x86_64
Pid:    60512
Python: 3.7.4
gpaw:   /home/niflheim/madkru/venv_folder/gpaw/gpaw (d0d1ca1c71)
_gpaw:  /home/niflheim/madkru/venv_folder/gpaw/build/lib.linux-x86_64-sandybridge-3.7/
        _gpaw.cpython-37m-x86_64-linux-gnu.so (4fd39e8b1e)
ase:    /home/niflheim/madkru/venv_folder/ase/ase (version 3.21.0b1-7e6c206a91)
numpy:  /home/niflheim/madkru/venv_folder/lib/python3.7/site-packages/numpy (version 1.19.4)
scipy:  /home/niflheim/madkru/venv_folder/lib/python3.7/site-packages/scipy (version 1.5.4)
libxc:  4.3.4
units:  Angstrom and eV
cores: 32
OMP_NUM_THREADS: 1

Input parameters:
  convergence: {bands: occupied,
                density: 0.0001,
                eigenstates: 4e-08,
                energy: 0.0005,
                forces: 1e-06}
  kpts: [6 6 4]
  mode: {ecut: 600.0,
         gammacentered: False,
         name: pw}
  occupations: {fixmagmom: False,
                name: fermi-dirac,
                width: 0.001}
  symmetry: {point_group: False,
             time_reversal: False}

System changes: positions, numbers, cell, pbc, initial_charges, initial_magmoms 

Initialize ...

O-setup:
  name: Oxygen
  id: 9b9d51c344dea68c822856295a461509
  Z: 8.0
  valence: 6
  core: 2
  charge: 0.0
  file: /home/modules/software/GPAW-setups/0.9.20000/O.LDA.gz
  compensation charges: gauss, rc=0.21, lmax=2
  cutoffs: 1.17(filt), 0.83(core),
  valence states:
                energy  radius
    2s(2.00)   -23.752   0.688
    2p(4.00)    -9.195   0.598
    *s           3.459   0.688
    *p          18.016   0.598
    *d           0.000   0.619

  Using partial waves for O as LCAO basis

Mn-setup:
  name: Manganese
  id: 0d715a8018be061a6e9ea6f2d364ac92
  Z: 25.0
  valence: 15
  core: 10
  charge: 0.0
  file: /home/modules/software/GPAW-setups/0.9.20000/Mn.LDA.gz
  compensation charges: gauss, rc=0.38, lmax=2
  cutoffs: 2.14(filt), 0.86(core),
  valence states:
                energy  radius
    3s(2.00)   -85.387   1.275
    4s(2.00)    -5.282   1.275
    3p(6.00)   -54.493   1.281
    4p(0.00)    -1.471   1.281
    3d(5.00)    -7.009   1.138
    *d          20.203   1.138

  Using partial waves for Mn as LCAO basis

P-setup:
  name: Phosphorus
  id: a5561c299094968922a179ab894d2e2d
  Z: 15.0
  valence: 5
  core: 10
  charge: 0.0
  file: /home/modules/software/GPAW-setups/0.9.20000/P.LDA.gz
  compensation charges: gauss, rc=0.30, lmax=2
  cutoffs: 1.69(filt), 1.81(core),
  valence states:
                energy  radius
    3s(2.00)   -14.015   0.953
    3p(3.00)    -5.596   0.953
    *s          13.197   0.953
    *p          21.615   0.953
    *d           0.000   0.953

  Using partial waves for P as LCAO basis

Li-setup:
  name: Lithium
  id: b73562207f97a71b6967473b66fe8b65
  Z: 3.0
  valence: 1
  core: 2
  charge: 0.0
  file: /home/modules/software/GPAW-setups/0.9.20000/Li.LDA.gz
  compensation charges: gauss, rc=0.33, lmax=2
  cutoffs: 1.91(filt), 2.55(core),
  valence states:
                energy  radius
    2s(1.00)    -2.874   1.058
    2p(0.00)    -1.126   1.058
    *s          24.338   1.058

  Using partial waves for Li as LCAO basis

Reference energy: -196157.275402

Spin-polarized calculation.
Magnetic moment: 0.000000

Convergence criteria:
  Maximum total energy change: 0.0005 eV / electron
  Maximum integral of absolute density change: 0.0001 electrons
  Maximum integral of absolute eigenstate change: 4e-08 eV^2
  Maximum change in atomic force: 1e-06 eV / Ang
  Maximum number of iterations: 333

Symmetries present (total): 1

  ( 1  0  0)
  ( 0  1  0)
  ( 0  0  1)

144 k-points: 6 x 6 x 4 Monkhorst-Pack grid
144 k-points in the irreducible part of the Brillouin zone
       k-points in crystal coordinates                weights
   0:    -0.41666667   -0.41666667   -0.37500000          1/144
   1:    -0.41666667   -0.41666667   -0.12500000          1/144
   2:    -0.41666667   -0.41666667    0.12500000          1/144
   3:    -0.41666667   -0.41666667    0.37500000          1/144
   4:    -0.41666667   -0.25000000   -0.37500000          1/144
   5:    -0.41666667   -0.25000000   -0.12500000          1/144
   6:    -0.41666667   -0.25000000    0.12500000          1/144
   7:    -0.41666667   -0.25000000    0.37500000          1/144
   8:    -0.41666667   -0.08333333   -0.37500000          1/144
   9:    -0.41666667   -0.08333333   -0.12500000          1/144
          ...
 143:     0.41666667    0.41666667    0.37500000          1/144

Wave functions: Plane wave expansion
  Cutoff energy: 600.000 eV
  Number of coefficients (min, max): 10068, 10125
  Pulay-stress correction: 0.000000 eV/Ang^3 (de/decut=0.000000)
  Using FFTW library
  ScaLapack parameters: grid=1x1, blocksize=None
  Wavefunction extrapolation:
    Improved wavefunction reuse through dual PAW basis 

  Fermi-Dirac: width=0.0010 eV

Eigensolver
   Davidson(niter=2, smin=None, normalize=True) 

Densities:
  Coarse grid: 60*35*27 grid
  Fine grid: 120*70*54 grid
  Total Charge: 0.000000 

Density mixing:
  Method: difference
  Backend: pulay
  Linear mixing parameter: 0.05
  Mixing with 5 old densities
  Damping of long wave oscillations: 50 

Hamiltonian:
  XC and Coulomb potentials evaluated on a 120*70*54 grid
  Using the LDA Exchange-Correlation functional
 

Memory estimate:
  Process memory now: 13131.77 MiB
  Calculator: 375.55 MiB
    Density: 20.02 MiB
      Arrays: 7.57 MiB
      Localized functions: 9.42 MiB
      Mixer: 3.03 MiB
    Hamiltonian: 5.90 MiB
      Arrays: 5.62 MiB
      XC: 0.00 MiB
      Poisson: 0.00 MiB
      vbar: 0.27 MiB
    Wavefunctions: 349.64 MiB
      Arrays psit_nG: 311.46 MiB
      Eigensolver: 19.99 MiB
      Projections: 5.41 MiB
      Projectors: 9.73 MiB
      PW-descriptor: 3.03 MiB

Total number of cores used: 32
Parallelization over k-points: 16
Domain decomposition: 2 x 1 x 1

Number of atoms: 28
Number of atomic orbitals: 148
Number of bands in calculation: 112
Number of valence electrons: 180
Bands to converge: occupied

... initialized

Initializing position-dependent things.

Density initialized from atomic densities
Creating initial wave functions:
  112 bands from LCAO basis set

     .-------------------------.  
    /|         OP              |  
   / |O            O        O  |  
  /  |       O            O  P |  
 *   |O    Mn      O           |  
 |   |          OLi          O |  
 |   .P-O--------------Mn------.  
 |  /          Li    O  Mn  O /   
 | /Li O           PO        /    
 |/       Mn                /     
 *Li-----------------------*      

Positions:
   0 O     -1.360678   -2.541161   -1.202221    ( 0.0000,  0.0000,  0.0000)
   1 O     -3.121941    2.976855    1.167242    ( 0.0000,  0.0000,  0.0000)
   2 O      2.107533    0.508090    1.540712    ( 0.0000,  0.0000,  0.0000)
   3 O      3.869373   -0.072395   -0.828750    ( 0.0000,  0.0000,  0.0000)
   4 O      2.107821    2.976875    1.540792    ( 0.0000,  0.0000,  0.0000)
   5 O      3.869084   -2.541141   -0.838671    ( 0.0000,  0.0000,  0.0000)
   6 O     -1.360390   -0.072375   -1.202141    ( 0.0000,  0.0000,  0.0000)
   7 O     -3.122230    0.508109    1.167321    ( 0.0000,  0.0000,  0.0000)
   8 O     -4.413461   -1.306992   -0.794251    ( 0.0000,  0.0000,  0.0000)
   9 O     -0.069585    1.742707    1.575662    ( 0.0000,  0.0000,  0.0000)
  10 O      5.160604    1.742707    1.132822    ( 0.0000,  0.0000,  0.0000)
  11 O      0.816728   -1.306992   -1.237091    ( 0.0000,  0.0000,  0.0000)
  12 Mn    -2.570809   -1.307302    0.247161    ( 0.0000,  0.0000,  1.0000)
  13 Mn    -1.912021    1.743016   -2.122906    ( 0.0000,  0.0000, -1.0000)
  14 Mn     3.317952    1.743017    0.091411    ( 0.0000,  0.0000, -1.0000)
  15 Mn     2.659164   -1.307302    2.461478    ( 0.0000,  0.0000,  1.0000)
  16 P     -0.620664   -1.306816   -1.828465    ( 0.0000,  0.0000,  0.0000)
  17 P     -3.862097    1.742530    0.541238    ( 0.0000,  0.0000,  0.0000)
  18 P      1.367807    1.742530    2.167036    ( 0.0000,  0.0000,  0.0000)
  19 P      4.609240   -1.306816   -0.202666    ( 0.0000,  0.0000,  0.0000)
  20 O     -0.646437   -1.306845    1.374751    ( 0.0000,  0.0000,  0.0000)
  21 O     -3.836504    1.742559   -0.995565    ( 0.0000,  0.0000,  0.0000)
  22 O      1.393580    1.742559   -1.036179    ( 0.0000,  0.0000,  0.0000)
  23 O      4.583647   -1.306845    1.334136    ( 0.0000,  0.0000,  0.0000)
  24 Li    -4.856429   -2.832143   -2.200714    ( 0.0000,  0.0000,  0.0000)
  25 Li     0.373571   -2.832143    0.169286    ( 0.0000,  0.0000,  0.0000)
  26 Li    -4.856429    0.217857   -2.200714    ( 0.0000,  0.0000,  0.0000)
  27 Li     0.373571    0.217857    0.169286    ( 0.0000,  0.0000,  0.0000)

Unit cell:
           periodic     x           y           z      points  spacing
  1. axis:    yes   10.460000    0.000000    0.000000    60     0.1743
  2. axis:    yes    0.000000    6.100000    0.000000    35     0.1743
  3. axis:    yes    0.000000    0.000000    4.740000    27     0.1756

  Lengths:  10.460000   6.100000   4.740000
  Angles:   90.000000  90.000000  90.000000

Effective grid spacing dv^(1/3) = 0.1747

                     log10-error:           total        iterations:
           time      wfs    density  force  energy       poisson  magmom
iter:   1  09:52:22                       -231.921449             +0.0000
iter:   2  09:53:02  -0.55  -0.94         -231.723400             +0.0053
iter:   3  09:53:41  -0.72  -0.98         -220.582171             +0.0067
iter:   4  09:54:21  -0.95  -1.20         -218.861940             +0.0022
iter:   5  09:55:01  -1.92  -1.36         -222.229063             +0.0014
iter:   6  09:55:40  -1.98  -1.44         -220.888280             +0.0007
iter:   7  09:56:20  -2.07  -1.65         -224.244779             +0.0004
iter:   8  09:56:59  -1.86  -1.85         -225.845504             +0.0000
iter:   9  09:57:39  -2.84  -1.82         -226.840690             +0.0000
iter:  10  09:58:18  -2.58  -1.83         -226.809080             +0.0000
iter:  11  09:58:58  -2.08  -1.89         -226.542018             +0.0000
iter:  12  09:59:37  -2.97  -1.98         -226.491048             +0.0000
iter:  13  10:00:17  -1.80  -2.00         -226.579668             +0.0000
iter:  14  10:00:56  -2.75  -2.30         -226.326548             +0.0000
iter:  15  10:01:36  -2.72  -2.51         -226.233927             +0.0000
iter:  16  10:02:15  -3.50  -2.73         -226.239017             +0.0000
iter:  17  10:02:54  -4.17  -2.85         -226.232506             -0.0000
iter:  18  10:03:34  -4.19  -2.92         -226.231526             +0.0000
iter:  19  10:04:13  -4.50  -2.99         -226.231573             +0.0000
iter:  20  10:04:53  -5.07  -3.03         -226.230478             +0.0000
iter:  21  10:05:32  -4.67  -3.10         -226.230362             +0.0000
iter:  22  10:06:12  -4.84  -3.23         -226.230592             +0.0000
iter:  23  10:06:51  -4.23  -3.35         -226.227566             +0.0000
iter:  24  10:07:30  -5.44  -3.86         -226.227562             +0.0000
iter:  25  10:08:10  -6.40  -4.05         -226.227566             -0.0000
iter:  26  10:08:49  -5.56  -4.09         -226.227531             -0.0000
iter:  27  10:09:29  -6.34  -4.11         -226.227523             -0.0000
iter:  28  10:10:08  -6.12  -4.26         -226.227511             -0.0000
iter:  29  10:10:47  -6.39  -4.35         -226.227514             -0.0000
iter:  30  10:11:27  -7.01  -4.45         -226.227507             -0.0000
iter:  31  10:12:17  -7.41  -4.68         -226.227507             -0.0000
iter:  32  10:12:56  -6.94  -4.76         -226.227505             -0.0000
iter:  33  10:13:46  -7.57  -4.96    -2.38-226.227504             -0.0000
iter:  34  10:14:36  -8.03  -5.24    -2.96-226.227504             -0.0000
iter:  35  10:15:26  -8.11  -5.25    -2.97-226.227504             -0.0000
iter:  36  10:16:16  -9.50  -5.57    -3.70-226.227504             -0.0000
iter:  37  10:17:06  -9.12  -5.60    -3.15-226.227504             -0.0000
iter:  38  10:17:56  -9.58  -5.99    -3.60-226.227504             -0.0000
iter:  39  10:18:46 -10.47  -6.24    -4.16-226.227504             -0.0000
iter:  40  10:19:36 -11.32  -6.31    -4.44-226.227504             +0.0000
iter:  41  10:20:26 -11.19  -6.37    -4.41-226.227504             +0.0000
iter:  42  10:21:16 -10.51  -6.43    -4.10-226.227504             +0.0000
iter:  43  10:22:06 -10.54  -6.56    -4.20-226.227504             +0.0000
iter:  44  10:22:56 -11.72  -6.90    -4.90-226.227504             +0.0000
iter:  45  10:23:46 -11.06  -6.95    -4.42-226.227504             -0.0000
iter:  46  10:24:36 -11.93  -7.10    -4.88-226.227504             -0.0000
iter:  47  10:25:26 -12.77  -7.46    -5.47-226.227504             -0.0000
iter:  48  10:26:16 -13.34  -7.54    -5.49-226.227504             -0.0000
iter:  49  10:27:06 -13.11  -7.64    -5.45-226.227504             -0.0000
iter:  50  10:27:56 -13.59  -7.68    -5.76-226.227504             -0.0000
iter:  51  10:28:46 -13.89  -7.75    -5.68-226.227504             -0.0000
iter:  52  10:29:36 -13.91  -7.84    -5.78-226.227504             -0.0000
iter:  53  10:30:26 -14.44  -7.91    -5.77-226.227504             -0.0000
iter:  54  10:31:16 -14.85  -8.06    -6.12-226.227504             +0.0000

Converged after 54 iterations.

Dipole moment: (10.672213, 1.412887, -6.298080) |e|*Ang

Total magnetic moment: (0.000000, 0.000000, 0.000000)
Local magnetic moments:
   0 O  ( 0.000000,  0.000000, -0.000515)
   1 O  ( 0.000000,  0.000000,  0.000544)
   2 O  ( 0.000000,  0.000000,  0.000406)
   3 O  ( 0.000000,  0.000000, -0.000548)
   4 O  ( 0.000000,  0.000000,  0.000562)
   5 O  ( 0.000000,  0.000000, -0.000252)
   6 O  ( 0.000000,  0.000000, -0.000531)
   7 O  ( 0.000000,  0.000000,  0.000566)
   8 O  ( 0.000000,  0.000000,  0.028771)
   9 O  ( 0.000000,  0.000000, -0.028709)
  10 O  ( 0.000000,  0.000000, -0.028640)
  11 O  ( 0.000000,  0.000000,  0.028712)
  12 Mn ( 0.000000,  0.000000,  4.448170)
  13 Mn ( 0.000000,  0.000000, -4.448231)
  14 Mn ( 0.000000,  0.000000, -4.448493)
  15 Mn ( 0.000000,  0.000000,  4.447800)
  16 P  ( 0.000000,  0.000000,  0.001569)
  17 P  ( 0.000000,  0.000000, -0.001536)
  18 P  ( 0.000000,  0.000000, -0.001551)
  19 P  ( 0.000000,  0.000000,  0.001713)
  20 O  ( 0.000000,  0.000000,  0.025318)
  21 O  ( 0.000000,  0.000000, -0.025298)
  22 O  ( 0.000000,  0.000000, -0.025300)
  23 O  ( 0.000000,  0.000000,  0.025285)
  24 Li ( 0.000000,  0.000000,  0.000007)
  25 Li ( 0.000000,  0.000000, -0.000001)
  26 Li ( 0.000000,  0.000000,  0.000000)
  27 Li ( 0.000000,  0.000000,  0.000001)

Energy contributions relative to reference atoms: (reference = -196157.275402)

Kinetic:       +217.107086
Potential:     -195.049797
External:        +0.000000
XC:            -250.326524
Entropy (-ST):   -0.000000
Local:           +2.041731
--------------------------
Free energy:   -226.227504
Extrapolated:  -226.227504

Spin contamination: 9.560287 electrons
Showing only first 2 kpts
                      Up                     Down
 Kpt  Band  Eigenvalues  Occupancy  Eigenvalues  Occupancy
  0    88      5.11240    0.00694      5.10834    0.00694
  0    89      5.13628    0.00694      5.13285    0.00694
  0    90      7.28883    0.00000      7.29077    0.00000
  0    91      7.30657    0.00000      7.30935    0.00000

  1    88      5.13825    0.00694      5.13422    0.00694
  1    89      5.16698    0.00694      5.16355    0.00694
  1    90      7.23159    0.00000      7.23307    0.00000
  1    91      7.24384    0.00000      7.24632    0.00000


Fermi level: 6.11309

Gap: 1.970 eV
Transition (v -> c):
  (s=0, k=50, n=89, [-0.08, -0.42, 0.12]) -> (s=0, k=62, n=90, [-0.08, 0.08, 0.12])
Writing to born-0.01-5z-.gpw (mode='all')

Timing:                              incl.     excl.
-----------------------------------------------------------
Hamiltonian:                         0.412     0.002   0.0% |
 Atomic:                             0.054     0.054   0.0% |
  XC Correction:                     0.000     0.000   0.0% |
 Calculate atomic Hamiltonians:      0.183     0.183   0.0% |
 Communicate:                        0.002     0.002   0.0% |
 Initialize Hamiltonian:             0.000     0.000   0.0% |
 Poisson:                            0.002     0.002   0.0% |
 XC 3D grid:                         0.169     0.169   0.0% |
LCAO initialization:               133.001     0.677   0.0% |
 LCAO eigensolver:                  33.836     0.002   0.0% |
  Calculate projections:             0.056     0.056   0.0% |
  DenseAtomicCorrection:             0.083     0.083   0.0% |
  Distribute overlap matrix:         0.194     0.194   0.0% |
  Orbital Layouts:                   0.365     0.365   0.0% |
  Potential matrix:                 33.048    33.048   0.6% |
  Sum over cells:                    0.088     0.088   0.0% |
 LCAO to grid:                      96.183    96.183   1.6% ||
 Set positions (LCAO WFS):           2.304     0.348   0.0% |
  Basic WFS set positions:           0.001     0.001   0.0% |
  Basis functions set positions:     0.000     0.000   0.0% |
  P tci:                             1.062     1.062   0.0% |
  ST tci:                            0.655     0.655   0.0% |
  mktci:                             0.238     0.238   0.0% |
PWDescriptor:                        0.025     0.025   0.0% |
SCF-cycle:                        2378.058     3.989   0.1% |
 Davidson:                        2021.083   657.226  11.0% |---|
  Apply H:                         142.626   137.607   2.3% ||
   HMM T:                            5.019     5.019   0.1% |
  Subspace diag:                   299.391     0.174   0.0% |
   calc_h_matrix:                  194.506    53.467   0.9% |
    Apply H:                       141.039   136.225   2.3% ||
     HMM T:                          4.815     4.815   0.1% |
   diagonalize:                      6.638     6.638   0.1% |
   rotate_psi:                      98.073    98.073   1.6% ||
  calc. matrices:                  632.205   357.314   6.0% |-|
   Apply H:                        274.891   265.965   4.4% |-|
    HMM T:                           8.926     8.926   0.1% |
  diagonalize:                      90.051    90.051   1.5% ||
  rotate_psi:                      199.585   199.585   3.3% ||
 Density:                           81.590     0.001   0.0% |
  Atomic density matrices:           1.508     1.508   0.0% |
  Mix:                              13.101    13.101   0.2% |
  Multipole moments:                 0.032     0.032   0.0% |
  Pseudo density:                   66.947    66.945   1.1% |
   Symmetrize density:               0.002     0.002   0.0% |
 Forces:                           244.646   244.646   4.1% |-|
 Hamiltonian:                       22.338     0.123   0.0% |
  Atomic:                            2.894     2.894   0.0% |
   XC Correction:                    0.000     0.000   0.0% |
  Calculate atomic Hamiltonians:     9.630     9.630   0.2% |
  Communicate:                       0.102     0.102   0.0% |
  Poisson:                           0.089     0.089   0.0% |
  XC 3D grid:                        9.499     9.499   0.2% |
 Orthonormalize:                     4.412     0.004   0.0% |
  calc_s_matrix:                     0.523     0.523   0.0% |
  inverse-cholesky:                  0.055     0.055   0.0% |
  projections:                       2.898     2.898   0.0% |
  rotate_psi_s:                      0.933     0.933   0.0% |
Set symmetry:                        0.000     0.000   0.0% |
Other:                            3483.621  3483.621  58.1% |----------------------|
-----------------------------------------------------------
Total:                                      5995.118 100.0%

Memory usage: 12.82 GiB
Date: Mon Mar 22 11:29:18 2021
