
  ___ ___ ___ _ _ _  
 |   |   |_  | | | | 
 | | | | | . | | | | 
 |__ |  _|___|_____|  21.1.1b1
 |___|_|             

User:   madkru@i009.nifl.fysik.dtu.dk
Date:   Fri Apr  2 13:35:30 2021
Arch:   x86_64
Pid:    31381
Python: 3.8.6
gpaw:   /home/niflheim/madkru/venv_madkru/gpaw/gpaw (e6f0d78a31)
_gpaw:  /home/niflheim/madkru/venv_madkru/gpaw/build/lib.linux-x86_64-ivybridge-3.8/
        _gpaw.cpython-38-x86_64-linux-gnu.so (e6f0d78a31)
ase:    /home/niflheim/madkru/venv_madkru/ase/ase (version 3.22.0b1-4d5a73cb29)
numpy:  /home/modules/software/SciPy-bundle/2020.11-foss-2020b/lib/python3.8/site-packages/numpy (version 1.19.4)
scipy:  /home/modules/software/SciPy-bundle/2020.11-foss-2020b/lib/python3.8/site-packages/scipy (version 1.5.4)
libxc:  4.3.4
units:  Angstrom and eV
cores: 64
OpenMP: False
OMP_NUM_THREADS: 1

Input parameters:
  convergence: {bands: occupied,
                density: 0.0001,
                eigenstates: 4e-08,
                energy: 0.0005,
                forces: 1e-06}
  kpts: [6 6 4]
  maxiter: 1000
  mode: {ecut: 600.0,
         gammacentered: False,
         name: pw}
  occupations: {fixmagmom: False,
                name: fermi-dirac,
                width: 0.001}
  symmetry: {point_group: False,
             time_reversal: False}

System changes: positions, numbers, cell, pbc, initial_charges, initial_magmoms 

Initialize ...

O-setup:
  name: Oxygen
  id: 9b9d51c344dea68c822856295a461509
  Z: 8.0
  valence: 6
  core: 2
  charge: 0.0
  file: /home/modules/software/GPAW-setups/0.9.20000/O.LDA.gz
  compensation charges: gauss, rc=0.21, lmax=2
  cutoffs: 1.17(filt), 0.83(core),
  valence states:
                energy  radius
    2s(2.00)   -23.752   0.688
    2p(4.00)    -9.195   0.598
    *s           3.459   0.688
    *p          18.016   0.598
    *d           0.000   0.619

  Using partial waves for O as LCAO basis

Mn-setup:
  name: Manganese
  id: 0d715a8018be061a6e9ea6f2d364ac92
  Z: 25.0
  valence: 15
  core: 10
  charge: 0.0
  file: /home/modules/software/GPAW-setups/0.9.20000/Mn.LDA.gz
  compensation charges: gauss, rc=0.38, lmax=2
  cutoffs: 2.14(filt), 0.86(core),
  valence states:
                energy  radius
    3s(2.00)   -85.387   1.275
    4s(2.00)    -5.282   1.275
    3p(6.00)   -54.493   1.281
    4p(0.00)    -1.471   1.281
    3d(5.00)    -7.009   1.138
    *d          20.203   1.138

  Using partial waves for Mn as LCAO basis

P-setup:
  name: Phosphorus
  id: a5561c299094968922a179ab894d2e2d
  Z: 15.0
  valence: 5
  core: 10
  charge: 0.0
  file: /home/modules/software/GPAW-setups/0.9.20000/P.LDA.gz
  compensation charges: gauss, rc=0.30, lmax=2
  cutoffs: 1.69(filt), 1.81(core),
  valence states:
                energy  radius
    3s(2.00)   -14.015   0.953
    3p(3.00)    -5.596   0.953
    *s          13.197   0.953
    *p          21.615   0.953
    *d           0.000   0.953

  Using partial waves for P as LCAO basis

Li-setup:
  name: Lithium
  id: b73562207f97a71b6967473b66fe8b65
  Z: 3.0
  valence: 1
  core: 2
  charge: 0.0
  file: /home/modules/software/GPAW-setups/0.9.20000/Li.LDA.gz
  compensation charges: gauss, rc=0.33, lmax=2
  cutoffs: 1.91(filt), 2.55(core),
  valence states:
                energy  radius
    2s(1.00)    -2.874   1.058
    2p(0.00)    -1.126   1.058
    *s          24.338   1.058

  Using partial waves for Li as LCAO basis

Reference energy: -196157.275402

Spin-polarized calculation.
Magnetic moment: 0.000000

Convergence criteria:
  Maximum total energy change: 0.0005 eV / electron
  Maximum integral of absolute density change: 0.0001 electrons
  Maximum integral of absolute eigenstate change: 4e-08 eV^2
  Maximum change in atomic force: 1e-06 eV / Ang
  Maximum number of iterations: 1000

Symmetries present (total): 1

  ( 1  0  0)
  ( 0  1  0)
  ( 0  0  1)

144 k-points: 6 x 6 x 4 Monkhorst-Pack grid
144 k-points in the irreducible part of the Brillouin zone
       k-points in crystal coordinates                weights
   0:    -0.41666667   -0.41666667   -0.37500000          1/144
   1:    -0.41666667   -0.41666667   -0.12500000          1/144
   2:    -0.41666667   -0.41666667    0.12500000          1/144
   3:    -0.41666667   -0.41666667    0.37500000          1/144
   4:    -0.41666667   -0.25000000   -0.37500000          1/144
   5:    -0.41666667   -0.25000000   -0.12500000          1/144
   6:    -0.41666667   -0.25000000    0.12500000          1/144
   7:    -0.41666667   -0.25000000    0.37500000          1/144
   8:    -0.41666667   -0.08333333   -0.37500000          1/144
   9:    -0.41666667   -0.08333333   -0.12500000          1/144
          ...
 143:     0.41666667    0.41666667    0.37500000          1/144

Wave functions: Plane wave expansion
  Cutoff energy: 600.000 eV
  Number of coefficients (min, max): 10068, 10125
  Pulay-stress correction: 0.000000 eV/Ang^3 (de/decut=0.000000)
  Using FFTW library
  ScaLapack parameters: grid=1x1, blocksize=None
  Wavefunction extrapolation:
    Improved wavefunction reuse through dual PAW basis 

  Fermi-Dirac: width=0.0010 eV

Eigensolver
   Davidson(niter=2) 

Densities:
  Coarse grid: 60*35*27 grid
  Fine grid: 120*70*54 grid
  Total Charge: 0.000000 

Density mixing:
  Method: difference
  Backend: pulay
  Linear mixing parameter: 0.05
  Mixing with 5 old densities
  Damping of long wave oscillations: 50 

Hamiltonian:
  XC and Coulomb potentials evaluated on a 120*70*54 grid
  Using the LDA Exchange-Correlation functional
 

Memory estimate:
  Process memory now: 12993.08 MiB
  Calculator: 354.82 MiB
    Density: 10.06 MiB
      Arrays: 3.79 MiB
      Localized functions: 4.71 MiB
      Mixer: 1.56 MiB
    Hamiltonian: 2.95 MiB
      Arrays: 2.82 MiB
      XC: 0.00 MiB
      Poisson: 0.00 MiB
      vbar: 0.14 MiB
    Wavefunctions: 341.80 MiB
      Arrays psit_nG: 311.46 MiB
      Eigensolver: 19.99 MiB
      Projections: 2.71 MiB
      Projectors: 4.87 MiB
      PW-descriptor: 2.77 MiB

Total number of cores used: 64
Parallelization over k-points: 16
Domain decomposition: 2 x 2 x 1

Number of atoms: 28
Number of atomic orbitals: 148
Number of bands in calculation: 112
Number of valence electrons: 180
Bands to converge: occupied

... initialized

Initializing position-dependent things.

Density initialized from atomic densities
Creating initial wave functions:
  112 bands from LCAO basis set

     .-------------------------.  
    /|         OP              |  
   / |O            O        O  |  
  /  |       O            O  P |  
 *   |O    Mn      O           |  
 |   |          OLi          O |  
 |   .P-O--------------Mn------.  
 |  /          Li    O  Mn  O /   
 | /Li O           PO        /    
 |/       Mn                /     
 *Li-----------------------*      

Positions:
   0 O     -1.360678   -2.541161   -1.202221    ( 0.0000,  0.0000,  0.0000)
   1 O     -3.121941    2.976855    1.167242    ( 0.0000,  0.0000,  0.0000)
   2 O      2.107533    0.508090    1.540712    ( 0.0000,  0.0000,  0.0000)
   3 O      3.869373   -0.072395   -0.828750    ( 0.0000,  0.0000,  0.0000)
   4 O      2.107821    2.976875    1.540792    ( 0.0000,  0.0000,  0.0000)
   5 O      3.869084   -2.541141   -0.828671    ( 0.0000,  0.0000,  0.0000)
   6 O     -1.360390   -0.072375   -1.202141    ( 0.0000,  0.0000,  0.0000)
   7 O     -3.122230    0.508109    1.167321    ( 0.0000,  0.0000,  0.0000)
   8 O     -4.413461   -1.306992   -0.794251    ( 0.0000,  0.0000,  0.0000)
   9 O     -0.069585    1.742707    1.575662    ( 0.0000,  0.0000,  0.0000)
  10 O      5.160604    1.742707    1.132822    ( 0.0000,  0.0000,  0.0000)
  11 O      0.816728   -1.306992   -1.237091    ( 0.0000,  0.0000,  0.0000)
  12 Mn    -2.570809   -1.307302    0.247161    ( 0.0000,  0.0000,  1.0000)
  13 Mn    -1.912021    1.743016   -2.122906    ( 0.0000,  0.0000, -1.0000)
  14 Mn     3.317952    1.743017    0.091411    ( 0.0000,  0.0000, -1.0000)
  15 Mn     2.659164   -1.307302    2.461478    ( 0.0000,  0.0000,  1.0000)
  16 P     -0.620664   -1.306816   -1.828465    ( 0.0000,  0.0000,  0.0000)
  17 P     -3.862097    1.742530    0.541238    ( 0.0000,  0.0000,  0.0000)
  18 P      1.367807    1.742530    2.167036    ( 0.0000,  0.0000,  0.0000)
  19 P      4.609240   -1.306816   -0.202666    ( 0.0000,  0.0000,  0.0000)
  20 O     -0.646437   -1.306845    1.374751    ( 0.0000,  0.0000,  0.0000)
  21 O     -3.836504    1.742559   -0.995565    ( 0.0000,  0.0000,  0.0000)
  22 O      1.393580    1.742559   -1.036179    ( 0.0000,  0.0000,  0.0000)
  23 O      4.583647   -1.306845    1.334136    ( 0.0000,  0.0000,  0.0000)
  24 Li    -4.856429   -2.832143   -2.200714    ( 0.0000,  0.0000,  0.0000)
  25 Li     0.373571   -2.832143    0.169286    ( 0.0000,  0.0000,  0.0000)
  26 Li    -4.856429    0.217857   -2.200714    ( 0.0000,  0.0000,  0.0000)
  27 Li     0.373571    0.227857    0.169286    ( 0.0000,  0.0000,  0.0000)

Unit cell:
           periodic     x           y           z      points  spacing
  1. axis:    yes   10.460000    0.000000    0.000000    60     0.1743
  2. axis:    yes    0.000000    6.100000    0.000000    35     0.1743
  3. axis:    yes    0.000000    0.000000    4.740000    27     0.1756

  Lengths:  10.460000   6.100000   4.740000
  Angles:   90.000000  90.000000  90.000000

Effective grid spacing dv^(1/3) = 0.1747

                     log10-error:           total        iterations:
           time      wfs    density  force  energy       poisson  magmom
iter:   1  13:36:59                       -231.920366             +0.0000
iter:   2  13:37:20  -0.55  -0.94         -231.731174             +0.0256
iter:   3  13:37:41  -0.73  -0.98         -220.597873             +0.0320
iter:   4  13:38:02  -0.92  -1.20         -218.923462             +0.2998
iter:   5  13:38:22  -1.96  -1.36         -221.901077             +0.1437
iter:   6  13:38:43  -2.13  -1.37         -220.470148             +0.0862
iter:   7  13:39:04  -1.98  -1.57         -224.126603             +0.0416
iter:   8  13:39:24  -2.21  -1.74         -225.820529             -1.4407
iter:   9  13:39:45  -2.27  -1.81         -226.615695             -0.5398
iter:  10  13:40:06  -2.05  -1.89         -226.703155             +0.0071
iter:  11  13:40:26  -2.66  -1.99         -226.426897             -0.0140
iter:  12  13:40:47  -2.24  -2.11         -226.313386             -0.0042
iter:  13  13:41:08  -3.02  -2.43         -226.251190             -0.0048
iter:  14  13:41:28  -3.27  -2.57         -226.240037             -0.0012
iter:  15  13:41:49  -3.34  -2.70         -226.233018             -0.0005
iter:  16  13:42:10  -4.21  -3.10         -226.233608             -0.0002
iter:  17  13:42:30  -4.81  -3.18         -226.230154             +0.0001
iter:  18  13:42:51  -4.43  -3.27         -226.228335             -0.0000
iter:  19  13:43:12  -4.59  -3.37         -226.228185             +0.0001
iter:  20  13:43:32  -5.30  -3.50         -226.228193             -0.0000
iter:  21  13:43:53  -4.58  -3.54         -226.228417             -0.0000
iter:  22  13:44:14  -5.37  -3.63         -226.227985             -0.0000
iter:  23  13:44:34  -5.49  -3.86         -226.227930             -0.0000
iter:  24  13:44:55  -6.09  -4.01         -226.227932             -0.0000
iter:  25  13:45:16  -6.95  -4.52         -226.227910             -0.0000
iter:  26  13:45:36  -7.02  -4.62         -226.227900             -0.0000
iter:  27  13:46:02  -7.86  -4.73         -226.227900             -0.0000
iter:  28  13:46:28  -7.86  -4.82    -2.81-226.227899             -0.0000
iter:  29  13:46:54  -8.17  -4.89    -3.05-226.227898             +0.0000
iter:  30  13:47:20  -7.75  -4.94    -2.76-226.227898             +0.0000
iter:  31  13:47:46  -8.49  -5.03    -3.15-226.227898             +0.0000
iter:  32  13:48:12  -9.29  -5.05    -3.34-226.227898             +0.0000
iter:  33  13:48:37  -8.34  -5.09    -2.97-226.227898             +0.0000
iter:  34  13:49:03  -8.59  -5.26    -3.22-226.227897             +0.0000
iter:  35  13:49:29  -9.24  -5.30    -3.47-226.227897             +0.0000
iter:  36  13:49:55  -8.66  -5.33    -3.21-226.227897             +0.0000
iter:  37  13:50:21  -8.70  -5.49    -3.31-226.227897             +0.0000
iter:  38  13:50:47  -9.94  -5.72    -3.78-226.227897             +0.0000
iter:  39  13:51:13 -10.61  -5.75    -3.79-226.227897             +0.0000
iter:  40  13:51:39  -9.47  -5.81    -3.63-226.227897             +0.0000
iter:  41  13:52:04 -10.73  -6.01    -3.99-226.227897             +0.0000
iter:  42  13:52:30 -10.56  -6.07    -4.21-226.227897             +0.0000
iter:  43  13:52:56  -9.76  -6.13    -3.88-226.227897             -0.0000
iter:  44  13:53:22 -10.30  -6.29    -4.23-226.227897             +0.0000
iter:  45  13:53:48 -10.60  -6.45    -4.18-226.227897             -0.0000
iter:  46  13:54:14 -10.85  -6.41    -3.95-226.227897             +0.0000
iter:  47  13:54:40 -11.98  -6.78    -4.67-226.227897             +0.0000
iter:  48  13:55:06 -11.77  -6.92    -4.49-226.227897             +0.0000
iter:  49  13:55:31 -11.86  -6.99    -4.48-226.227897             +0.0000
iter:  50  13:55:57 -11.79  -7.03    -4.53-226.227897             +0.0000
iter:  51  13:56:23 -12.79  -7.20    -4.87-226.227897             +0.0000
iter:  52  13:56:49 -12.84  -7.46    -5.25-226.227897             +0.0000
iter:  53  13:57:15 -13.00  -7.56    -5.30-226.227897             +0.0000
iter:  54  13:57:41 -13.53  -7.65    -5.80-226.227897             +0.0000
iter:  55  13:58:07 -13.90  -7.70    -5.71-226.227897             +0.0000
iter:  56  13:58:33 -13.98  -7.73    -5.37-226.227897             +0.0000
iter:  57  13:58:58 -14.26  -7.79    -5.94-226.227897             +0.0000
iter:  58  13:59:24 -14.53  -7.87    -6.14-226.227897             +0.0000

Converged after 58 iterations.

Dipole moment: (10.671881, 1.363054, -6.269587) |e|*Ang

Total magnetic moment: (0.000000, 0.000000, 0.000000)
Local magnetic moments:
   0 O  ( 0.000000,  0.000000, -0.000546)
   1 O  ( 0.000000,  0.000000,  0.000516)
   2 O  ( 0.000000,  0.000000,  0.000487)
   3 O  ( 0.000000,  0.000000, -0.000573)
   4 O  ( 0.000000,  0.000000,  0.000490)
   5 O  ( 0.000000,  0.000000, -0.000551)
   6 O  ( 0.000000,  0.000000, -0.000589)
   7 O  ( 0.000000,  0.000000,  0.000534)
   8 O  ( 0.000000,  0.000000,  0.028670)
   9 O  ( 0.000000,  0.000000, -0.028646)
  10 O  ( 0.000000,  0.000000, -0.028715)
  11 O  ( 0.000000,  0.000000,  0.028757)
  12 Mn ( 0.000000,  0.000000,  4.448175)
  13 Mn ( 0.000000,  0.000000, -4.448166)
  14 Mn ( 0.000000,  0.000000, -4.448148)
  15 Mn ( 0.000000,  0.000000,  4.448314)
  16 P  ( 0.000000,  0.000000,  0.001558)
  17 P  ( 0.000000,  0.000000, -0.001540)
  18 P  ( 0.000000,  0.000000, -0.001557)
  19 P  ( 0.000000,  0.000000,  0.001547)
  20 O  ( 0.000000,  0.000000,  0.025338)
  21 O  ( 0.000000,  0.000000, -0.025318)
  22 O  ( 0.000000,  0.000000, -0.025291)
  23 O  ( 0.000000,  0.000000,  0.025294)
  24 Li ( 0.000000,  0.000000,  0.000000)
  25 Li ( 0.000000,  0.000000,  0.000001)
  26 Li ( 0.000000,  0.000000,  0.000000)
  27 Li ( 0.000000,  0.000000, -0.000008)

Energy contributions relative to reference atoms: (reference = -196157.275402)

Kinetic:       +217.352600
Potential:     -195.237510
External:        +0.000000
XC:            -250.384143
Entropy (-ST):   -0.000000
Local:           +2.041156
--------------------------
Free energy:   -226.227897
Extrapolated:  -226.227897

Spin contamination: 9.560410 electrons
Showing only first 2 kpts
                      Up                     Down
 Kpt  Band  Eigenvalues  Occupancy  Eigenvalues  Occupancy
  0    88      5.11133    1.00000      5.10842    1.00000
  0    89      5.13598    1.00000      5.13279    1.00000
  0    90      7.28709    0.00000      7.29017    0.00000
  0    91      7.30497    0.00000      7.30777    0.00000

  1    88      5.13713    1.00000      5.13408    1.00000
  1    89      5.16645    1.00000      5.16322    1.00000
  1    90      7.22991    0.00000      7.23293    0.00000
  1    91      7.24229    0.00000      7.24506    0.00000


Fermi level: 6.49643

Gap: 1.969 eV
Transition (v -> c):
  (s=0, k=74, n=89, [0.08, -0.42, 0.12]) -> (s=0, k=61, n=90, [-0.08, 0.08, -0.12])
Writing to born-0.01-27y+.gpw (mode='all')

Timing:                              incl.     excl.
-----------------------------------------------------------
Hamiltonian:                         0.226     0.003   0.0% |
 Atomic:                             0.055     0.055   0.0% |
  XC Correction:                     0.000     0.000   0.0% |
 Calculate atomic Hamiltonians:      0.084     0.084   0.0% |
 Communicate:                        0.000     0.000   0.0% |
 Initialize Hamiltonian:             0.000     0.000   0.0% |
 Poisson:                            0.001     0.001   0.0% |
 XC 3D grid:                         0.083     0.083   0.0% |
LCAO initialization:                64.808     0.649   0.0% |
 LCAO eigensolver:                  16.719     0.002   0.0% |
  Calculate projections:             0.029     0.029   0.0% |
  DenseAtomicCorrection:             0.046     0.046   0.0% |
  Distribute overlap matrix:         0.005     0.005   0.0% |
  Orbital Layouts:                   0.263     0.263   0.0% |
  Potential matrix:                 16.278    16.278   0.5% |
  Sum over cells:                    0.096     0.096   0.0% |
 LCAO to grid:                      46.149    46.149   1.4% ||
 Set positions (LCAO WFS):           1.290     0.179   0.0% |
  Basic WFS set positions:           0.002     0.002   0.0% |
  Basis functions set positions:     0.000     0.000   0.0% |
  P tci:                             0.506     0.506   0.0% |
  ST tci:                            0.363     0.363   0.0% |
  mktci:                             0.241     0.241   0.0% |
PWDescriptor:                        0.023     0.023   0.0% |
SCF-cycle:                        1368.281     2.328   0.1% |
 Davidson:                        1141.266   365.329  10.7% |---|
  Apply H:                          75.629    73.394   2.2% ||
   HMM T:                            2.235     2.235   0.1% |
  Subspace diag:                   163.451     0.165   0.0% |
   calc_h_matrix:                  103.597    28.924   0.8% |
    Apply H:                        74.674    72.578   2.1% ||
     HMM T:                          2.096     2.096   0.1% |
   diagonalize:                      5.927     5.927   0.2% |
   rotate_psi:                      53.761    53.761   1.6% ||
  calc. matrices:                  341.692   193.891   5.7% |-|
   Apply H:                        147.802   143.646   4.2% |-|
    HMM T:                           4.155     4.155   0.1% |
  diagonalize:                      87.054    87.054   2.6% ||
  rotate_psi:                      108.112   108.112   3.2% ||
 Density:                           43.628     0.001   0.0% |
  Atomic density matrices:           0.757     0.757   0.0% |
  Mix:                               7.158     7.158   0.2% |
  Multipole moments:                 0.022     0.022   0.0% |
  Pseudo density:                   35.690    35.688   1.0% |
   Symmetrize density:               0.002     0.002   0.0% |
 Forces:                           165.993   165.993   4.9% |-|
 Hamiltonian:                       12.796     0.119   0.0% |
  Atomic:                            2.999     2.999   0.1% |
   XC Correction:                    0.000     0.000   0.0% |
  Calculate atomic Hamiltonians:     4.784     4.784   0.1% |
  Communicate:                       0.032     0.032   0.0% |
  Poisson:                           0.043     0.043   0.0% |
  XC 3D grid:                        4.819     4.819   0.1% |
 Orthonormalize:                     2.270     0.003   0.0% |
  calc_s_matrix:                     0.265     0.265   0.0% |
  inverse-cholesky:                  0.039     0.039   0.0% |
  projections:                       1.479     1.479   0.0% |
  rotate_psi_s:                      0.483     0.483   0.0% |
Set symmetry:                        0.000     0.000   0.0% |
Other:                            1974.009  1974.009  57.9% |----------------------|
-----------------------------------------------------------
Total:                                      3407.348 100.0%

Memory usage: 12.70 GiB
Date: Fri Apr  2 14:32:17 2021
