
  ___ ___ ___ _ _ _  
 |   |   |_  | | | | 
 | | | | | . | | | | 
 |__ |  _|___|_____|  21.1.1b1
 |___|_|             

User:   madkru@g043.nifl.fysik.dtu.dk
Date:   Tue Mar 30 05:12:07 2021
Arch:   x86_64
Pid:    39387
Python: 3.8.6
gpaw:   /home/niflheim/madkru/venv_madkru/gpaw/gpaw (e6f0d78a31)
_gpaw:  /home/niflheim/madkru/venv_madkru/gpaw/build/lib.linux-x86_64-sandybridge-3.8/
        _gpaw.cpython-38-x86_64-linux-gnu.so (e6f0d78a31)
ase:    /home/niflheim/madkru/venv_madkru/ase/ase (version 3.22.0b1-4d5a73cb29)
numpy:  /home/modules/software/SciPy-bundle/2020.11-foss-2020b/lib/python3.8/site-packages/numpy (version 1.19.4)
scipy:  /home/modules/software/SciPy-bundle/2020.11-foss-2020b/lib/python3.8/site-packages/scipy (version 1.5.4)
libxc:  4.3.4
units:  Angstrom and eV
cores: 64
OpenMP: False
OMP_NUM_THREADS: 1

Input parameters:
  convergence: {bands: occupied,
                density: 0.0001,
                eigenstates: 4e-08,
                energy: 0.0005,
                forces: 1e-06}
  kpts: [6 6 4]
  maxiter: 1000
  mode: {ecut: 600.0,
         gammacentered: False,
         name: pw}
  occupations: {fixmagmom: False,
                name: fermi-dirac,
                width: 0.001}
  symmetry: {point_group: False,
             time_reversal: False}

System changes: positions, numbers, cell, pbc, initial_charges, initial_magmoms 

Initialize ...

O-setup:
  name: Oxygen
  id: 9b9d51c344dea68c822856295a461509
  Z: 8.0
  valence: 6
  core: 2
  charge: 0.0
  file: /home/modules/software/GPAW-setups/0.9.20000/O.LDA.gz
  compensation charges: gauss, rc=0.21, lmax=2
  cutoffs: 1.17(filt), 0.83(core),
  valence states:
                energy  radius
    2s(2.00)   -23.752   0.688
    2p(4.00)    -9.195   0.598
    *s           3.459   0.688
    *p          18.016   0.598
    *d           0.000   0.619

  Using partial waves for O as LCAO basis

Mn-setup:
  name: Manganese
  id: 0d715a8018be061a6e9ea6f2d364ac92
  Z: 25.0
  valence: 15
  core: 10
  charge: 0.0
  file: /home/modules/software/GPAW-setups/0.9.20000/Mn.LDA.gz
  compensation charges: gauss, rc=0.38, lmax=2
  cutoffs: 2.14(filt), 0.86(core),
  valence states:
                energy  radius
    3s(2.00)   -85.387   1.275
    4s(2.00)    -5.282   1.275
    3p(6.00)   -54.493   1.281
    4p(0.00)    -1.471   1.281
    3d(5.00)    -7.009   1.138
    *d          20.203   1.138

  Using partial waves for Mn as LCAO basis

P-setup:
  name: Phosphorus
  id: a5561c299094968922a179ab894d2e2d
  Z: 15.0
  valence: 5
  core: 10
  charge: 0.0
  file: /home/modules/software/GPAW-setups/0.9.20000/P.LDA.gz
  compensation charges: gauss, rc=0.30, lmax=2
  cutoffs: 1.69(filt), 1.81(core),
  valence states:
                energy  radius
    3s(2.00)   -14.015   0.953
    3p(3.00)    -5.596   0.953
    *s          13.197   0.953
    *p          21.615   0.953
    *d           0.000   0.953

  Using partial waves for P as LCAO basis

Li-setup:
  name: Lithium
  id: b73562207f97a71b6967473b66fe8b65
  Z: 3.0
  valence: 1
  core: 2
  charge: 0.0
  file: /home/modules/software/GPAW-setups/0.9.20000/Li.LDA.gz
  compensation charges: gauss, rc=0.33, lmax=2
  cutoffs: 1.91(filt), 2.55(core),
  valence states:
                energy  radius
    2s(1.00)    -2.874   1.058
    2p(0.00)    -1.126   1.058
    *s          24.338   1.058

  Using partial waves for Li as LCAO basis

Reference energy: -196157.275402

Spin-polarized calculation.
Magnetic moment: 0.000000

Convergence criteria:
  Maximum total energy change: 0.0005 eV / electron
  Maximum integral of absolute density change: 0.0001 electrons
  Maximum integral of absolute eigenstate change: 4e-08 eV^2
  Maximum change in atomic force: 1e-06 eV / Ang
  Maximum number of iterations: 1000

Symmetries present (total): 1

  ( 1  0  0)
  ( 0  1  0)
  ( 0  0  1)

144 k-points: 6 x 6 x 4 Monkhorst-Pack grid
144 k-points in the irreducible part of the Brillouin zone
       k-points in crystal coordinates                weights
   0:    -0.41666667   -0.41666667   -0.37500000          1/144
   1:    -0.41666667   -0.41666667   -0.12500000          1/144
   2:    -0.41666667   -0.41666667    0.12500000          1/144
   3:    -0.41666667   -0.41666667    0.37500000          1/144
   4:    -0.41666667   -0.25000000   -0.37500000          1/144
   5:    -0.41666667   -0.25000000   -0.12500000          1/144
   6:    -0.41666667   -0.25000000    0.12500000          1/144
   7:    -0.41666667   -0.25000000    0.37500000          1/144
   8:    -0.41666667   -0.08333333   -0.37500000          1/144
   9:    -0.41666667   -0.08333333   -0.12500000          1/144
          ...
 143:     0.41666667    0.41666667    0.37500000          1/144

Wave functions: Plane wave expansion
  Cutoff energy: 600.000 eV
  Number of coefficients (min, max): 10068, 10125
  Pulay-stress correction: 0.000000 eV/Ang^3 (de/decut=0.000000)
  Using FFTW library
  ScaLapack parameters: grid=1x1, blocksize=None
  Wavefunction extrapolation:
    Improved wavefunction reuse through dual PAW basis 

  Fermi-Dirac: width=0.0010 eV

Eigensolver
   Davidson(niter=2) 

Densities:
  Coarse grid: 60*35*27 grid
  Fine grid: 120*70*54 grid
  Total Charge: 0.000000 

Density mixing:
  Method: difference
  Backend: pulay
  Linear mixing parameter: 0.05
  Mixing with 5 old densities
  Damping of long wave oscillations: 50 

Hamiltonian:
  XC and Coulomb potentials evaluated on a 120*70*54 grid
  Using the LDA Exchange-Correlation functional
 

Memory estimate:
  Process memory now: 12293.06 MiB
  Calculator: 354.82 MiB
    Density: 10.06 MiB
      Arrays: 3.79 MiB
      Localized functions: 4.71 MiB
      Mixer: 1.56 MiB
    Hamiltonian: 2.95 MiB
      Arrays: 2.82 MiB
      XC: 0.00 MiB
      Poisson: 0.00 MiB
      vbar: 0.14 MiB
    Wavefunctions: 341.80 MiB
      Arrays psit_nG: 311.46 MiB
      Eigensolver: 19.99 MiB
      Projections: 2.71 MiB
      Projectors: 4.87 MiB
      PW-descriptor: 2.77 MiB

Total number of cores used: 64
Parallelization over k-points: 16
Domain decomposition: 2 x 2 x 1

Number of atoms: 28
Number of atomic orbitals: 148
Number of bands in calculation: 112
Number of valence electrons: 180
Bands to converge: occupied

... initialized

Initializing position-dependent things.

Density initialized from atomic densities
Creating initial wave functions:
  112 bands from LCAO basis set

     .-------------------------.  
    /|         OP              |  
   / |O            O        O  |  
  /  |       O            O  P |  
 *   |O    Mn      O           |  
 |   |          OLi          O |  
 |   .P-O--------------Mn------.  
 |  /          Li    O  Mn  O /   
 | /Li O           PO        /    
 |/       Mn                /     
 *Li-----------------------*      

Positions:
   0 O     -1.360678   -2.541161   -1.202221    ( 0.0000,  0.0000,  0.0000)
   1 O     -3.121941    2.976855    1.167242    ( 0.0000,  0.0000,  0.0000)
   2 O      2.107533    0.508090    1.540712    ( 0.0000,  0.0000,  0.0000)
   3 O      3.869373   -0.072395   -0.828750    ( 0.0000,  0.0000,  0.0000)
   4 O      2.107821    2.976875    1.540792    ( 0.0000,  0.0000,  0.0000)
   5 O      3.869084   -2.541141   -0.828671    ( 0.0000,  0.0000,  0.0000)
   6 O     -1.360390   -0.072375   -1.202141    ( 0.0000,  0.0000,  0.0000)
   7 O     -3.122230    0.508109    1.167321    ( 0.0000,  0.0000,  0.0000)
   8 O     -4.413461   -1.306992   -0.794251    ( 0.0000,  0.0000,  0.0000)
   9 O     -0.069585    1.752707    1.575662    ( 0.0000,  0.0000,  0.0000)
  10 O      5.160604    1.742707    1.132822    ( 0.0000,  0.0000,  0.0000)
  11 O      0.816728   -1.306992   -1.237091    ( 0.0000,  0.0000,  0.0000)
  12 Mn    -2.570809   -1.307302    0.247161    ( 0.0000,  0.0000,  1.0000)
  13 Mn    -1.912021    1.743016   -2.122906    ( 0.0000,  0.0000, -1.0000)
  14 Mn     3.317952    1.743017    0.091411    ( 0.0000,  0.0000, -1.0000)
  15 Mn     2.659164   -1.307302    2.461478    ( 0.0000,  0.0000,  1.0000)
  16 P     -0.620664   -1.306816   -1.828465    ( 0.0000,  0.0000,  0.0000)
  17 P     -3.862097    1.742530    0.541238    ( 0.0000,  0.0000,  0.0000)
  18 P      1.367807    1.742530    2.167036    ( 0.0000,  0.0000,  0.0000)
  19 P      4.609240   -1.306816   -0.202666    ( 0.0000,  0.0000,  0.0000)
  20 O     -0.646437   -1.306845    1.374751    ( 0.0000,  0.0000,  0.0000)
  21 O     -3.836504    1.742559   -0.995565    ( 0.0000,  0.0000,  0.0000)
  22 O      1.393580    1.742559   -1.036179    ( 0.0000,  0.0000,  0.0000)
  23 O      4.583647   -1.306845    1.334136    ( 0.0000,  0.0000,  0.0000)
  24 Li    -4.856429   -2.832143   -2.200714    ( 0.0000,  0.0000,  0.0000)
  25 Li     0.373571   -2.832143    0.169286    ( 0.0000,  0.0000,  0.0000)
  26 Li    -4.856429    0.217857   -2.200714    ( 0.0000,  0.0000,  0.0000)
  27 Li     0.373571    0.217857    0.169286    ( 0.0000,  0.0000,  0.0000)

Unit cell:
           periodic     x           y           z      points  spacing
  1. axis:    yes   10.460000    0.000000    0.000000    60     0.1743
  2. axis:    yes    0.000000    6.100000    0.000000    35     0.1743
  3. axis:    yes    0.000000    0.000000    4.740000    27     0.1756

  Lengths:  10.460000   6.100000   4.740000
  Angles:   90.000000  90.000000  90.000000

Effective grid spacing dv^(1/3) = 0.1747

                     log10-error:           total        iterations:
           time      wfs    density  force  energy       poisson  magmom
iter:   1  05:13:42                       -231.920203             +0.0000
iter:   2  05:14:03  -0.55  -0.94         -231.730817             +0.0052
iter:   3  05:14:24  -0.72  -0.98         -220.584675             +0.0065
iter:   4  05:14:45  -0.96  -1.20         -218.866126             +0.0021
iter:   5  05:15:07  -1.94  -1.36         -221.247242             +0.0014
iter:   6  05:15:28  -1.98  -1.50         -219.966630             +0.0007
iter:   7  05:15:49  -2.22  -1.68         -222.882767             +0.1548
iter:   8  05:16:10  -2.73  -1.89         -219.837657             +0.2125
iter:   9  05:16:31  -2.20  -1.94         -224.934011             +0.6700
iter:  10  05:16:53  -2.25  -1.87         -227.196819             +0.0432
iter:  11  05:17:14  -2.95  -1.84         -227.306354             -0.0134
iter:  12  05:17:35  -3.20  -1.81         -227.206678             -0.0040
iter:  13  05:17:56  -1.38  -1.81         -228.501804             -0.0027
iter:  14  05:18:17  -2.79  -1.87         -227.213785             -0.0012
iter:  15  05:18:39  -2.82  -2.07         -227.151560             -0.0003
iter:  16  05:19:00  -3.09  -2.07         -227.008423             +0.0001
iter:  17  05:19:21  -2.50  -2.12         -226.640517             +0.0001
iter:  18  05:19:42  -3.00  -2.19         -226.518834             +0.0000
iter:  19  05:20:03  -3.04  -2.37         -226.368106             -0.0000
iter:  20  05:20:24  -2.41  -2.47         -226.276809             -0.0000
iter:  21  05:20:46  -3.11  -2.46         -226.265069             -0.0000
iter:  22  05:21:07  -4.27  -2.71         -226.255493             -0.0000
iter:  23  05:21:28  -2.86  -2.75         -226.247211             -0.0000
iter:  24  05:21:49  -3.60  -2.97         -226.230521             -0.0000
iter:  25  05:22:10  -4.91  -3.19         -226.230266             -0.0000
iter:  26  05:22:31  -3.80  -3.22         -226.233068             +0.0000
iter:  27  05:22:53  -3.75  -3.11         -226.228437             -0.0000
iter:  28  05:23:14  -5.12  -3.50         -226.227908             -0.0000
iter:  29  05:23:35  -4.64  -3.55         -226.228583             +0.0000
iter:  30  05:23:56  -4.73  -3.45         -226.227828             -0.0000
iter:  31  05:24:17  -5.86  -3.86         -226.227757             +0.0000
iter:  32  05:24:39  -6.45  -4.09         -226.227744             +0.0000
iter:  33  05:25:00  -6.57  -4.22         -226.227729             +0.0000
iter:  34  05:25:21  -6.90  -4.31         -226.227726             +0.0000
iter:  35  05:25:42  -7.39  -4.42         -226.227727             -0.0000
iter:  36  05:26:09  -7.82  -4.48         -226.227723             -0.0000
iter:  37  05:26:35  -7.46  -4.54    -2.80-226.227718             -0.0000
iter:  38  05:26:57  -7.24  -4.58         -226.227716             -0.0000
iter:  39  05:27:23  -7.78  -4.76    -2.60-226.227717             -0.0000
iter:  40  05:27:50  -7.57  -4.85    -2.70-226.227716             +0.0000
iter:  41  05:28:17  -8.47  -5.05    -3.10-226.227716             +0.0000
iter:  42  05:28:43  -8.41  -5.09    -3.26-226.227716             +0.0000
iter:  43  05:29:10  -9.42  -5.17    -3.40-226.227716             +0.0000
iter:  44  05:29:37  -8.70  -5.23    -3.04-226.227716             -0.0000
iter:  45  05:30:03  -9.75  -5.58    -3.77-226.227716             -0.0000
iter:  46  05:30:30  -9.14  -5.60    -3.36-226.227716             -0.0000
iter:  47  05:30:56 -10.06  -5.72    -3.81-226.227716             -0.0000
iter:  48  05:31:23  -9.86  -5.87    -3.87-226.227716             -0.0000
iter:  49  05:31:50 -10.59  -6.06    -4.55-226.227716             -0.0000
iter:  50  05:32:17 -11.12  -6.12    -4.32-226.227716             -0.0000
iter:  51  05:32:43 -10.75  -6.16    -4.33-226.227716             +0.0000
iter:  52  05:33:10 -11.45  -6.22    -4.88-226.227716             +0.0000
iter:  53  05:33:36 -10.52  -6.26    -4.15-226.227716             +0.0000
iter:  54  05:34:03 -10.87  -6.42    -4.30-226.227716             +0.0000
iter:  55  05:34:30 -11.30  -6.50    -4.43-226.227716             +0.0000
iter:  56  05:34:57 -11.69  -6.69    -4.86-226.227716             -0.0000
iter:  57  05:35:23 -11.73  -6.77    -4.97-226.227716             -0.0000
iter:  58  05:35:50 -12.67  -6.89    -5.15-226.227716             +0.0000
iter:  59  05:36:17 -12.19  -6.94    -4.86-226.227716             +0.0000
iter:  60  05:36:43 -12.49  -7.15    -4.95-226.227716             +0.0000
iter:  61  05:37:10 -13.26  -7.53    -5.74-226.227716             +0.0000
iter:  62  05:37:37 -13.07  -7.59    -5.32-226.227716             -0.0000
iter:  63  05:38:03 -13.83  -7.72    -5.61-226.227716             +0.0000
iter:  64  05:38:30 -13.46  -7.87    -5.51-226.227716             -0.0000
iter:  65  05:38:57 -13.48  -7.93    -5.37-226.227716             -0.0000
iter:  66  05:39:24 -14.53  -8.19    -5.90-226.227716             +0.0000
iter:  67  05:39:50 -15.21  -8.41    -6.48-226.227716             -0.0000

Converged after 67 iterations.

Dipole moment: (10.671435, 1.406981, -6.269769) |e|*Ang

Total magnetic moment: (0.000000, 0.000000, -0.000000)
Local magnetic moments:
   0 O  ( 0.000000,  0.000000, -0.000489)
   1 O  ( 0.000000,  0.000000,  0.000532)
   2 O  ( 0.000000,  0.000000,  0.000561)
   3 O  ( 0.000000,  0.000000, -0.000554)
   4 O  ( 0.000000,  0.000000,  0.000495)
   5 O  ( 0.000000,  0.000000, -0.000533)
   6 O  ( 0.000000,  0.000000, -0.000567)
   7 O  ( 0.000000,  0.000000,  0.000554)
   8 O  ( 0.000000,  0.000000,  0.028692)
   9 O  ( 0.000000,  0.000000, -0.028702)
  10 O  ( 0.000000,  0.000000, -0.028693)
  11 O  ( 0.000000,  0.000000,  0.028701)
  12 Mn ( 0.000000,  0.000000,  4.448162)
  13 Mn ( 0.000000,  0.000000, -4.448240)
  14 Mn ( 0.000000,  0.000000, -4.448159)
  15 Mn ( 0.000000,  0.000000,  4.448241)
  16 P  ( 0.000000,  0.000000,  0.001558)
  17 P  ( 0.000000,  0.000000, -0.001543)
  18 P  ( 0.000000,  0.000000, -0.001557)
  19 P  ( 0.000000,  0.000000,  0.001543)
  20 O  ( 0.000000,  0.000000,  0.025315)
  21 O  ( 0.000000,  0.000000, -0.025306)
  22 O  ( 0.000000,  0.000000, -0.025314)
  23 O  ( 0.000000,  0.000000,  0.025306)
  24 Li ( 0.000000,  0.000000,  0.000000)
  25 Li ( 0.000000,  0.000000, -0.000015)
  26 Li ( 0.000000,  0.000000, -0.000000)
  27 Li ( 0.000000,  0.000000,  0.000015)

Energy contributions relative to reference atoms: (reference = -196157.275402)

Kinetic:       +217.349986
Potential:     -195.235430
External:        +0.000000
XC:            -250.383449
Entropy (-ST):   -0.000000
Local:           +2.041178
--------------------------
Free energy:   -226.227716
Extrapolated:  -226.227716

Spin contamination: 9.560410 electrons
Showing only first 2 kpts
                      Up                     Down
 Kpt  Band  Eigenvalues  Occupancy  Eigenvalues  Occupancy
  0    88      5.10987    1.00000      5.10969    1.00000
  0    89      5.13439    1.00000      5.13455    1.00000
  0    90      7.28865    0.00000      7.28865    0.00000
  0    91      7.30635    0.00000      7.30633    0.00000

  1    88      5.13562    1.00000      5.13566    1.00000
  1    89      5.16483    1.00000      5.16477    1.00000
  1    90      7.23145    0.00000      7.23144    0.00000
  1    91      7.24364    0.00000      7.24364    0.00000


Fermi level: 5.56062

Gap: 1.972 eV
Transition (v -> c):
  (s=1, k=73, n=89, [0.08, -0.42, -0.12]) -> (s=0, k=86, n=90, [0.08, 0.08, 0.12])
Writing to born-0.01-9y+.gpw (mode='all')

Timing:                              incl.     excl.
-----------------------------------------------------------
Hamiltonian:                         0.264     0.002   0.0% |
 Atomic:                             0.082     0.082   0.0% |
  XC Correction:                     0.000     0.000   0.0% |
 Calculate atomic Hamiltonians:      0.088     0.088   0.0% |
 Communicate:                        0.000     0.000   0.0% |
 Initialize Hamiltonian:             0.000     0.000   0.0% |
 Poisson:                            0.001     0.001   0.0% |
 XC 3D grid:                         0.090     0.090   0.0% |
LCAO initialization:                68.288     0.672   0.0% |
 LCAO eigensolver:                  18.033     0.002   0.0% |
  Calculate projections:             0.029     0.029   0.0% |
  DenseAtomicCorrection:             0.042     0.042   0.0% |
  Distribute overlap matrix:         0.088     0.088   0.0% |
  Orbital Layouts:                   0.278     0.278   0.0% |
  Potential matrix:                 17.508    17.508   0.5% |
  Sum over cells:                    0.086     0.086   0.0% |
 LCAO to grid:                      48.284    48.284   1.3% ||
 Set positions (LCAO WFS):           1.299     0.203   0.0% |
  Basic WFS set positions:           0.001     0.001   0.0% |
  Basis functions set positions:     0.000     0.000   0.0% |
  P tci:                             0.515     0.515   0.0% |
  ST tci:                            0.366     0.366   0.0% |
  mktci:                             0.212     0.212   0.0% |
PWDescriptor:                        0.025     0.025   0.0% |
SCF-cycle:                        1592.980     5.060   0.1% |
 Davidson:                        1345.968   429.964  11.4% |----|
  Apply H:                          90.853    88.113   2.3% ||
   HMM T:                            2.741     2.741   0.1% |
  Subspace diag:                   193.445     0.191   0.0% |
   calc_h_matrix:                  123.020    33.802   0.9% |
    Apply H:                        89.218    86.616   2.3% ||
     HMM T:                          2.602     2.602   0.1% |
   diagonalize:                      6.891     6.891   0.2% |
   rotate_psi:                      63.344    63.344   1.7% ||
  calc. matrices:                  401.934   224.455   5.9% |-|
   Apply H:                        177.479   172.328   4.6% |-|
    HMM T:                           5.151     5.151   0.1% |
  diagonalize:                     103.709   103.709   2.7% ||
  rotate_psi:                      126.063   126.063   3.3% ||
 Density:                           53.258     0.002   0.0% |
  Atomic density matrices:           0.883     0.883   0.0% |
  Mix:                               9.059     9.059   0.2% |
  Multipole moments:                 0.024     0.024   0.0% |
  Pseudo density:                   43.292    43.290   1.1% |
   Symmetrize density:               0.002     0.002   0.0% |
 Forces:                           170.202   170.202   4.5% |-|
 Hamiltonian:                       16.196     0.138   0.0% |
  Atomic:                            3.804     3.803   0.1% |
   XC Correction:                    0.000     0.000   0.0% |
  Calculate atomic Hamiltonians:     6.086     6.086   0.2% |
  Communicate:                       0.016     0.016   0.0% |
  Poisson:                           0.060     0.060   0.0% |
  XC 3D grid:                        6.092     6.092   0.2% |
 Orthonormalize:                     2.295     0.004   0.0% |
  calc_s_matrix:                     0.270     0.270   0.0% |
  inverse-cholesky:                  0.040     0.040   0.0% |
  projections:                       1.495     1.495   0.0% |
  rotate_psi_s:                      0.487     0.487   0.0% |
Set symmetry:                        0.000     0.000   0.0% |
Other:                            2125.272  2125.272  56.1% |---------------------|
-----------------------------------------------------------
Total:                                      3786.829 100.0%

Memory usage: 12.02 GiB
Date: Tue Mar 30 06:15:14 2021
