
  ___ ___ ___ _ _ _  
 |   |   |_  | | | | 
 | | | | | . | | | | 
 |__ |  _|___|_____|  21.1.1b1
 |___|_|             

User:   madkru@g043.nifl.fysik.dtu.dk
Date:   Tue Mar 30 09:55:29 2021
Arch:   x86_64
Pid:    39387
Python: 3.8.6
gpaw:   /home/niflheim/madkru/venv_madkru/gpaw/gpaw (e6f0d78a31)
_gpaw:  /home/niflheim/madkru/venv_madkru/gpaw/build/lib.linux-x86_64-sandybridge-3.8/
        _gpaw.cpython-38-x86_64-linux-gnu.so (e6f0d78a31)
ase:    /home/niflheim/madkru/venv_madkru/ase/ase (version 3.22.0b1-4d5a73cb29)
numpy:  /home/modules/software/SciPy-bundle/2020.11-foss-2020b/lib/python3.8/site-packages/numpy (version 1.19.4)
scipy:  /home/modules/software/SciPy-bundle/2020.11-foss-2020b/lib/python3.8/site-packages/scipy (version 1.5.4)
libxc:  4.3.4
units:  Angstrom and eV
cores: 64
OpenMP: False
OMP_NUM_THREADS: 1

Input parameters:
  convergence: {bands: occupied,
                density: 0.0001,
                eigenstates: 4e-08,
                energy: 0.0005,
                forces: 1e-06}
  kpts: [6 6 4]
  maxiter: 1000
  mode: {ecut: 600.0,
         gammacentered: False,
         name: pw}
  occupations: {fixmagmom: False,
                name: fermi-dirac,
                width: 0.001}
  symmetry: {point_group: False,
             time_reversal: False}

System changes: positions, numbers, cell, pbc, initial_charges, initial_magmoms 

Initialize ...

O-setup:
  name: Oxygen
  id: 9b9d51c344dea68c822856295a461509
  Z: 8.0
  valence: 6
  core: 2
  charge: 0.0
  file: /home/modules/software/GPAW-setups/0.9.20000/O.LDA.gz
  compensation charges: gauss, rc=0.21, lmax=2
  cutoffs: 1.17(filt), 0.83(core),
  valence states:
                energy  radius
    2s(2.00)   -23.752   0.688
    2p(4.00)    -9.195   0.598
    *s           3.459   0.688
    *p          18.016   0.598
    *d           0.000   0.619

  Using partial waves for O as LCAO basis

Mn-setup:
  name: Manganese
  id: 0d715a8018be061a6e9ea6f2d364ac92
  Z: 25.0
  valence: 15
  core: 10
  charge: 0.0
  file: /home/modules/software/GPAW-setups/0.9.20000/Mn.LDA.gz
  compensation charges: gauss, rc=0.38, lmax=2
  cutoffs: 2.14(filt), 0.86(core),
  valence states:
                energy  radius
    3s(2.00)   -85.387   1.275
    4s(2.00)    -5.282   1.275
    3p(6.00)   -54.493   1.281
    4p(0.00)    -1.471   1.281
    3d(5.00)    -7.009   1.138
    *d          20.203   1.138

  Using partial waves for Mn as LCAO basis

P-setup:
  name: Phosphorus
  id: a5561c299094968922a179ab894d2e2d
  Z: 15.0
  valence: 5
  core: 10
  charge: 0.0
  file: /home/modules/software/GPAW-setups/0.9.20000/P.LDA.gz
  compensation charges: gauss, rc=0.30, lmax=2
  cutoffs: 1.69(filt), 1.81(core),
  valence states:
                energy  radius
    3s(2.00)   -14.015   0.953
    3p(3.00)    -5.596   0.953
    *s          13.197   0.953
    *p          21.615   0.953
    *d           0.000   0.953

  Using partial waves for P as LCAO basis

Li-setup:
  name: Lithium
  id: b73562207f97a71b6967473b66fe8b65
  Z: 3.0
  valence: 1
  core: 2
  charge: 0.0
  file: /home/modules/software/GPAW-setups/0.9.20000/Li.LDA.gz
  compensation charges: gauss, rc=0.33, lmax=2
  cutoffs: 1.91(filt), 2.55(core),
  valence states:
                energy  radius
    2s(1.00)    -2.874   1.058
    2p(0.00)    -1.126   1.058
    *s          24.338   1.058

  Using partial waves for Li as LCAO basis

Reference energy: -196157.275402

Spin-polarized calculation.
Magnetic moment: 0.000000

Convergence criteria:
  Maximum total energy change: 0.0005 eV / electron
  Maximum integral of absolute density change: 0.0001 electrons
  Maximum integral of absolute eigenstate change: 4e-08 eV^2
  Maximum change in atomic force: 1e-06 eV / Ang
  Maximum number of iterations: 1000

Symmetries present (total): 1

  ( 1  0  0)
  ( 0  1  0)
  ( 0  0  1)

144 k-points: 6 x 6 x 4 Monkhorst-Pack grid
144 k-points in the irreducible part of the Brillouin zone
       k-points in crystal coordinates                weights
   0:    -0.41666667   -0.41666667   -0.37500000          1/144
   1:    -0.41666667   -0.41666667   -0.12500000          1/144
   2:    -0.41666667   -0.41666667    0.12500000          1/144
   3:    -0.41666667   -0.41666667    0.37500000          1/144
   4:    -0.41666667   -0.25000000   -0.37500000          1/144
   5:    -0.41666667   -0.25000000   -0.12500000          1/144
   6:    -0.41666667   -0.25000000    0.12500000          1/144
   7:    -0.41666667   -0.25000000    0.37500000          1/144
   8:    -0.41666667   -0.08333333   -0.37500000          1/144
   9:    -0.41666667   -0.08333333   -0.12500000          1/144
          ...
 143:     0.41666667    0.41666667    0.37500000          1/144

Wave functions: Plane wave expansion
  Cutoff energy: 600.000 eV
  Number of coefficients (min, max): 10068, 10125
  Pulay-stress correction: 0.000000 eV/Ang^3 (de/decut=0.000000)
  Using FFTW library
  ScaLapack parameters: grid=1x1, blocksize=None
  Wavefunction extrapolation:
    Improved wavefunction reuse through dual PAW basis 

  Fermi-Dirac: width=0.0010 eV

Eigensolver
   Davidson(niter=2) 

Densities:
  Coarse grid: 60*35*27 grid
  Fine grid: 120*70*54 grid
  Total Charge: 0.000000 

Density mixing:
  Method: difference
  Backend: pulay
  Linear mixing parameter: 0.05
  Mixing with 5 old densities
  Damping of long wave oscillations: 50 

Hamiltonian:
  XC and Coulomb potentials evaluated on a 120*70*54 grid
  Using the LDA Exchange-Correlation functional
 

Memory estimate:
  Process memory now: 12534.87 MiB
  Calculator: 354.82 MiB
    Density: 10.06 MiB
      Arrays: 3.79 MiB
      Localized functions: 4.71 MiB
      Mixer: 1.56 MiB
    Hamiltonian: 2.95 MiB
      Arrays: 2.82 MiB
      XC: 0.00 MiB
      Poisson: 0.00 MiB
      vbar: 0.14 MiB
    Wavefunctions: 341.80 MiB
      Arrays psit_nG: 311.46 MiB
      Eigensolver: 19.99 MiB
      Projections: 2.71 MiB
      Projectors: 4.87 MiB
      PW-descriptor: 2.77 MiB

Total number of cores used: 64
Parallelization over k-points: 16
Domain decomposition: 2 x 2 x 1

Number of atoms: 28
Number of atomic orbitals: 148
Number of bands in calculation: 112
Number of valence electrons: 180
Bands to converge: occupied

... initialized

Initializing position-dependent things.

Density initialized from atomic densities
Creating initial wave functions:
  112 bands from LCAO basis set

     .-------------------------.  
    /|         OP              |  
   / |O            O        O  |  
  /  |       O            O  P |  
 *   |O    Mn      O           |  
 |   |          OLi          O |  
 |   .P-O--------------Mn------.  
 |  /          Li    O  Mn  O /   
 | /Li O           PO        /    
 |/       Mn                /     
 *Li-----------------------*      

Positions:
   0 O     -1.360678   -2.541161   -1.202221    ( 0.0000,  0.0000,  0.0000)
   1 O     -3.121941    2.976855    1.167242    ( 0.0000,  0.0000,  0.0000)
   2 O      2.107533    0.508090    1.540712    ( 0.0000,  0.0000,  0.0000)
   3 O      3.869373   -0.072395   -0.828750    ( 0.0000,  0.0000,  0.0000)
   4 O      2.107821    2.976875    1.540792    ( 0.0000,  0.0000,  0.0000)
   5 O      3.869084   -2.541141   -0.828671    ( 0.0000,  0.0000,  0.0000)
   6 O     -1.360390   -0.072375   -1.202141    ( 0.0000,  0.0000,  0.0000)
   7 O     -3.122230    0.508109    1.167321    ( 0.0000,  0.0000,  0.0000)
   8 O     -4.413461   -1.306992   -0.794251    ( 0.0000,  0.0000,  0.0000)
   9 O     -0.069585    1.742707    1.575662    ( 0.0000,  0.0000,  0.0000)
  10 O      5.160604    1.742707    1.142822    ( 0.0000,  0.0000,  0.0000)
  11 O      0.816728   -1.306992   -1.237091    ( 0.0000,  0.0000,  0.0000)
  12 Mn    -2.570809   -1.307302    0.247161    ( 0.0000,  0.0000,  1.0000)
  13 Mn    -1.912021    1.743016   -2.122906    ( 0.0000,  0.0000, -1.0000)
  14 Mn     3.317952    1.743017    0.091411    ( 0.0000,  0.0000, -1.0000)
  15 Mn     2.659164   -1.307302    2.461478    ( 0.0000,  0.0000,  1.0000)
  16 P     -0.620664   -1.306816   -1.828465    ( 0.0000,  0.0000,  0.0000)
  17 P     -3.862097    1.742530    0.541238    ( 0.0000,  0.0000,  0.0000)
  18 P      1.367807    1.742530    2.167036    ( 0.0000,  0.0000,  0.0000)
  19 P      4.609240   -1.306816   -0.202666    ( 0.0000,  0.0000,  0.0000)
  20 O     -0.646437   -1.306845    1.374751    ( 0.0000,  0.0000,  0.0000)
  21 O     -3.836504    1.742559   -0.995565    ( 0.0000,  0.0000,  0.0000)
  22 O      1.393580    1.742559   -1.036179    ( 0.0000,  0.0000,  0.0000)
  23 O      4.583647   -1.306845    1.334136    ( 0.0000,  0.0000,  0.0000)
  24 Li    -4.856429   -2.832143   -2.200714    ( 0.0000,  0.0000,  0.0000)
  25 Li     0.373571   -2.832143    0.169286    ( 0.0000,  0.0000,  0.0000)
  26 Li    -4.856429    0.217857   -2.200714    ( 0.0000,  0.0000,  0.0000)
  27 Li     0.373571    0.217857    0.169286    ( 0.0000,  0.0000,  0.0000)

Unit cell:
           periodic     x           y           z      points  spacing
  1. axis:    yes   10.460000    0.000000    0.000000    60     0.1743
  2. axis:    yes    0.000000    6.100000    0.000000    35     0.1743
  3. axis:    yes    0.000000    0.000000    4.740000    27     0.1756

  Lengths:  10.460000   6.100000   4.740000
  Angles:   90.000000  90.000000  90.000000

Effective grid spacing dv^(1/3) = 0.1747

                     log10-error:           total        iterations:
           time      wfs    density  force  energy       poisson  magmom
iter:   1  09:57:04                       -231.921828             +0.0000
iter:   2  09:57:25  -0.55  -0.94         -231.736531             +0.0047
iter:   3  09:57:46  -0.72  -0.98         -220.580421             +0.0059
iter:   4  09:58:08  -0.96  -1.20         -218.862527             +0.0019
iter:   5  09:58:29  -1.94  -1.36         -221.278730             +0.0013
iter:   6  09:58:50  -1.99  -1.50         -219.922905             -0.0796
iter:   7  09:59:11  -2.25  -1.69         -222.860242             +0.1029
iter:   8  09:59:33  -2.70  -1.89         -219.747320             +0.1287
iter:   9  09:59:54  -2.42  -1.97         -223.205226             +0.0406
iter:  10  10:00:15  -2.52  -1.91         -225.786787             +0.0223
iter:  11  10:00:36  -2.34  -1.88         -227.352694             -0.0017
iter:  12  10:00:57  -2.78  -1.82         -227.140374             +0.0007
iter:  13  10:01:19  -2.52  -1.88         -226.908005             +0.0003
iter:  14  10:01:40  -1.89  -1.94         -226.836381             +0.0002
iter:  15  10:02:01  -2.40  -2.13         -226.691472             +0.0001
iter:  16  10:02:22  -2.21  -2.29         -226.267876             +0.0002
iter:  17  10:02:43  -3.47  -2.58         -226.287850             +0.0001
iter:  18  10:03:05  -3.16  -2.64         -226.236941             +0.0000
iter:  19  10:03:26  -3.24  -2.81         -226.240354             +0.0000
iter:  20  10:03:48  -3.93  -2.86         -226.234660             -0.0000
iter:  21  10:04:09  -4.41  -2.96         -226.231765             +0.0000
iter:  22  10:04:30  -3.90  -2.99         -226.227974             +0.0000
iter:  23  10:04:51  -4.91  -3.21         -226.227866             +0.0000
iter:  24  10:05:12  -4.78  -3.30         -226.228451             +0.0000
iter:  25  10:05:34  -5.45  -3.34         -226.228663             +0.0000
iter:  26  10:05:55  -4.44  -3.39         -226.227739             -0.0000
iter:  27  10:06:16  -5.64  -3.68         -226.227553             +0.0000
iter:  28  10:06:37  -5.88  -3.81         -226.227499             +0.0000
iter:  29  10:06:58  -6.31  -3.86         -226.227490             +0.0000
iter:  30  10:07:20  -5.81  -3.92         -226.227559             +0.0000
iter:  31  10:07:41  -6.90  -4.08         -226.227525             +0.0000
iter:  32  10:08:02  -5.92  -4.14         -226.227458             +0.0000
iter:  33  10:08:23  -6.86  -4.36         -226.227465             +0.0000
iter:  34  10:08:50  -7.87  -4.45         -226.227461             +0.0000
iter:  35  10:09:11  -6.62  -4.47         -226.227454             +0.0000
iter:  36  10:09:38  -7.59  -4.75    -2.39-226.227453             +0.0000
iter:  37  10:10:04  -8.39  -4.90    -3.32-226.227453             +0.0000
iter:  38  10:10:31  -8.29  -4.92    -3.36-226.227454             +0.0000
iter:  39  10:10:58  -8.14  -4.87    -2.89-226.227453             +0.0000
iter:  40  10:11:24  -8.13  -5.08    -3.16-226.227453             +0.0000
iter:  41  10:11:51  -8.19  -5.20    -2.95-226.227453             +0.0000
iter:  42  10:12:18  -8.94  -5.39    -3.68-226.227453             +0.0000
iter:  43  10:12:45  -8.74  -5.43    -3.14-226.227453             -0.0000
iter:  44  10:13:11  -9.06  -5.62    -3.33-226.227453             +0.0000
iter:  45  10:13:38 -10.06  -5.89    -4.11-226.227453             +0.0000
iter:  46  10:14:05  -9.32  -5.96    -3.70-226.227453             +0.0000
iter:  47  10:14:31 -10.41  -6.19    -4.29-226.227453             +0.0000
iter:  48  10:14:58  -9.95  -6.21    -3.82-226.227453             +0.0000
iter:  49  10:15:25 -10.85  -6.31    -4.47-226.227453             +0.0000
iter:  50  10:15:51 -10.61  -6.39    -4.11-226.227453             +0.0000
iter:  51  10:16:18 -11.79  -6.58    -4.62-226.227453             +0.0000
iter:  52  10:16:45 -11.72  -6.69    -4.50-226.227453             -0.0000
iter:  53  10:17:11 -11.63  -6.83    -4.76-226.227453             -0.0000
iter:  54  10:17:38 -11.80  -6.89    -4.82-226.227453             -0.0000
iter:  55  10:18:05 -11.40  -6.97    -4.55-226.227453             -0.0000
iter:  56  10:18:31 -12.67  -7.17    -5.06-226.227453             -0.0000
iter:  57  10:18:58 -11.93  -7.25    -4.82-226.227453             -0.0000
iter:  58  10:19:25 -12.48  -7.31    -5.01-226.227453             -0.0000
iter:  59  10:19:52 -13.65  -7.55    -5.80-226.227453             -0.0000
iter:  60  10:20:18 -13.44  -7.60    -5.49-226.227453             -0.0000
iter:  61  10:20:45 -13.54  -7.73    -5.65-226.227453             -0.0000
iter:  62  10:21:12 -14.23  -7.84    -6.02-226.227453             -0.0000

Converged after 62 iterations.

Dipole moment: (10.672151, 1.412986, -6.264480) |e|*Ang

Total magnetic moment: (0.000000, 0.000000, -0.000000)
Local magnetic moments:
   0 O  ( 0.000000,  0.000000, -0.000520)
   1 O  ( 0.000000,  0.000000,  0.000580)
   2 O  ( 0.000000,  0.000000,  0.000545)
   3 O  ( 0.000000,  0.000000, -0.000524)
   4 O  ( 0.000000,  0.000000,  0.000525)
   5 O  ( 0.000000,  0.000000, -0.000504)
   6 O  ( 0.000000,  0.000000, -0.000540)
   7 O  ( 0.000000,  0.000000,  0.000600)
   8 O  ( 0.000000,  0.000000,  0.028710)
   9 O  ( 0.000000,  0.000000, -0.028736)
  10 O  ( 0.000000,  0.000000, -0.028648)
  11 O  ( 0.000000,  0.000000,  0.028692)
  12 Mn ( 0.000000,  0.000000,  4.448186)
  13 Mn ( 0.000000,  0.000000, -4.448150)
  14 Mn ( 0.000000,  0.000000, -4.448647)
  15 Mn ( 0.000000,  0.000000,  4.448259)
  16 P  ( 0.000000,  0.000000,  0.001564)
  17 P  ( 0.000000,  0.000000, -0.001492)
  18 P  ( 0.000000,  0.000000, -0.001552)
  19 P  ( 0.000000,  0.000000,  0.001552)
  20 O  ( 0.000000,  0.000000,  0.025321)
  21 O  ( 0.000000,  0.000000, -0.025188)
  22 O  ( 0.000000,  0.000000, -0.025351)
  23 O  ( 0.000000,  0.000000,  0.025319)
  24 Li ( 0.000000,  0.000000, -0.000007)
  25 Li ( 0.000000,  0.000000,  0.000000)
  26 Li ( 0.000000,  0.000000, -0.000007)
  27 Li ( 0.000000,  0.000000,  0.000000)

Energy contributions relative to reference atoms: (reference = -196157.275402)

Kinetic:       +217.037538
Potential:     -194.991995
External:        +0.000000
XC:            -250.315153
Entropy (-ST):   -0.000000
Local:           +2.042157
--------------------------
Free energy:   -226.227453
Extrapolated:  -226.227453

Spin contamination: 9.560537 electrons
Showing only first 2 kpts
                      Up                     Down
 Kpt  Band  Eigenvalues  Occupancy  Eigenvalues  Occupancy
  0    88      5.10937    1.00000      5.10443    1.00000
  0    89      5.13388    1.00000      5.12964    1.00000
  0    90      7.28630    0.00000      7.28799    0.00000
  0    91      7.30411    0.00000      7.30578    0.00000

  1    88      5.13515    1.00000      5.13048    1.00000
  1    89      5.16435    1.00000      5.15984    1.00000
  1    90      7.22946    0.00000      7.23078    0.00000
  1    91      7.24174    0.00000      7.24308    0.00000


Fermi level: 6.57828

Gap: 1.971 eV
Transition (v -> c):
  (s=0, k=74, n=89, [0.08, -0.42, 0.12]) -> (s=0, k=85, n=90, [0.08, 0.08, -0.12])
Writing to born-0.01-10z+.gpw (mode='all')

Timing:                              incl.     excl.
-----------------------------------------------------------
Hamiltonian:                         0.260     0.003   0.0% |
 Atomic:                             0.071     0.071   0.0% |
  XC Correction:                     0.000     0.000   0.0% |
 Calculate atomic Hamiltonians:      0.094     0.094   0.0% |
 Communicate:                        0.000     0.000   0.0% |
 Initialize Hamiltonian:             0.000     0.000   0.0% |
 Poisson:                            0.001     0.001   0.0% |
 XC 3D grid:                         0.091     0.091   0.0% |
LCAO initialization:                69.249     0.674   0.0% |
 LCAO eigensolver:                  17.900     0.002   0.0% |
  Calculate projections:             0.029     0.029   0.0% |
  DenseAtomicCorrection:             0.043     0.043   0.0% |
  Distribute overlap matrix:         0.029     0.029   0.0% |
  Orbital Layouts:                   0.277     0.277   0.0% |
  Potential matrix:                 17.431    17.431   0.5% |
  Sum over cells:                    0.090     0.090   0.0% |
 LCAO to grid:                      49.232    49.232   1.4% ||
 Set positions (LCAO WFS):           1.442     0.317   0.0% |
  Basic WFS set positions:           0.001     0.001   0.0% |
  Basis functions set positions:     0.000     0.000   0.0% |
  P tci:                             0.512     0.512   0.0% |
  ST tci:                            0.366     0.366   0.0% |
  mktci:                             0.245     0.245   0.0% |
PWDescriptor:                        0.025     0.025   0.0% |
SCF-cycle:                        1472.189     4.669   0.1% |
 Davidson:                        1246.650   397.865  11.0% |---|
  Apply H:                          84.400    81.802   2.3% ||
   HMM T:                            2.597     2.597   0.1% |
  Subspace diag:                   178.802     0.176   0.0% |
   calc_h_matrix:                  113.720    31.274   0.9% |
    Apply H:                        82.446    80.051   2.2% ||
     HMM T:                          2.395     2.395   0.1% |
   diagonalize:                      6.366     6.366   0.2% |
   rotate_psi:                      58.540    58.540   1.6% ||
  calc. matrices:                  372.447   207.516   5.7% |-|
   Apply H:                        164.931   160.128   4.4% |-|
    HMM T:                           4.803     4.803   0.1% |
  diagonalize:                      96.464    96.464   2.7% ||
  rotate_psi:                      116.673   116.673   3.2% ||
 Density:                           49.508     0.001   0.0% |
  Atomic density matrices:           0.809     0.809   0.0% |
  Mix:                               8.602     8.602   0.2% |
  Multipole moments:                 0.023     0.023   0.0% |
  Pseudo density:                   40.073    40.071   1.1% |
   Symmetrize density:               0.002     0.002   0.0% |
 Forces:                           153.878   153.878   4.2% |-|
 Hamiltonian:                       15.194     0.133   0.0% |
  Atomic:                            3.483     3.483   0.1% |
   XC Correction:                    0.000     0.000   0.0% |
  Calculate atomic Hamiltonians:     5.837     5.837   0.2% |
  Communicate:                       0.020     0.020   0.0% |
  Poisson:                           0.053     0.053   0.0% |
  XC 3D grid:                        5.668     5.668   0.2% |
 Orthonormalize:                     2.289     0.003   0.0% |
  calc_s_matrix:                     0.266     0.266   0.0% |
  inverse-cholesky:                  0.040     0.040   0.0% |
  projections:                       1.494     1.494   0.0% |
  rotate_psi_s:                      0.485     0.485   0.0% |
Set symmetry:                        0.000     0.000   0.0% |
Other:                            2084.575  2084.575  57.5% |----------------------|
-----------------------------------------------------------
Total:                                      3626.297 100.0%

Memory usage: 12.25 GiB
Date: Tue Mar 30 10:55:55 2021
