
  ___ ___ ___ _ _ _  
 |   |   |_  | | | | 
 | | | | | . | | | | 
 |__ |  _|___|_____|  20.10.1b1
 |___|_|             

User:   madkru@g064.nifl.fysik.dtu.dk
Date:   Mon Mar 22 02:04:40 2021
Arch:   x86_64
Pid:    60512
Python: 3.7.4
gpaw:   /home/niflheim/madkru/venv_folder/gpaw/gpaw (d0d1ca1c71)
_gpaw:  /home/niflheim/madkru/venv_folder/gpaw/build/lib.linux-x86_64-sandybridge-3.7/
        _gpaw.cpython-37m-x86_64-linux-gnu.so (4fd39e8b1e)
ase:    /home/niflheim/madkru/venv_folder/ase/ase (version 3.21.0b1-7e6c206a91)
numpy:  /home/niflheim/madkru/venv_folder/lib/python3.7/site-packages/numpy (version 1.19.4)
scipy:  /home/niflheim/madkru/venv_folder/lib/python3.7/site-packages/scipy (version 1.5.4)
libxc:  4.3.4
units:  Angstrom and eV
cores: 32
OMP_NUM_THREADS: 1

Input parameters:
  convergence: {bands: occupied,
                density: 0.0001,
                eigenstates: 4e-08,
                energy: 0.0005,
                forces: 1e-06}
  kpts: [6 6 4]
  mode: {ecut: 600.0,
         gammacentered: False,
         name: pw}
  occupations: {fixmagmom: False,
                name: fermi-dirac,
                width: 0.001}
  symmetry: {point_group: False,
             time_reversal: False}

System changes: positions, numbers, cell, pbc, initial_charges, initial_magmoms 

Initialize ...

O-setup:
  name: Oxygen
  id: 9b9d51c344dea68c822856295a461509
  Z: 8.0
  valence: 6
  core: 2
  charge: 0.0
  file: /home/modules/software/GPAW-setups/0.9.20000/O.LDA.gz
  compensation charges: gauss, rc=0.21, lmax=2
  cutoffs: 1.17(filt), 0.83(core),
  valence states:
                energy  radius
    2s(2.00)   -23.752   0.688
    2p(4.00)    -9.195   0.598
    *s           3.459   0.688
    *p          18.016   0.598
    *d           0.000   0.619

  Using partial waves for O as LCAO basis

Mn-setup:
  name: Manganese
  id: 0d715a8018be061a6e9ea6f2d364ac92
  Z: 25.0
  valence: 15
  core: 10
  charge: 0.0
  file: /home/modules/software/GPAW-setups/0.9.20000/Mn.LDA.gz
  compensation charges: gauss, rc=0.38, lmax=2
  cutoffs: 2.14(filt), 0.86(core),
  valence states:
                energy  radius
    3s(2.00)   -85.387   1.275
    4s(2.00)    -5.282   1.275
    3p(6.00)   -54.493   1.281
    4p(0.00)    -1.471   1.281
    3d(5.00)    -7.009   1.138
    *d          20.203   1.138

  Using partial waves for Mn as LCAO basis

P-setup:
  name: Phosphorus
  id: a5561c299094968922a179ab894d2e2d
  Z: 15.0
  valence: 5
  core: 10
  charge: 0.0
  file: /home/modules/software/GPAW-setups/0.9.20000/P.LDA.gz
  compensation charges: gauss, rc=0.30, lmax=2
  cutoffs: 1.69(filt), 1.81(core),
  valence states:
                energy  radius
    3s(2.00)   -14.015   0.953
    3p(3.00)    -5.596   0.953
    *s          13.197   0.953
    *p          21.615   0.953
    *d           0.000   0.953

  Using partial waves for P as LCAO basis

Li-setup:
  name: Lithium
  id: b73562207f97a71b6967473b66fe8b65
  Z: 3.0
  valence: 1
  core: 2
  charge: 0.0
  file: /home/modules/software/GPAW-setups/0.9.20000/Li.LDA.gz
  compensation charges: gauss, rc=0.33, lmax=2
  cutoffs: 1.91(filt), 2.55(core),
  valence states:
                energy  radius
    2s(1.00)    -2.874   1.058
    2p(0.00)    -1.126   1.058
    *s          24.338   1.058

  Using partial waves for Li as LCAO basis

Reference energy: -196157.275402

Spin-polarized calculation.
Magnetic moment: 0.000000

Convergence criteria:
  Maximum total energy change: 0.0005 eV / electron
  Maximum integral of absolute density change: 0.0001 electrons
  Maximum integral of absolute eigenstate change: 4e-08 eV^2
  Maximum change in atomic force: 1e-06 eV / Ang
  Maximum number of iterations: 333

Symmetries present (total): 1

  ( 1  0  0)
  ( 0  1  0)
  ( 0  0  1)

144 k-points: 6 x 6 x 4 Monkhorst-Pack grid
144 k-points in the irreducible part of the Brillouin zone
       k-points in crystal coordinates                weights
   0:    -0.41666667   -0.41666667   -0.37500000          1/144
   1:    -0.41666667   -0.41666667   -0.12500000          1/144
   2:    -0.41666667   -0.41666667    0.12500000          1/144
   3:    -0.41666667   -0.41666667    0.37500000          1/144
   4:    -0.41666667   -0.25000000   -0.37500000          1/144
   5:    -0.41666667   -0.25000000   -0.12500000          1/144
   6:    -0.41666667   -0.25000000    0.12500000          1/144
   7:    -0.41666667   -0.25000000    0.37500000          1/144
   8:    -0.41666667   -0.08333333   -0.37500000          1/144
   9:    -0.41666667   -0.08333333   -0.12500000          1/144
          ...
 143:     0.41666667    0.41666667    0.37500000          1/144

Wave functions: Plane wave expansion
  Cutoff energy: 600.000 eV
  Number of coefficients (min, max): 10068, 10125
  Pulay-stress correction: 0.000000 eV/Ang^3 (de/decut=0.000000)
  Using FFTW library
  ScaLapack parameters: grid=1x1, blocksize=None
  Wavefunction extrapolation:
    Improved wavefunction reuse through dual PAW basis 

  Fermi-Dirac: width=0.0010 eV

Eigensolver
   Davidson(niter=2, smin=None, normalize=True) 

Densities:
  Coarse grid: 60*35*27 grid
  Fine grid: 120*70*54 grid
  Total Charge: 0.000000 

Density mixing:
  Method: difference
  Backend: pulay
  Linear mixing parameter: 0.05
  Mixing with 5 old densities
  Damping of long wave oscillations: 50 

Hamiltonian:
  XC and Coulomb potentials evaluated on a 120*70*54 grid
  Using the LDA Exchange-Correlation functional
 

Memory estimate:
  Process memory now: 12853.15 MiB
  Calculator: 375.55 MiB
    Density: 20.02 MiB
      Arrays: 7.57 MiB
      Localized functions: 9.42 MiB
      Mixer: 3.03 MiB
    Hamiltonian: 5.90 MiB
      Arrays: 5.62 MiB
      XC: 0.00 MiB
      Poisson: 0.00 MiB
      vbar: 0.27 MiB
    Wavefunctions: 349.64 MiB
      Arrays psit_nG: 311.46 MiB
      Eigensolver: 19.99 MiB
      Projections: 5.41 MiB
      Projectors: 9.73 MiB
      PW-descriptor: 3.03 MiB

Total number of cores used: 32
Parallelization over k-points: 16
Domain decomposition: 2 x 1 x 1

Number of atoms: 28
Number of atomic orbitals: 148
Number of bands in calculation: 112
Number of valence electrons: 180
Bands to converge: occupied

... initialized

Initializing position-dependent things.

Density initialized from atomic densities
Creating initial wave functions:
  112 bands from LCAO basis set

     .-------------------------.  
    /|         OP              |  
   / |O            O        O  |  
  /  |       O            O  P |  
 *   |O    Mn      O           |  
 |   |          OLi          O |  
 |   .P-O--------------Mn------.  
 |  /          Li    O  Mn  O /   
 | /Li O           PO        /    
 |/       Mn                /     
 *Li-----------------------*      

Positions:
   0 O     -1.360678   -2.541161   -1.202221    ( 0.0000,  0.0000,  0.0000)
   1 O     -3.121941    2.976855    1.167242    ( 0.0000,  0.0000,  0.0000)
   2 O      2.107533    0.508090    1.540712    ( 0.0000,  0.0000,  0.0000)
   3 O      3.869373   -0.072395   -0.828750    ( 0.0000,  0.0000,  0.0000)
   4 O      2.117821    2.976875    1.540792    ( 0.0000,  0.0000,  0.0000)
   5 O      3.869084   -2.541141   -0.828671    ( 0.0000,  0.0000,  0.0000)
   6 O     -1.360390   -0.072375   -1.202141    ( 0.0000,  0.0000,  0.0000)
   7 O     -3.122230    0.508109    1.167321    ( 0.0000,  0.0000,  0.0000)
   8 O     -4.413461   -1.306992   -0.794251    ( 0.0000,  0.0000,  0.0000)
   9 O     -0.069585    1.742707    1.575662    ( 0.0000,  0.0000,  0.0000)
  10 O      5.160604    1.742707    1.132822    ( 0.0000,  0.0000,  0.0000)
  11 O      0.816728   -1.306992   -1.237091    ( 0.0000,  0.0000,  0.0000)
  12 Mn    -2.570809   -1.307302    0.247161    ( 0.0000,  0.0000,  1.0000)
  13 Mn    -1.912021    1.743016   -2.122906    ( 0.0000,  0.0000, -1.0000)
  14 Mn     3.317952    1.743017    0.091411    ( 0.0000,  0.0000, -1.0000)
  15 Mn     2.659164   -1.307302    2.461478    ( 0.0000,  0.0000,  1.0000)
  16 P     -0.620664   -1.306816   -1.828465    ( 0.0000,  0.0000,  0.0000)
  17 P     -3.862097    1.742530    0.541238    ( 0.0000,  0.0000,  0.0000)
  18 P      1.367807    1.742530    2.167036    ( 0.0000,  0.0000,  0.0000)
  19 P      4.609240   -1.306816   -0.202666    ( 0.0000,  0.0000,  0.0000)
  20 O     -0.646437   -1.306845    1.374751    ( 0.0000,  0.0000,  0.0000)
  21 O     -3.836504    1.742559   -0.995565    ( 0.0000,  0.0000,  0.0000)
  22 O      1.393580    1.742559   -1.036179    ( 0.0000,  0.0000,  0.0000)
  23 O      4.583647   -1.306845    1.334136    ( 0.0000,  0.0000,  0.0000)
  24 Li    -4.856429   -2.832143   -2.200714    ( 0.0000,  0.0000,  0.0000)
  25 Li     0.373571   -2.832143    0.169286    ( 0.0000,  0.0000,  0.0000)
  26 Li    -4.856429    0.217857   -2.200714    ( 0.0000,  0.0000,  0.0000)
  27 Li     0.373571    0.217857    0.169286    ( 0.0000,  0.0000,  0.0000)

Unit cell:
           periodic     x           y           z      points  spacing
  1. axis:    yes   10.460000    0.000000    0.000000    60     0.1743
  2. axis:    yes    0.000000    6.100000    0.000000    35     0.1743
  3. axis:    yes    0.000000    0.000000    4.740000    27     0.1756

  Lengths:  10.460000   6.100000   4.740000
  Angles:   90.000000  90.000000  90.000000

Effective grid spacing dv^(1/3) = 0.1747

                     log10-error:           total        iterations:
           time      wfs    density  force  energy       poisson  magmom
iter:   1  02:07:41                       -231.918841             +0.0000
iter:   2  02:08:20  -0.55  -0.94         -231.715232             -0.0001
iter:   3  02:09:00  -0.72  -0.98         -220.586795             -0.0001
iter:   4  02:09:39  -0.95  -1.20         -218.869246             -0.0000
iter:   5  02:10:18  -1.93  -1.36         -222.188583             -0.0000
iter:   6  02:10:58  -1.99  -1.44         -220.988874             -0.0000
iter:   7  02:11:37  -2.13  -1.66         -224.189402             -0.0746
iter:   8  02:12:16  -1.89  -1.88         -226.787435             +0.4612
iter:   9  02:12:56  -2.62  -1.83         -227.555265             +0.1456
iter:  10  02:13:35  -2.46  -1.77         -226.996484             -0.0026
iter:  11  02:14:14  -2.02  -1.87         -226.487976             +0.0056
iter:  12  02:14:54  -2.12  -2.16         -226.366753             -0.0020
iter:  13  02:15:33  -3.21  -2.46         -226.329189             +0.0035
iter:  14  02:16:12  -2.37  -2.50         -226.263053             +0.0045
iter:  15  02:16:51  -3.61  -2.78         -226.247590             +0.0012
iter:  16  02:17:31  -3.88  -2.88         -226.232652             -0.0003
iter:  17  02:18:10  -4.39  -2.96         -226.230770             -0.0001
iter:  18  02:18:50  -4.33  -3.06         -226.227883             -0.0000
iter:  19  02:19:29  -5.14  -3.21         -226.227591             -0.0000
iter:  20  02:20:09  -5.43  -3.27         -226.227992             -0.0000
iter:  21  02:20:48  -6.01  -3.38         -226.227906             -0.0000
iter:  22  02:21:27  -5.21  -3.41         -226.227500             +0.0000
iter:  23  02:22:07  -5.73  -3.73         -226.227460             +0.0000
iter:  24  02:22:46  -6.10  -3.92         -226.227391             -0.0000
iter:  25  02:23:25  -6.21  -4.04         -226.227383             +0.0000
iter:  26  02:24:05  -7.19  -4.13         -226.227378             -0.0000
iter:  27  02:24:44  -6.05  -4.16         -226.227379             -0.0000
iter:  28  02:25:24  -7.13  -4.43         -226.227369             -0.0000
iter:  29  02:26:14  -8.26  -4.68         -226.227369             +0.0000
iter:  30  02:26:53  -7.10  -4.72         -226.227367             +0.0000
iter:  31  02:27:44  -7.57  -4.91    -2.45-226.227367             +0.0000
iter:  32  02:28:34  -8.75  -5.07    -3.19-226.227367             +0.0000
iter:  33  02:29:24  -9.21  -5.09    -3.23-226.227367             -0.0000
iter:  34  02:30:14  -9.67  -5.12    -3.31-226.227367             +0.0000
iter:  35  02:31:04  -8.74  -5.17    -3.21-226.227367             +0.0000
iter:  36  02:31:54  -8.54  -5.27    -3.08-226.227366             +0.0000
iter:  37  02:32:44  -9.19  -5.31    -3.13-226.227366             +0.0000
iter:  38  02:33:34  -9.50  -5.48    -3.58-226.227366             +0.0000
iter:  39  02:34:24 -10.32  -5.68    -3.80-226.227366             +0.0000
iter:  40  02:35:14  -9.33  -5.74    -3.47-226.227366             -0.0000
iter:  41  02:36:04 -10.27  -6.03    -3.87-226.227366             +0.0000
iter:  42  02:36:54  -9.80  -6.10    -3.67-226.227366             -0.0000
iter:  43  02:37:43 -10.95  -6.09    -4.16-226.227366             -0.0000
iter:  44  02:38:33  -9.94  -6.16    -3.85-226.227366             -0.0000
iter:  45  02:39:23 -11.19  -6.48    -4.09-226.227366             -0.0000
iter:  46  02:40:13 -12.27  -6.93    -5.54-226.227366             -0.0000
iter:  47  02:41:03 -11.84  -6.95    -4.45-226.227366             -0.0000
iter:  48  02:41:53 -12.39  -7.12    -4.80-226.227366             -0.0000
iter:  49  02:42:43 -13.35  -7.31    -5.15-226.227366             -0.0000
iter:  50  02:43:33 -12.66  -7.36    -4.92-226.227366             -0.0000
iter:  51  02:44:23 -12.93  -7.38    -4.97-226.227366             -0.0000
iter:  52  02:45:13 -14.26  -7.84    -6.17-226.227366             -0.0000

Converged after 52 iterations.

Dipole moment: (10.669985, 1.409903, -6.270126) |e|*Ang

Total magnetic moment: (0.000000, 0.000000, -0.000000)
Local magnetic moments:
   0 O  ( 0.000000,  0.000000, -0.000542)
   1 O  ( 0.000000,  0.000000,  0.000514)
   2 O  ( 0.000000,  0.000000,  0.000518)
   3 O  ( 0.000000,  0.000000, -0.000486)
   4 O  ( 0.000000,  0.000000,  0.000474)
   5 O  ( 0.000000,  0.000000, -0.000512)
   6 O  ( 0.000000,  0.000000, -0.000558)
   7 O  ( 0.000000,  0.000000,  0.000534)
   8 O  ( 0.000000,  0.000000,  0.028747)
   9 O  ( 0.000000,  0.000000, -0.028583)
  10 O  ( 0.000000,  0.000000, -0.028694)
  11 O  ( 0.000000,  0.000000,  0.028654)
  12 Mn ( 0.000000,  0.000000,  4.448155)
  13 Mn ( 0.000000,  0.000000, -4.448218)
  14 Mn ( 0.000000,  0.000000, -4.447575)
  15 Mn ( 0.000000,  0.000000,  4.447498)
  16 P  ( 0.000000,  0.000000,  0.001570)
  17 P  ( 0.000000,  0.000000, -0.001554)
  18 P  ( 0.000000,  0.000000, -0.001599)
  19 P  ( 0.000000,  0.000000,  0.001532)
  20 O  ( 0.000000,  0.000000,  0.025290)
  21 O  ( 0.000000,  0.000000, -0.025348)
  22 O  ( 0.000000,  0.000000, -0.025280)
  23 O  ( 0.000000,  0.000000,  0.025341)
  24 Li ( 0.000000,  0.000000,  0.000000)
  25 Li ( 0.000000,  0.000000, -0.000004)
  26 Li ( 0.000000,  0.000000, -0.000000)
  27 Li ( 0.000000,  0.000000,  0.000003)

Energy contributions relative to reference atoms: (reference = -196157.275402)

Kinetic:       +217.087489
Potential:     -195.036179
External:        +0.000000
XC:            -250.320322
Entropy (-ST):   -0.000000
Local:           +2.041646
--------------------------
Free energy:   -226.227366
Extrapolated:  -226.227366

Spin contamination: 9.559608 electrons
Showing only first 2 kpts
                      Up                     Down
 Kpt  Band  Eigenvalues  Occupancy  Eigenvalues  Occupancy
  0    88      5.11284    0.00694      5.10893    0.00694
  0    89      5.13820    0.00694      5.13791    0.00694
  0    90      7.28936    0.00000      7.28972    0.00000
  0    91      7.30982    0.00000      7.31027    0.00000

  1    88      5.13872    0.00694      5.13476    0.00694
  1    89      5.16845    0.00694      5.16837    0.00694
  1    90      7.23175    0.00000      7.23213    0.00000
  1    91      7.24942    0.00000      7.24786    0.00000


Fermi level: 6.64003

Gap: 1.970 eV
Transition (v -> c):
  (s=0, k=73, n=89, [0.08, -0.42, -0.12]) -> (s=0, k=62, n=90, [-0.08, 0.08, 0.12])
Writing to born-0.01-4x+.gpw (mode='all')

Timing:                              incl.     excl.
-----------------------------------------------------------
Hamiltonian:                         0.419     0.003   0.0% |
 Atomic:                             0.054     0.054   0.0% |
  XC Correction:                     0.000     0.000   0.0% |
 Calculate atomic Hamiltonians:      0.184     0.184   0.0% |
 Communicate:                        0.002     0.002   0.0% |
 Initialize Hamiltonian:             0.000     0.000   0.0% |
 Poisson:                            0.002     0.002   0.0% |
 XC 3D grid:                         0.174     0.174   0.0% |
LCAO initialization:               135.979     0.677   0.0% |
 LCAO eigensolver:                  33.792     0.002   0.0% |
  Calculate projections:             0.056     0.056   0.0% |
  DenseAtomicCorrection:             0.082     0.082   0.0% |
  Distribute overlap matrix:         0.093     0.093   0.0% |
  Orbital Layouts:                   0.361     0.361   0.0% |
  Potential matrix:                 33.108    33.108   0.6% |
  Sum over cells:                    0.088     0.088   0.0% |
 LCAO to grid:                      99.248    99.248   1.8% ||
 Set positions (LCAO WFS):           2.262     0.346   0.0% |
  Basic WFS set positions:           0.001     0.001   0.0% |
  Basis functions set positions:     0.000     0.000   0.0% |
  P tci:                             1.055     1.055   0.0% |
  ST tci:                            0.655     0.655   0.0% |
  mktci:                             0.204     0.204   0.0% |
PWDescriptor:                        0.025     0.025   0.0% |
SCF-cycle:                        2295.557     2.594   0.0% |
 Davidson:                        1945.541   631.662  11.3% |----|
  Apply H:                         136.999   132.803   2.4% ||
   HMM T:                            4.196     4.196   0.1% |
  Subspace diag:                   289.126     0.168   0.0% |
   calc_h_matrix:                  188.089    51.509   0.9% |
    Apply H:                       136.581   132.495   2.4% ||
     HMM T:                          4.086     4.086   0.1% |
   diagonalize:                      6.380     6.380   0.1% |
   rotate_psi:                      94.488    94.488   1.7% ||
  calc. matrices:                  608.334   344.327   6.2% |-|
   Apply H:                        264.007   256.355   4.6% |-|
    HMM T:                           7.651     7.651   0.1% |
  diagonalize:                      86.906    86.906   1.6% ||
  rotate_psi:                      192.514   192.514   3.5% ||
 Density:                           76.818     0.001   0.0% |
  Atomic density matrices:           1.383     1.383   0.0% |
  Mix:                              12.686    12.686   0.2% |
  Multipole moments:                 0.030     0.030   0.0% |
  Pseudo density:                   62.718    62.716   1.1% |
   Symmetrize density:               0.002     0.002   0.0% |
 Forces:                           244.666   244.666   4.4% |-|
 Hamiltonian:                       21.537     0.119   0.0% |
  Atomic:                            2.786     2.786   0.1% |
   XC Correction:                    0.000     0.000   0.0% |
  Calculate atomic Hamiltonians:     9.324     9.324   0.2% |
  Communicate:                       0.095     0.095   0.0% |
  Poisson:                           0.085     0.085   0.0% |
  XC 3D grid:                        9.127     9.127   0.2% |
 Orthonormalize:                     4.403     0.004   0.0% |
  calc_s_matrix:                     0.522     0.522   0.0% |
  inverse-cholesky:                  0.054     0.054   0.0% |
  projections:                       2.891     2.891   0.1% |
  rotate_psi_s:                      0.932     0.932   0.0% |
Set symmetry:                        0.000     0.000   0.0% |
Other:                            3134.542  3134.542  56.3% |----------------------|
-----------------------------------------------------------
Total:                                      5566.521 100.0%

Memory usage: 12.59 GiB
Date: Mon Mar 22 03:37:26 2021
