
  ___ ___ ___ _ _ _  
 |   |   |_  | | | | 
 | | | | | . | | | | 
 |__ |  _|___|_____|  21.1.1b1
 |___|_|             

User:   madkru@g043.nifl.fysik.dtu.dk
Date:   Tue Mar 30 06:22:57 2021
Arch:   x86_64
Pid:    39387
Python: 3.8.6
gpaw:   /home/niflheim/madkru/venv_madkru/gpaw/gpaw (e6f0d78a31)
_gpaw:  /home/niflheim/madkru/venv_madkru/gpaw/build/lib.linux-x86_64-sandybridge-3.8/
        _gpaw.cpython-38-x86_64-linux-gnu.so (e6f0d78a31)
ase:    /home/niflheim/madkru/venv_madkru/ase/ase (version 3.22.0b1-4d5a73cb29)
numpy:  /home/modules/software/SciPy-bundle/2020.11-foss-2020b/lib/python3.8/site-packages/numpy (version 1.19.4)
scipy:  /home/modules/software/SciPy-bundle/2020.11-foss-2020b/lib/python3.8/site-packages/scipy (version 1.5.4)
libxc:  4.3.4
units:  Angstrom and eV
cores: 64
OpenMP: False
OMP_NUM_THREADS: 1

Input parameters:
  convergence: {bands: occupied,
                density: 0.0001,
                eigenstates: 4e-08,
                energy: 0.0005,
                forces: 1e-06}
  kpts: [6 6 4]
  maxiter: 1000
  mode: {ecut: 600.0,
         gammacentered: False,
         name: pw}
  occupations: {fixmagmom: False,
                name: fermi-dirac,
                width: 0.001}
  symmetry: {point_group: False,
             time_reversal: False}

System changes: positions, numbers, cell, pbc, initial_charges, initial_magmoms 

Initialize ...

O-setup:
  name: Oxygen
  id: 9b9d51c344dea68c822856295a461509
  Z: 8.0
  valence: 6
  core: 2
  charge: 0.0
  file: /home/modules/software/GPAW-setups/0.9.20000/O.LDA.gz
  compensation charges: gauss, rc=0.21, lmax=2
  cutoffs: 1.17(filt), 0.83(core),
  valence states:
                energy  radius
    2s(2.00)   -23.752   0.688
    2p(4.00)    -9.195   0.598
    *s           3.459   0.688
    *p          18.016   0.598
    *d           0.000   0.619

  Using partial waves for O as LCAO basis

Mn-setup:
  name: Manganese
  id: 0d715a8018be061a6e9ea6f2d364ac92
  Z: 25.0
  valence: 15
  core: 10
  charge: 0.0
  file: /home/modules/software/GPAW-setups/0.9.20000/Mn.LDA.gz
  compensation charges: gauss, rc=0.38, lmax=2
  cutoffs: 2.14(filt), 0.86(core),
  valence states:
                energy  radius
    3s(2.00)   -85.387   1.275
    4s(2.00)    -5.282   1.275
    3p(6.00)   -54.493   1.281
    4p(0.00)    -1.471   1.281
    3d(5.00)    -7.009   1.138
    *d          20.203   1.138

  Using partial waves for Mn as LCAO basis

P-setup:
  name: Phosphorus
  id: a5561c299094968922a179ab894d2e2d
  Z: 15.0
  valence: 5
  core: 10
  charge: 0.0
  file: /home/modules/software/GPAW-setups/0.9.20000/P.LDA.gz
  compensation charges: gauss, rc=0.30, lmax=2
  cutoffs: 1.69(filt), 1.81(core),
  valence states:
                energy  radius
    3s(2.00)   -14.015   0.953
    3p(3.00)    -5.596   0.953
    *s          13.197   0.953
    *p          21.615   0.953
    *d           0.000   0.953

  Using partial waves for P as LCAO basis

Li-setup:
  name: Lithium
  id: b73562207f97a71b6967473b66fe8b65
  Z: 3.0
  valence: 1
  core: 2
  charge: 0.0
  file: /home/modules/software/GPAW-setups/0.9.20000/Li.LDA.gz
  compensation charges: gauss, rc=0.33, lmax=2
  cutoffs: 1.91(filt), 2.55(core),
  valence states:
                energy  radius
    2s(1.00)    -2.874   1.058
    2p(0.00)    -1.126   1.058
    *s          24.338   1.058

  Using partial waves for Li as LCAO basis

Reference energy: -196157.275402

Spin-polarized calculation.
Magnetic moment: 0.000000

Convergence criteria:
  Maximum total energy change: 0.0005 eV / electron
  Maximum integral of absolute density change: 0.0001 electrons
  Maximum integral of absolute eigenstate change: 4e-08 eV^2
  Maximum change in atomic force: 1e-06 eV / Ang
  Maximum number of iterations: 1000

Symmetries present (total): 1

  ( 1  0  0)
  ( 0  1  0)
  ( 0  0  1)

144 k-points: 6 x 6 x 4 Monkhorst-Pack grid
144 k-points in the irreducible part of the Brillouin zone
       k-points in crystal coordinates                weights
   0:    -0.41666667   -0.41666667   -0.37500000          1/144
   1:    -0.41666667   -0.41666667   -0.12500000          1/144
   2:    -0.41666667   -0.41666667    0.12500000          1/144
   3:    -0.41666667   -0.41666667    0.37500000          1/144
   4:    -0.41666667   -0.25000000   -0.37500000          1/144
   5:    -0.41666667   -0.25000000   -0.12500000          1/144
   6:    -0.41666667   -0.25000000    0.12500000          1/144
   7:    -0.41666667   -0.25000000    0.37500000          1/144
   8:    -0.41666667   -0.08333333   -0.37500000          1/144
   9:    -0.41666667   -0.08333333   -0.12500000          1/144
          ...
 143:     0.41666667    0.41666667    0.37500000          1/144

Wave functions: Plane wave expansion
  Cutoff energy: 600.000 eV
  Number of coefficients (min, max): 10068, 10125
  Pulay-stress correction: 0.000000 eV/Ang^3 (de/decut=0.000000)
  Using FFTW library
  ScaLapack parameters: grid=1x1, blocksize=None
  Wavefunction extrapolation:
    Improved wavefunction reuse through dual PAW basis 

  Fermi-Dirac: width=0.0010 eV

Eigensolver
   Davidson(niter=2) 

Densities:
  Coarse grid: 60*35*27 grid
  Fine grid: 120*70*54 grid
  Total Charge: 0.000000 

Density mixing:
  Method: difference
  Backend: pulay
  Linear mixing parameter: 0.05
  Mixing with 5 old densities
  Damping of long wave oscillations: 50 

Hamiltonian:
  XC and Coulomb potentials evaluated on a 120*70*54 grid
  Using the LDA Exchange-Correlation functional
 

Memory estimate:
  Process memory now: 12350.83 MiB
  Calculator: 354.82 MiB
    Density: 10.06 MiB
      Arrays: 3.79 MiB
      Localized functions: 4.71 MiB
      Mixer: 1.56 MiB
    Hamiltonian: 2.95 MiB
      Arrays: 2.82 MiB
      XC: 0.00 MiB
      Poisson: 0.00 MiB
      vbar: 0.14 MiB
    Wavefunctions: 341.80 MiB
      Arrays psit_nG: 311.46 MiB
      Eigensolver: 19.99 MiB
      Projections: 2.71 MiB
      Projectors: 4.87 MiB
      PW-descriptor: 2.77 MiB

Total number of cores used: 64
Parallelization over k-points: 16
Domain decomposition: 2 x 2 x 1

Number of atoms: 28
Number of atomic orbitals: 148
Number of bands in calculation: 112
Number of valence electrons: 180
Bands to converge: occupied

... initialized

Initializing position-dependent things.

Density initialized from atomic densities
Creating initial wave functions:
  112 bands from LCAO basis set

     .-------------------------.  
    /|         OP              |  
   / |O            O        O  |  
  /  |       O            O  P |  
 *   |O    Mn      O           |  
 |   |          OLi          O |  
 |   .P-O--------------Mn------.  
 |  /          Li    O  Mn  O /   
 | /Li O           PO        /    
 |/       Mn                /     
 *Li-----------------------*      

Positions:
   0 O     -1.360678   -2.541161   -1.202221    ( 0.0000,  0.0000,  0.0000)
   1 O     -3.121941    2.976855    1.167242    ( 0.0000,  0.0000,  0.0000)
   2 O      2.107533    0.508090    1.540712    ( 0.0000,  0.0000,  0.0000)
   3 O      3.869373   -0.072395   -0.828750    ( 0.0000,  0.0000,  0.0000)
   4 O      2.107821    2.976875    1.540792    ( 0.0000,  0.0000,  0.0000)
   5 O      3.869084   -2.541141   -0.828671    ( 0.0000,  0.0000,  0.0000)
   6 O     -1.360390   -0.072375   -1.202141    ( 0.0000,  0.0000,  0.0000)
   7 O     -3.122230    0.508109    1.167321    ( 0.0000,  0.0000,  0.0000)
   8 O     -4.413461   -1.306992   -0.794251    ( 0.0000,  0.0000,  0.0000)
   9 O     -0.069585    1.742707    1.585662    ( 0.0000,  0.0000,  0.0000)
  10 O      5.160604    1.742707    1.132822    ( 0.0000,  0.0000,  0.0000)
  11 O      0.816728   -1.306992   -1.237091    ( 0.0000,  0.0000,  0.0000)
  12 Mn    -2.570809   -1.307302    0.247161    ( 0.0000,  0.0000,  1.0000)
  13 Mn    -1.912021    1.743016   -2.122906    ( 0.0000,  0.0000, -1.0000)
  14 Mn     3.317952    1.743017    0.091411    ( 0.0000,  0.0000, -1.0000)
  15 Mn     2.659164   -1.307302    2.461478    ( 0.0000,  0.0000,  1.0000)
  16 P     -0.620664   -1.306816   -1.828465    ( 0.0000,  0.0000,  0.0000)
  17 P     -3.862097    1.742530    0.541238    ( 0.0000,  0.0000,  0.0000)
  18 P      1.367807    1.742530    2.167036    ( 0.0000,  0.0000,  0.0000)
  19 P      4.609240   -1.306816   -0.202666    ( 0.0000,  0.0000,  0.0000)
  20 O     -0.646437   -1.306845    1.374751    ( 0.0000,  0.0000,  0.0000)
  21 O     -3.836504    1.742559   -0.995565    ( 0.0000,  0.0000,  0.0000)
  22 O      1.393580    1.742559   -1.036179    ( 0.0000,  0.0000,  0.0000)
  23 O      4.583647   -1.306845    1.334136    ( 0.0000,  0.0000,  0.0000)
  24 Li    -4.856429   -2.832143   -2.200714    ( 0.0000,  0.0000,  0.0000)
  25 Li     0.373571   -2.832143    0.169286    ( 0.0000,  0.0000,  0.0000)
  26 Li    -4.856429    0.217857   -2.200714    ( 0.0000,  0.0000,  0.0000)
  27 Li     0.373571    0.217857    0.169286    ( 0.0000,  0.0000,  0.0000)

Unit cell:
           periodic     x           y           z      points  spacing
  1. axis:    yes   10.460000    0.000000    0.000000    60     0.1743
  2. axis:    yes    0.000000    6.100000    0.000000    35     0.1743
  3. axis:    yes    0.000000    0.000000    4.740000    27     0.1756

  Lengths:  10.460000   6.100000   4.740000
  Angles:   90.000000  90.000000  90.000000

Effective grid spacing dv^(1/3) = 0.1747

                     log10-error:           total        iterations:
           time      wfs    density  force  energy       poisson  magmom
iter:   1  06:24:31                       -231.918188             +0.0000
iter:   2  06:24:52  -0.55  -0.94         -231.724807             +0.0061
iter:   3  06:25:13  -0.72  -0.98         -220.588527             +0.0076
iter:   4  06:25:34  -0.96  -1.20         -218.869700             +0.0025
iter:   5  06:25:56  -1.95  -1.36         -221.452950             +0.0016
iter:   6  06:26:17  -2.00  -1.49         -220.070181             +0.0008
iter:   7  06:26:38  -2.17  -1.69         -223.912206             +0.2700
iter:   8  06:26:59  -2.72  -1.88         -220.907834             +0.4337
iter:   9  06:27:20  -1.63  -1.91         -226.743952             -0.6026
iter:  10  06:27:42  -2.63  -1.82         -227.424689             -0.0538
iter:  11  06:28:03  -1.31  -1.80         -228.536913             -0.0298
iter:  12  06:28:24  -2.49  -1.87         -227.914283             -0.1039
iter:  13  06:28:45  -2.66  -1.95         -228.941341             +0.4409
iter:  14  06:29:07  -2.96  -1.84         -228.114614             -0.5578
iter:  15  06:29:28  -2.02  -1.86         -224.514388             -2.9827
iter:  16  06:29:49  -2.76  -2.07         -225.532451             -1.5792
iter:  17  06:30:10  -2.78  -2.10         -226.309618             -0.7444
iter:  18  06:30:31  -2.12  -2.14         -226.445250             -0.0177
iter:  19  06:30:52  -2.96  -2.33         -226.446192             -0.0287
iter:  20  06:31:14  -2.13  -2.35         -226.306454             -0.0111
iter:  21  06:31:35  -3.15  -2.59         -226.242495             -0.0073
iter:  22  06:31:56  -2.94  -2.70         -226.268940             -0.0012
iter:  23  06:32:17  -2.97  -2.79         -226.236346             -0.0007
iter:  24  06:32:38  -4.04  -3.01         -226.230702             -0.0003
iter:  25  06:33:00  -3.72  -3.16         -226.230148             +0.0000
iter:  26  06:33:21  -4.08  -3.26         -226.230393             -0.0001
iter:  27  06:33:42  -4.06  -3.35         -226.227960             -0.0000
iter:  28  06:34:03  -5.13  -3.59         -226.227562             -0.0000
iter:  29  06:34:25  -6.00  -3.69         -226.227542             -0.0000
iter:  30  06:34:46  -5.25  -3.74         -226.227687             -0.0000
iter:  31  06:35:07  -5.71  -3.91         -226.227498             -0.0000
iter:  32  06:35:28  -6.40  -4.02         -226.227491             -0.0000
iter:  33  06:35:49  -6.64  -4.05         -226.227474             -0.0000
iter:  34  06:36:11  -5.97  -4.14         -226.227529             -0.0000
iter:  35  06:36:32  -6.12  -4.14         -226.227473             -0.0000
iter:  36  06:36:53  -6.08  -4.30         -226.227491             -0.0000
iter:  37  06:37:14  -6.30  -4.36         -226.227461             -0.0000
iter:  38  06:37:41  -7.54  -4.48         -226.227461             -0.0000
iter:  39  06:38:07  -8.14  -4.67    -2.60-226.227461             -0.0000
iter:  40  06:38:34  -7.84  -4.85    -2.84-226.227460             -0.0000
iter:  41  06:39:01  -7.93  -5.06    -3.13-226.227460             -0.0000
iter:  42  06:39:27  -7.78  -5.11    -2.79-226.227460             -0.0000
iter:  43  06:39:54  -8.68  -5.23    -3.38-226.227459             -0.0000
iter:  44  06:40:21  -8.43  -5.26    -2.86-226.227459             -0.0000
iter:  45  06:40:47  -8.93  -5.41    -3.18-226.227459             -0.0000
iter:  46  06:41:14  -8.80  -5.48    -3.23-226.227459             -0.0000
iter:  47  06:41:41  -9.74  -5.72    -3.43-226.227459             -0.0000
iter:  48  06:42:07 -10.36  -5.87    -4.24-226.227459             -0.0000
iter:  49  06:42:34  -9.62  -5.92    -3.86-226.227459             -0.0000
iter:  50  06:43:01 -10.33  -6.22    -4.06-226.227459             -0.0000
iter:  51  06:43:27 -10.61  -6.30    -4.33-226.227459             -0.0000
iter:  52  06:43:54 -10.53  -6.40    -3.93-226.227459             +0.0000
iter:  53  06:44:21 -11.16  -6.75    -4.53-226.227459             +0.0000
iter:  54  06:44:47 -12.30  -6.76    -5.10-226.227459             +0.0000
iter:  55  06:45:14 -11.88  -6.80    -4.80-226.227459             +0.0000
iter:  56  06:45:41 -11.52  -6.89    -4.69-226.227459             +0.0000
iter:  57  06:46:07 -11.96  -6.93    -4.85-226.227459             +0.0000
iter:  58  06:46:34 -12.44  -7.12    -5.21-226.227459             +0.0000
iter:  59  06:47:01 -12.63  -7.21    -4.80-226.227459             +0.0000
iter:  60  06:47:27 -12.48  -7.36    -5.22-226.227459             +0.0000
iter:  61  06:47:54 -13.43  -7.42    -5.44-226.227459             +0.0000
iter:  62  06:48:21 -13.12  -7.50    -5.21-226.227459             +0.0000
iter:  63  06:48:47 -13.35  -7.71    -5.75-226.227459             +0.0000
iter:  64  06:49:14 -13.06  -7.78    -5.38-226.227459             +0.0000
iter:  65  06:49:41 -13.73  -8.07    -5.84-226.227459             +0.0000
iter:  66  06:50:07 -14.11  -8.36    -6.10-226.227459             +0.0000

Converged after 66 iterations.

Dipole moment: (10.675753, 1.411061, -6.276393) |e|*Ang

Total magnetic moment: (0.000000, 0.000000, 0.000000)
Local magnetic moments:
   0 O  ( 0.000000,  0.000000, -0.000548)
   1 O  ( 0.000000,  0.000000,  0.000526)
   2 O  ( 0.000000,  0.000000,  0.000490)
   3 O  ( 0.000000,  0.000000, -0.000552)
   4 O  ( 0.000000,  0.000000,  0.000471)
   5 O  ( 0.000000,  0.000000, -0.000532)
   6 O  ( 0.000000,  0.000000, -0.000568)
   7 O  ( 0.000000,  0.000000,  0.000546)
   8 O  ( 0.000000,  0.000000,  0.028702)
   9 O  ( 0.000000,  0.000000, -0.028750)
  10 O  ( 0.000000,  0.000000, -0.028658)
  11 O  ( 0.000000,  0.000000,  0.028684)
  12 Mn ( 0.000000,  0.000000,  4.448144)
  13 Mn ( 0.000000,  0.000000, -4.447744)
  14 Mn ( 0.000000,  0.000000, -4.448247)
  15 Mn ( 0.000000,  0.000000,  4.448217)
  16 P  ( 0.000000,  0.000000,  0.001549)
  17 P  ( 0.000000,  0.000000, -0.001549)
  18 P  ( 0.000000,  0.000000, -0.001610)
  19 P  ( 0.000000,  0.000000,  0.001537)
  20 O  ( 0.000000,  0.000000,  0.025301)
  21 O  ( 0.000000,  0.000000, -0.025270)
  22 O  ( 0.000000,  0.000000, -0.025433)
  23 O  ( 0.000000,  0.000000,  0.025299)
  24 Li ( 0.000000,  0.000000, -0.000000)
  25 Li ( 0.000000,  0.000000,  0.000007)
  26 Li ( 0.000000,  0.000000, -0.000000)
  27 Li ( 0.000000,  0.000000,  0.000007)

Energy contributions relative to reference atoms: (reference = -196157.275402)

Kinetic:       +217.668698
Potential:     -195.483697
External:        +0.000000
XC:            -250.452622
Entropy (-ST):   -0.000000
Local:           +2.040163
--------------------------
Free energy:   -226.227459
Extrapolated:  -226.227459

Spin contamination: 9.560284 electrons
Showing only first 2 kpts
                      Up                     Down
 Kpt  Band  Eigenvalues  Occupancy  Eigenvalues  Occupancy
  0    88      5.11038    1.00000      5.11485    1.00000
  0    89      5.13486    1.00000      5.13957    1.00000
  0    90      7.29100    0.00000      7.28924    0.00000
  0    91      7.30853    0.00000      7.30700    0.00000

  1    88      5.13607    1.00000      5.14042    1.00000
  1    89      5.16528    1.00000      5.17012    1.00000
  1    90      7.23342    0.00000      7.23201    0.00000
  1    91      7.24552    0.00000      7.24431    0.00000


Fermi level: 6.09128

Gap: 1.968 eV
Transition (v -> c):
  (s=1, k=74, n=89, [0.08, -0.42, 0.12]) -> (s=1, k=86, n=90, [0.08, 0.08, 0.12])
Writing to born-0.01-9z+.gpw (mode='all')

Timing:                              incl.     excl.
-----------------------------------------------------------
Hamiltonian:                         0.267     0.003   0.0% |
 Atomic:                             0.083     0.083   0.0% |
  XC Correction:                     0.000     0.000   0.0% |
 Calculate atomic Hamiltonians:      0.088     0.088   0.0% |
 Communicate:                        0.000     0.000   0.0% |
 Initialize Hamiltonian:             0.000     0.000   0.0% |
 Poisson:                            0.001     0.001   0.0% |
 XC 3D grid:                         0.092     0.092   0.0% |
LCAO initialization:                68.063     0.676   0.0% |
 LCAO eigensolver:                  17.913     0.003   0.0% |
  Calculate projections:             0.029     0.029   0.0% |
  DenseAtomicCorrection:             0.042     0.042   0.0% |
  Distribute overlap matrix:         0.175     0.175   0.0% |
  Orbital Layouts:                   0.277     0.277   0.0% |
  Potential matrix:                 17.301    17.301   0.5% |
  Sum over cells:                    0.086     0.086   0.0% |
 LCAO to grid:                      48.198    48.198   1.3% ||
 Set positions (LCAO WFS):           1.275     0.179   0.0% |
  Basic WFS set positions:           0.001     0.001   0.0% |
  Basis functions set positions:     0.000     0.000   0.0% |
  P tci:                             0.513     0.513   0.0% |
  ST tci:                            0.370     0.370   0.0% |
  mktci:                             0.212     0.212   0.0% |
PWDescriptor:                        0.025     0.025   0.0% |
SCF-cycle:                        1561.163    11.102   0.3% |
 Davidson:                        1319.870   424.473  11.2% |---|
  Apply H:                          86.678    84.170   2.2% ||
   HMM T:                            2.509     2.509   0.1% |
  Subspace diag:                   188.746     0.194   0.0% |
   calc_h_matrix:                  119.881    33.120   0.9% |
    Apply H:                        86.761    84.247   2.2% ||
     HMM T:                          2.514     2.514   0.1% |
   diagonalize:                      6.756     6.756   0.2% |
   rotate_psi:                      61.915    61.915   1.6% ||
  calc. matrices:                  394.595   221.453   5.8% |-|
   Apply H:                        173.142   168.146   4.4% |-|
    HMM T:                           4.995     4.995   0.1% |
  diagonalize:                     102.045   102.045   2.7% ||
  rotate_psi:                      123.332   123.332   3.2% ||
 Density:                           52.496     0.002   0.0% |
  Atomic density matrices:           0.862     0.862   0.0% |
  Mix:                               9.080     9.080   0.2% |
  Multipole moments:                 0.023     0.023   0.0% |
  Pseudo density:                   42.528    42.527   1.1% |
   Symmetrize density:               0.002     0.002   0.0% |
 Forces:                           159.226   159.226   4.2% |-|
 Hamiltonian:                       16.165     0.139   0.0% |
  Atomic:                            3.733     3.733   0.1% |
   XC Correction:                    0.000     0.000   0.0% |
  Calculate atomic Hamiltonians:     6.185     6.185   0.2% |
  Communicate:                       0.026     0.026   0.0% |
  Poisson:                           0.060     0.060   0.0% |
  XC 3D grid:                        6.023     6.023   0.2% |
 Orthonormalize:                     2.305     0.003   0.0% |
  calc_s_matrix:                     0.266     0.266   0.0% |
  inverse-cholesky:                  0.040     0.040   0.0% |
  projections:                       1.504     1.504   0.0% |
  rotate_psi_s:                      0.491     0.491   0.0% |
Set symmetry:                        0.000     0.000   0.0% |
Other:                            2170.084  2170.084  57.1% |----------------------|
-----------------------------------------------------------
Total:                                      3799.602 100.0%

Memory usage: 12.08 GiB
Date: Tue Mar 30 07:26:16 2021
