
  ___ ___ ___ _ _ _  
 |   |   |_  | | | | 
 | | | | | . | | | | 
 |__ |  _|___|_____|  21.1.1b1
 |___|_|             

User:   madkru@g043.nifl.fysik.dtu.dk
Date:   Tue Mar 30 13:23:52 2021
Arch:   x86_64
Pid:    39387
Python: 3.8.6
gpaw:   /home/niflheim/madkru/venv_madkru/gpaw/gpaw (e6f0d78a31)
_gpaw:  /home/niflheim/madkru/venv_madkru/gpaw/build/lib.linux-x86_64-sandybridge-3.8/
        _gpaw.cpython-38-x86_64-linux-gnu.so (e6f0d78a31)
ase:    /home/niflheim/madkru/venv_madkru/ase/ase (version 3.22.0b1-4d5a73cb29)
numpy:  /home/modules/software/SciPy-bundle/2020.11-foss-2020b/lib/python3.8/site-packages/numpy (version 1.19.4)
scipy:  /home/modules/software/SciPy-bundle/2020.11-foss-2020b/lib/python3.8/site-packages/scipy (version 1.5.4)
libxc:  4.3.4
units:  Angstrom and eV
cores: 64
OpenMP: False
OMP_NUM_THREADS: 1

Input parameters:
  convergence: {bands: occupied,
                density: 0.0001,
                eigenstates: 4e-08,
                energy: 0.0005,
                forces: 1e-06}
  kpts: [6 6 4]
  maxiter: 1000
  mode: {ecut: 600.0,
         gammacentered: False,
         name: pw}
  occupations: {fixmagmom: False,
                name: fermi-dirac,
                width: 0.001}
  symmetry: {point_group: False,
             time_reversal: False}

System changes: positions, numbers, cell, pbc, initial_charges, initial_magmoms 

Initialize ...

O-setup:
  name: Oxygen
  id: 9b9d51c344dea68c822856295a461509
  Z: 8.0
  valence: 6
  core: 2
  charge: 0.0
  file: /home/modules/software/GPAW-setups/0.9.20000/O.LDA.gz
  compensation charges: gauss, rc=0.21, lmax=2
  cutoffs: 1.17(filt), 0.83(core),
  valence states:
                energy  radius
    2s(2.00)   -23.752   0.688
    2p(4.00)    -9.195   0.598
    *s           3.459   0.688
    *p          18.016   0.598
    *d           0.000   0.619

  Using partial waves for O as LCAO basis

Mn-setup:
  name: Manganese
  id: 0d715a8018be061a6e9ea6f2d364ac92
  Z: 25.0
  valence: 15
  core: 10
  charge: 0.0
  file: /home/modules/software/GPAW-setups/0.9.20000/Mn.LDA.gz
  compensation charges: gauss, rc=0.38, lmax=2
  cutoffs: 2.14(filt), 0.86(core),
  valence states:
                energy  radius
    3s(2.00)   -85.387   1.275
    4s(2.00)    -5.282   1.275
    3p(6.00)   -54.493   1.281
    4p(0.00)    -1.471   1.281
    3d(5.00)    -7.009   1.138
    *d          20.203   1.138

  Using partial waves for Mn as LCAO basis

P-setup:
  name: Phosphorus
  id: a5561c299094968922a179ab894d2e2d
  Z: 15.0
  valence: 5
  core: 10
  charge: 0.0
  file: /home/modules/software/GPAW-setups/0.9.20000/P.LDA.gz
  compensation charges: gauss, rc=0.30, lmax=2
  cutoffs: 1.69(filt), 1.81(core),
  valence states:
                energy  radius
    3s(2.00)   -14.015   0.953
    3p(3.00)    -5.596   0.953
    *s          13.197   0.953
    *p          21.615   0.953
    *d           0.000   0.953

  Using partial waves for P as LCAO basis

Li-setup:
  name: Lithium
  id: b73562207f97a71b6967473b66fe8b65
  Z: 3.0
  valence: 1
  core: 2
  charge: 0.0
  file: /home/modules/software/GPAW-setups/0.9.20000/Li.LDA.gz
  compensation charges: gauss, rc=0.33, lmax=2
  cutoffs: 1.91(filt), 2.55(core),
  valence states:
                energy  radius
    2s(1.00)    -2.874   1.058
    2p(0.00)    -1.126   1.058
    *s          24.338   1.058

  Using partial waves for Li as LCAO basis

Reference energy: -196157.275402

Spin-polarized calculation.
Magnetic moment: 0.000000

Convergence criteria:
  Maximum total energy change: 0.0005 eV / electron
  Maximum integral of absolute density change: 0.0001 electrons
  Maximum integral of absolute eigenstate change: 4e-08 eV^2
  Maximum change in atomic force: 1e-06 eV / Ang
  Maximum number of iterations: 1000

Symmetries present (total): 1

  ( 1  0  0)
  ( 0  1  0)
  ( 0  0  1)

144 k-points: 6 x 6 x 4 Monkhorst-Pack grid
144 k-points in the irreducible part of the Brillouin zone
       k-points in crystal coordinates                weights
   0:    -0.41666667   -0.41666667   -0.37500000          1/144
   1:    -0.41666667   -0.41666667   -0.12500000          1/144
   2:    -0.41666667   -0.41666667    0.12500000          1/144
   3:    -0.41666667   -0.41666667    0.37500000          1/144
   4:    -0.41666667   -0.25000000   -0.37500000          1/144
   5:    -0.41666667   -0.25000000   -0.12500000          1/144
   6:    -0.41666667   -0.25000000    0.12500000          1/144
   7:    -0.41666667   -0.25000000    0.37500000          1/144
   8:    -0.41666667   -0.08333333   -0.37500000          1/144
   9:    -0.41666667   -0.08333333   -0.12500000          1/144
          ...
 143:     0.41666667    0.41666667    0.37500000          1/144

Wave functions: Plane wave expansion
  Cutoff energy: 600.000 eV
  Number of coefficients (min, max): 10068, 10125
  Pulay-stress correction: 0.000000 eV/Ang^3 (de/decut=0.000000)
  Using FFTW library
  ScaLapack parameters: grid=1x1, blocksize=None
  Wavefunction extrapolation:
    Improved wavefunction reuse through dual PAW basis 

  Fermi-Dirac: width=0.0010 eV

Eigensolver
   Davidson(niter=2) 

Densities:
  Coarse grid: 60*35*27 grid
  Fine grid: 120*70*54 grid
  Total Charge: 0.000000 

Density mixing:
  Method: difference
  Backend: pulay
  Linear mixing parameter: 0.05
  Mixing with 5 old densities
  Damping of long wave oscillations: 50 

Hamiltonian:
  XC and Coulomb potentials evaluated on a 120*70*54 grid
  Using the LDA Exchange-Correlation functional
 

Memory estimate:
  Process memory now: 12700.21 MiB
  Calculator: 354.82 MiB
    Density: 10.06 MiB
      Arrays: 3.79 MiB
      Localized functions: 4.71 MiB
      Mixer: 1.56 MiB
    Hamiltonian: 2.95 MiB
      Arrays: 2.82 MiB
      XC: 0.00 MiB
      Poisson: 0.00 MiB
      vbar: 0.14 MiB
    Wavefunctions: 341.80 MiB
      Arrays psit_nG: 311.46 MiB
      Eigensolver: 19.99 MiB
      Projections: 2.71 MiB
      Projectors: 4.87 MiB
      PW-descriptor: 2.77 MiB

Total number of cores used: 64
Parallelization over k-points: 16
Domain decomposition: 2 x 2 x 1

Number of atoms: 28
Number of atomic orbitals: 148
Number of bands in calculation: 112
Number of valence electrons: 180
Bands to converge: occupied

... initialized

Initializing position-dependent things.

Density initialized from atomic densities
Creating initial wave functions:
  112 bands from LCAO basis set

     .-------------------------.  
    /|         OP              |  
   / |O            O        O  |  
  /  |       O            O  P |  
 *   |O    Mn      O           |  
 |   |          OLi          O |  
 |   .P-O--------------Mn------.  
 |  /          Li    O  Mn  O /   
 | /Li O           PO        /    
 |/       Mn                /     
 *Li-----------------------*      

Positions:
   0 O     -1.360678   -2.541161   -1.202221    ( 0.0000,  0.0000,  0.0000)
   1 O     -3.121941    2.976855    1.167242    ( 0.0000,  0.0000,  0.0000)
   2 O      2.107533    0.508090    1.540712    ( 0.0000,  0.0000,  0.0000)
   3 O      3.869373   -0.072395   -0.828750    ( 0.0000,  0.0000,  0.0000)
   4 O      2.107821    2.976875    1.540792    ( 0.0000,  0.0000,  0.0000)
   5 O      3.869084   -2.541141   -0.828671    ( 0.0000,  0.0000,  0.0000)
   6 O     -1.360390   -0.072375   -1.202141    ( 0.0000,  0.0000,  0.0000)
   7 O     -3.122230    0.508109    1.167321    ( 0.0000,  0.0000,  0.0000)
   8 O     -4.413461   -1.306992   -0.794251    ( 0.0000,  0.0000,  0.0000)
   9 O     -0.069585    1.742707    1.575662    ( 0.0000,  0.0000,  0.0000)
  10 O      5.160604    1.742707    1.132822    ( 0.0000,  0.0000,  0.0000)
  11 O      0.816728   -1.306992   -1.227091    ( 0.0000,  0.0000,  0.0000)
  12 Mn    -2.570809   -1.307302    0.247161    ( 0.0000,  0.0000,  1.0000)
  13 Mn    -1.912021    1.743016   -2.122906    ( 0.0000,  0.0000, -1.0000)
  14 Mn     3.317952    1.743017    0.091411    ( 0.0000,  0.0000, -1.0000)
  15 Mn     2.659164   -1.307302    2.461478    ( 0.0000,  0.0000,  1.0000)
  16 P     -0.620664   -1.306816   -1.828465    ( 0.0000,  0.0000,  0.0000)
  17 P     -3.862097    1.742530    0.541238    ( 0.0000,  0.0000,  0.0000)
  18 P      1.367807    1.742530    2.167036    ( 0.0000,  0.0000,  0.0000)
  19 P      4.609240   -1.306816   -0.202666    ( 0.0000,  0.0000,  0.0000)
  20 O     -0.646437   -1.306845    1.374751    ( 0.0000,  0.0000,  0.0000)
  21 O     -3.836504    1.742559   -0.995565    ( 0.0000,  0.0000,  0.0000)
  22 O      1.393580    1.742559   -1.036179    ( 0.0000,  0.0000,  0.0000)
  23 O      4.583647   -1.306845    1.334136    ( 0.0000,  0.0000,  0.0000)
  24 Li    -4.856429   -2.832143   -2.200714    ( 0.0000,  0.0000,  0.0000)
  25 Li     0.373571   -2.832143    0.169286    ( 0.0000,  0.0000,  0.0000)
  26 Li    -4.856429    0.217857   -2.200714    ( 0.0000,  0.0000,  0.0000)
  27 Li     0.373571    0.217857    0.169286    ( 0.0000,  0.0000,  0.0000)

Unit cell:
           periodic     x           y           z      points  spacing
  1. axis:    yes   10.460000    0.000000    0.000000    60     0.1743
  2. axis:    yes    0.000000    6.100000    0.000000    35     0.1743
  3. axis:    yes    0.000000    0.000000    4.740000    27     0.1756

  Lengths:  10.460000   6.100000   4.740000
  Angles:   90.000000  90.000000  90.000000

Effective grid spacing dv^(1/3) = 0.1747

                     log10-error:           total        iterations:
           time      wfs    density  force  energy       poisson  magmom
iter:   1  13:25:27                       -231.921842             +0.0000
iter:   2  13:25:48  -0.55  -0.94         -231.736518             +0.0054
iter:   3  13:26:10  -0.72  -0.98         -220.580258             +0.0068
iter:   4  13:26:31  -0.96  -1.20         -218.862457             +0.0022
iter:   5  13:26:52  -1.93  -1.36         -221.211640             +0.0015
iter:   6  13:27:14  -1.98  -1.50         -220.026614             +0.0008
iter:   7  13:27:35  -2.21  -1.66         -223.590245             -0.0684
iter:   8  13:27:56  -2.73  -1.88         -221.079456             -0.1047
iter:   9  13:28:18  -1.69  -1.89         -226.994200             +0.0165
iter:  10  13:28:39  -2.47  -1.82         -227.620224             -0.0000
iter:  11  13:29:00  -1.52  -1.77         -227.033740             +0.0003
iter:  12  13:29:22  -2.58  -2.05         -226.792938             +0.0000
iter:  13  13:29:43  -3.08  -2.06         -226.591069             -0.0001
iter:  14  13:30:04  -2.14  -2.11         -226.353986             -0.0000
iter:  15  13:30:26  -2.58  -2.35         -226.282614             -0.0000
iter:  16  13:30:47  -3.61  -2.53         -226.267468             -0.0000
iter:  17  13:31:08  -2.68  -2.57         -226.260345             -0.0000
iter:  18  13:31:30  -3.58  -2.93         -226.239139             -0.0000
iter:  19  13:31:51  -3.58  -3.15         -226.228868             -0.0000
iter:  20  13:32:12  -4.42  -3.14         -226.230260             -0.0000
iter:  21  13:32:33  -4.59  -3.35         -226.228224             -0.0000
iter:  22  13:32:55  -5.27  -3.46         -226.227800             -0.0000
iter:  23  13:33:16  -5.55  -3.48         -226.227558             +0.0000
iter:  24  13:33:37  -5.68  -3.52         -226.227616             -0.0000
iter:  25  13:33:58  -5.69  -3.58         -226.227773             -0.0000
iter:  26  13:34:20  -5.95  -3.75         -226.227582             -0.0000
iter:  27  13:34:41  -5.85  -3.89         -226.227475             -0.0000
iter:  28  13:35:02  -6.64  -3.98         -226.227484             -0.0000
iter:  29  13:35:24  -6.26  -4.05         -226.227463             -0.0000
iter:  30  13:35:45  -7.11  -4.39         -226.227465             +0.0000
iter:  31  13:36:12  -7.42  -4.48         -226.227464             +0.0000
iter:  32  13:36:33  -7.13  -4.67         -226.227462             +0.0000
iter:  33  13:37:00  -7.84  -4.84    -2.33-226.227462             +0.0000
iter:  34  13:37:27  -8.87  -4.95    -3.47-226.227462             +0.0000
iter:  35  13:37:53  -8.66  -4.96    -3.14-226.227462             +0.0000
iter:  36  13:38:20  -8.71  -5.04    -3.34-226.227462             +0.0000
iter:  37  13:38:47  -9.73  -5.20    -3.71-226.227462             +0.0000
iter:  38  13:39:13  -7.95  -5.26    -3.13-226.227461             +0.0000
iter:  39  13:39:40  -9.26  -5.77    -3.35-226.227461             +0.0000
iter:  40  13:40:07  -9.79  -6.01    -3.89-226.227461             +0.0000
iter:  41  13:40:34 -10.25  -6.12    -4.46-226.227461             +0.0000
iter:  42  13:41:00 -10.32  -6.19    -3.89-226.227461             -0.0000
iter:  43  13:41:27 -10.65  -6.39    -4.14-226.227461             +0.0000
iter:  44  13:41:54 -11.31  -6.56    -4.94-226.227461             +0.0000
iter:  45  13:42:21 -12.27  -6.58    -4.86-226.227461             +0.0000
iter:  46  13:42:47 -11.11  -6.60    -4.44-226.227461             +0.0000
iter:  47  13:43:14 -12.27  -6.80    -5.13-226.227461             -0.0000
iter:  48  13:43:41 -12.03  -6.83    -5.05-226.227461             +0.0000
iter:  49  13:44:07 -12.16  -6.89    -4.81-226.227461             +0.0000
iter:  50  13:44:34 -11.45  -6.97    -4.54-226.227461             +0.0000
iter:  51  13:45:01 -12.81  -7.40    -5.39-226.227461             -0.0000
iter:  52  13:45:27 -12.59  -7.40    -5.31-226.227461             -0.0000
iter:  53  13:45:54 -13.27  -7.50    -5.41-226.227461             -0.0000
iter:  54  13:46:21 -14.38  -7.56    -6.02-226.227461             -0.0000

Converged after 54 iterations.

Dipole moment: (10.675021, 1.411195, -6.271009) |e|*Ang

Total magnetic moment: (0.000000, 0.000000, -0.000000)
Local magnetic moments:
   0 O  ( 0.000000,  0.000000, -0.000566)
   1 O  ( 0.000000,  0.000000,  0.000535)
   2 O  ( 0.000000,  0.000000,  0.000508)
   3 O  ( 0.000000,  0.000000, -0.000561)
   4 O  ( 0.000000,  0.000000,  0.000488)
   5 O  ( 0.000000,  0.000000, -0.000541)
   6 O  ( 0.000000,  0.000000, -0.000586)
   7 O  ( 0.000000,  0.000000,  0.000555)
   8 O  ( 0.000000,  0.000000,  0.028727)
   9 O  ( 0.000000,  0.000000, -0.028719)
  10 O  ( 0.000000,  0.000000, -0.028684)
  11 O  ( 0.000000,  0.000000,  0.028657)
  12 Mn ( 0.000000,  0.000000,  4.448072)
  13 Mn ( 0.000000,  0.000000, -4.448264)
  14 Mn ( 0.000000,  0.000000, -4.448178)
  15 Mn ( 0.000000,  0.000000,  4.448728)
  16 P  ( 0.000000,  0.000000,  0.001507)
  17 P  ( 0.000000,  0.000000, -0.001550)
  18 P  ( 0.000000,  0.000000, -0.001566)
  19 P  ( 0.000000,  0.000000,  0.001538)
  20 O  ( 0.000000,  0.000000,  0.025197)
  21 O  ( 0.000000,  0.000000, -0.025313)
  22 O  ( 0.000000,  0.000000, -0.025329)
  23 O  ( 0.000000,  0.000000,  0.025342)
  24 Li ( 0.000000,  0.000000, -0.000000)
  25 Li ( 0.000000,  0.000000,  0.000007)
  26 Li ( 0.000000,  0.000000, -0.000000)
  27 Li ( 0.000000,  0.000000,  0.000007)

Energy contributions relative to reference atoms: (reference = -196157.275402)

Kinetic:       +217.037587
Potential:     -194.991970
External:        +0.000000
XC:            -250.315188
Entropy (-ST):   -0.000000
Local:           +2.042109
--------------------------
Free energy:   -226.227461
Extrapolated:  -226.227461

Spin contamination: 9.560539 electrons
Showing only first 2 kpts
                      Up                     Down
 Kpt  Band  Eigenvalues  Occupancy  Eigenvalues  Occupancy
  0    88      5.10492    1.00000      5.10940    1.00000
  0    89      5.12918    1.00000      5.13387    1.00000
  0    90      7.28805    0.00000      7.28621    0.00000
  0    91      7.30571    0.00000      7.30425    0.00000

  1    88      5.13079    1.00000      5.13516    1.00000
  1    89      5.15954    1.00000      5.16437    1.00000
  1    90      7.23086    0.00000      7.22929    0.00000
  1    91      7.24299    0.00000      7.24194    0.00000


Fermi level: 5.79181

Gap: 1.971 eV
Transition (v -> c):
  (s=1, k=74, n=89, [0.08, -0.42, 0.12]) -> (s=1, k=86, n=90, [0.08, 0.08, 0.12])
Writing to born-0.01-11z+.gpw (mode='all')

Timing:                              incl.     excl.
-----------------------------------------------------------
Hamiltonian:                         0.252     0.002   0.0% |
 Atomic:                             0.062     0.062   0.0% |
  XC Correction:                     0.000     0.000   0.0% |
 Calculate atomic Hamiltonians:      0.094     0.094   0.0% |
 Communicate:                        0.000     0.000   0.0% |
 Initialize Hamiltonian:             0.001     0.001   0.0% |
 Poisson:                            0.001     0.001   0.0% |
 XC 3D grid:                         0.092     0.092   0.0% |
LCAO initialization:                69.473     0.674   0.0% |
 LCAO eigensolver:                  17.917     0.002   0.0% |
  Calculate projections:             0.029     0.029   0.0% |
  DenseAtomicCorrection:             0.043     0.043   0.0% |
  Distribute overlap matrix:         0.061     0.061   0.0% |
  Orbital Layouts:                   0.277     0.277   0.0% |
  Potential matrix:                 17.419    17.419   0.5% |
  Sum over cells:                    0.086     0.086   0.0% |
 LCAO to grid:                      49.558    49.558   1.4% ||
 Set positions (LCAO WFS):           1.323     0.180   0.0% |
  Basic WFS set positions:           0.001     0.001   0.0% |
  Basis functions set positions:     0.000     0.000   0.0% |
  P tci:                             0.516     0.516   0.0% |
  ST tci:                            0.368     0.368   0.0% |
  mktci:                             0.257     0.257   0.0% |
PWDescriptor:                        0.027     0.027   0.0% |
SCF-cycle:                        1278.186     4.160   0.1% |
 Davidson:                        1089.020   347.176   9.9% |---|
  Apply H:                          73.972    71.719   2.0% ||
   HMM T:                            2.253     2.253   0.1% |
  Subspace diag:                   156.653     0.158   0.0% |
   calc_h_matrix:                   99.990    27.174   0.8% |
    Apply H:                        72.816    70.642   2.0% ||
     HMM T:                          2.174     2.174   0.1% |
   diagonalize:                      5.570     5.570   0.2% |
   rotate_psi:                      50.935    50.935   1.5% ||
  calc. matrices:                  326.102   180.948   5.2% |-|
   Apply H:                        145.154   140.851   4.0% |-|
    HMM T:                           4.303     4.303   0.1% |
  diagonalize:                      83.746    83.746   2.4% ||
  rotate_psi:                      101.372   101.372   2.9% ||
 Density:                           43.282     0.001   0.0% |
  Atomic density matrices:           0.715     0.715   0.0% |
  Mix:                               7.367     7.367   0.2% |
  Multipole moments:                 0.020     0.020   0.0% |
  Pseudo density:                   35.179    35.177   1.0% |
   Symmetrize density:               0.001     0.001   0.0% |
 Forces:                           126.273   126.273   3.6% ||
 Hamiltonian:                       13.146     0.115   0.0% |
  Atomic:                            3.004     3.004   0.1% |
   XC Correction:                    0.000     0.000   0.0% |
  Calculate atomic Hamiltonians:     5.030     5.030   0.1% |
  Communicate:                       0.021     0.021   0.0% |
  Poisson:                           0.049     0.049   0.0% |
  XC 3D grid:                        4.928     4.928   0.1% |
 Orthonormalize:                     2.304     0.003   0.0% |
  calc_s_matrix:                     0.268     0.268   0.0% |
  inverse-cholesky:                  0.041     0.041   0.0% |
  projections:                       1.501     1.501   0.0% |
  rotate_psi_s:                      0.492     0.492   0.0% |
Set symmetry:                        0.000     0.000   0.0% |
Other:                            2153.689  2153.689  61.5% |------------------------|
-----------------------------------------------------------
Total:                                      3501.627 100.0%

Memory usage: 12.41 GiB
Date: Tue Mar 30 14:22:13 2021
