
  ___ ___ ___ _ _ _  
 |   |   |_  | | | | 
 | | | | | . | | | | 
 |__ |  _|___|_____|  21.1.1b1
 |___|_|             

User:   madkru@g043.nifl.fysik.dtu.dk
Date:   Wed Mar 31 06:44:32 2021
Arch:   x86_64
Pid:    39387
Python: 3.8.6
gpaw:   /home/niflheim/madkru/venv_madkru/gpaw/gpaw (e6f0d78a31)
_gpaw:  /home/niflheim/madkru/venv_madkru/gpaw/build/lib.linux-x86_64-sandybridge-3.8/
        _gpaw.cpython-38-x86_64-linux-gnu.so (e6f0d78a31)
ase:    /home/niflheim/madkru/venv_madkru/ase/ase (version 3.22.0b1-4d5a73cb29)
numpy:  /home/modules/software/SciPy-bundle/2020.11-foss-2020b/lib/python3.8/site-packages/numpy (version 1.19.4)
scipy:  /home/modules/software/SciPy-bundle/2020.11-foss-2020b/lib/python3.8/site-packages/scipy (version 1.5.4)
libxc:  4.3.4
units:  Angstrom and eV
cores: 64
OpenMP: False
OMP_NUM_THREADS: 1

Input parameters:
  convergence: {bands: occupied,
                density: 0.0001,
                eigenstates: 4e-08,
                energy: 0.0005,
                forces: 1e-06}
  kpts: [6 6 4]
  maxiter: 1000
  mode: {ecut: 600.0,
         gammacentered: False,
         name: pw}
  occupations: {fixmagmom: False,
                name: fermi-dirac,
                width: 0.001}
  symmetry: {point_group: False,
             time_reversal: False}

System changes: positions, numbers, cell, pbc, initial_charges, initial_magmoms 

Initialize ...

O-setup:
  name: Oxygen
  id: 9b9d51c344dea68c822856295a461509
  Z: 8.0
  valence: 6
  core: 2
  charge: 0.0
  file: /home/modules/software/GPAW-setups/0.9.20000/O.LDA.gz
  compensation charges: gauss, rc=0.21, lmax=2
  cutoffs: 1.17(filt), 0.83(core),
  valence states:
                energy  radius
    2s(2.00)   -23.752   0.688
    2p(4.00)    -9.195   0.598
    *s           3.459   0.688
    *p          18.016   0.598
    *d           0.000   0.619

  Using partial waves for O as LCAO basis

Mn-setup:
  name: Manganese
  id: 0d715a8018be061a6e9ea6f2d364ac92
  Z: 25.0
  valence: 15
  core: 10
  charge: 0.0
  file: /home/modules/software/GPAW-setups/0.9.20000/Mn.LDA.gz
  compensation charges: gauss, rc=0.38, lmax=2
  cutoffs: 2.14(filt), 0.86(core),
  valence states:
                energy  radius
    3s(2.00)   -85.387   1.275
    4s(2.00)    -5.282   1.275
    3p(6.00)   -54.493   1.281
    4p(0.00)    -1.471   1.281
    3d(5.00)    -7.009   1.138
    *d          20.203   1.138

  Using partial waves for Mn as LCAO basis

P-setup:
  name: Phosphorus
  id: a5561c299094968922a179ab894d2e2d
  Z: 15.0
  valence: 5
  core: 10
  charge: 0.0
  file: /home/modules/software/GPAW-setups/0.9.20000/P.LDA.gz
  compensation charges: gauss, rc=0.30, lmax=2
  cutoffs: 1.69(filt), 1.81(core),
  valence states:
                energy  radius
    3s(2.00)   -14.015   0.953
    3p(3.00)    -5.596   0.953
    *s          13.197   0.953
    *p          21.615   0.953
    *d           0.000   0.953

  Using partial waves for P as LCAO basis

Li-setup:
  name: Lithium
  id: b73562207f97a71b6967473b66fe8b65
  Z: 3.0
  valence: 1
  core: 2
  charge: 0.0
  file: /home/modules/software/GPAW-setups/0.9.20000/Li.LDA.gz
  compensation charges: gauss, rc=0.33, lmax=2
  cutoffs: 1.91(filt), 2.55(core),
  valence states:
                energy  radius
    2s(1.00)    -2.874   1.058
    2p(0.00)    -1.126   1.058
    *s          24.338   1.058

  Using partial waves for Li as LCAO basis

Reference energy: -196157.275402

Spin-polarized calculation.
Magnetic moment: 0.000000

Convergence criteria:
  Maximum total energy change: 0.0005 eV / electron
  Maximum integral of absolute density change: 0.0001 electrons
  Maximum integral of absolute eigenstate change: 4e-08 eV^2
  Maximum change in atomic force: 1e-06 eV / Ang
  Maximum number of iterations: 1000

Symmetries present (total): 1

  ( 1  0  0)
  ( 0  1  0)
  ( 0  0  1)

144 k-points: 6 x 6 x 4 Monkhorst-Pack grid
144 k-points in the irreducible part of the Brillouin zone
       k-points in crystal coordinates                weights
   0:    -0.41666667   -0.41666667   -0.37500000          1/144
   1:    -0.41666667   -0.41666667   -0.12500000          1/144
   2:    -0.41666667   -0.41666667    0.12500000          1/144
   3:    -0.41666667   -0.41666667    0.37500000          1/144
   4:    -0.41666667   -0.25000000   -0.37500000          1/144
   5:    -0.41666667   -0.25000000   -0.12500000          1/144
   6:    -0.41666667   -0.25000000    0.12500000          1/144
   7:    -0.41666667   -0.25000000    0.37500000          1/144
   8:    -0.41666667   -0.08333333   -0.37500000          1/144
   9:    -0.41666667   -0.08333333   -0.12500000          1/144
          ...
 143:     0.41666667    0.41666667    0.37500000          1/144

Wave functions: Plane wave expansion
  Cutoff energy: 600.000 eV
  Number of coefficients (min, max): 10068, 10125
  Pulay-stress correction: 0.000000 eV/Ang^3 (de/decut=0.000000)
  Using FFTW library
  ScaLapack parameters: grid=1x1, blocksize=None
  Wavefunction extrapolation:
    Improved wavefunction reuse through dual PAW basis 

  Fermi-Dirac: width=0.0010 eV

Eigensolver
   Davidson(niter=2) 

Densities:
  Coarse grid: 60*35*27 grid
  Fine grid: 120*70*54 grid
  Total Charge: 0.000000 

Density mixing:
  Method: difference
  Backend: pulay
  Linear mixing parameter: 0.05
  Mixing with 5 old densities
  Damping of long wave oscillations: 50 

Hamiltonian:
  XC and Coulomb potentials evaluated on a 120*70*54 grid
  Using the LDA Exchange-Correlation functional
 

Memory estimate:
  Process memory now: 13501.89 MiB
  Calculator: 354.82 MiB
    Density: 10.06 MiB
      Arrays: 3.79 MiB
      Localized functions: 4.71 MiB
      Mixer: 1.56 MiB
    Hamiltonian: 2.95 MiB
      Arrays: 2.82 MiB
      XC: 0.00 MiB
      Poisson: 0.00 MiB
      vbar: 0.14 MiB
    Wavefunctions: 341.80 MiB
      Arrays psit_nG: 311.46 MiB
      Eigensolver: 19.99 MiB
      Projections: 2.71 MiB
      Projectors: 4.87 MiB
      PW-descriptor: 2.77 MiB

Total number of cores used: 64
Parallelization over k-points: 16
Domain decomposition: 2 x 2 x 1

Number of atoms: 28
Number of atomic orbitals: 148
Number of bands in calculation: 112
Number of valence electrons: 180
Bands to converge: occupied

... initialized

Initializing position-dependent things.

Density initialized from atomic densities
Creating initial wave functions:
  112 bands from LCAO basis set

     .-------------------------.  
    /|         OP              |  
   / |O            O        O  |  
  /  |       O            O  P |  
 *   |O    Mn      O           |  
 |   |          OLi          O |  
 |   .P-O--------------Mn------.  
 |  /          Li    O  Mn  O /   
 | /Li O           PO        /    
 |/       Mn                /     
 *Li-----------------------*      

Positions:
   0 O     -1.360678   -2.541161   -1.202221    ( 0.0000,  0.0000,  0.0000)
   1 O     -3.121941    2.976855    1.167242    ( 0.0000,  0.0000,  0.0000)
   2 O      2.107533    0.508090    1.540712    ( 0.0000,  0.0000,  0.0000)
   3 O      3.869373   -0.072395   -0.828750    ( 0.0000,  0.0000,  0.0000)
   4 O      2.107821    2.976875    1.540792    ( 0.0000,  0.0000,  0.0000)
   5 O      3.869084   -2.541141   -0.828671    ( 0.0000,  0.0000,  0.0000)
   6 O     -1.360390   -0.072375   -1.202141    ( 0.0000,  0.0000,  0.0000)
   7 O     -3.122230    0.508109    1.167321    ( 0.0000,  0.0000,  0.0000)
   8 O     -4.413461   -1.306992   -0.794251    ( 0.0000,  0.0000,  0.0000)
   9 O     -0.069585    1.742707    1.575662    ( 0.0000,  0.0000,  0.0000)
  10 O      5.160604    1.742707    1.132822    ( 0.0000,  0.0000,  0.0000)
  11 O      0.816728   -1.306992   -1.237091    ( 0.0000,  0.0000,  0.0000)
  12 Mn    -2.570809   -1.307302    0.247161    ( 0.0000,  0.0000,  1.0000)
  13 Mn    -1.912021    1.743016   -2.122906    ( 0.0000,  0.0000, -1.0000)
  14 Mn     3.317952    1.743017    0.091411    ( 0.0000,  0.0000, -1.0000)
  15 Mn     2.659164   -1.307302    2.461478    ( 0.0000,  0.0000,  1.0000)
  16 P     -0.620664   -1.306816   -1.818465    ( 0.0000,  0.0000,  0.0000)
  17 P     -3.862097    1.742530    0.541238    ( 0.0000,  0.0000,  0.0000)
  18 P      1.367807    1.742530    2.167036    ( 0.0000,  0.0000,  0.0000)
  19 P      4.609240   -1.306816   -0.202666    ( 0.0000,  0.0000,  0.0000)
  20 O     -0.646437   -1.306845    1.374751    ( 0.0000,  0.0000,  0.0000)
  21 O     -3.836504    1.742559   -0.995565    ( 0.0000,  0.0000,  0.0000)
  22 O      1.393580    1.742559   -1.036179    ( 0.0000,  0.0000,  0.0000)
  23 O      4.583647   -1.306845    1.334136    ( 0.0000,  0.0000,  0.0000)
  24 Li    -4.856429   -2.832143   -2.200714    ( 0.0000,  0.0000,  0.0000)
  25 Li     0.373571   -2.832143    0.169286    ( 0.0000,  0.0000,  0.0000)
  26 Li    -4.856429    0.217857   -2.200714    ( 0.0000,  0.0000,  0.0000)
  27 Li     0.373571    0.217857    0.169286    ( 0.0000,  0.0000,  0.0000)

Unit cell:
           periodic     x           y           z      points  spacing
  1. axis:    yes   10.460000    0.000000    0.000000    60     0.1743
  2. axis:    yes    0.000000    6.100000    0.000000    35     0.1743
  3. axis:    yes    0.000000    0.000000    4.740000    27     0.1756

  Lengths:  10.460000   6.100000   4.740000
  Angles:   90.000000  90.000000  90.000000

Effective grid spacing dv^(1/3) = 0.1747

                     log10-error:           total        iterations:
           time      wfs    density  force  energy       poisson  magmom
iter:   1  06:46:07                       -231.909856             +0.0000
iter:   2  06:46:29  -0.55  -0.94         -231.729499             +0.0018
iter:   3  06:46:50  -0.72  -0.98         -220.577300             +0.0023
iter:   4  06:47:11  -0.95  -1.20         -218.859687             +0.0008
iter:   5  06:47:32  -1.94  -1.36         -221.661777             +0.0005
iter:   6  06:47:54  -2.00  -1.47         -220.530316             -0.1226
iter:   7  06:48:15  -1.94  -1.66         -224.853770             +0.7222
iter:   8  06:48:36  -2.38  -1.79         -225.752585             +0.3877
iter:   9  06:48:57  -2.57  -1.82         -226.903561             +0.1321
iter:  10  06:49:19  -2.79  -1.80         -227.204071             -0.0113
iter:  11  06:49:40  -2.72  -1.79         -227.361897             -0.0029
iter:  12  06:50:01  -3.64  -1.79         -227.231654             -0.0009
iter:  13  06:50:22  -1.42  -1.82         -226.799644             -0.0005
iter:  14  06:50:44  -2.58  -2.11         -226.557443             -0.0003
iter:  15  06:51:05  -2.51  -2.17         -226.300757             +0.0000
iter:  16  06:51:26  -2.56  -2.37         -226.262589             +0.0001
iter:  17  06:51:47  -3.25  -2.50         -226.260750             +0.0000
iter:  18  06:52:08  -2.96  -2.58         -226.237461             +0.0000
iter:  19  06:52:30  -3.63  -2.81         -226.228075             +0.0000
iter:  20  06:52:51  -4.20  -3.07         -226.226086             +0.0000
iter:  21  06:53:12  -3.89  -3.07         -226.231978             +0.0000
iter:  22  06:53:33  -4.23  -3.23         -226.225701             +0.0000
iter:  23  06:53:55  -5.16  -3.56         -226.225436             +0.0000
iter:  24  06:54:16  -5.08  -3.61         -226.225605             -0.0000
iter:  25  06:54:37  -4.91  -3.74         -226.224855             +0.0000
iter:  26  06:54:58  -5.91  -4.16         -226.224854             +0.0000
iter:  27  06:55:20  -6.40  -4.18         -226.224872             -0.0000
iter:  28  06:55:41  -6.05  -4.31         -226.224843             -0.0000
iter:  29  06:56:08  -7.41  -4.52         -226.224840             -0.0000
iter:  30  06:56:29  -6.87  -4.55         -226.224840             -0.0000
iter:  31  06:56:50  -6.85  -4.68         -226.224840             -0.0000
iter:  32  06:57:11  -7.30  -4.78         -226.224837             -0.0000
iter:  33  06:57:38  -8.40  -5.20    -2.34-226.224837             -0.0000
iter:  34  06:58:05  -7.86  -5.24    -2.84-226.224837             +0.0000
iter:  35  06:58:31  -8.58  -5.27    -3.32-226.224836             -0.0000
iter:  36  06:58:58  -8.71  -5.43    -3.28-226.224836             -0.0000
iter:  37  06:59:25  -9.31  -5.62    -3.53-226.224836             -0.0000
iter:  38  06:59:52  -9.59  -5.72    -3.72-226.224836             +0.0000
iter:  39  07:00:18 -10.06  -5.95    -3.87-226.224836             +0.0000
iter:  40  07:00:45 -10.34  -6.08    -4.16-226.224836             -0.0000
iter:  41  07:01:12 -10.63  -6.30    -4.33-226.224836             -0.0000
iter:  42  07:01:39 -11.21  -6.42    -4.43-226.224836             +0.0000
iter:  43  07:02:05 -11.22  -6.48    -4.60-226.224836             +0.0000
iter:  44  07:02:32 -10.89  -6.51    -4.38-226.224836             +0.0000
iter:  45  07:02:59 -11.02  -6.74    -4.39-226.224836             +0.0000
iter:  46  07:03:26 -12.34  -6.87    -5.16-226.224836             +0.0000
iter:  47  07:03:52 -11.41  -6.93    -4.71-226.224836             +0.0000
iter:  48  07:04:19 -11.95  -7.17    -4.81-226.224836             +0.0000
iter:  49  07:04:46 -12.34  -7.40    -5.16-226.224836             +0.0000
iter:  50  07:05:13 -12.95  -7.56    -5.42-226.224836             +0.0000
iter:  51  07:05:39 -12.85  -7.70    -5.33-226.224836             +0.0000
iter:  52  07:06:06 -13.09  -7.81    -5.38-226.224836             +0.0000
iter:  53  07:06:33 -14.37  -8.15    -6.14-226.224836             +0.0000

Converged after 53 iterations.

Dipole moment: (10.678475, 1.404081, -6.247492) |e|*Ang

Total magnetic moment: (0.000000, 0.000000, 0.000000)
Local magnetic moments:
   0 O  ( 0.000000,  0.000000, -0.000359)
   1 O  ( 0.000000,  0.000000,  0.000511)
   2 O  ( 0.000000,  0.000000,  0.000522)
   3 O  ( 0.000000,  0.000000, -0.000551)
   4 O  ( 0.000000,  0.000000,  0.000502)
   5 O  ( 0.000000,  0.000000, -0.000531)
   6 O  ( 0.000000,  0.000000, -0.000379)
   7 O  ( 0.000000,  0.000000,  0.000531)
   8 O  ( 0.000000,  0.000000,  0.028595)
   9 O  ( 0.000000,  0.000000, -0.028715)
  10 O  ( 0.000000,  0.000000, -0.028701)
  11 O  ( 0.000000,  0.000000,  0.028463)
  12 Mn ( 0.000000,  0.000000,  4.448089)
  13 Mn ( 0.000000,  0.000000, -4.448653)
  14 Mn ( 0.000000,  0.000000, -4.448175)
  15 Mn ( 0.000000,  0.000000,  4.448494)
  16 P  ( 0.000000,  0.000000,  0.001429)
  17 P  ( 0.000000,  0.000000, -0.001530)
  18 P  ( 0.000000,  0.000000, -0.001554)
  19 P  ( 0.000000,  0.000000,  0.001542)
  20 O  ( 0.000000,  0.000000,  0.025693)
  21 O  ( 0.000000,  0.000000, -0.025286)
  22 O  ( 0.000000,  0.000000, -0.025312)
  23 O  ( 0.000000,  0.000000,  0.025351)
  24 Li ( 0.000000,  0.000000,  0.000000)
  25 Li ( 0.000000,  0.000000,  0.000003)
  26 Li ( 0.000000,  0.000000,  0.000000)
  27 Li ( 0.000000,  0.000000,  0.000003)

Energy contributions relative to reference atoms: (reference = -196157.275402)

Kinetic:       +217.381500
Potential:     -195.245979
External:        +0.000000
XC:            -250.401313
Entropy (-ST):   -0.000000
Local:           +2.040955
--------------------------
Free energy:   -226.224836
Extrapolated:  -226.224836

Spin contamination: 9.560652 electrons
Showing only first 2 kpts
                      Up                     Down
 Kpt  Band  Eigenvalues  Occupancy  Eigenvalues  Occupancy
  0    88      5.10706    1.00000      5.10371    1.00000
  0    89      5.13821    1.00000      5.12971    1.00000
  0    90      7.28456    0.00000      7.28767    0.00000
  0    91      7.30215    0.00000      7.30623    0.00000

  1    88      5.13294    1.00000      5.12954    1.00000
  1    89      5.16826    1.00000      5.16011    1.00000
  1    90      7.22741    0.00000      7.23014    0.00000
  1    91      7.23969    0.00000      7.24340    0.00000


Fermi level: 5.66537

Gap: 1.968 eV
Transition (v -> c):
  (s=0, k=69, n=89, [-0.08, 0.42, -0.12]) -> (s=0, k=58, n=90, [-0.08, -0.08, 0.12])
Writing to born-0.01-16z+.gpw (mode='all')

Timing:                              incl.     excl.
-----------------------------------------------------------
Hamiltonian:                         0.269     0.003   0.0% |
 Atomic:                             0.083     0.083   0.0% |
  XC Correction:                     0.000     0.000   0.0% |
 Calculate atomic Hamiltonians:      0.091     0.091   0.0% |
 Communicate:                        0.000     0.000   0.0% |
 Initialize Hamiltonian:             0.000     0.000   0.0% |
 Poisson:                            0.001     0.001   0.0% |
 XC 3D grid:                         0.091     0.091   0.0% |
LCAO initialization:                69.348     0.674   0.0% |
 LCAO eigensolver:                  17.889     0.002   0.0% |
  Calculate projections:             0.030     0.030   0.0% |
  DenseAtomicCorrection:             0.043     0.043   0.0% |
  Distribute overlap matrix:         0.043     0.043   0.0% |
  Orbital Layouts:                   0.283     0.283   0.0% |
  Potential matrix:                 17.400    17.400   0.5% |
  Sum over cells:                    0.088     0.088   0.0% |
 LCAO to grid:                      49.471    49.471   1.3% ||
 Set positions (LCAO WFS):           1.314     0.182   0.0% |
  Basic WFS set positions:           0.001     0.001   0.0% |
  Basis functions set positions:     0.000     0.000   0.0% |
  P tci:                             0.548     0.548   0.0% |
  ST tci:                            0.369     0.369   0.0% |
  mktci:                             0.213     0.213   0.0% |
PWDescriptor:                        0.025     0.025   0.0% |
SCF-cycle:                        1249.548     5.579   0.2% |
 Davidson:                        1065.553   341.215   9.2% |---|
  Apply H:                          71.251    68.998   1.9% ||
   HMM T:                            2.252     2.252   0.1% |
  Subspace diag:                   153.027     0.157   0.0% |
   calc_h_matrix:                   97.522    26.674   0.7% |
    Apply H:                        70.847    68.636   1.9% ||
     HMM T:                          2.212     2.212   0.1% |
   diagonalize:                      5.387     5.387   0.1% |
   rotate_psi:                      49.962    49.962   1.4% ||
  calc. matrices:                  318.239   177.843   4.8% |-|
   Apply H:                        140.397   136.074   3.7% ||
    HMM T:                           4.323     4.323   0.1% |
  diagonalize:                      82.299    82.299   2.2% ||
  rotate_psi:                       99.522    99.522   2.7% ||
 Density:                           42.449     0.001   0.0% |
  Atomic density matrices:           0.700     0.700   0.0% |
  Mix:                               7.164     7.164   0.2% |
  Multipole moments:                 0.020     0.020   0.0% |
  Pseudo density:                   34.565    34.563   0.9% |
   Symmetrize density:               0.001     0.001   0.0% |
 Forces:                           120.740   120.740   3.3% ||
 Hamiltonian:                       12.921     0.112   0.0% |
  Atomic:                            2.989     2.989   0.1% |
   XC Correction:                    0.000     0.000   0.0% |
  Calculate atomic Hamiltonians:     4.939     4.939   0.1% |
  Communicate:                       0.018     0.018   0.0% |
  Poisson:                           0.047     0.047   0.0% |
  XC 3D grid:                        4.817     4.817   0.1% |
 Orthonormalize:                     2.305     0.003   0.0% |
  calc_s_matrix:                     0.267     0.267   0.0% |
  inverse-cholesky:                  0.040     0.040   0.0% |
  projections:                       1.502     1.502   0.0% |
  rotate_psi_s:                      0.493     0.493   0.0% |
Set symmetry:                        0.000     0.000   0.0% |
Other:                            2379.356  2379.356  64.3% |-------------------------|
-----------------------------------------------------------
Total:                                      3698.545 100.0%

Memory usage: 13.20 GiB
Date: Wed Mar 31 07:46:11 2021
