
  ___ ___ ___ _ _ _  
 |   |   |_  | | | | 
 | | | | | . | | | | 
 |__ |  _|___|_____|  21.1.1b1
 |___|_|             

User:   madkru@g043.nifl.fysik.dtu.dk
Date:   Wed Mar 31 05:30:26 2021
Arch:   x86_64
Pid:    39387
Python: 3.8.6
gpaw:   /home/niflheim/madkru/venv_madkru/gpaw/gpaw (e6f0d78a31)
_gpaw:  /home/niflheim/madkru/venv_madkru/gpaw/build/lib.linux-x86_64-sandybridge-3.8/
        _gpaw.cpython-38-x86_64-linux-gnu.so (e6f0d78a31)
ase:    /home/niflheim/madkru/venv_madkru/ase/ase (version 3.22.0b1-4d5a73cb29)
numpy:  /home/modules/software/SciPy-bundle/2020.11-foss-2020b/lib/python3.8/site-packages/numpy (version 1.19.4)
scipy:  /home/modules/software/SciPy-bundle/2020.11-foss-2020b/lib/python3.8/site-packages/scipy (version 1.5.4)
libxc:  4.3.4
units:  Angstrom and eV
cores: 64
OpenMP: False
OMP_NUM_THREADS: 1

Input parameters:
  convergence: {bands: occupied,
                density: 0.0001,
                eigenstates: 4e-08,
                energy: 0.0005,
                forces: 1e-06}
  kpts: [6 6 4]
  maxiter: 1000
  mode: {ecut: 600.0,
         gammacentered: False,
         name: pw}
  occupations: {fixmagmom: False,
                name: fermi-dirac,
                width: 0.001}
  symmetry: {point_group: False,
             time_reversal: False}

System changes: positions, numbers, cell, pbc, initial_charges, initial_magmoms 

Initialize ...

O-setup:
  name: Oxygen
  id: 9b9d51c344dea68c822856295a461509
  Z: 8.0
  valence: 6
  core: 2
  charge: 0.0
  file: /home/modules/software/GPAW-setups/0.9.20000/O.LDA.gz
  compensation charges: gauss, rc=0.21, lmax=2
  cutoffs: 1.17(filt), 0.83(core),
  valence states:
                energy  radius
    2s(2.00)   -23.752   0.688
    2p(4.00)    -9.195   0.598
    *s           3.459   0.688
    *p          18.016   0.598
    *d           0.000   0.619

  Using partial waves for O as LCAO basis

Mn-setup:
  name: Manganese
  id: 0d715a8018be061a6e9ea6f2d364ac92
  Z: 25.0
  valence: 15
  core: 10
  charge: 0.0
  file: /home/modules/software/GPAW-setups/0.9.20000/Mn.LDA.gz
  compensation charges: gauss, rc=0.38, lmax=2
  cutoffs: 2.14(filt), 0.86(core),
  valence states:
                energy  radius
    3s(2.00)   -85.387   1.275
    4s(2.00)    -5.282   1.275
    3p(6.00)   -54.493   1.281
    4p(0.00)    -1.471   1.281
    3d(5.00)    -7.009   1.138
    *d          20.203   1.138

  Using partial waves for Mn as LCAO basis

P-setup:
  name: Phosphorus
  id: a5561c299094968922a179ab894d2e2d
  Z: 15.0
  valence: 5
  core: 10
  charge: 0.0
  file: /home/modules/software/GPAW-setups/0.9.20000/P.LDA.gz
  compensation charges: gauss, rc=0.30, lmax=2
  cutoffs: 1.69(filt), 1.81(core),
  valence states:
                energy  radius
    3s(2.00)   -14.015   0.953
    3p(3.00)    -5.596   0.953
    *s          13.197   0.953
    *p          21.615   0.953
    *d           0.000   0.953

  Using partial waves for P as LCAO basis

Li-setup:
  name: Lithium
  id: b73562207f97a71b6967473b66fe8b65
  Z: 3.0
  valence: 1
  core: 2
  charge: 0.0
  file: /home/modules/software/GPAW-setups/0.9.20000/Li.LDA.gz
  compensation charges: gauss, rc=0.33, lmax=2
  cutoffs: 1.91(filt), 2.55(core),
  valence states:
                energy  radius
    2s(1.00)    -2.874   1.058
    2p(0.00)    -1.126   1.058
    *s          24.338   1.058

  Using partial waves for Li as LCAO basis

Reference energy: -196157.275402

Spin-polarized calculation.
Magnetic moment: 0.000000

Convergence criteria:
  Maximum total energy change: 0.0005 eV / electron
  Maximum integral of absolute density change: 0.0001 electrons
  Maximum integral of absolute eigenstate change: 4e-08 eV^2
  Maximum change in atomic force: 1e-06 eV / Ang
  Maximum number of iterations: 1000

Symmetries present (total): 1

  ( 1  0  0)
  ( 0  1  0)
  ( 0  0  1)

144 k-points: 6 x 6 x 4 Monkhorst-Pack grid
144 k-points in the irreducible part of the Brillouin zone
       k-points in crystal coordinates                weights
   0:    -0.41666667   -0.41666667   -0.37500000          1/144
   1:    -0.41666667   -0.41666667   -0.12500000          1/144
   2:    -0.41666667   -0.41666667    0.12500000          1/144
   3:    -0.41666667   -0.41666667    0.37500000          1/144
   4:    -0.41666667   -0.25000000   -0.37500000          1/144
   5:    -0.41666667   -0.25000000   -0.12500000          1/144
   6:    -0.41666667   -0.25000000    0.12500000          1/144
   7:    -0.41666667   -0.25000000    0.37500000          1/144
   8:    -0.41666667   -0.08333333   -0.37500000          1/144
   9:    -0.41666667   -0.08333333   -0.12500000          1/144
          ...
 143:     0.41666667    0.41666667    0.37500000          1/144

Wave functions: Plane wave expansion
  Cutoff energy: 600.000 eV
  Number of coefficients (min, max): 10068, 10125
  Pulay-stress correction: 0.000000 eV/Ang^3 (de/decut=0.000000)
  Using FFTW library
  ScaLapack parameters: grid=1x1, blocksize=None
  Wavefunction extrapolation:
    Improved wavefunction reuse through dual PAW basis 

  Fermi-Dirac: width=0.0010 eV

Eigensolver
   Davidson(niter=2) 

Densities:
  Coarse grid: 60*35*27 grid
  Fine grid: 120*70*54 grid
  Total Charge: 0.000000 

Density mixing:
  Method: difference
  Backend: pulay
  Linear mixing parameter: 0.05
  Mixing with 5 old densities
  Damping of long wave oscillations: 50 

Hamiltonian:
  XC and Coulomb potentials evaluated on a 120*70*54 grid
  Using the LDA Exchange-Correlation functional
 

Memory estimate:
  Process memory now: 13443.77 MiB
  Calculator: 354.82 MiB
    Density: 10.06 MiB
      Arrays: 3.79 MiB
      Localized functions: 4.71 MiB
      Mixer: 1.56 MiB
    Hamiltonian: 2.95 MiB
      Arrays: 2.82 MiB
      XC: 0.00 MiB
      Poisson: 0.00 MiB
      vbar: 0.14 MiB
    Wavefunctions: 341.80 MiB
      Arrays psit_nG: 311.46 MiB
      Eigensolver: 19.99 MiB
      Projections: 2.71 MiB
      Projectors: 4.87 MiB
      PW-descriptor: 2.77 MiB

Total number of cores used: 64
Parallelization over k-points: 16
Domain decomposition: 2 x 2 x 1

Number of atoms: 28
Number of atomic orbitals: 148
Number of bands in calculation: 112
Number of valence electrons: 180
Bands to converge: occupied

... initialized

Initializing position-dependent things.

Density initialized from atomic densities
Creating initial wave functions:
  112 bands from LCAO basis set

     .-------------------------.  
    /|         OP              |  
   / |O            O        O  |  
  /  |       O            O  P |  
 *   |O    Mn      O           |  
 |   |          OLi          O |  
 |   .P-O--------------Mn------.  
 |  /          Li    O  Mn  O /   
 | /Li O           PO        /    
 |/       Mn                /     
 *Li-----------------------*      

Positions:
   0 O     -1.360678   -2.541161   -1.202221    ( 0.0000,  0.0000,  0.0000)
   1 O     -3.121941    2.976855    1.167242    ( 0.0000,  0.0000,  0.0000)
   2 O      2.107533    0.508090    1.540712    ( 0.0000,  0.0000,  0.0000)
   3 O      3.869373   -0.072395   -0.828750    ( 0.0000,  0.0000,  0.0000)
   4 O      2.107821    2.976875    1.540792    ( 0.0000,  0.0000,  0.0000)
   5 O      3.869084   -2.541141   -0.828671    ( 0.0000,  0.0000,  0.0000)
   6 O     -1.360390   -0.072375   -1.202141    ( 0.0000,  0.0000,  0.0000)
   7 O     -3.122230    0.508109    1.167321    ( 0.0000,  0.0000,  0.0000)
   8 O     -4.413461   -1.306992   -0.794251    ( 0.0000,  0.0000,  0.0000)
   9 O     -0.069585    1.742707    1.575662    ( 0.0000,  0.0000,  0.0000)
  10 O      5.160604    1.742707    1.132822    ( 0.0000,  0.0000,  0.0000)
  11 O      0.816728   -1.306992   -1.237091    ( 0.0000,  0.0000,  0.0000)
  12 Mn    -2.570809   -1.307302    0.247161    ( 0.0000,  0.0000,  1.0000)
  13 Mn    -1.912021    1.743016   -2.122906    ( 0.0000,  0.0000, -1.0000)
  14 Mn     3.317952    1.743017    0.091411    ( 0.0000,  0.0000, -1.0000)
  15 Mn     2.659164   -1.307302    2.461478    ( 0.0000,  0.0000,  1.0000)
  16 P     -0.620664   -1.296816   -1.828465    ( 0.0000,  0.0000,  0.0000)
  17 P     -3.862097    1.742530    0.541238    ( 0.0000,  0.0000,  0.0000)
  18 P      1.367807    1.742530    2.167036    ( 0.0000,  0.0000,  0.0000)
  19 P      4.609240   -1.306816   -0.202666    ( 0.0000,  0.0000,  0.0000)
  20 O     -0.646437   -1.306845    1.374751    ( 0.0000,  0.0000,  0.0000)
  21 O     -3.836504    1.742559   -0.995565    ( 0.0000,  0.0000,  0.0000)
  22 O      1.393580    1.742559   -1.036179    ( 0.0000,  0.0000,  0.0000)
  23 O      4.583647   -1.306845    1.334136    ( 0.0000,  0.0000,  0.0000)
  24 Li    -4.856429   -2.832143   -2.200714    ( 0.0000,  0.0000,  0.0000)
  25 Li     0.373571   -2.832143    0.169286    ( 0.0000,  0.0000,  0.0000)
  26 Li    -4.856429    0.217857   -2.200714    ( 0.0000,  0.0000,  0.0000)
  27 Li     0.373571    0.217857    0.169286    ( 0.0000,  0.0000,  0.0000)

Unit cell:
           periodic     x           y           z      points  spacing
  1. axis:    yes   10.460000    0.000000    0.000000    60     0.1743
  2. axis:    yes    0.000000    6.100000    0.000000    35     0.1743
  3. axis:    yes    0.000000    0.000000    4.740000    27     0.1756

  Lengths:  10.460000   6.100000   4.740000
  Angles:   90.000000  90.000000  90.000000

Effective grid spacing dv^(1/3) = 0.1747

                     log10-error:           total        iterations:
           time      wfs    density  force  energy       poisson  magmom
iter:   1  05:32:01                       -231.918352             +0.0000
iter:   2  05:32:22  -0.55  -0.94         -231.728987             +0.0055
iter:   3  05:32:43  -0.72  -0.98         -220.582744             +0.0069
iter:   4  05:33:05  -0.96  -1.20         -218.864282             +0.0023
iter:   5  05:33:26  -1.94  -1.36         -221.283139             +0.0015
iter:   6  05:33:47  -1.99  -1.50         -219.988499             +0.0008
iter:   7  05:34:09  -2.21  -1.68         -223.180435             +0.2415
iter:   8  05:34:30  -2.73  -1.89         -220.095274             +0.3465
iter:   9  05:34:51  -2.10  -1.93         -225.839594             +0.5050
iter:  10  05:35:13  -2.28  -1.86         -227.383817             -0.2442
iter:  11  05:35:34  -2.49  -1.81         -227.048985             -0.0351
iter:  12  05:35:55  -1.86  -1.85         -227.132770             -0.0074
iter:  13  05:36:16  -2.75  -1.96         -226.900852             -0.0133
iter:  14  05:36:38  -2.50  -2.06         -226.960354             -0.0019
iter:  15  05:36:59  -2.49  -2.21         -226.677819             +0.0007
iter:  16  05:37:20  -3.00  -2.31         -226.477048             -0.0000
iter:  17  05:37:42  -2.52  -2.38         -226.289866             +0.0001
iter:  18  05:38:03  -3.04  -2.47         -226.262994             -0.0000
iter:  19  05:38:24  -3.42  -2.52         -226.254739             +0.0002
iter:  20  05:38:46  -3.63  -2.57         -226.246468             +0.0001
iter:  21  05:39:07  -3.14  -2.65         -226.228598             +0.0000
iter:  22  05:39:28  -4.21  -2.95         -226.228435             +0.0000
iter:  23  05:39:49  -4.39  -2.99         -226.227083             +0.0000
iter:  24  05:40:11  -4.13  -3.03         -226.227182             +0.0000
iter:  25  05:40:32  -4.16  -3.12         -226.227363             +0.0000
iter:  26  05:40:53  -4.62  -3.20         -226.227319             +0.0000
iter:  27  05:41:14  -5.01  -3.22         -226.226306             +0.0000
iter:  28  05:41:36  -4.84  -3.28         -226.225748             +0.0000
iter:  29  05:41:57  -5.85  -3.48         -226.225752             +0.0000
iter:  30  05:42:18  -4.86  -3.50         -226.225908             +0.0000
iter:  31  05:42:39  -4.99  -3.60         -226.225552             +0.0000
iter:  32  05:43:01  -6.33  -4.00         -226.225553             +0.0000
iter:  33  05:43:22  -6.23  -4.05         -226.225537             -0.0000
iter:  34  05:43:43  -5.74  -4.15         -226.225542             -0.0000
iter:  35  05:44:04  -6.28  -4.18         -226.225502             -0.0000
iter:  36  05:44:31  -7.45  -4.46         -226.225503             -0.0000
iter:  37  05:44:52  -7.39  -4.48         -226.225504             +0.0000
iter:  38  05:45:19  -7.98  -4.52    -2.48-226.225503             +0.0000
iter:  39  05:45:46  -7.75  -4.57    -2.89-226.225503             +0.0000
iter:  40  05:46:12  -8.50  -4.63    -3.38-226.225503             +0.0000
iter:  41  05:46:34  -7.36  -4.69         -226.225502             +0.0000
iter:  42  05:47:00  -7.64  -4.75    -2.41-226.225501             +0.0000
iter:  43  05:47:27  -8.22  -4.92    -2.90-226.225501             +0.0000
iter:  44  05:47:54  -8.42  -4.98    -3.19-226.225501             +0.0000
iter:  45  05:48:21  -9.19  -5.08    -3.57-226.225500             +0.0000
iter:  46  05:48:47  -9.41  -5.15    -3.56-226.225500             -0.0000
iter:  47  05:49:14  -8.53  -5.20    -3.02-226.225500             -0.0000
iter:  48  05:49:41  -9.46  -5.39    -3.87-226.225500             -0.0000
iter:  49  05:50:07  -8.56  -5.41    -3.12-226.225500             -0.0000
iter:  50  05:50:34  -9.82  -5.54    -3.77-226.225500             -0.0000
iter:  51  05:51:01  -8.89  -5.56    -3.23-226.225500             -0.0000
iter:  52  05:51:28  -9.16  -5.69    -3.44-226.225500             -0.0000
iter:  53  05:51:54 -10.58  -5.88    -4.10-226.225500             -0.0000
iter:  54  05:52:21 -10.50  -5.92    -4.12-226.225500             -0.0000
iter:  55  05:52:48  -9.67  -6.03    -3.70-226.225500             -0.0000
iter:  56  05:53:14 -10.02  -6.03    -3.85-226.225500             -0.0000
iter:  57  05:53:41 -11.42  -6.25    -4.50-226.225500             -0.0000
iter:  58  05:54:08 -11.66  -6.29    -4.64-226.225500             -0.0000
iter:  59  05:54:35 -10.51  -6.36    -4.22-226.225500             -0.0000
iter:  60  05:55:01 -11.06  -6.43    -4.28-226.225500             -0.0000
iter:  61  05:55:28 -12.39  -6.55    -4.97-226.225500             -0.0000
iter:  62  05:55:55 -11.07  -6.57    -4.13-226.225500             -0.0000
iter:  63  05:56:21 -11.12  -6.69    -4.31-226.225500             -0.0000
iter:  64  05:56:48 -11.87  -6.73    -4.78-226.225500             -0.0000
iter:  65  05:57:15 -11.63  -6.98    -4.75-226.225500             -0.0000
iter:  66  05:57:42 -12.17  -7.05    -4.84-226.225500             -0.0000
iter:  67  05:58:08 -12.48  -7.31    -5.07-226.225500             -0.0000
iter:  68  05:58:35 -12.87  -7.50    -5.34-226.225500             -0.0000
iter:  69  05:59:02 -13.82  -7.72    -6.00-226.225500             -0.0000
iter:  70  05:59:29 -13.45  -7.74    -5.55-226.225500             -0.0000
iter:  71  05:59:55 -13.96  -7.91    -5.55-226.225500             -0.0000
iter:  72  06:00:22 -14.40  -8.10    -6.03-226.225500             -0.0000

Converged after 72 iterations.

Dipole moment: (10.671437, 1.437659, -6.269769) |e|*Ang

Total magnetic moment: (0.000000, 0.000000, -0.000000)
Local magnetic moments:
   0 O  ( 0.000000,  0.000000, -0.000403)
   1 O  ( 0.000000,  0.000000,  0.000551)
   2 O  ( 0.000000,  0.000000,  0.000551)
   3 O  ( 0.000000,  0.000000, -0.000557)
   4 O  ( 0.000000,  0.000000,  0.000504)
   5 O  ( 0.000000,  0.000000, -0.000531)
   6 O  ( 0.000000,  0.000000, -0.000661)
   7 O  ( 0.000000,  0.000000,  0.000534)
   8 O  ( 0.000000,  0.000000,  0.028692)
   9 O  ( 0.000000,  0.000000, -0.028701)
  10 O  ( 0.000000,  0.000000, -0.028693)
  11 O  ( 0.000000,  0.000000,  0.028702)
  12 Mn ( 0.000000,  0.000000,  4.448146)
  13 Mn ( 0.000000,  0.000000, -4.448223)
  14 Mn ( 0.000000,  0.000000, -4.448160)
  15 Mn ( 0.000000,  0.000000,  4.448240)
  16 P  ( 0.000000,  0.000000,  0.001560)
  17 P  ( 0.000000,  0.000000, -0.001543)
  18 P  ( 0.000000,  0.000000, -0.001558)
  19 P  ( 0.000000,  0.000000,  0.001543)
  20 O  ( 0.000000,  0.000000,  0.025315)
  21 O  ( 0.000000,  0.000000, -0.025306)
  22 O  ( 0.000000,  0.000000, -0.025315)
  23 O  ( 0.000000,  0.000000,  0.025306)
  24 Li ( 0.000000,  0.000000, -0.000000)
  25 Li ( 0.000000,  0.000000, -0.000004)
  26 Li ( 0.000000,  0.000000,  0.000000)
  27 Li ( 0.000000,  0.000000,  0.000004)

Energy contributions relative to reference atoms: (reference = -196157.275402)

Kinetic:       +217.364138
Potential:     -195.246122
External:        +0.000000
XC:            -250.384648
Entropy (-ST):   -0.000000
Local:           +2.041132
--------------------------
Free energy:   -226.225500
Extrapolated:  -226.225500

Spin contamination: 9.560397 electrons
Showing only first 2 kpts
                      Up                     Down
 Kpt  Band  Eigenvalues  Occupancy  Eigenvalues  Occupancy
  0    88      5.10991    1.00000      5.11002    1.00000
  0    89      5.13460    1.00000      5.13437    1.00000
  0    90      7.28860    0.00000      7.28867    0.00000
  0    91      7.30635    0.00000      7.30633    0.00000

  1    88      5.13582    1.00000      5.13568    1.00000
  1    89      5.16493    1.00000      5.16488    1.00000
  1    90      7.23142    0.00000      7.23149    0.00000
  1    91      7.24365    0.00000      7.24362    0.00000


Fermi level: 5.52254

Gap: 1.972 eV
Transition (v -> c):
  (s=0, k=73, n=89, [0.08, -0.42, -0.12]) -> (s=0, k=81, n=90, [0.08, -0.08, -0.12])
Writing to born-0.01-16y+.gpw (mode='all')

Timing:                              incl.     excl.
-----------------------------------------------------------
Hamiltonian:                         0.271     0.003   0.0% |
 Atomic:                             0.086     0.086   0.0% |
  XC Correction:                     0.000     0.000   0.0% |
 Calculate atomic Hamiltonians:      0.090     0.090   0.0% |
 Communicate:                        0.000     0.000   0.0% |
 Initialize Hamiltonian:             0.000     0.000   0.0% |
 Poisson:                            0.001     0.001   0.0% |
 XC 3D grid:                         0.090     0.090   0.0% |
LCAO initialization:                69.580     0.675   0.0% |
 LCAO eigensolver:                  17.968     0.002   0.0% |
  Calculate projections:             0.030     0.030   0.0% |
  DenseAtomicCorrection:             0.043     0.043   0.0% |
  Distribute overlap matrix:         0.061     0.061   0.0% |
  Orbital Layouts:                   0.281     0.281   0.0% |
  Potential matrix:                 17.462    17.462   0.4% |
  Sum over cells:                    0.089     0.089   0.0% |
 LCAO to grid:                      49.652    49.652   1.3% ||
 Set positions (LCAO WFS):           1.286     0.182   0.0% |
  Basic WFS set positions:           0.002     0.002   0.0% |
  Basis functions set positions:     0.000     0.000   0.0% |
  P tci:                             0.519     0.519   0.0% |
  ST tci:                            0.369     0.369   0.0% |
  mktci:                             0.214     0.214   0.0% |
PWDescriptor:                        0.025     0.025   0.0% |
SCF-cycle:                        1724.608     7.786   0.2% |
 Davidson:                        1446.771   463.095  11.8% |----|
  Apply H:                          96.674    93.860   2.4% ||
   HMM T:                            2.814     2.814   0.1% |
  Subspace diag:                   207.431     0.212   0.0% |
   calc_h_matrix:                  132.174    36.255   0.9% |
    Apply H:                        95.918    93.147   2.4% ||
     HMM T:                          2.771     2.771   0.1% |
   diagonalize:                      7.381     7.381   0.2% |
   rotate_psi:                      67.665    67.665   1.7% ||
  calc. matrices:                  432.465   241.667   6.1% |-|
   Apply H:                        190.798   185.384   4.7% |-|
    HMM T:                           5.414     5.414   0.1% |
  diagonalize:                     112.053   112.053   2.8% ||
  rotate_psi:                      135.053   135.053   3.4% ||
 Density:                           58.078     0.002   0.0% |
  Atomic density matrices:           0.964     0.964   0.0% |
  Mix:                               9.889     9.889   0.3% |
  Multipole moments:                 0.026     0.026   0.0% |
  Pseudo density:                   47.198    47.196   1.2% |
   Symmetrize density:               0.002     0.002   0.0% |
 Forces:                           192.059   192.059   4.9% |-|
 Hamiltonian:                       17.615     0.152   0.0% |
  Atomic:                            4.038     4.037   0.1% |
   XC Correction:                    0.000     0.000   0.0% |
  Calculate atomic Hamiltonians:     6.744     6.744   0.2% |
  Communicate:                       0.022     0.022   0.0% |
  Poisson:                           0.065     0.065   0.0% |
  XC 3D grid:                        6.595     6.595   0.2% |
 Orthonormalize:                     2.299     0.003   0.0% |
  calc_s_matrix:                     0.266     0.266   0.0% |
  inverse-cholesky:                  0.041     0.041   0.0% |
  projections:                       1.498     1.498   0.0% |
  rotate_psi_s:                      0.492     0.492   0.0% |
Set symmetry:                        0.000     0.000   0.0% |
Other:                            2144.788  2144.788  54.4% |---------------------|
-----------------------------------------------------------
Total:                                      3939.272 100.0%

Memory usage: 13.15 GiB
Date: Wed Mar 31 06:36:06 2021
