
  ___ ___ ___ _ _ _  
 |   |   |_  | | | | 
 | | | | | . | | | | 
 |__ |  _|___|_____|  20.10.1b1
 |___|_|             

User:   madkru@g064.nifl.fysik.dtu.dk
Date:   Mon Mar 22 13:38:01 2021
Arch:   x86_64
Pid:    60512
Python: 3.7.4
gpaw:   /home/niflheim/madkru/venv_folder/gpaw/gpaw (d0d1ca1c71)
_gpaw:  /home/niflheim/madkru/venv_folder/gpaw/build/lib.linux-x86_64-sandybridge-3.7/
        _gpaw.cpython-37m-x86_64-linux-gnu.so (4fd39e8b1e)
ase:    /home/niflheim/madkru/venv_folder/ase/ase (version 3.21.0b1-7e6c206a91)
numpy:  /home/niflheim/madkru/venv_folder/lib/python3.7/site-packages/numpy (version 1.19.4)
scipy:  /home/niflheim/madkru/venv_folder/lib/python3.7/site-packages/scipy (version 1.5.4)
libxc:  4.3.4
units:  Angstrom and eV
cores: 32
OMP_NUM_THREADS: 1

Input parameters:
  convergence: {bands: occupied,
                density: 0.0001,
                eigenstates: 4e-08,
                energy: 0.0005,
                forces: 1e-06}
  kpts: [6 6 4]
  mode: {ecut: 600.0,
         gammacentered: False,
         name: pw}
  occupations: {fixmagmom: False,
                name: fermi-dirac,
                width: 0.001}
  symmetry: {point_group: False,
             time_reversal: False}

System changes: positions, numbers, cell, pbc, initial_charges, initial_magmoms 

Initialize ...

O-setup:
  name: Oxygen
  id: 9b9d51c344dea68c822856295a461509
  Z: 8.0
  valence: 6
  core: 2
  charge: 0.0
  file: /home/modules/software/GPAW-setups/0.9.20000/O.LDA.gz
  compensation charges: gauss, rc=0.21, lmax=2
  cutoffs: 1.17(filt), 0.83(core),
  valence states:
                energy  radius
    2s(2.00)   -23.752   0.688
    2p(4.00)    -9.195   0.598
    *s           3.459   0.688
    *p          18.016   0.598
    *d           0.000   0.619

  Using partial waves for O as LCAO basis

Mn-setup:
  name: Manganese
  id: 0d715a8018be061a6e9ea6f2d364ac92
  Z: 25.0
  valence: 15
  core: 10
  charge: 0.0
  file: /home/modules/software/GPAW-setups/0.9.20000/Mn.LDA.gz
  compensation charges: gauss, rc=0.38, lmax=2
  cutoffs: 2.14(filt), 0.86(core),
  valence states:
                energy  radius
    3s(2.00)   -85.387   1.275
    4s(2.00)    -5.282   1.275
    3p(6.00)   -54.493   1.281
    4p(0.00)    -1.471   1.281
    3d(5.00)    -7.009   1.138
    *d          20.203   1.138

  Using partial waves for Mn as LCAO basis

P-setup:
  name: Phosphorus
  id: a5561c299094968922a179ab894d2e2d
  Z: 15.0
  valence: 5
  core: 10
  charge: 0.0
  file: /home/modules/software/GPAW-setups/0.9.20000/P.LDA.gz
  compensation charges: gauss, rc=0.30, lmax=2
  cutoffs: 1.69(filt), 1.81(core),
  valence states:
                energy  radius
    3s(2.00)   -14.015   0.953
    3p(3.00)    -5.596   0.953
    *s          13.197   0.953
    *p          21.615   0.953
    *d           0.000   0.953

  Using partial waves for P as LCAO basis

Li-setup:
  name: Lithium
  id: b73562207f97a71b6967473b66fe8b65
  Z: 3.0
  valence: 1
  core: 2
  charge: 0.0
  file: /home/modules/software/GPAW-setups/0.9.20000/Li.LDA.gz
  compensation charges: gauss, rc=0.33, lmax=2
  cutoffs: 1.91(filt), 2.55(core),
  valence states:
                energy  radius
    2s(1.00)    -2.874   1.058
    2p(0.00)    -1.126   1.058
    *s          24.338   1.058

  Using partial waves for Li as LCAO basis

Reference energy: -196157.275402

Spin-polarized calculation.
Magnetic moment: 0.000000

Convergence criteria:
  Maximum total energy change: 0.0005 eV / electron
  Maximum integral of absolute density change: 0.0001 electrons
  Maximum integral of absolute eigenstate change: 4e-08 eV^2
  Maximum change in atomic force: 1e-06 eV / Ang
  Maximum number of iterations: 333

Symmetries present (total): 1

  ( 1  0  0)
  ( 0  1  0)
  ( 0  0  1)

144 k-points: 6 x 6 x 4 Monkhorst-Pack grid
144 k-points in the irreducible part of the Brillouin zone
       k-points in crystal coordinates                weights
   0:    -0.41666667   -0.41666667   -0.37500000          1/144
   1:    -0.41666667   -0.41666667   -0.12500000          1/144
   2:    -0.41666667   -0.41666667    0.12500000          1/144
   3:    -0.41666667   -0.41666667    0.37500000          1/144
   4:    -0.41666667   -0.25000000   -0.37500000          1/144
   5:    -0.41666667   -0.25000000   -0.12500000          1/144
   6:    -0.41666667   -0.25000000    0.12500000          1/144
   7:    -0.41666667   -0.25000000    0.37500000          1/144
   8:    -0.41666667   -0.08333333   -0.37500000          1/144
   9:    -0.41666667   -0.08333333   -0.12500000          1/144
          ...
 143:     0.41666667    0.41666667    0.37500000          1/144

Wave functions: Plane wave expansion
  Cutoff energy: 600.000 eV
  Number of coefficients (min, max): 10068, 10125
  Pulay-stress correction: 0.000000 eV/Ang^3 (de/decut=0.000000)
  Using FFTW library
  ScaLapack parameters: grid=1x1, blocksize=None
  Wavefunction extrapolation:
    Improved wavefunction reuse through dual PAW basis 

  Fermi-Dirac: width=0.0010 eV

Eigensolver
   Davidson(niter=2, smin=None, normalize=True) 

Densities:
  Coarse grid: 60*35*27 grid
  Fine grid: 120*70*54 grid
  Total Charge: 0.000000 

Density mixing:
  Method: difference
  Backend: pulay
  Linear mixing parameter: 0.05
  Mixing with 5 old densities
  Damping of long wave oscillations: 50 

Hamiltonian:
  XC and Coulomb potentials evaluated on a 120*70*54 grid
  Using the LDA Exchange-Correlation functional
 

Memory estimate:
  Process memory now: 13209.76 MiB
  Calculator: 375.55 MiB
    Density: 20.02 MiB
      Arrays: 7.57 MiB
      Localized functions: 9.42 MiB
      Mixer: 3.03 MiB
    Hamiltonian: 5.90 MiB
      Arrays: 5.62 MiB
      XC: 0.00 MiB
      Poisson: 0.00 MiB
      vbar: 0.27 MiB
    Wavefunctions: 349.64 MiB
      Arrays psit_nG: 311.46 MiB
      Eigensolver: 19.99 MiB
      Projections: 5.41 MiB
      Projectors: 9.73 MiB
      PW-descriptor: 3.03 MiB

Total number of cores used: 32
Parallelization over k-points: 16
Domain decomposition: 2 x 1 x 1

Number of atoms: 28
Number of atomic orbitals: 148
Number of bands in calculation: 112
Number of valence electrons: 180
Bands to converge: occupied

... initialized

Initializing position-dependent things.

Density initialized from atomic densities
Creating initial wave functions:
  112 bands from LCAO basis set

     .-------------------------.  
    /|         OP              |  
   / |O            O        O  |  
  /  |       O            O  P |  
 *   |O    Mn      O           |  
 |   |          OLi          O |  
 |   .P-O--------------Mn------.  
 |  /          Li    O  Mn  O /   
 | /Li O           PO        /    
 |/       Mn                /     
 *Li-----------------------*      

Positions:
   0 O     -1.360678   -2.541161   -1.202221    ( 0.0000,  0.0000,  0.0000)
   1 O     -3.121941    2.976855    1.167242    ( 0.0000,  0.0000,  0.0000)
   2 O      2.107533    0.508090    1.540712    ( 0.0000,  0.0000,  0.0000)
   3 O      3.869373   -0.072395   -0.828750    ( 0.0000,  0.0000,  0.0000)
   4 O      2.107821    2.976875    1.540792    ( 0.0000,  0.0000,  0.0000)
   5 O      3.869084   -2.541141   -0.828671    ( 0.0000,  0.0000,  0.0000)
   6 O     -1.360390   -0.082375   -1.202141    ( 0.0000,  0.0000,  0.0000)
   7 O     -3.122230    0.508109    1.167321    ( 0.0000,  0.0000,  0.0000)
   8 O     -4.413461   -1.306992   -0.794251    ( 0.0000,  0.0000,  0.0000)
   9 O     -0.069585    1.742707    1.575662    ( 0.0000,  0.0000,  0.0000)
  10 O      5.160604    1.742707    1.132822    ( 0.0000,  0.0000,  0.0000)
  11 O      0.816728   -1.306992   -1.237091    ( 0.0000,  0.0000,  0.0000)
  12 Mn    -2.570809   -1.307302    0.247161    ( 0.0000,  0.0000,  1.0000)
  13 Mn    -1.912021    1.743016   -2.122906    ( 0.0000,  0.0000, -1.0000)
  14 Mn     3.317952    1.743017    0.091411    ( 0.0000,  0.0000, -1.0000)
  15 Mn     2.659164   -1.307302    2.461478    ( 0.0000,  0.0000,  1.0000)
  16 P     -0.620664   -1.306816   -1.828465    ( 0.0000,  0.0000,  0.0000)
  17 P     -3.862097    1.742530    0.541238    ( 0.0000,  0.0000,  0.0000)
  18 P      1.367807    1.742530    2.167036    ( 0.0000,  0.0000,  0.0000)
  19 P      4.609240   -1.306816   -0.202666    ( 0.0000,  0.0000,  0.0000)
  20 O     -0.646437   -1.306845    1.374751    ( 0.0000,  0.0000,  0.0000)
  21 O     -3.836504    1.742559   -0.995565    ( 0.0000,  0.0000,  0.0000)
  22 O      1.393580    1.742559   -1.036179    ( 0.0000,  0.0000,  0.0000)
  23 O      4.583647   -1.306845    1.334136    ( 0.0000,  0.0000,  0.0000)
  24 Li    -4.856429   -2.832143   -2.200714    ( 0.0000,  0.0000,  0.0000)
  25 Li     0.373571   -2.832143    0.169286    ( 0.0000,  0.0000,  0.0000)
  26 Li    -4.856429    0.217857   -2.200714    ( 0.0000,  0.0000,  0.0000)
  27 Li     0.373571    0.217857    0.169286    ( 0.0000,  0.0000,  0.0000)

Unit cell:
           periodic     x           y           z      points  spacing
  1. axis:    yes   10.460000    0.000000    0.000000    60     0.1743
  2. axis:    yes    0.000000    6.100000    0.000000    35     0.1743
  3. axis:    yes    0.000000    0.000000    4.740000    27     0.1756

  Lengths:  10.460000   6.100000   4.740000
  Angles:   90.000000  90.000000  90.000000

Effective grid spacing dv^(1/3) = 0.1747

                     log10-error:           total        iterations:
           time      wfs    density  force  energy       poisson  magmom
iter:   1  13:40:59                       -231.917090             +0.0000
iter:   2  13:41:39  -0.55  -0.94         -231.742484             -0.0043
iter:   3  13:42:18  -0.72  -0.98         -220.585006             -0.0054
iter:   4  13:42:58  -0.94  -1.20         -218.868164             -0.0018
iter:   5  13:43:37  -1.93  -1.36         -222.282897             -0.0011
iter:   6  13:44:17  -1.99  -1.42         -221.385762             +0.0024
iter:   7  13:44:56  -1.84  -1.60         -225.047778             +0.5783
iter:   8  13:45:35  -2.35  -1.65         -225.042438             -0.4569
iter:   9  13:46:15  -2.68  -1.83         -226.272591             -0.6648
iter:  10  13:46:54  -2.60  -1.82         -227.172389             -0.2730
iter:  11  13:47:33  -2.59  -1.79         -227.161867             -0.0725
iter:  12  13:48:13  -3.01  -1.76         -226.981390             -0.0048
iter:  13  13:48:52  -1.65  -1.80         -226.775219             -0.0081
iter:  14  13:49:31  -2.68  -2.13         -226.462230             -0.0012
iter:  15  13:50:11  -2.95  -2.21         -226.389916             +0.0009
iter:  16  13:50:50  -2.67  -2.23         -226.253193             +0.0009
iter:  17  13:51:29  -2.93  -2.62         -226.244055             +0.0003
iter:  18  13:52:09  -4.09  -2.81         -226.239151             +0.0002
iter:  19  13:52:48  -3.36  -2.84         -226.229913             +0.0000
iter:  20  13:53:27  -3.67  -2.95         -226.229726             +0.0000
iter:  21  13:54:07  -4.91  -3.12         -226.228002             +0.0000
iter:  22  13:54:46  -4.45  -3.23         -226.226977             +0.0000
iter:  23  13:55:25  -4.60  -3.30         -226.227165             +0.0000
iter:  24  13:56:04  -4.87  -3.41         -226.226833             +0.0000
iter:  25  13:56:44  -5.81  -3.54         -226.226776             +0.0000
iter:  26  13:57:23  -4.88  -3.57         -226.226884             +0.0000
iter:  27  13:58:02  -5.50  -3.69         -226.226775             +0.0000
iter:  28  13:58:42  -6.34  -3.78         -226.226699             +0.0000
iter:  29  13:59:21  -6.50  -3.87         -226.226665             +0.0000
iter:  30  14:00:01  -6.57  -3.94         -226.226656             +0.0000
iter:  31  14:00:40  -6.32  -4.04         -226.226647             +0.0000
iter:  32  14:01:19  -5.83  -4.19         -226.226654             +0.0000
iter:  33  14:01:58  -6.40  -4.18         -226.226619             +0.0000
iter:  34  14:02:38  -6.75  -4.44         -226.226613             +0.0000
iter:  35  14:03:17  -7.17  -4.54         -226.226612             -0.0000
iter:  36  14:03:57  -6.84  -4.64         -226.226615             -0.0000
iter:  37  14:04:47  -7.54  -4.83         -226.226611             -0.0000
iter:  38  14:05:37  -8.19  -5.04    -3.15-226.226610             -0.0000
iter:  39  14:06:27  -8.60  -5.10    -3.29-226.226610             -0.0000
iter:  40  14:07:17  -8.76  -5.15    -3.20-226.226610             -0.0000
iter:  41  14:08:07  -8.55  -5.19    -2.78-226.226610             -0.0000
iter:  42  14:08:57  -9.29  -5.55    -3.25-226.226610             -0.0000
iter:  43  14:09:47  -9.66  -5.62    -3.66-226.226610             -0.0000
iter:  44  14:10:37  -9.84  -5.73    -3.65-226.226610             +0.0000
iter:  45  14:11:27 -10.19  -5.94    -4.17-226.226610             +0.0000
iter:  46  14:12:17 -11.02  -6.02    -3.81-226.226610             +0.0000
iter:  47  14:13:07  -9.94  -6.10    -3.64-226.226610             +0.0000
iter:  48  14:13:56 -11.21  -6.38    -4.50-226.226610             +0.0000
iter:  49  14:14:46 -11.06  -6.42    -4.37-226.226610             +0.0000
iter:  50  14:15:36 -10.96  -6.56    -4.42-226.226610             +0.0000
iter:  51  14:16:26 -11.24  -6.64    -4.26-226.226610             +0.0000
iter:  52  14:17:16 -11.20  -6.75    -4.50-226.226610             +0.0000
iter:  53  14:18:06 -11.56  -6.89    -4.53-226.226610             +0.0000
iter:  54  14:18:56 -12.00  -7.12    -4.94-226.226610             +0.0000
iter:  55  14:19:46 -12.39  -7.24    -5.04-226.226610             +0.0000
iter:  56  14:20:36 -12.58  -7.41    -4.99-226.226610             +0.0000
iter:  57  14:21:26 -12.61  -7.47    -5.17-226.226610             +0.0000
iter:  58  14:22:16 -13.55  -7.58    -5.52-226.226610             +0.0000
iter:  59  14:23:06 -13.95  -7.66    -5.78-226.226610             +0.0000
iter:  60  14:23:55 -13.56  -7.72    -5.60-226.226610             +0.0000
iter:  61  14:24:45 -13.79  -7.85    -5.73-226.226610             +0.0000
iter:  62  14:25:35 -14.84  -7.89    -5.98-226.226610             +0.0000
iter:  63  14:26:25 -14.22  -7.95    -5.71-226.226610             +0.0000
iter:  64  14:27:15 -14.38  -8.05    -5.93-226.226610             +0.0000
iter:  65  14:28:05 -14.85  -8.11    -6.37-226.226610             +0.0000

Converged after 65 iterations.

Dipole moment: (10.673496, 1.856285, -6.269688) |e|*Ang

Total magnetic moment: (0.000000, 0.000000, 0.000000)
Local magnetic moments:
   0 O  ( 0.000000,  0.000000, -0.000662)
   1 O  ( 0.000000,  0.000000,  0.000317)
   2 O  ( 0.000000,  0.000000,  0.000523)
   3 O  ( 0.000000,  0.000000, -0.000566)
   4 O  ( 0.000000,  0.000000,  0.000509)
   5 O  ( 0.000000,  0.000000, -0.000544)
   6 O  ( 0.000000,  0.000000, -0.000153)
   7 O  ( 0.000000,  0.000000,  0.000585)
   8 O  ( 0.000000,  0.000000,  0.028682)
   9 O  ( 0.000000,  0.000000, -0.028690)
  10 O  ( 0.000000,  0.000000, -0.028676)
  11 O  ( 0.000000,  0.000000,  0.028908)
  12 Mn ( 0.000000,  0.000000,  4.448331)
  13 Mn ( 0.000000,  0.000000, -4.449532)
  14 Mn ( 0.000000,  0.000000, -4.448147)
  15 Mn ( 0.000000,  0.000000,  4.448342)
  16 P  ( 0.000000,  0.000000,  0.001857)
  17 P  ( 0.000000,  0.000000, -0.001529)
  18 P  ( 0.000000,  0.000000, -0.001540)
  19 P  ( 0.000000,  0.000000,  0.001551)
  20 O  ( 0.000000,  0.000000,  0.025440)
  21 O  ( 0.000000,  0.000000, -0.025263)
  22 O  ( 0.000000,  0.000000, -0.025316)
  23 O  ( 0.000000,  0.000000,  0.025283)
  24 Li ( 0.000000,  0.000000,  0.000001)
  25 Li ( 0.000000,  0.000000,  0.000001)
  26 Li ( 0.000000,  0.000000,  0.000001)
  27 Li ( 0.000000,  0.000000,  0.000016)

Energy contributions relative to reference atoms: (reference = -196157.275402)

Kinetic:       +217.880104
Potential:     -195.645922
External:        +0.000000
XC:            -250.500904
Entropy (-ST):   -0.000000
Local:           +2.040111
--------------------------
Free energy:   -226.226610
Extrapolated:  -226.226610

Spin contamination: 9.561362 electrons
Showing only first 2 kpts
                      Up                     Down
 Kpt  Band  Eigenvalues  Occupancy  Eigenvalues  Occupancy
  0    88      5.11250    0.00694      5.10221    0.00694
  0    89      5.13720    0.00694      5.12976    0.00694
  0    90      7.28365    0.00000      7.29136    0.00000
  0    91      7.30196    0.00000      7.30887    0.00000

  1    88      5.13823    0.00694      5.12799    0.00694
  1    89      5.16778    0.00694      5.16020    0.00694
  1    90      7.22625    0.00000      7.23487    0.00000
  1    91      7.23970    0.00000      7.24664    0.00000


Fermi level: 6.02466

Gap: 1.965 eV
Transition (v -> c):
  (s=0, k=49, n=89, [-0.08, -0.42, -0.12]) -> (s=0, k=58, n=90, [-0.08, -0.08, 0.12])
Writing to born-0.01-6y-.gpw (mode='all')

Timing:                              incl.     excl.
-----------------------------------------------------------
Hamiltonian:                         0.429     0.003   0.0% |
 Atomic:                             0.080     0.080   0.0% |
  XC Correction:                     0.000     0.000   0.0% |
 Calculate atomic Hamiltonians:      0.178     0.178   0.0% |
 Communicate:                        0.001     0.001   0.0% |
 Initialize Hamiltonian:             0.000     0.000   0.0% |
 Poisson:                            0.002     0.002   0.0% |
 XC 3D grid:                         0.165     0.165   0.0% |
LCAO initialization:               134.140     0.678   0.0% |
 LCAO eigensolver:                  34.008     0.002   0.0% |
  Calculate projections:             0.057     0.057   0.0% |
  DenseAtomicCorrection:             0.083     0.083   0.0% |
  Distribute overlap matrix:         0.212     0.212   0.0% |
  Orbital Layouts:                   0.363     0.363   0.0% |
  Potential matrix:                 33.202    33.202   0.5% |
  Sum over cells:                    0.089     0.089   0.0% |
 LCAO to grid:                      97.145    97.145   1.6% ||
 Set positions (LCAO WFS):           2.309     0.344   0.0% |
  Basic WFS set positions:           0.001     0.001   0.0% |
  Basis functions set positions:     0.000     0.000   0.0% |
  P tci:                             1.058     1.058   0.0% |
  ST tci:                            0.656     0.656   0.0% |
  mktci:                             0.249     0.249   0.0% |
PWDescriptor:                        0.025     0.025   0.0% |
SCF-cycle:                        2866.881     8.371   0.1% |
 Davidson:                        2422.889   791.108  12.8% |----|
  Apply H:                         169.130   164.280   2.7% ||
   HMM T:                            4.849     4.849   0.1% |
  Subspace diag:                   356.743     0.204   0.0% |
   calc_h_matrix:                  230.668    64.155   1.0% |
    Apply H:                       166.513   161.842   2.6% ||
     HMM T:                          4.670     4.670   0.1% |
   diagonalize:                      7.913     7.913   0.1% |
   rotate_psi:                     117.958   117.958   1.9% ||
  calc. matrices:                  757.728   429.601   6.9% |--|
   Apply H:                        328.127   319.228   5.2% |-|
    HMM T:                           8.899     8.899   0.1% |
  diagonalize:                     108.342   108.342   1.8% ||
  rotate_psi:                      239.838   239.838   3.9% |-|
 Density:                           96.423     0.002   0.0% |
  Atomic density matrices:           1.733     1.733   0.0% |
  Mix:                              15.821    15.821   0.3% |
  Multipole moments:                 0.038     0.038   0.0% |
  Pseudo density:                   78.829    78.827   1.3% ||
   Symmetrize density:               0.002     0.002   0.0% |
 Forces:                           307.769   307.769   5.0% |-|
 Hamiltonian:                       27.024     0.157   0.0% |
  Atomic:                            3.497     3.497   0.1% |
   XC Correction:                    0.000     0.000   0.0% |
  Calculate atomic Hamiltonians:    11.694    11.694   0.2% |
  Communicate:                       0.119     0.119   0.0% |
  Poisson:                           0.106     0.106   0.0% |
  XC 3D grid:                       11.450    11.450   0.2% |
 Orthonormalize:                     4.405     0.004   0.0% |
  calc_s_matrix:                     0.523     0.523   0.0% |
  inverse-cholesky:                  0.055     0.055   0.0% |
  projections:                       2.891     2.891   0.0% |
  rotate_psi_s:                      0.932     0.932   0.0% |
Set symmetry:                        0.000     0.000   0.0% |
Other:                            3187.718  3187.718  51.5% |--------------------|
-----------------------------------------------------------
Total:                                      6189.194 100.0%

Memory usage: 12.98 GiB
Date: Mon Mar 22 15:21:10 2021
