
  ___ ___ ___ _ _ _  
 |   |   |_  | | | | 
 | | | | | . | | | | 
 |__ |  _|___|_____|  21.1.1b1
 |___|_|             

User:   madkru@g043.nifl.fysik.dtu.dk
Date:   Wed Mar 31 20:03:51 2021
Arch:   x86_64
Pid:    39387
Python: 3.8.6
gpaw:   /home/niflheim/madkru/venv_madkru/gpaw/gpaw (e6f0d78a31)
_gpaw:  /home/niflheim/madkru/venv_madkru/gpaw/build/lib.linux-x86_64-sandybridge-3.8/
        _gpaw.cpython-38-x86_64-linux-gnu.so (e6f0d78a31)
ase:    /home/niflheim/madkru/venv_madkru/ase/ase (version 3.22.0b1-4d5a73cb29)
numpy:  /home/modules/software/SciPy-bundle/2020.11-foss-2020b/lib/python3.8/site-packages/numpy (version 1.19.4)
scipy:  /home/modules/software/SciPy-bundle/2020.11-foss-2020b/lib/python3.8/site-packages/scipy (version 1.5.4)
libxc:  4.3.4
units:  Angstrom and eV
cores: 64
OpenMP: False
OMP_NUM_THREADS: 1

Input parameters:
  convergence: {bands: occupied,
                density: 0.0001,
                eigenstates: 4e-08,
                energy: 0.0005,
                forces: 1e-06}
  kpts: [6 6 4]
  maxiter: 1000
  mode: {ecut: 600.0,
         gammacentered: False,
         name: pw}
  occupations: {fixmagmom: False,
                name: fermi-dirac,
                width: 0.001}
  symmetry: {point_group: False,
             time_reversal: False}

System changes: positions, numbers, cell, pbc, initial_charges, initial_magmoms 

Initialize ...

O-setup:
  name: Oxygen
  id: 9b9d51c344dea68c822856295a461509
  Z: 8.0
  valence: 6
  core: 2
  charge: 0.0
  file: /home/modules/software/GPAW-setups/0.9.20000/O.LDA.gz
  compensation charges: gauss, rc=0.21, lmax=2
  cutoffs: 1.17(filt), 0.83(core),
  valence states:
                energy  radius
    2s(2.00)   -23.752   0.688
    2p(4.00)    -9.195   0.598
    *s           3.459   0.688
    *p          18.016   0.598
    *d           0.000   0.619

  Using partial waves for O as LCAO basis

Mn-setup:
  name: Manganese
  id: 0d715a8018be061a6e9ea6f2d364ac92
  Z: 25.0
  valence: 15
  core: 10
  charge: 0.0
  file: /home/modules/software/GPAW-setups/0.9.20000/Mn.LDA.gz
  compensation charges: gauss, rc=0.38, lmax=2
  cutoffs: 2.14(filt), 0.86(core),
  valence states:
                energy  radius
    3s(2.00)   -85.387   1.275
    4s(2.00)    -5.282   1.275
    3p(6.00)   -54.493   1.281
    4p(0.00)    -1.471   1.281
    3d(5.00)    -7.009   1.138
    *d          20.203   1.138

  Using partial waves for Mn as LCAO basis

P-setup:
  name: Phosphorus
  id: a5561c299094968922a179ab894d2e2d
  Z: 15.0
  valence: 5
  core: 10
  charge: 0.0
  file: /home/modules/software/GPAW-setups/0.9.20000/P.LDA.gz
  compensation charges: gauss, rc=0.30, lmax=2
  cutoffs: 1.69(filt), 1.81(core),
  valence states:
                energy  radius
    3s(2.00)   -14.015   0.953
    3p(3.00)    -5.596   0.953
    *s          13.197   0.953
    *p          21.615   0.953
    *d           0.000   0.953

  Using partial waves for P as LCAO basis

Li-setup:
  name: Lithium
  id: b73562207f97a71b6967473b66fe8b65
  Z: 3.0
  valence: 1
  core: 2
  charge: 0.0
  file: /home/modules/software/GPAW-setups/0.9.20000/Li.LDA.gz
  compensation charges: gauss, rc=0.33, lmax=2
  cutoffs: 1.91(filt), 2.55(core),
  valence states:
                energy  radius
    2s(1.00)    -2.874   1.058
    2p(0.00)    -1.126   1.058
    *s          24.338   1.058

  Using partial waves for Li as LCAO basis

Reference energy: -196157.275402

Spin-polarized calculation.
Magnetic moment: 0.000000

Convergence criteria:
  Maximum total energy change: 0.0005 eV / electron
  Maximum integral of absolute density change: 0.0001 electrons
  Maximum integral of absolute eigenstate change: 4e-08 eV^2
  Maximum change in atomic force: 1e-06 eV / Ang
  Maximum number of iterations: 1000

Symmetries present (total): 1

  ( 1  0  0)
  ( 0  1  0)
  ( 0  0  1)

144 k-points: 6 x 6 x 4 Monkhorst-Pack grid
144 k-points in the irreducible part of the Brillouin zone
       k-points in crystal coordinates                weights
   0:    -0.41666667   -0.41666667   -0.37500000          1/144
   1:    -0.41666667   -0.41666667   -0.12500000          1/144
   2:    -0.41666667   -0.41666667    0.12500000          1/144
   3:    -0.41666667   -0.41666667    0.37500000          1/144
   4:    -0.41666667   -0.25000000   -0.37500000          1/144
   5:    -0.41666667   -0.25000000   -0.12500000          1/144
   6:    -0.41666667   -0.25000000    0.12500000          1/144
   7:    -0.41666667   -0.25000000    0.37500000          1/144
   8:    -0.41666667   -0.08333333   -0.37500000          1/144
   9:    -0.41666667   -0.08333333   -0.12500000          1/144
          ...
 143:     0.41666667    0.41666667    0.37500000          1/144

Wave functions: Plane wave expansion
  Cutoff energy: 600.000 eV
  Number of coefficients (min, max): 10068, 10125
  Pulay-stress correction: 0.000000 eV/Ang^3 (de/decut=0.000000)
  Using FFTW library
  ScaLapack parameters: grid=1x1, blocksize=None
  Wavefunction extrapolation:
    Improved wavefunction reuse through dual PAW basis 

  Fermi-Dirac: width=0.0010 eV

Eigensolver
   Davidson(niter=2) 

Densities:
  Coarse grid: 60*35*27 grid
  Fine grid: 120*70*54 grid
  Total Charge: 0.000000 

Density mixing:
  Method: difference
  Backend: pulay
  Linear mixing parameter: 0.05
  Mixing with 5 old densities
  Damping of long wave oscillations: 50 

Hamiltonian:
  XC and Coulomb potentials evaluated on a 120*70*54 grid
  Using the LDA Exchange-Correlation functional
 

Memory estimate:
  Process memory now: 14415.33 MiB
  Calculator: 354.82 MiB
    Density: 10.06 MiB
      Arrays: 3.79 MiB
      Localized functions: 4.71 MiB
      Mixer: 1.56 MiB
    Hamiltonian: 2.95 MiB
      Arrays: 2.82 MiB
      XC: 0.00 MiB
      Poisson: 0.00 MiB
      vbar: 0.14 MiB
    Wavefunctions: 341.80 MiB
      Arrays psit_nG: 311.46 MiB
      Eigensolver: 19.99 MiB
      Projections: 2.71 MiB
      Projectors: 4.87 MiB
      PW-descriptor: 2.77 MiB

Total number of cores used: 64
Parallelization over k-points: 16
Domain decomposition: 2 x 2 x 1

Number of atoms: 28
Number of atomic orbitals: 148
Number of bands in calculation: 112
Number of valence electrons: 180
Bands to converge: occupied

... initialized

Initializing position-dependent things.

Density initialized from atomic densities
Creating initial wave functions:
  112 bands from LCAO basis set

     .-------------------------.  
    /|         OP              |  
   / |O            O        O  |  
  /  |       O            O  P |  
 *   |O    Mn      O           |  
 |   |          OLi          O |  
 |   .P-O--------------Mn------.  
 |  /          Li    O  Mn  O /   
 | /Li O           PO        /    
 |/       Mn                /     
 *Li-----------------------*      

Positions:
   0 O     -1.360678   -2.541161   -1.202221    ( 0.0000,  0.0000,  0.0000)
   1 O     -3.121941    2.976855    1.167242    ( 0.0000,  0.0000,  0.0000)
   2 O      2.107533    0.508090    1.540712    ( 0.0000,  0.0000,  0.0000)
   3 O      3.869373   -0.072395   -0.828750    ( 0.0000,  0.0000,  0.0000)
   4 O      2.107821    2.976875    1.540792    ( 0.0000,  0.0000,  0.0000)
   5 O      3.869084   -2.541141   -0.828671    ( 0.0000,  0.0000,  0.0000)
   6 O     -1.360390   -0.072375   -1.202141    ( 0.0000,  0.0000,  0.0000)
   7 O     -3.122230    0.508109    1.167321    ( 0.0000,  0.0000,  0.0000)
   8 O     -4.413461   -1.306992   -0.794251    ( 0.0000,  0.0000,  0.0000)
   9 O     -0.069585    1.742707    1.575662    ( 0.0000,  0.0000,  0.0000)
  10 O      5.160604    1.742707    1.132822    ( 0.0000,  0.0000,  0.0000)
  11 O      0.816728   -1.306992   -1.237091    ( 0.0000,  0.0000,  0.0000)
  12 Mn    -2.570809   -1.307302    0.247161    ( 0.0000,  0.0000,  1.0000)
  13 Mn    -1.912021    1.743016   -2.122906    ( 0.0000,  0.0000, -1.0000)
  14 Mn     3.317952    1.743017    0.091411    ( 0.0000,  0.0000, -1.0000)
  15 Mn     2.659164   -1.307302    2.461478    ( 0.0000,  0.0000,  1.0000)
  16 P     -0.620664   -1.306816   -1.828465    ( 0.0000,  0.0000,  0.0000)
  17 P     -3.862097    1.742530    0.541238    ( 0.0000,  0.0000,  0.0000)
  18 P      1.367807    1.742530    2.167036    ( 0.0000,  0.0000,  0.0000)
  19 P      4.609240   -1.306816   -0.202666    ( 0.0000,  0.0000,  0.0000)
  20 O     -0.646437   -1.296845    1.374751    ( 0.0000,  0.0000,  0.0000)
  21 O     -3.836504    1.742559   -0.995565    ( 0.0000,  0.0000,  0.0000)
  22 O      1.393580    1.742559   -1.036179    ( 0.0000,  0.0000,  0.0000)
  23 O      4.583647   -1.306845    1.334136    ( 0.0000,  0.0000,  0.0000)
  24 Li    -4.856429   -2.832143   -2.200714    ( 0.0000,  0.0000,  0.0000)
  25 Li     0.373571   -2.832143    0.169286    ( 0.0000,  0.0000,  0.0000)
  26 Li    -4.856429    0.217857   -2.200714    ( 0.0000,  0.0000,  0.0000)
  27 Li     0.373571    0.217857    0.169286    ( 0.0000,  0.0000,  0.0000)

Unit cell:
           periodic     x           y           z      points  spacing
  1. axis:    yes   10.460000    0.000000    0.000000    60     0.1743
  2. axis:    yes    0.000000    6.100000    0.000000    35     0.1743
  3. axis:    yes    0.000000    0.000000    4.740000    27     0.1756

  Lengths:  10.460000   6.100000   4.740000
  Angles:   90.000000  90.000000  90.000000

Effective grid spacing dv^(1/3) = 0.1747

                     log10-error:           total        iterations:
           time      wfs    density  force  energy       poisson  magmom
iter:   1  20:05:25                       -231.920199             +0.0000
iter:   2  20:05:47  -0.55  -0.94         -231.730839             +0.0052
iter:   3  20:06:08  -0.72  -0.98         -220.584660             +0.0065
iter:   4  20:06:29  -0.96  -1.20         -218.866122             +0.0022
iter:   5  20:06:50  -1.94  -1.36         -221.251285             +0.0014
iter:   6  20:07:12  -1.98  -1.50         -219.967023             +0.0007
iter:   7  20:07:33  -2.21  -1.68         -222.907911             +0.1728
iter:   8  20:07:54  -2.73  -1.89         -219.865224             +0.2379
iter:   9  20:08:16  -2.20  -1.94         -224.965079             +0.6724
iter:  10  20:08:37  -2.25  -1.87         -227.209454             +0.0328
iter:  11  20:08:58  -2.96  -1.84         -227.303561             -0.0137
iter:  12  20:09:19  -3.17  -1.81         -227.203851             -0.0042
iter:  13  20:09:41  -1.38  -1.81         -228.550943             -0.0029
iter:  14  20:10:02  -2.80  -1.87         -227.213442             -0.0013
iter:  15  20:10:23  -2.82  -2.06         -227.148558             -0.0003
iter:  16  20:10:44  -3.04  -2.07         -227.010918             +0.0001
iter:  17  20:11:06  -2.58  -2.12         -226.678025             +0.0001
iter:  18  20:11:27  -2.98  -2.19         -226.499382             +0.0000
iter:  19  20:11:48  -3.06  -2.38         -226.336333             +0.0000
iter:  20  20:12:09  -2.43  -2.48         -226.270425             +0.0000
iter:  21  20:12:30  -3.08  -2.46         -226.232750             +0.0000
iter:  22  20:12:52  -3.67  -2.71         -226.258890             -0.0000
iter:  23  20:13:13  -3.03  -2.75         -226.235859             -0.0000
iter:  24  20:13:34  -4.17  -3.08         -226.233459             -0.0000
iter:  25  20:13:55  -4.50  -3.10         -226.230431             -0.0000
iter:  26  20:14:17  -4.19  -3.15         -226.228444             -0.0000
iter:  27  20:14:38  -4.97  -3.36         -226.228063             -0.0000
iter:  28  20:14:59  -5.25  -3.44         -226.227985             -0.0000
iter:  29  20:15:20  -5.31  -3.51         -226.228234             -0.0000
iter:  30  20:15:42  -6.12  -3.66         -226.228103             +0.0000
iter:  31  20:16:03  -5.85  -3.73         -226.227870             +0.0000
iter:  32  20:16:24  -5.41  -3.81         -226.227729             +0.0000
iter:  33  20:16:45  -5.96  -3.95         -226.227746             +0.0000
iter:  34  20:17:06  -6.39  -4.01         -226.227753             +0.0000
iter:  35  20:17:28  -6.20  -4.07         -226.227760             +0.0000
iter:  36  20:17:49  -6.21  -4.41         -226.227713             +0.0000
iter:  37  20:18:10  -7.16  -4.77         -226.227712             +0.0000
iter:  38  20:18:37  -7.45  -4.83         -226.227713             -0.0000
iter:  39  20:18:58  -7.00  -4.87         -226.227710             +0.0000
iter:  40  20:19:25  -8.11  -5.23    -2.56-226.227710             -0.0000
iter:  41  20:19:51  -8.45  -5.28    -3.03-226.227710             -0.0000
iter:  42  20:20:18  -8.84  -5.36    -3.13-226.227710             -0.0000
iter:  43  20:20:45  -8.62  -5.55    -2.98-226.227710             -0.0000
iter:  44  20:21:12  -9.69  -5.70    -4.13-226.227710             -0.0000
iter:  45  20:21:38  -8.88  -5.73    -3.31-226.227710             +0.0000
iter:  46  20:22:05  -9.76  -6.03    -3.68-226.227710             -0.0000
iter:  47  20:22:32 -11.12  -6.16    -4.76-226.227710             +0.0000
iter:  48  20:22:58 -10.09  -6.18    -4.01-226.227710             +0.0000
iter:  49  20:23:25 -10.25  -6.33    -4.01-226.227710             +0.0000
iter:  50  20:23:52 -10.97  -6.52    -4.11-226.227710             +0.0000
iter:  51  20:24:19 -11.33  -6.64    -4.35-226.227710             +0.0000
iter:  52  20:24:45 -10.88  -6.70    -4.52-226.227710             +0.0000
iter:  53  20:25:12 -12.05  -7.10    -4.58-226.227710             +0.0000
iter:  54  20:25:39 -12.53  -7.22    -5.14-226.227710             +0.0000
iter:  55  20:26:05 -12.67  -7.34    -5.26-226.227710             +0.0000
iter:  56  20:26:32 -12.72  -7.44    -5.40-226.227710             +0.0000
iter:  57  20:26:59 -13.03  -7.57    -5.37-226.227710             +0.0000
iter:  58  20:27:26 -13.18  -7.63    -5.52-226.227710             +0.0000
iter:  59  20:27:52 -13.83  -7.86    -5.81-226.227710             +0.0000
iter:  60  20:28:19 -14.73  -7.96    -6.51-226.227710             +0.0000

Converged after 60 iterations.

Dipole moment: (10.671497, 1.412596, -6.269757) |e|*Ang

Total magnetic moment: (0.000000, 0.000000, 0.000000)
Local magnetic moments:
   0 O  ( 0.000000,  0.000000, -0.000556)
   1 O  ( 0.000000,  0.000000,  0.000516)
   2 O  ( 0.000000,  0.000000,  0.000533)
   3 O  ( 0.000000,  0.000000, -0.000554)
   4 O  ( 0.000000,  0.000000,  0.000523)
   5 O  ( 0.000000,  0.000000, -0.000533)
   6 O  ( 0.000000,  0.000000, -0.000501)
   7 O  ( 0.000000,  0.000000,  0.000571)
   8 O  ( 0.000000,  0.000000,  0.028693)
   9 O  ( 0.000000,  0.000000, -0.028701)
  10 O  ( 0.000000,  0.000000, -0.028693)
  11 O  ( 0.000000,  0.000000,  0.028701)
  12 Mn ( 0.000000,  0.000000,  4.448160)
  13 Mn ( 0.000000,  0.000000, -4.448240)
  14 Mn ( 0.000000,  0.000000, -4.448161)
  15 Mn ( 0.000000,  0.000000,  4.448241)
  16 P  ( 0.000000,  0.000000,  0.001557)
  17 P  ( 0.000000,  0.000000, -0.001543)
  18 P  ( 0.000000,  0.000000, -0.001557)
  19 P  ( 0.000000,  0.000000,  0.001543)
  20 O  ( 0.000000,  0.000000,  0.025316)
  21 O  ( 0.000000,  0.000000, -0.025306)
  22 O  ( 0.000000,  0.000000, -0.025315)
  23 O  ( 0.000000,  0.000000,  0.025306)
  24 Li ( 0.000000,  0.000000,  0.000000)
  25 Li ( 0.000000,  0.000000, -0.000004)
  26 Li ( 0.000000,  0.000000, -0.000000)
  27 Li ( 0.000000,  0.000000,  0.000004)

Energy contributions relative to reference atoms: (reference = -196157.275402)

Kinetic:       +217.349657
Potential:     -195.235083
External:        +0.000000
XC:            -250.383419
Entropy (-ST):   -0.000000
Local:           +2.041135
--------------------------
Free energy:   -226.227710
Extrapolated:  -226.227710

Spin contamination: 9.560411 electrons
Showing only first 2 kpts
                      Up                     Down
 Kpt  Band  Eigenvalues  Occupancy  Eigenvalues  Occupancy
  0    88      5.10981    1.00000      5.10988    1.00000
  0    89      5.13425    1.00000      5.13440    1.00000
  0    90      7.28866    0.00000      7.28864    0.00000
  0    91      7.30635    0.00000      7.30633    0.00000

  1    88      5.13554    1.00000      5.13562    1.00000
  1    89      5.16466    1.00000      5.16483    1.00000
  1    90      7.23145    0.00000      7.23144    0.00000
  1    91      7.24366    0.00000      7.24363    0.00000


Fermi level: 5.65354

Gap: 1.972 eV
Transition (v -> c):
  (s=0, k=69, n=89, [-0.08, 0.42, -0.12]) -> (s=1, k=86, n=90, [0.08, 0.08, 0.12])
Writing to born-0.01-20y+.gpw (mode='all')

Timing:                              incl.     excl.
-----------------------------------------------------------
Hamiltonian:                         0.268     0.003   0.0% |
 Atomic:                             0.082     0.082   0.0% |
  XC Correction:                     0.000     0.000   0.0% |
 Calculate atomic Hamiltonians:      0.090     0.090   0.0% |
 Communicate:                        0.001     0.001   0.0% |
 Initialize Hamiltonian:             0.000     0.000   0.0% |
 Poisson:                            0.001     0.001   0.0% |
 XC 3D grid:                         0.091     0.091   0.0% |
LCAO initialization:                70.443     0.674   0.0% |
 LCAO eigensolver:                  18.008     0.002   0.0% |
  Calculate projections:             0.030     0.030   0.0% |
  DenseAtomicCorrection:             0.043     0.043   0.0% |
  Distribute overlap matrix:         0.034     0.034   0.0% |
  Orbital Layouts:                   0.280     0.280   0.0% |
  Potential matrix:                 17.535    17.535   0.5% |
  Sum over cells:                    0.083     0.083   0.0% |
 LCAO to grid:                      50.477    50.477   1.4% ||
 Set positions (LCAO WFS):           1.283     0.182   0.0% |
  Basic WFS set positions:           0.001     0.001   0.0% |
  Basis functions set positions:     0.000     0.000   0.0% |
  P tci:                             0.517     0.517   0.0% |
  ST tci:                            0.369     0.369   0.0% |
  mktci:                             0.213     0.213   0.0% |
PWDescriptor:                        0.025     0.025   0.0% |
SCF-cycle:                        1396.365     4.217   0.1% |
 Davidson:                        1206.435   385.217  10.4% |---|
  Apply H:                          81.212    78.833   2.1% ||
   HMM T:                            2.379     2.379   0.1% |
  Subspace diag:                   173.662     0.175   0.0% |
   calc_h_matrix:                  110.581    30.280   0.8% |
    Apply H:                        80.301    78.019   2.1% ||
     HMM T:                          2.281     2.281   0.1% |
   diagonalize:                      6.128     6.128   0.2% |
   rotate_psi:                      56.779    56.779   1.5% ||
  calc. matrices:                  360.414   201.215   5.4% |-|
   Apply H:                        159.199   154.724   4.2% |-|
    HMM T:                           4.475     4.475   0.1% |
  diagonalize:                      92.960    92.960   2.5% ||
  rotate_psi:                      112.970   112.970   3.0% ||
 Density:                           47.941     0.001   0.0% |
  Atomic density matrices:           0.800     0.800   0.0% |
  Mix:                               8.140     8.140   0.2% |
  Multipole moments:                 0.023     0.023   0.0% |
  Pseudo density:                   38.977    38.976   1.0% |
   Symmetrize density:               0.002     0.002   0.0% |
 Forces:                           120.752   120.752   3.3% ||
 Hamiltonian:                       14.720     0.127   0.0% |
  Atomic:                            3.422     3.422   0.1% |
   XC Correction:                    0.000     0.000   0.0% |
  Calculate atomic Hamiltonians:     5.596     5.596   0.2% |
  Communicate:                       0.053     0.053   0.0% |
  Poisson:                           0.054     0.054   0.0% |
  XC 3D grid:                        5.467     5.467   0.1% |
 Orthonormalize:                     2.299     0.003   0.0% |
  calc_s_matrix:                     0.267     0.267   0.0% |
  inverse-cholesky:                  0.039     0.039   0.0% |
  projections:                       1.502     1.502   0.0% |
  rotate_psi_s:                      0.487     0.487   0.0% |
Set symmetry:                        0.000     0.000   0.0% |
Other:                            2245.215  2245.215  60.5% |-----------------------|
-----------------------------------------------------------
Total:                                      3712.315 100.0%

Memory usage: 14.08 GiB
Date: Wed Mar 31 21:05:43 2021
