
  ___ ___ ___ _ _ _  
 |   |   |_  | | | | 
 | | | | | . | | | | 
 |__ |  _|___|_____|  21.1.1b1
 |___|_|             

User:   madkru@g043.nifl.fysik.dtu.dk
Date:   Tue Mar 30 04:08:02 2021
Arch:   x86_64
Pid:    39387
Python: 3.8.6
gpaw:   /home/niflheim/madkru/venv_madkru/gpaw/gpaw (e6f0d78a31)
_gpaw:  /home/niflheim/madkru/venv_madkru/gpaw/build/lib.linux-x86_64-sandybridge-3.8/
        _gpaw.cpython-38-x86_64-linux-gnu.so (e6f0d78a31)
ase:    /home/niflheim/madkru/venv_madkru/ase/ase (version 3.22.0b1-4d5a73cb29)
numpy:  /home/modules/software/SciPy-bundle/2020.11-foss-2020b/lib/python3.8/site-packages/numpy (version 1.19.4)
scipy:  /home/modules/software/SciPy-bundle/2020.11-foss-2020b/lib/python3.8/site-packages/scipy (version 1.5.4)
libxc:  4.3.4
units:  Angstrom and eV
cores: 64
OpenMP: False
OMP_NUM_THREADS: 1

Input parameters:
  convergence: {bands: occupied,
                density: 0.0001,
                eigenstates: 4e-08,
                energy: 0.0005,
                forces: 1e-06}
  kpts: [6 6 4]
  maxiter: 1000
  mode: {ecut: 600.0,
         gammacentered: False,
         name: pw}
  occupations: {fixmagmom: False,
                name: fermi-dirac,
                width: 0.001}
  symmetry: {point_group: False,
             time_reversal: False}

System changes: positions, numbers, cell, pbc, initial_charges, initial_magmoms 

Initialize ...

O-setup:
  name: Oxygen
  id: 9b9d51c344dea68c822856295a461509
  Z: 8.0
  valence: 6
  core: 2
  charge: 0.0
  file: /home/modules/software/GPAW-setups/0.9.20000/O.LDA.gz
  compensation charges: gauss, rc=0.21, lmax=2
  cutoffs: 1.17(filt), 0.83(core),
  valence states:
                energy  radius
    2s(2.00)   -23.752   0.688
    2p(4.00)    -9.195   0.598
    *s           3.459   0.688
    *p          18.016   0.598
    *d           0.000   0.619

  Using partial waves for O as LCAO basis

Mn-setup:
  name: Manganese
  id: 0d715a8018be061a6e9ea6f2d364ac92
  Z: 25.0
  valence: 15
  core: 10
  charge: 0.0
  file: /home/modules/software/GPAW-setups/0.9.20000/Mn.LDA.gz
  compensation charges: gauss, rc=0.38, lmax=2
  cutoffs: 2.14(filt), 0.86(core),
  valence states:
                energy  radius
    3s(2.00)   -85.387   1.275
    4s(2.00)    -5.282   1.275
    3p(6.00)   -54.493   1.281
    4p(0.00)    -1.471   1.281
    3d(5.00)    -7.009   1.138
    *d          20.203   1.138

  Using partial waves for Mn as LCAO basis

P-setup:
  name: Phosphorus
  id: a5561c299094968922a179ab894d2e2d
  Z: 15.0
  valence: 5
  core: 10
  charge: 0.0
  file: /home/modules/software/GPAW-setups/0.9.20000/P.LDA.gz
  compensation charges: gauss, rc=0.30, lmax=2
  cutoffs: 1.69(filt), 1.81(core),
  valence states:
                energy  radius
    3s(2.00)   -14.015   0.953
    3p(3.00)    -5.596   0.953
    *s          13.197   0.953
    *p          21.615   0.953
    *d           0.000   0.953

  Using partial waves for P as LCAO basis

Li-setup:
  name: Lithium
  id: b73562207f97a71b6967473b66fe8b65
  Z: 3.0
  valence: 1
  core: 2
  charge: 0.0
  file: /home/modules/software/GPAW-setups/0.9.20000/Li.LDA.gz
  compensation charges: gauss, rc=0.33, lmax=2
  cutoffs: 1.91(filt), 2.55(core),
  valence states:
                energy  radius
    2s(1.00)    -2.874   1.058
    2p(0.00)    -1.126   1.058
    *s          24.338   1.058

  Using partial waves for Li as LCAO basis

Reference energy: -196157.275402

Spin-polarized calculation.
Magnetic moment: 0.000000

Convergence criteria:
  Maximum total energy change: 0.0005 eV / electron
  Maximum integral of absolute density change: 0.0001 electrons
  Maximum integral of absolute eigenstate change: 4e-08 eV^2
  Maximum change in atomic force: 1e-06 eV / Ang
  Maximum number of iterations: 1000

Symmetries present (total): 1

  ( 1  0  0)
  ( 0  1  0)
  ( 0  0  1)

144 k-points: 6 x 6 x 4 Monkhorst-Pack grid
144 k-points in the irreducible part of the Brillouin zone
       k-points in crystal coordinates                weights
   0:    -0.41666667   -0.41666667   -0.37500000          1/144
   1:    -0.41666667   -0.41666667   -0.12500000          1/144
   2:    -0.41666667   -0.41666667    0.12500000          1/144
   3:    -0.41666667   -0.41666667    0.37500000          1/144
   4:    -0.41666667   -0.25000000   -0.37500000          1/144
   5:    -0.41666667   -0.25000000   -0.12500000          1/144
   6:    -0.41666667   -0.25000000    0.12500000          1/144
   7:    -0.41666667   -0.25000000    0.37500000          1/144
   8:    -0.41666667   -0.08333333   -0.37500000          1/144
   9:    -0.41666667   -0.08333333   -0.12500000          1/144
          ...
 143:     0.41666667    0.41666667    0.37500000          1/144

Wave functions: Plane wave expansion
  Cutoff energy: 600.000 eV
  Number of coefficients (min, max): 10068, 10125
  Pulay-stress correction: 0.000000 eV/Ang^3 (de/decut=0.000000)
  Using FFTW library
  ScaLapack parameters: grid=1x1, blocksize=None
  Wavefunction extrapolation:
    Improved wavefunction reuse through dual PAW basis 

  Fermi-Dirac: width=0.0010 eV

Eigensolver
   Davidson(niter=2) 

Densities:
  Coarse grid: 60*35*27 grid
  Fine grid: 120*70*54 grid
  Total Charge: 0.000000 

Density mixing:
  Method: difference
  Backend: pulay
  Linear mixing parameter: 0.05
  Mixing with 5 old densities
  Damping of long wave oscillations: 50 

Hamiltonian:
  XC and Coulomb potentials evaluated on a 120*70*54 grid
  Using the LDA Exchange-Correlation functional
 

Memory estimate:
  Process memory now: 12232.21 MiB
  Calculator: 354.82 MiB
    Density: 10.06 MiB
      Arrays: 3.79 MiB
      Localized functions: 4.71 MiB
      Mixer: 1.56 MiB
    Hamiltonian: 2.95 MiB
      Arrays: 2.82 MiB
      XC: 0.00 MiB
      Poisson: 0.00 MiB
      vbar: 0.14 MiB
    Wavefunctions: 341.80 MiB
      Arrays psit_nG: 311.46 MiB
      Eigensolver: 19.99 MiB
      Projections: 2.71 MiB
      Projectors: 4.87 MiB
      PW-descriptor: 2.77 MiB

Total number of cores used: 64
Parallelization over k-points: 16
Domain decomposition: 2 x 2 x 1

Number of atoms: 28
Number of atomic orbitals: 148
Number of bands in calculation: 112
Number of valence electrons: 180
Bands to converge: occupied

... initialized

Initializing position-dependent things.

Density initialized from atomic densities
Creating initial wave functions:
  112 bands from LCAO basis set

     .-------------------------.  
    /|         OP              |  
   / |O            O        O  |  
  /  |       O            O  P |  
 *   |O    Mn      O           |  
 |   |          OLi          O |  
 |   .P-O--------------Mn------.  
 |  /          Li    O  Mn  O /   
 | /Li O           PO        /    
 |/       Mn                /     
 *Li-----------------------*      

Positions:
   0 O     -1.360678   -2.541161   -1.202221    ( 0.0000,  0.0000,  0.0000)
   1 O     -3.121941    2.976855    1.167242    ( 0.0000,  0.0000,  0.0000)
   2 O      2.107533    0.508090    1.540712    ( 0.0000,  0.0000,  0.0000)
   3 O      3.869373   -0.072395   -0.828750    ( 0.0000,  0.0000,  0.0000)
   4 O      2.107821    2.976875    1.540792    ( 0.0000,  0.0000,  0.0000)
   5 O      3.869084   -2.541141   -0.828671    ( 0.0000,  0.0000,  0.0000)
   6 O     -1.360390   -0.072375   -1.202141    ( 0.0000,  0.0000,  0.0000)
   7 O     -3.122230    0.508109    1.167321    ( 0.0000,  0.0000,  0.0000)
   8 O     -4.413461   -1.306992   -0.794251    ( 0.0000,  0.0000,  0.0000)
   9 O     -0.059585    1.742707    1.575662    ( 0.0000,  0.0000,  0.0000)
  10 O      5.160604    1.742707    1.132822    ( 0.0000,  0.0000,  0.0000)
  11 O      0.816728   -1.306992   -1.237091    ( 0.0000,  0.0000,  0.0000)
  12 Mn    -2.570809   -1.307302    0.247161    ( 0.0000,  0.0000,  1.0000)
  13 Mn    -1.912021    1.743016   -2.122906    ( 0.0000,  0.0000, -1.0000)
  14 Mn     3.317952    1.743017    0.091411    ( 0.0000,  0.0000, -1.0000)
  15 Mn     2.659164   -1.307302    2.461478    ( 0.0000,  0.0000,  1.0000)
  16 P     -0.620664   -1.306816   -1.828465    ( 0.0000,  0.0000,  0.0000)
  17 P     -3.862097    1.742530    0.541238    ( 0.0000,  0.0000,  0.0000)
  18 P      1.367807    1.742530    2.167036    ( 0.0000,  0.0000,  0.0000)
  19 P      4.609240   -1.306816   -0.202666    ( 0.0000,  0.0000,  0.0000)
  20 O     -0.646437   -1.306845    1.374751    ( 0.0000,  0.0000,  0.0000)
  21 O     -3.836504    1.742559   -0.995565    ( 0.0000,  0.0000,  0.0000)
  22 O      1.393580    1.742559   -1.036179    ( 0.0000,  0.0000,  0.0000)
  23 O      4.583647   -1.306845    1.334136    ( 0.0000,  0.0000,  0.0000)
  24 Li    -4.856429   -2.832143   -2.200714    ( 0.0000,  0.0000,  0.0000)
  25 Li     0.373571   -2.832143    0.169286    ( 0.0000,  0.0000,  0.0000)
  26 Li    -4.856429    0.217857   -2.200714    ( 0.0000,  0.0000,  0.0000)
  27 Li     0.373571    0.217857    0.169286    ( 0.0000,  0.0000,  0.0000)

Unit cell:
           periodic     x           y           z      points  spacing
  1. axis:    yes   10.460000    0.000000    0.000000    60     0.1743
  2. axis:    yes    0.000000    6.100000    0.000000    35     0.1743
  3. axis:    yes    0.000000    0.000000    4.740000    27     0.1756

  Lengths:  10.460000   6.100000   4.740000
  Angles:   90.000000  90.000000  90.000000

Effective grid spacing dv^(1/3) = 0.1747

                     log10-error:           total        iterations:
           time      wfs    density  force  energy       poisson  magmom
iter:   1  04:09:37                       -231.921270             +0.0000
iter:   2  04:09:58  -0.55  -0.94         -231.745568             +0.0099
iter:   3  04:10:19  -0.72  -0.98         -220.575338             +0.0124
iter:   4  04:10:41  -0.95  -1.20         -218.849146             +0.0042
iter:   5  04:11:02  -1.93  -1.36         -222.249945             +0.0027
iter:   6  04:11:23  -1.99  -1.43         -221.163901             -0.0041
iter:   7  04:11:44  -1.84  -1.61         -225.188598             +0.0867
iter:   8  04:12:06  -2.33  -1.67         -225.013896             -1.0085
iter:   9  04:12:27  -2.67  -1.84         -226.281699             -1.0500
iter:  10  04:12:48  -2.48  -1.81         -227.165924             -0.3300
iter:  11  04:13:09  -2.56  -1.80         -227.434532             -0.0833
iter:  12  04:13:30  -2.80  -1.76         -227.030020             +0.0028
iter:  13  04:13:51  -1.52  -1.81         -226.546149             -0.0109
iter:  14  04:14:13  -2.67  -2.16         -226.471089             +0.0021
iter:  15  04:14:34  -1.98  -2.20         -226.367717             -0.0062
iter:  16  04:14:55  -2.45  -2.35         -226.251129             -0.0007
iter:  17  04:15:16  -3.65  -2.61         -226.251213             -0.0000
iter:  18  04:15:37  -3.09  -2.79         -226.238160             -0.0000
iter:  19  04:15:59  -3.49  -2.76         -226.229312             -0.0000
iter:  20  04:16:20  -4.52  -3.18         -226.227480             -0.0000
iter:  21  04:16:41  -5.03  -3.25         -226.226493             -0.0000
iter:  22  04:17:02  -5.77  -3.36         -226.226501             -0.0000
iter:  23  04:17:23  -4.98  -3.40         -226.226160             +0.0000
iter:  24  04:17:44  -5.57  -3.78         -226.226099             -0.0000
iter:  25  04:18:06  -6.23  -4.09         -226.226099             -0.0000
iter:  26  04:18:27  -6.81  -4.19         -226.226105             +0.0000
iter:  27  04:18:48  -6.68  -4.27         -226.226092             +0.0000
iter:  28  04:19:09  -6.86  -4.50         -226.226085             +0.0000
iter:  29  04:19:30  -7.31  -4.65         -226.226085             +0.0000
iter:  30  04:19:57  -7.57  -4.73         -226.226084             +0.0000
iter:  31  04:20:24  -8.47  -4.93    -3.14-226.226084             +0.0000
iter:  32  04:20:50  -8.28  -4.99    -3.23-226.226084             -0.0000
iter:  33  04:21:17  -8.07  -5.11    -2.87-226.226083             -0.0000
iter:  34  04:21:44  -8.32  -5.11    -2.83-226.226083             -0.0000
iter:  35  04:22:11  -9.29  -5.50    -3.68-226.226083             -0.0000
iter:  36  04:22:37  -9.51  -5.62    -3.66-226.226083             +0.0000
iter:  37  04:23:04  -9.56  -5.72    -3.67-226.226083             +0.0000
iter:  38  04:23:31 -10.14  -5.89    -3.90-226.226083             +0.0000
iter:  39  04:23:57 -10.37  -6.06    -3.95-226.226083             +0.0000
iter:  40  04:24:24 -10.53  -6.43    -4.33-226.226083             +0.0000
iter:  41  04:24:51 -11.40  -6.48    -4.57-226.226083             +0.0000
iter:  42  04:25:17 -11.65  -6.58    -4.89-226.226083             +0.0000
iter:  43  04:25:44 -11.94  -6.66    -4.92-226.226083             +0.0000
iter:  44  04:26:11 -11.47  -6.69    -4.54-226.226083             +0.0000
iter:  45  04:26:37 -12.23  -6.97    -4.93-226.226083             +0.0000
iter:  46  04:27:04 -12.15  -7.01    -5.10-226.226083             +0.0000
iter:  47  04:27:31 -12.01  -7.05    -5.20-226.226083             +0.0000
iter:  48  04:27:57 -12.91  -7.27    -5.69-226.226083             +0.0000
iter:  49  04:28:24 -12.98  -7.36    -5.54-226.226083             +0.0000
iter:  50  04:28:51 -13.28  -7.49    -5.53-226.226083             +0.0000
iter:  51  04:29:17 -13.85  -7.58    -5.99-226.226083             +0.0000
iter:  52  04:29:44 -13.94  -7.65    -6.07-226.226083             +0.0000

Converged after 52 iterations.

Dipole moment: (9.866145, 1.411356, -6.270386) |e|*Ang

Total magnetic moment: (0.000000, 0.000000, 0.000000)
Local magnetic moments:
   0 O  ( 0.000000,  0.000000, -0.000505)
   1 O  ( 0.000000,  0.000000,  0.000511)
   2 O  ( 0.000000,  0.000000,  0.000621)
   3 O  ( 0.000000,  0.000000, -0.000550)
   4 O  ( 0.000000,  0.000000,  0.000601)
   5 O  ( 0.000000,  0.000000, -0.000530)
   6 O  ( 0.000000,  0.000000, -0.000525)
   7 O  ( 0.000000,  0.000000,  0.000531)
   8 O  ( 0.000000,  0.000000,  0.028773)
   9 O  ( 0.000000,  0.000000, -0.028327)
  10 O  ( 0.000000,  0.000000, -0.028607)
  11 O  ( 0.000000,  0.000000,  0.028622)
  12 Mn ( 0.000000,  0.000000,  4.448234)
  13 Mn ( 0.000000,  0.000000, -4.449335)
  14 Mn ( 0.000000,  0.000000, -4.448139)
  15 Mn ( 0.000000,  0.000000,  4.448237)
  16 P  ( 0.000000,  0.000000,  0.001593)
  17 P  ( 0.000000,  0.000000, -0.001546)
  18 P  ( 0.000000,  0.000000, -0.001375)
  19 P  ( 0.000000,  0.000000,  0.001529)
  20 O  ( 0.000000,  0.000000,  0.025316)
  21 O  ( 0.000000,  0.000000, -0.025497)
  22 O  ( 0.000000,  0.000000, -0.025352)
  23 O  ( 0.000000,  0.000000,  0.025306)
  24 Li ( 0.000000,  0.000000,  0.000001)
  25 Li ( 0.000000,  0.000000,  0.000023)
  26 Li ( 0.000000,  0.000000,  0.000001)
  27 Li ( 0.000000,  0.000000,  0.000023)

Energy contributions relative to reference atoms: (reference = -196157.275402)

Kinetic:       +217.980729
Potential:     -195.724975
External:        +0.000000
XC:            -250.521624
Entropy (-ST):   -0.000000
Local:           +2.039786
--------------------------
Free energy:   -226.226083
Extrapolated:  -226.226083

Spin contamination: 9.560518 electrons
Showing only first 2 kpts
                      Up                     Down
 Kpt  Band  Eigenvalues  Occupancy  Eigenvalues  Occupancy
  0    88      5.10860    1.00000      5.08711    1.00000
  0    89      5.13715    1.00000      5.13608    1.00000
  0    90      7.27811    0.00000      7.28497    0.00000
  0    91      7.30870    0.00000      7.31146    0.00000

  1    88      5.13479    1.00000      5.11307    1.00000
  1    89      5.16710    1.00000      5.16534    1.00000
  1    90      7.21860    0.00000      7.22672    0.00000
  1    91      7.24768    0.00000      7.24962    0.00000


Fermi level: 6.36978

Gap: 1.961 eV
Transition (v -> c):
  (s=0, k=70, n=89, [-0.08, 0.42, 0.12]) -> (s=0, k=85, n=90, [0.08, 0.08, -0.12])
Writing to born-0.01-9x+.gpw (mode='all')

Timing:                              incl.     excl.
-----------------------------------------------------------
Hamiltonian:                         0.261     0.003   0.0% |
 Atomic:                             0.069     0.069   0.0% |
  XC Correction:                     0.000     0.000   0.0% |
 Calculate atomic Hamiltonians:      0.094     0.094   0.0% |
 Communicate:                        0.000     0.000   0.0% |
 Initialize Hamiltonian:             0.000     0.000   0.0% |
 Poisson:                            0.001     0.001   0.0% |
 XC 3D grid:                         0.093     0.093   0.0% |
LCAO initialization:                70.864     0.678   0.0% |
 LCAO eigensolver:                  17.990     0.002   0.0% |
  Calculate projections:             0.029     0.029   0.0% |
  DenseAtomicCorrection:             0.042     0.042   0.0% |
  Distribute overlap matrix:         0.008     0.008   0.0% |
  Orbital Layouts:                   0.277     0.277   0.0% |
  Potential matrix:                 17.544    17.544   0.5% |
  Sum over cells:                    0.087     0.087   0.0% |
 LCAO to grid:                      50.918    50.918   1.5% ||
 Set positions (LCAO WFS):           1.279     0.181   0.0% |
  Basic WFS set positions:           0.001     0.001   0.0% |
  Basis functions set positions:     0.000     0.000   0.0% |
  P tci:                             0.516     0.516   0.0% |
  ST tci:                            0.369     0.369   0.0% |
  mktci:                             0.211     0.211   0.0% |
PWDescriptor:                        0.024     0.024   0.0% |
SCF-cycle:                        1229.533     2.622   0.1% |
 Davidson:                        1044.516   334.350   9.9% |---|
  Apply H:                          70.062    67.982   2.0% ||
   HMM T:                            2.080     2.080   0.1% |
  Subspace diag:                   150.023     0.148   0.0% |
   calc_h_matrix:                   95.449    26.192   0.8% |
    Apply H:                        69.257    67.260   2.0% ||
     HMM T:                          1.997     1.997   0.1% |
   diagonalize:                      5.289     5.289   0.2% |
   rotate_psi:                      49.138    49.138   1.5% ||
  calc. matrices:                  311.561   174.216   5.1% |-|
   Apply H:                        137.345   133.411   3.9% |-|
    HMM T:                           3.934     3.934   0.1% |
  diagonalize:                      80.686    80.686   2.4% ||
  rotate_psi:                       97.833    97.833   2.9% ||
 Density:                           41.107     0.001   0.0% |
  Atomic density matrices:           0.682     0.682   0.0% |
  Mix:                               7.009     7.009   0.2% |
  Multipole moments:                 0.019     0.019   0.0% |
  Pseudo density:                   33.395    33.394   1.0% |
   Symmetrize density:               0.001     0.001   0.0% |
 Forces:                           126.325   126.325   3.7% ||
 Hamiltonian:                       12.680     0.108   0.0% |
  Atomic:                            2.957     2.957   0.1% |
   XC Correction:                    0.000     0.000   0.0% |
  Calculate atomic Hamiltonians:     4.831     4.831   0.1% |
  Communicate:                       0.008     0.008   0.0% |
  Poisson:                           0.047     0.047   0.0% |
  XC 3D grid:                        4.729     4.729   0.1% |
 Orthonormalize:                     2.283     0.003   0.0% |
  calc_s_matrix:                     0.266     0.266   0.0% |
  inverse-cholesky:                  0.040     0.040   0.0% |
  projections:                       1.483     1.483   0.0% |
  rotate_psi_s:                      0.490     0.490   0.0% |
Set symmetry:                        0.000     0.000   0.0% |
Other:                            2082.468  2082.468  61.6% |------------------------|
-----------------------------------------------------------
Total:                                      3383.150 100.0%

Memory usage: 11.97 GiB
Date: Tue Mar 30 05:04:25 2021
