
  ___ ___ ___ _ _ _  
 |   |   |_  | | | | 
 | | | | | . | | | | 
 |__ |  _|___|_____|  21.1.1b1
 |___|_|             

User:   madkru@i009.nifl.fysik.dtu.dk
Date:   Fri Apr  2 04:38:54 2021
Arch:   x86_64
Pid:    31381
Python: 3.8.6
gpaw:   /home/niflheim/madkru/venv_madkru/gpaw/gpaw (e6f0d78a31)
_gpaw:  /home/niflheim/madkru/venv_madkru/gpaw/build/lib.linux-x86_64-ivybridge-3.8/
        _gpaw.cpython-38-x86_64-linux-gnu.so (e6f0d78a31)
ase:    /home/niflheim/madkru/venv_madkru/ase/ase (version 3.22.0b1-4d5a73cb29)
numpy:  /home/modules/software/SciPy-bundle/2020.11-foss-2020b/lib/python3.8/site-packages/numpy (version 1.19.4)
scipy:  /home/modules/software/SciPy-bundle/2020.11-foss-2020b/lib/python3.8/site-packages/scipy (version 1.5.4)
libxc:  4.3.4
units:  Angstrom and eV
cores: 64
OpenMP: False
OMP_NUM_THREADS: 1

Input parameters:
  convergence: {bands: occupied,
                density: 0.0001,
                eigenstates: 4e-08,
                energy: 0.0005,
                forces: 1e-06}
  kpts: [6 6 4]
  maxiter: 1000
  mode: {ecut: 600.0,
         gammacentered: False,
         name: pw}
  occupations: {fixmagmom: False,
                name: fermi-dirac,
                width: 0.001}
  symmetry: {point_group: False,
             time_reversal: False}

System changes: positions, numbers, cell, pbc, initial_charges, initial_magmoms 

Initialize ...

O-setup:
  name: Oxygen
  id: 9b9d51c344dea68c822856295a461509
  Z: 8.0
  valence: 6
  core: 2
  charge: 0.0
  file: /home/modules/software/GPAW-setups/0.9.20000/O.LDA.gz
  compensation charges: gauss, rc=0.21, lmax=2
  cutoffs: 1.17(filt), 0.83(core),
  valence states:
                energy  radius
    2s(2.00)   -23.752   0.688
    2p(4.00)    -9.195   0.598
    *s           3.459   0.688
    *p          18.016   0.598
    *d           0.000   0.619

  Using partial waves for O as LCAO basis

Mn-setup:
  name: Manganese
  id: 0d715a8018be061a6e9ea6f2d364ac92
  Z: 25.0
  valence: 15
  core: 10
  charge: 0.0
  file: /home/modules/software/GPAW-setups/0.9.20000/Mn.LDA.gz
  compensation charges: gauss, rc=0.38, lmax=2
  cutoffs: 2.14(filt), 0.86(core),
  valence states:
                energy  radius
    3s(2.00)   -85.387   1.275
    4s(2.00)    -5.282   1.275
    3p(6.00)   -54.493   1.281
    4p(0.00)    -1.471   1.281
    3d(5.00)    -7.009   1.138
    *d          20.203   1.138

  Using partial waves for Mn as LCAO basis

P-setup:
  name: Phosphorus
  id: a5561c299094968922a179ab894d2e2d
  Z: 15.0
  valence: 5
  core: 10
  charge: 0.0
  file: /home/modules/software/GPAW-setups/0.9.20000/P.LDA.gz
  compensation charges: gauss, rc=0.30, lmax=2
  cutoffs: 1.69(filt), 1.81(core),
  valence states:
                energy  radius
    3s(2.00)   -14.015   0.953
    3p(3.00)    -5.596   0.953
    *s          13.197   0.953
    *p          21.615   0.953
    *d           0.000   0.953

  Using partial waves for P as LCAO basis

Li-setup:
  name: Lithium
  id: b73562207f97a71b6967473b66fe8b65
  Z: 3.0
  valence: 1
  core: 2
  charge: 0.0
  file: /home/modules/software/GPAW-setups/0.9.20000/Li.LDA.gz
  compensation charges: gauss, rc=0.33, lmax=2
  cutoffs: 1.91(filt), 2.55(core),
  valence states:
                energy  radius
    2s(1.00)    -2.874   1.058
    2p(0.00)    -1.126   1.058
    *s          24.338   1.058

  Using partial waves for Li as LCAO basis

Reference energy: -196157.275402

Spin-polarized calculation.
Magnetic moment: 0.000000

Convergence criteria:
  Maximum total energy change: 0.0005 eV / electron
  Maximum integral of absolute density change: 0.0001 electrons
  Maximum integral of absolute eigenstate change: 4e-08 eV^2
  Maximum change in atomic force: 1e-06 eV / Ang
  Maximum number of iterations: 1000

Symmetries present (total): 1

  ( 1  0  0)
  ( 0  1  0)
  ( 0  0  1)

144 k-points: 6 x 6 x 4 Monkhorst-Pack grid
144 k-points in the irreducible part of the Brillouin zone
       k-points in crystal coordinates                weights
   0:    -0.41666667   -0.41666667   -0.37500000          1/144
   1:    -0.41666667   -0.41666667   -0.12500000          1/144
   2:    -0.41666667   -0.41666667    0.12500000          1/144
   3:    -0.41666667   -0.41666667    0.37500000          1/144
   4:    -0.41666667   -0.25000000   -0.37500000          1/144
   5:    -0.41666667   -0.25000000   -0.12500000          1/144
   6:    -0.41666667   -0.25000000    0.12500000          1/144
   7:    -0.41666667   -0.25000000    0.37500000          1/144
   8:    -0.41666667   -0.08333333   -0.37500000          1/144
   9:    -0.41666667   -0.08333333   -0.12500000          1/144
          ...
 143:     0.41666667    0.41666667    0.37500000          1/144

Wave functions: Plane wave expansion
  Cutoff energy: 600.000 eV
  Number of coefficients (min, max): 10068, 10125
  Pulay-stress correction: 0.000000 eV/Ang^3 (de/decut=0.000000)
  Using FFTW library
  ScaLapack parameters: grid=1x1, blocksize=None
  Wavefunction extrapolation:
    Improved wavefunction reuse through dual PAW basis 

  Fermi-Dirac: width=0.0010 eV

Eigensolver
   Davidson(niter=2) 

Densities:
  Coarse grid: 60*35*27 grid
  Fine grid: 120*70*54 grid
  Total Charge: 0.000000 

Density mixing:
  Method: difference
  Backend: pulay
  Linear mixing parameter: 0.05
  Mixing with 5 old densities
  Damping of long wave oscillations: 50 

Hamiltonian:
  XC and Coulomb potentials evaluated on a 120*70*54 grid
  Using the LDA Exchange-Correlation functional
 

Memory estimate:
  Process memory now: 12556.03 MiB
  Calculator: 354.82 MiB
    Density: 10.06 MiB
      Arrays: 3.79 MiB
      Localized functions: 4.71 MiB
      Mixer: 1.56 MiB
    Hamiltonian: 2.95 MiB
      Arrays: 2.82 MiB
      XC: 0.00 MiB
      Poisson: 0.00 MiB
      vbar: 0.14 MiB
    Wavefunctions: 341.80 MiB
      Arrays psit_nG: 311.46 MiB
      Eigensolver: 19.99 MiB
      Projections: 2.71 MiB
      Projectors: 4.87 MiB
      PW-descriptor: 2.77 MiB

Total number of cores used: 64
Parallelization over k-points: 16
Domain decomposition: 2 x 2 x 1

Number of atoms: 28
Number of atomic orbitals: 148
Number of bands in calculation: 112
Number of valence electrons: 180
Bands to converge: occupied

... initialized

Initializing position-dependent things.

Density initialized from atomic densities
Creating initial wave functions:
  112 bands from LCAO basis set

     .-------------------------.  
    /|         OP              |  
   / |O            O        O  |  
  /  |       O            O  P |  
 *   |O    Mn      O           |  
 |   |          OLi          O |  
 |   .P-O--------------Mn------.  
 |  /          Li    O  Mn  O /   
 | /Li O           PO        /    
 |/       Mn                /     
 *Li-----------------------*      

Positions:
   0 O     -1.360678   -2.541161   -1.202221    ( 0.0000,  0.0000,  0.0000)
   1 O     -3.121941    2.976855    1.167242    ( 0.0000,  0.0000,  0.0000)
   2 O      2.107533    0.508090    1.540712    ( 0.0000,  0.0000,  0.0000)
   3 O      3.869373   -0.072395   -0.828750    ( 0.0000,  0.0000,  0.0000)
   4 O      2.107821    2.976875    1.540792    ( 0.0000,  0.0000,  0.0000)
   5 O      3.869084   -2.541141   -0.828671    ( 0.0000,  0.0000,  0.0000)
   6 O     -1.360390   -0.072375   -1.202141    ( 0.0000,  0.0000,  0.0000)
   7 O     -3.122230    0.508109    1.167321    ( 0.0000,  0.0000,  0.0000)
   8 O     -4.413461   -1.306992   -0.794251    ( 0.0000,  0.0000,  0.0000)
   9 O     -0.069585    1.742707    1.575662    ( 0.0000,  0.0000,  0.0000)
  10 O      5.160604    1.742707    1.132822    ( 0.0000,  0.0000,  0.0000)
  11 O      0.816728   -1.306992   -1.237091    ( 0.0000,  0.0000,  0.0000)
  12 Mn    -2.570809   -1.307302    0.247161    ( 0.0000,  0.0000,  1.0000)
  13 Mn    -1.912021    1.743016   -2.122906    ( 0.0000,  0.0000, -1.0000)
  14 Mn     3.317952    1.743017    0.091411    ( 0.0000,  0.0000, -1.0000)
  15 Mn     2.659164   -1.307302    2.461478    ( 0.0000,  0.0000,  1.0000)
  16 P     -0.620664   -1.306816   -1.828465    ( 0.0000,  0.0000,  0.0000)
  17 P     -3.862097    1.742530    0.541238    ( 0.0000,  0.0000,  0.0000)
  18 P      1.367807    1.742530    2.167036    ( 0.0000,  0.0000,  0.0000)
  19 P      4.609240   -1.306816   -0.202666    ( 0.0000,  0.0000,  0.0000)
  20 O     -0.646437   -1.306845    1.374751    ( 0.0000,  0.0000,  0.0000)
  21 O     -3.836504    1.742559   -0.995565    ( 0.0000,  0.0000,  0.0000)
  22 O      1.393580    1.742559   -1.036179    ( 0.0000,  0.0000,  0.0000)
  23 O      4.583647   -1.306845    1.334136    ( 0.0000,  0.0000,  0.0000)
  24 Li    -4.856429   -2.832143   -2.190714    ( 0.0000,  0.0000,  0.0000)
  25 Li     0.373571   -2.832143    0.169286    ( 0.0000,  0.0000,  0.0000)
  26 Li    -4.856429    0.217857   -2.200714    ( 0.0000,  0.0000,  0.0000)
  27 Li     0.373571    0.217857    0.169286    ( 0.0000,  0.0000,  0.0000)

Unit cell:
           periodic     x           y           z      points  spacing
  1. axis:    yes   10.460000    0.000000    0.000000    60     0.1743
  2. axis:    yes    0.000000    6.100000    0.000000    35     0.1743
  3. axis:    yes    0.000000    0.000000    4.740000    27     0.1756

  Lengths:  10.460000   6.100000   4.740000
  Angles:   90.000000  90.000000  90.000000

Effective grid spacing dv^(1/3) = 0.1747

                     log10-error:           total        iterations:
           time      wfs    density  force  energy       poisson  magmom
iter:   1  04:40:23                       -231.920323             +0.0000
iter:   2  04:40:43  -0.55  -0.94         -231.730958             +0.0047
iter:   3  04:41:04  -0.72  -0.98         -220.584901             +0.0059
iter:   4  04:41:25  -0.96  -1.20         -218.866383             +0.0019
iter:   5  04:41:46  -1.94  -1.36         -221.272613             +0.0013
iter:   6  04:42:06  -1.99  -1.50         -219.982058             +0.0007
iter:   7  04:42:27  -2.21  -1.68         -223.060304             +0.1883
iter:   8  04:42:48  -2.72  -1.89         -219.925566             +0.2663
iter:   9  04:43:09  -2.14  -1.93         -225.473880             +0.5485
iter:  10  04:43:29  -2.23  -1.87         -227.331032             -0.1322
iter:  11  04:43:50  -2.85  -1.83         -227.168668             -0.0221
iter:  12  04:44:11  -2.25  -1.82         -227.096222             -0.0021
iter:  13  04:44:31  -2.47  -1.81         -227.213359             -0.0079
iter:  14  04:44:52  -2.85  -1.95         -227.057715             +0.0005
iter:  15  04:45:13  -1.78  -1.98         -226.570938             +0.0046
iter:  16  04:45:33  -2.34  -2.21         -226.418400             +0.0008
iter:  17  04:45:54  -2.60  -2.25         -226.304447             +0.0004
iter:  18  04:46:15  -3.42  -2.50         -226.324607             +0.0001
iter:  19  04:46:35  -2.78  -2.56         -226.233590             -0.0000
iter:  20  04:46:56  -3.13  -2.71         -226.241645             +0.0000
iter:  21  04:47:17  -4.13  -2.79         -226.233555             +0.0000
iter:  22  04:47:37  -4.16  -2.92         -226.232529             -0.0000
iter:  23  04:47:58  -3.95  -3.01         -226.234621             -0.0000
iter:  24  04:48:19  -3.97  -2.94         -226.230355             -0.0000
iter:  25  04:48:39  -4.43  -3.15         -226.229645             -0.0000
iter:  26  04:49:00  -5.17  -3.32         -226.229304             -0.0000
iter:  27  04:49:21  -4.90  -3.39         -226.228253             -0.0000
iter:  28  04:49:42  -5.50  -3.53         -226.228181             -0.0000
iter:  29  04:50:02  -5.67  -3.59         -226.228099             +0.0000
iter:  30  04:50:23  -5.70  -3.62         -226.228136             +0.0000
iter:  31  04:50:44  -5.53  -3.65         -226.228152             +0.0000
iter:  32  04:51:05  -5.82  -3.75         -226.228051             +0.0000
iter:  33  04:51:25  -6.00  -3.86         -226.228010             +0.0000
iter:  34  04:51:46  -6.28  -3.92         -226.227957             +0.0000
iter:  35  04:52:07  -6.40  -3.96         -226.227958             +0.0000
iter:  36  04:52:28  -6.24  -4.02         -226.227957             +0.0000
iter:  37  04:52:48  -6.69  -4.08         -226.227942             +0.0000
iter:  38  04:53:09  -6.66  -4.13         -226.227932             +0.0000
iter:  39  04:53:30  -7.12  -4.21         -226.227933             +0.0000
iter:  40  04:53:50  -7.25  -4.29         -226.227928             -0.0000
iter:  41  04:54:11  -7.24  -4.38         -226.227924             -0.0000
iter:  42  04:54:32  -6.70  -4.48         -226.227914             -0.0000
iter:  43  04:54:57  -7.58  -4.72         -226.227915             -0.0000
iter:  44  04:55:18  -7.25  -4.77         -226.227913             -0.0000
iter:  45  04:55:44  -8.00  -5.00    -2.69-226.227913             -0.0000
iter:  46  04:56:10  -9.07  -5.07    -3.36-226.227913             -0.0000
iter:  47  04:56:36  -8.03  -5.14    -2.98-226.227913             -0.0000
iter:  48  04:57:02  -8.23  -5.19    -3.09-226.227912             -0.0000
iter:  49  04:57:27  -9.52  -5.32    -3.79-226.227912             -0.0000
iter:  50  04:57:53  -9.51  -5.36    -3.36-226.227912             -0.0000
iter:  51  04:58:19  -8.69  -5.45    -3.23-226.227913             -0.0000
iter:  52  04:58:45  -8.83  -5.53    -3.45-226.227912             -0.0000
iter:  53  04:59:11 -10.39  -5.75    -4.08-226.227912             -0.0000
iter:  54  04:59:37 -10.04  -5.78    -3.69-226.227912             -0.0000
iter:  55  05:00:03 -10.05  -5.85    -4.05-226.227912             -0.0000
iter:  56  05:00:29 -10.12  -5.89    -3.62-226.227912             -0.0000
iter:  57  05:00:55 -10.58  -6.00    -4.22-226.227912             -0.0000
iter:  58  05:01:21 -10.91  -6.05    -3.99-226.227912             -0.0000
iter:  59  05:01:46 -10.85  -6.15    -4.12-226.227912             +0.0000
iter:  60  05:02:12 -11.43  -6.19    -4.30-226.227912             +0.0000
iter:  61  05:02:38 -11.54  -6.25    -4.43-226.227912             +0.0000
iter:  62  05:03:04 -10.53  -6.31    -4.14-226.227912             +0.0000
iter:  63  05:03:30 -11.64  -6.48    -4.60-226.227912             +0.0000
iter:  64  05:03:56 -12.67  -6.49    -5.36-226.227912             +0.0000
iter:  65  05:04:22 -10.97  -6.50    -4.27-226.227912             +0.0000
iter:  66  05:04:48 -11.63  -6.83    -4.59-226.227912             +0.0000
iter:  67  05:05:14 -12.59  -6.87    -5.12-226.227912             +0.0000
iter:  68  05:05:39 -12.12  -6.94    -4.88-226.227912             +0.0000
iter:  69  05:06:05 -12.46  -7.02    -4.84-226.227912             +0.0000
iter:  70  05:06:31 -11.95  -7.08    -4.62-226.227912             -0.0000
iter:  71  05:06:57 -12.89  -7.28    -5.18-226.227912             -0.0000
iter:  72  05:07:23 -12.54  -7.34    -5.31-226.227912             -0.0000
iter:  73  05:07:49 -13.29  -7.34    -5.17-226.227912             -0.0000
iter:  74  05:08:15 -13.86  -7.50    -5.74-226.227912             -0.0000
iter:  75  05:08:41 -13.46  -7.58    -5.74-226.227912             -0.0000
iter:  76  05:09:07 -14.14  -7.68    -5.74-226.227912             -0.0000
iter:  77  05:09:32 -14.63  -7.74    -6.01-226.227912             -0.0000

Converged after 77 iterations.

Dipole moment: (10.671321, 1.412234, -6.264164) |e|*Ang

Total magnetic moment: (0.000000, 0.000000, -0.000000)
Local magnetic moments:
   0 O  ( 0.000000,  0.000000, -0.000516)
   1 O  ( 0.000000,  0.000000,  0.000529)
   2 O  ( 0.000000,  0.000000,  0.000538)
   3 O  ( 0.000000,  0.000000, -0.000549)
   4 O  ( 0.000000,  0.000000,  0.000521)
   5 O  ( 0.000000,  0.000000, -0.000539)
   6 O  ( 0.000000,  0.000000, -0.000538)
   7 O  ( 0.000000,  0.000000,  0.000558)
   8 O  ( 0.000000,  0.000000,  0.028652)
   9 O  ( 0.000000,  0.000000, -0.028704)
  10 O  ( 0.000000,  0.000000, -0.028733)
  11 O  ( 0.000000,  0.000000,  0.028699)
  12 Mn ( 0.000000,  0.000000,  4.448174)
  13 Mn ( 0.000000,  0.000000, -4.448219)
  14 Mn ( 0.000000,  0.000000, -4.448149)
  15 Mn ( 0.000000,  0.000000,  4.448263)
  16 P  ( 0.000000,  0.000000,  0.001558)
  17 P  ( 0.000000,  0.000000, -0.001543)
  18 P  ( 0.000000,  0.000000, -0.001558)
  19 P  ( 0.000000,  0.000000,  0.001544)
  20 O  ( 0.000000,  0.000000,  0.025321)
  21 O  ( 0.000000,  0.000000, -0.025287)
  22 O  ( 0.000000,  0.000000, -0.025309)
  23 O  ( 0.000000,  0.000000,  0.025324)
  24 Li ( 0.000000,  0.000000,  0.000008)
  25 Li ( 0.000000,  0.000000,  0.000000)
  26 Li ( 0.000000,  0.000000, -0.000001)
  27 Li ( 0.000000,  0.000000,  0.000000)

Energy contributions relative to reference atoms: (reference = -196157.275402)

Kinetic:       +217.352744
Potential:     -195.237612
External:        +0.000000
XC:            -250.384189
Entropy (-ST):   -0.000000
Local:           +2.041144
--------------------------
Free energy:   -226.227912
Extrapolated:  -226.227912

Spin contamination: 9.560411 electrons
Showing only first 2 kpts
                      Up                     Down
 Kpt  Band  Eigenvalues  Occupancy  Eigenvalues  Occupancy
  0    88      5.10985    1.00000      5.10992    1.00000
  0    89      5.13428    1.00000      5.13445    1.00000
  0    90      7.28865    0.00000      7.28864    0.00000
  0    91      7.30634    0.00000      7.30636    0.00000

  1    88      5.13559    1.00000      5.13564    1.00000
  1    89      5.16470    1.00000      5.16494    1.00000
  1    90      7.23150    0.00000      7.23137    0.00000
  1    91      7.24373    0.00000      7.24358    0.00000


Fermi level: 5.93293

Gap: 1.972 eV
Transition (v -> c):
  (s=1, k=74, n=89, [0.08, -0.42, 0.12]) -> (s=1, k=62, n=90, [-0.08, 0.08, 0.12])
Writing to born-0.01-24z+.gpw (mode='all')

Timing:                              incl.     excl.
-----------------------------------------------------------
Hamiltonian:                         0.227     0.003   0.0% |
 Atomic:                             0.056     0.056   0.0% |
  XC Correction:                     0.000     0.000   0.0% |
 Calculate atomic Hamiltonians:      0.083     0.083   0.0% |
 Communicate:                        0.000     0.000   0.0% |
 Initialize Hamiltonian:             0.000     0.000   0.0% |
 Poisson:                            0.001     0.001   0.0% |
 XC 3D grid:                         0.084     0.084   0.0% |
LCAO initialization:                65.484     0.650   0.0% |
 LCAO eigensolver:                  16.782     0.002   0.0% |
  Calculate projections:             0.029     0.029   0.0% |
  DenseAtomicCorrection:             0.046     0.046   0.0% |
  Distribute overlap matrix:         0.111     0.111   0.0% |
  Orbital Layouts:                   0.262     0.262   0.0% |
  Potential matrix:                 16.247    16.247   0.4% |
  Sum over cells:                    0.085     0.085   0.0% |
 LCAO to grid:                      46.755    46.755   1.2% |
 Set positions (LCAO WFS):           1.297     0.180   0.0% |
  Basic WFS set positions:           0.002     0.002   0.0% |
  Basis functions set positions:     0.000     0.000   0.0% |
  P tci:                             0.540     0.540   0.0% |
  ST tci:                            0.363     0.363   0.0% |
  mktci:                             0.212     0.212   0.0% |
PWDescriptor:                        0.023     0.023   0.0% |
SCF-cycle:                        1772.064     1.919   0.0% |
 Davidson:                        1516.075   485.601  12.4% |----|
  Apply H:                          99.804    96.890   2.5% ||
   HMM T:                            2.914     2.914   0.1% |
  Subspace diag:                   217.025     0.221   0.0% |
   calc_h_matrix:                  137.447    38.356   1.0% |
    Apply H:                        99.091    96.311   2.5% ||
     HMM T:                          2.780     2.780   0.1% |
   diagonalize:                      7.820     7.820   0.2% |
   rotate_psi:                      71.536    71.536   1.8% ||
  calc. matrices:                  454.197   257.388   6.6% |--|
   Apply H:                        196.809   191.186   4.9% |-|
    HMM T:                           5.623     5.623   0.1% |
  diagonalize:                     115.711   115.711   3.0% ||
  rotate_psi:                      143.738   143.738   3.7% ||
 Density:                           58.471     0.002   0.0% |
  Atomic density matrices:           1.011     1.011   0.0% |
  Mix:                               9.587     9.587   0.2% |
  Multipole moments:                 0.029     0.029   0.0% |
  Pseudo density:                   47.841    47.839   1.2% |
   Symmetrize density:               0.002     0.002   0.0% |
 Forces:                           176.289   176.289   4.5% |-|
 Hamiltonian:                       17.041     0.156   0.0% |
  Atomic:                            4.021     4.021   0.1% |
   XC Correction:                    0.000     0.000   0.0% |
  Calculate atomic Hamiltonians:     6.349     6.349   0.2% |
  Communicate:                       0.021     0.021   0.0% |
  Poisson:                           0.057     0.057   0.0% |
  XC 3D grid:                        6.438     6.438   0.2% |
 Orthonormalize:                     2.270     0.003   0.0% |
  calc_s_matrix:                     0.266     0.266   0.0% |
  inverse-cholesky:                  0.041     0.041   0.0% |
  projections:                       1.475     1.475   0.0% |
  rotate_psi_s:                      0.485     0.485   0.0% |
Set symmetry:                        0.000     0.000   0.0% |
Other:                            2078.404  2078.404  53.1% |--------------------|
-----------------------------------------------------------
Total:                                      3916.202 100.0%

Memory usage: 12.28 GiB
Date: Fri Apr  2 05:44:10 2021
