
  ___ ___ ___ _ _ _  
 |   |   |_  | | | | 
 | | | | | . | | | | 
 |__ |  _|___|_____|  20.10.1b1
 |___|_|             

User:   madkru@g064.nifl.fysik.dtu.dk
Date:   Mon Mar 22 21:08:49 2021
Arch:   x86_64
Pid:    60512
Python: 3.7.4
gpaw:   /home/niflheim/madkru/venv_folder/gpaw/gpaw (d0d1ca1c71)
_gpaw:  /home/niflheim/madkru/venv_folder/gpaw/build/lib.linux-x86_64-sandybridge-3.7/
        _gpaw.cpython-37m-x86_64-linux-gnu.so (4fd39e8b1e)
ase:    /home/niflheim/madkru/venv_folder/ase/ase (version 3.21.0b1-7e6c206a91)
numpy:  /home/niflheim/madkru/venv_folder/lib/python3.7/site-packages/numpy (version 1.19.4)
scipy:  /home/niflheim/madkru/venv_folder/lib/python3.7/site-packages/scipy (version 1.5.4)
libxc:  4.3.4
units:  Angstrom and eV
cores: 32
OMP_NUM_THREADS: 1

Input parameters:
  convergence: {bands: occupied,
                density: 0.0001,
                eigenstates: 4e-08,
                energy: 0.0005,
                forces: 1e-06}
  kpts: [6 6 4]
  mode: {ecut: 600.0,
         gammacentered: False,
         name: pw}
  occupations: {fixmagmom: False,
                name: fermi-dirac,
                width: 0.001}
  symmetry: {point_group: False,
             time_reversal: False}

System changes: positions, numbers, cell, pbc, initial_charges, initial_magmoms 

Initialize ...

O-setup:
  name: Oxygen
  id: 9b9d51c344dea68c822856295a461509
  Z: 8.0
  valence: 6
  core: 2
  charge: 0.0
  file: /home/modules/software/GPAW-setups/0.9.20000/O.LDA.gz
  compensation charges: gauss, rc=0.21, lmax=2
  cutoffs: 1.17(filt), 0.83(core),
  valence states:
                energy  radius
    2s(2.00)   -23.752   0.688
    2p(4.00)    -9.195   0.598
    *s           3.459   0.688
    *p          18.016   0.598
    *d           0.000   0.619

  Using partial waves for O as LCAO basis

Mn-setup:
  name: Manganese
  id: 0d715a8018be061a6e9ea6f2d364ac92
  Z: 25.0
  valence: 15
  core: 10
  charge: 0.0
  file: /home/modules/software/GPAW-setups/0.9.20000/Mn.LDA.gz
  compensation charges: gauss, rc=0.38, lmax=2
  cutoffs: 2.14(filt), 0.86(core),
  valence states:
                energy  radius
    3s(2.00)   -85.387   1.275
    4s(2.00)    -5.282   1.275
    3p(6.00)   -54.493   1.281
    4p(0.00)    -1.471   1.281
    3d(5.00)    -7.009   1.138
    *d          20.203   1.138

  Using partial waves for Mn as LCAO basis

P-setup:
  name: Phosphorus
  id: a5561c299094968922a179ab894d2e2d
  Z: 15.0
  valence: 5
  core: 10
  charge: 0.0
  file: /home/modules/software/GPAW-setups/0.9.20000/P.LDA.gz
  compensation charges: gauss, rc=0.30, lmax=2
  cutoffs: 1.69(filt), 1.81(core),
  valence states:
                energy  radius
    3s(2.00)   -14.015   0.953
    3p(3.00)    -5.596   0.953
    *s          13.197   0.953
    *p          21.615   0.953
    *d           0.000   0.953

  Using partial waves for P as LCAO basis

Li-setup:
  name: Lithium
  id: b73562207f97a71b6967473b66fe8b65
  Z: 3.0
  valence: 1
  core: 2
  charge: 0.0
  file: /home/modules/software/GPAW-setups/0.9.20000/Li.LDA.gz
  compensation charges: gauss, rc=0.33, lmax=2
  cutoffs: 1.91(filt), 2.55(core),
  valence states:
                energy  radius
    2s(1.00)    -2.874   1.058
    2p(0.00)    -1.126   1.058
    *s          24.338   1.058

  Using partial waves for Li as LCAO basis

Reference energy: -196157.275402

Spin-polarized calculation.
Magnetic moment: 0.000000

Convergence criteria:
  Maximum total energy change: 0.0005 eV / electron
  Maximum integral of absolute density change: 0.0001 electrons
  Maximum integral of absolute eigenstate change: 4e-08 eV^2
  Maximum change in atomic force: 1e-06 eV / Ang
  Maximum number of iterations: 333

Symmetries present (total): 1

  ( 1  0  0)
  ( 0  1  0)
  ( 0  0  1)

144 k-points: 6 x 6 x 4 Monkhorst-Pack grid
144 k-points in the irreducible part of the Brillouin zone
       k-points in crystal coordinates                weights
   0:    -0.41666667   -0.41666667   -0.37500000          1/144
   1:    -0.41666667   -0.41666667   -0.12500000          1/144
   2:    -0.41666667   -0.41666667    0.12500000          1/144
   3:    -0.41666667   -0.41666667    0.37500000          1/144
   4:    -0.41666667   -0.25000000   -0.37500000          1/144
   5:    -0.41666667   -0.25000000   -0.12500000          1/144
   6:    -0.41666667   -0.25000000    0.12500000          1/144
   7:    -0.41666667   -0.25000000    0.37500000          1/144
   8:    -0.41666667   -0.08333333   -0.37500000          1/144
   9:    -0.41666667   -0.08333333   -0.12500000          1/144
          ...
 143:     0.41666667    0.41666667    0.37500000          1/144

Wave functions: Plane wave expansion
  Cutoff energy: 600.000 eV
  Number of coefficients (min, max): 10068, 10125
  Pulay-stress correction: 0.000000 eV/Ang^3 (de/decut=0.000000)
  Using FFTW library
  ScaLapack parameters: grid=1x1, blocksize=None
  Wavefunction extrapolation:
    Improved wavefunction reuse through dual PAW basis 

  Fermi-Dirac: width=0.0010 eV

Eigensolver
   Davidson(niter=2, smin=None, normalize=True) 

Densities:
  Coarse grid: 60*35*27 grid
  Fine grid: 120*70*54 grid
  Total Charge: 0.000000 

Density mixing:
  Method: difference
  Backend: pulay
  Linear mixing parameter: 0.05
  Mixing with 5 old densities
  Damping of long wave oscillations: 50 

Hamiltonian:
  XC and Coulomb potentials evaluated on a 120*70*54 grid
  Using the LDA Exchange-Correlation functional
 

Memory estimate:
  Process memory now: 13417.89 MiB
  Calculator: 375.55 MiB
    Density: 20.02 MiB
      Arrays: 7.57 MiB
      Localized functions: 9.42 MiB
      Mixer: 3.03 MiB
    Hamiltonian: 5.90 MiB
      Arrays: 5.62 MiB
      XC: 0.00 MiB
      Poisson: 0.00 MiB
      vbar: 0.27 MiB
    Wavefunctions: 349.64 MiB
      Arrays psit_nG: 311.46 MiB
      Eigensolver: 19.99 MiB
      Projections: 5.41 MiB
      Projectors: 9.73 MiB
      PW-descriptor: 3.03 MiB

Total number of cores used: 32
Parallelization over k-points: 16
Domain decomposition: 2 x 1 x 1

Number of atoms: 28
Number of atomic orbitals: 148
Number of bands in calculation: 112
Number of valence electrons: 180
Bands to converge: occupied

... initialized

Initializing position-dependent things.

Density initialized from atomic densities
Creating initial wave functions:
  112 bands from LCAO basis set

     .-------------------------.  
    /|         OP              |  
   / |O            O        O  |  
  /  |       O            O  P |  
 *   |O    Mn      O           |  
 |   |          OLi          O |  
 |   .P-O--------------Mn------.  
 |  /          Li    O  Mn  O /   
 | /Li O           PO        /    
 |/       Mn                /     
 *Li-----------------------*      

Positions:
   0 O     -1.360678   -2.541161   -1.202221    ( 0.0000,  0.0000,  0.0000)
   1 O     -3.121941    2.976855    1.167242    ( 0.0000,  0.0000,  0.0000)
   2 O      2.107533    0.508090    1.540712    ( 0.0000,  0.0000,  0.0000)
   3 O      3.869373   -0.072395   -0.828750    ( 0.0000,  0.0000,  0.0000)
   4 O      2.107821    2.976875    1.540792    ( 0.0000,  0.0000,  0.0000)
   5 O      3.869084   -2.541141   -0.828671    ( 0.0000,  0.0000,  0.0000)
   6 O     -1.360390   -0.072375   -1.202141    ( 0.0000,  0.0000,  0.0000)
   7 O     -3.122230    0.508109    1.157321    ( 0.0000,  0.0000,  0.0000)
   8 O     -4.413461   -1.306992   -0.794251    ( 0.0000,  0.0000,  0.0000)
   9 O     -0.069585    1.742707    1.575662    ( 0.0000,  0.0000,  0.0000)
  10 O      5.160604    1.742707    1.132822    ( 0.0000,  0.0000,  0.0000)
  11 O      0.816728   -1.306992   -1.237091    ( 0.0000,  0.0000,  0.0000)
  12 Mn    -2.570809   -1.307302    0.247161    ( 0.0000,  0.0000,  1.0000)
  13 Mn    -1.912021    1.743016   -2.122906    ( 0.0000,  0.0000, -1.0000)
  14 Mn     3.317952    1.743017    0.091411    ( 0.0000,  0.0000, -1.0000)
  15 Mn     2.659164   -1.307302    2.461478    ( 0.0000,  0.0000,  1.0000)
  16 P     -0.620664   -1.306816   -1.828465    ( 0.0000,  0.0000,  0.0000)
  17 P     -3.862097    1.742530    0.541238    ( 0.0000,  0.0000,  0.0000)
  18 P      1.367807    1.742530    2.167036    ( 0.0000,  0.0000,  0.0000)
  19 P      4.609240   -1.306816   -0.202666    ( 0.0000,  0.0000,  0.0000)
  20 O     -0.646437   -1.306845    1.374751    ( 0.0000,  0.0000,  0.0000)
  21 O     -3.836504    1.742559   -0.995565    ( 0.0000,  0.0000,  0.0000)
  22 O      1.393580    1.742559   -1.036179    ( 0.0000,  0.0000,  0.0000)
  23 O      4.583647   -1.306845    1.334136    ( 0.0000,  0.0000,  0.0000)
  24 Li    -4.856429   -2.832143   -2.200714    ( 0.0000,  0.0000,  0.0000)
  25 Li     0.373571   -2.832143    0.169286    ( 0.0000,  0.0000,  0.0000)
  26 Li    -4.856429    0.217857   -2.200714    ( 0.0000,  0.0000,  0.0000)
  27 Li     0.373571    0.217857    0.169286    ( 0.0000,  0.0000,  0.0000)

Unit cell:
           periodic     x           y           z      points  spacing
  1. axis:    yes   10.460000    0.000000    0.000000    60     0.1743
  2. axis:    yes    0.000000    6.100000    0.000000    35     0.1743
  3. axis:    yes    0.000000    0.000000    4.740000    27     0.1756

  Lengths:  10.460000   6.100000   4.740000
  Angles:   90.000000  90.000000  90.000000

Effective grid spacing dv^(1/3) = 0.1747

                     log10-error:           total        iterations:
           time      wfs    density  force  energy       poisson  magmom
iter:   1  21:11:50                       -231.918690             +0.0000
iter:   2  21:12:29  -0.55  -0.94         -231.738045             +0.0051
iter:   3  21:13:09  -0.72  -0.98         -220.593623             +0.0064
iter:   4  21:13:48  -0.94  -1.20         -218.883599             +0.0022
iter:   5  21:14:27  -1.93  -1.36         -222.257415             +0.0014
iter:   6  21:15:07  -2.00  -1.42         -221.457253             -0.0006
iter:   7  21:15:46  -1.84  -1.60         -224.966087             +0.2132
iter:   8  21:16:26  -2.35  -1.66         -225.095879             -0.9846
iter:   9  21:17:05  -2.68  -1.83         -226.331148             -1.0093
iter:  10  21:17:44  -2.62  -1.82         -227.180726             -0.3113
iter:  11  21:18:24  -2.59  -1.80         -227.172649             -0.0779
iter:  12  21:19:03  -2.96  -1.76         -226.976656             -0.0025
iter:  13  21:19:42  -1.66  -1.80         -226.756601             -0.0106
iter:  14  21:20:22  -2.76  -2.13         -226.485354             -0.0001
iter:  15  21:21:01  -2.98  -2.20         -226.390033             +0.0026
iter:  16  21:21:40  -2.47  -2.24         -226.252098             +0.0017
iter:  17  21:22:20  -3.09  -2.71         -226.255029             +0.0006
iter:  18  21:22:59  -3.95  -2.76         -226.236149             -0.0001
iter:  19  21:23:38  -3.19  -2.84         -226.242701             +0.0000
iter:  20  21:24:18  -3.47  -2.98         -226.230280             -0.0000
iter:  21  21:24:57  -4.18  -2.96         -226.228681             -0.0000
iter:  22  21:25:36  -4.80  -3.26         -226.228252             -0.0000
iter:  23  21:26:16  -4.25  -3.31         -226.229178             +0.0000
iter:  24  21:26:55  -4.56  -3.36         -226.227545             +0.0000
iter:  25  21:27:34  -5.54  -3.85         -226.227524             +0.0000
iter:  26  21:28:13  -6.19  -3.89         -226.227514             +0.0000
iter:  27  21:28:53  -5.95  -3.94         -226.227475             +0.0000
iter:  28  21:29:32  -6.35  -4.11         -226.227481             +0.0000
iter:  29  21:30:22  -7.42  -4.15         -226.227480             -0.0000
iter:  30  21:31:01  -6.31  -4.18         -226.227465             -0.0000
iter:  31  21:31:41  -7.01  -4.47         -226.227461             -0.0000
iter:  32  21:32:31  -7.56  -4.60    -1.75-226.227458             -0.0000
iter:  33  21:33:20  -7.56  -4.72    -2.67-226.227458             +0.0000
iter:  34  21:34:10  -7.82  -4.87    -2.94-226.227458             -0.0000
iter:  35  21:35:00  -8.22  -5.02    -2.64-226.227457             +0.0000
iter:  36  21:35:50  -8.27  -5.16    -2.99-226.227457             -0.0000
iter:  37  21:36:40  -9.28  -5.39    -3.98-226.227457             -0.0000
iter:  38  21:37:30  -9.05  -5.42    -3.14-226.227457             +0.0000
iter:  39  21:38:20  -9.27  -5.64    -3.42-226.227457             +0.0000
iter:  40  21:39:10  -9.33  -5.77    -3.27-226.227457             +0.0000
iter:  41  21:40:00 -10.39  -5.95    -3.92-226.227457             +0.0000
iter:  42  21:40:50  -9.82  -6.10    -3.62-226.227457             +0.0000
iter:  43  21:41:39 -10.33  -6.29    -3.87-226.227457             +0.0000
iter:  44  21:42:29 -10.83  -6.56    -4.17-226.227457             -0.0000
iter:  45  21:43:19 -11.29  -6.70    -4.49-226.227457             +0.0000
iter:  46  21:44:09 -11.65  -6.92    -4.93-226.227457             +0.0000
iter:  47  21:44:59 -11.70  -6.95    -4.52-226.227457             +0.0000
iter:  48  21:45:49 -12.22  -7.18    -4.89-226.227457             +0.0000
iter:  49  21:46:39 -13.32  -7.39    -5.39-226.227457             +0.0000
iter:  50  21:47:29 -12.79  -7.42    -4.97-226.227457             +0.0000
iter:  51  21:48:19 -12.92  -7.54    -5.27-226.227457             +0.0000
iter:  52  21:49:08 -14.07  -7.79    -6.14-226.227457             +0.0000

Converged after 52 iterations.

Dipole moment: (10.672171, 1.413647, -6.273103) |e|*Ang

Total magnetic moment: (0.000000, 0.000000, 0.000000)
Local magnetic moments:
   0 O  ( 0.000000,  0.000000, -0.000649)
   1 O  ( 0.000000,  0.000000,  0.000538)
   2 O  ( 0.000000,  0.000000,  0.000541)
   3 O  ( 0.000000,  0.000000, -0.000544)
   4 O  ( 0.000000,  0.000000,  0.000525)
   5 O  ( 0.000000,  0.000000, -0.000521)
   6 O  ( 0.000000,  0.000000, -0.000493)
   7 O  ( 0.000000,  0.000000,  0.000837)
   8 O  ( 0.000000,  0.000000,  0.028745)
   9 O  ( 0.000000,  0.000000, -0.028691)
  10 O  ( 0.000000,  0.000000, -0.028614)
  11 O  ( 0.000000,  0.000000,  0.028694)
  12 Mn ( 0.000000,  0.000000,  4.447816)
  13 Mn ( 0.000000,  0.000000, -4.448658)
  14 Mn ( 0.000000,  0.000000, -4.448153)
  15 Mn ( 0.000000,  0.000000,  4.448251)
  16 P  ( 0.000000,  0.000000,  0.001564)
  17 P  ( 0.000000,  0.000000, -0.001375)
  18 P  ( 0.000000,  0.000000, -0.001546)
  19 P  ( 0.000000,  0.000000,  0.001551)
  20 O  ( 0.000000,  0.000000,  0.025329)
  21 O  ( 0.000000,  0.000000, -0.025328)
  22 O  ( 0.000000,  0.000000, -0.025312)
  23 O  ( 0.000000,  0.000000,  0.025314)
  24 Li ( 0.000000,  0.000000,  0.000000)
  25 Li ( 0.000000,  0.000000,  0.000001)
  26 Li ( 0.000000,  0.000000,  0.000006)
  27 Li ( 0.000000,  0.000000, -0.000001)

Energy contributions relative to reference atoms: (reference = -196157.275402)

Kinetic:       +217.600149
Potential:     -195.426769
External:        +0.000000
XC:            -250.441365
Entropy (-ST):   -0.000000
Local:           +2.040527
--------------------------
Free energy:   -226.227457
Extrapolated:  -226.227457

Spin contamination: 9.560525 electrons
Showing only first 2 kpts
                      Up                     Down
 Kpt  Band  Eigenvalues  Occupancy  Eigenvalues  Occupancy
  0    88      5.11123    0.00694      5.10687    0.00694
  0    89      5.13608    0.00694      5.13285    0.00694
  0    90      7.28579    0.00000      7.28838    0.00000
  0    91      7.30417    0.00000      7.30617    0.00000

  1    88      5.13680    0.00694      5.13267    0.00694
  1    89      5.16629    0.00694      5.16287    0.00694
  1    90      7.22900    0.00000      7.23128    0.00000
  1    91      7.24186    0.00000      7.24348    0.00000


Fermi level: 6.04671

Gap: 1.969 eV
Transition (v -> c):
  (s=0, k=69, n=89, [-0.08, 0.42, -0.12]) -> (s=0, k=81, n=90, [0.08, -0.08, -0.12])
Writing to born-0.01-7z-.gpw (mode='all')

Timing:                              incl.     excl.
-----------------------------------------------------------
Hamiltonian:                         0.414     0.002   0.0% |
 Atomic:                             0.054     0.054   0.0% |
  XC Correction:                     0.000     0.000   0.0% |
 Calculate atomic Hamiltonians:      0.179     0.179   0.0% |
 Communicate:                        0.002     0.002   0.0% |
 Initialize Hamiltonian:             0.000     0.000   0.0% |
 Poisson:                            0.002     0.002   0.0% |
 XC 3D grid:                         0.175     0.175   0.0% |
LCAO initialization:               135.368     0.678   0.0% |
 LCAO eigensolver:                  34.080     0.002   0.0% |
  Calculate projections:             0.057     0.057   0.0% |
  DenseAtomicCorrection:             0.083     0.083   0.0% |
  Distribute overlap matrix:         0.007     0.007   0.0% |
  Orbital Layouts:                   0.363     0.363   0.0% |
  Potential matrix:                 33.466    33.466   0.5% |
  Sum over cells:                    0.102     0.102   0.0% |
 LCAO to grid:                      98.336    98.336   1.6% ||
 Set positions (LCAO WFS):           2.274     0.347   0.0% |
  Basic WFS set positions:           0.001     0.001   0.0% |
  Basis functions set positions:     0.000     0.000   0.0% |
  P tci:                             1.062     1.062   0.0% |
  ST tci:                            0.657     0.657   0.0% |
  mktci:                             0.207     0.207   0.0% |
PWDescriptor:                        0.025     0.025   0.0% |
SCF-cycle:                        2281.830     9.818   0.2% |
 Davidson:                        1935.079   634.782  10.3% |---|
  Apply H:                         133.138   129.129   2.1% ||
   HMM T:                            4.009     4.009   0.1% |
  Subspace diag:                   283.719     0.166   0.0% |
   calc_h_matrix:                  182.920    51.246   0.8% |
    Apply H:                       131.674   127.789   2.1% ||
     HMM T:                          3.885     3.885   0.1% |
   diagonalize:                      6.295     6.295   0.1% |
   rotate_psi:                      94.339    94.339   1.5% ||
  calc. matrices:                  605.570   343.813   5.6% |-|
   Apply H:                        261.757   254.164   4.1% |-|
    HMM T:                           7.593     7.593   0.1% |
  diagonalize:                      86.231    86.231   1.4% ||
  rotate_psi:                      191.639   191.639   3.1% ||
 Density:                           77.652     0.001   0.0% |
  Atomic density matrices:           1.294     1.294   0.0% |
  Mix:                              12.478    12.478   0.2% |
  Multipole moments:                 0.031     0.031   0.0% |
  Pseudo density:                   63.848    63.846   1.0% |
   Symmetrize density:               0.002     0.002   0.0% |
 Forces:                           233.380   233.380   3.8% |-|
 Hamiltonian:                       21.494     0.122   0.0% |
  Atomic:                            2.813     2.812   0.0% |
   XC Correction:                    0.000     0.000   0.0% |
  Calculate atomic Hamiltonians:     9.258     9.258   0.1% |
  Communicate:                       0.099     0.099   0.0% |
  Poisson:                           0.085     0.085   0.0% |
  XC 3D grid:                        9.117     9.117   0.1% |
 Orthonormalize:                     4.407     0.004   0.0% |
  calc_s_matrix:                     0.525     0.525   0.0% |
  inverse-cholesky:                  0.055     0.055   0.0% |
  projections:                       2.888     2.888   0.0% |
  rotate_psi_s:                      0.936     0.936   0.0% |
Set symmetry:                        0.000     0.000   0.0% |
Other:                            3758.031  3758.031  60.9% |-----------------------|
-----------------------------------------------------------
Total:                                      6175.669 100.0%

Memory usage: 13.18 GiB
Date: Mon Mar 22 22:51:45 2021
