
  ___ ___ ___ _ _ _  
 |   |   |_  | | | | 
 | | | | | . | | | | 
 |__ |  _|___|_____|  21.1.1b1
 |___|_|             

User:   madkru@g043.nifl.fysik.dtu.dk
Date:   Tue Mar 30 14:29:54 2021
Arch:   x86_64
Pid:    39387
Python: 3.8.6
gpaw:   /home/niflheim/madkru/venv_madkru/gpaw/gpaw (e6f0d78a31)
_gpaw:  /home/niflheim/madkru/venv_madkru/gpaw/build/lib.linux-x86_64-sandybridge-3.8/
        _gpaw.cpython-38-x86_64-linux-gnu.so (e6f0d78a31)
ase:    /home/niflheim/madkru/venv_madkru/ase/ase (version 3.22.0b1-4d5a73cb29)
numpy:  /home/modules/software/SciPy-bundle/2020.11-foss-2020b/lib/python3.8/site-packages/numpy (version 1.19.4)
scipy:  /home/modules/software/SciPy-bundle/2020.11-foss-2020b/lib/python3.8/site-packages/scipy (version 1.5.4)
libxc:  4.3.4
units:  Angstrom and eV
cores: 64
OpenMP: False
OMP_NUM_THREADS: 1

Input parameters:
  convergence: {bands: occupied,
                density: 0.0001,
                eigenstates: 4e-08,
                energy: 0.0005,
                forces: 1e-06}
  kpts: [6 6 4]
  maxiter: 1000
  mode: {ecut: 600.0,
         gammacentered: False,
         name: pw}
  occupations: {fixmagmom: False,
                name: fermi-dirac,
                width: 0.001}
  symmetry: {point_group: False,
             time_reversal: False}

System changes: positions, numbers, cell, pbc, initial_charges, initial_magmoms 

Initialize ...

O-setup:
  name: Oxygen
  id: 9b9d51c344dea68c822856295a461509
  Z: 8.0
  valence: 6
  core: 2
  charge: 0.0
  file: /home/modules/software/GPAW-setups/0.9.20000/O.LDA.gz
  compensation charges: gauss, rc=0.21, lmax=2
  cutoffs: 1.17(filt), 0.83(core),
  valence states:
                energy  radius
    2s(2.00)   -23.752   0.688
    2p(4.00)    -9.195   0.598
    *s           3.459   0.688
    *p          18.016   0.598
    *d           0.000   0.619

  Using partial waves for O as LCAO basis

Mn-setup:
  name: Manganese
  id: 0d715a8018be061a6e9ea6f2d364ac92
  Z: 25.0
  valence: 15
  core: 10
  charge: 0.0
  file: /home/modules/software/GPAW-setups/0.9.20000/Mn.LDA.gz
  compensation charges: gauss, rc=0.38, lmax=2
  cutoffs: 2.14(filt), 0.86(core),
  valence states:
                energy  radius
    3s(2.00)   -85.387   1.275
    4s(2.00)    -5.282   1.275
    3p(6.00)   -54.493   1.281
    4p(0.00)    -1.471   1.281
    3d(5.00)    -7.009   1.138
    *d          20.203   1.138

  Using partial waves for Mn as LCAO basis

P-setup:
  name: Phosphorus
  id: a5561c299094968922a179ab894d2e2d
  Z: 15.0
  valence: 5
  core: 10
  charge: 0.0
  file: /home/modules/software/GPAW-setups/0.9.20000/P.LDA.gz
  compensation charges: gauss, rc=0.30, lmax=2
  cutoffs: 1.69(filt), 1.81(core),
  valence states:
                energy  radius
    3s(2.00)   -14.015   0.953
    3p(3.00)    -5.596   0.953
    *s          13.197   0.953
    *p          21.615   0.953
    *d           0.000   0.953

  Using partial waves for P as LCAO basis

Li-setup:
  name: Lithium
  id: b73562207f97a71b6967473b66fe8b65
  Z: 3.0
  valence: 1
  core: 2
  charge: 0.0
  file: /home/modules/software/GPAW-setups/0.9.20000/Li.LDA.gz
  compensation charges: gauss, rc=0.33, lmax=2
  cutoffs: 1.91(filt), 2.55(core),
  valence states:
                energy  radius
    2s(1.00)    -2.874   1.058
    2p(0.00)    -1.126   1.058
    *s          24.338   1.058

  Using partial waves for Li as LCAO basis

Reference energy: -196157.275402

Spin-polarized calculation.
Magnetic moment: 0.000000

Convergence criteria:
  Maximum total energy change: 0.0005 eV / electron
  Maximum integral of absolute density change: 0.0001 electrons
  Maximum integral of absolute eigenstate change: 4e-08 eV^2
  Maximum change in atomic force: 1e-06 eV / Ang
  Maximum number of iterations: 1000

Symmetries present (total): 1

  ( 1  0  0)
  ( 0  1  0)
  ( 0  0  1)

144 k-points: 6 x 6 x 4 Monkhorst-Pack grid
144 k-points in the irreducible part of the Brillouin zone
       k-points in crystal coordinates                weights
   0:    -0.41666667   -0.41666667   -0.37500000          1/144
   1:    -0.41666667   -0.41666667   -0.12500000          1/144
   2:    -0.41666667   -0.41666667    0.12500000          1/144
   3:    -0.41666667   -0.41666667    0.37500000          1/144
   4:    -0.41666667   -0.25000000   -0.37500000          1/144
   5:    -0.41666667   -0.25000000   -0.12500000          1/144
   6:    -0.41666667   -0.25000000    0.12500000          1/144
   7:    -0.41666667   -0.25000000    0.37500000          1/144
   8:    -0.41666667   -0.08333333   -0.37500000          1/144
   9:    -0.41666667   -0.08333333   -0.12500000          1/144
          ...
 143:     0.41666667    0.41666667    0.37500000          1/144

Wave functions: Plane wave expansion
  Cutoff energy: 600.000 eV
  Number of coefficients (min, max): 10068, 10125
  Pulay-stress correction: 0.000000 eV/Ang^3 (de/decut=0.000000)
  Using FFTW library
  ScaLapack parameters: grid=1x1, blocksize=None
  Wavefunction extrapolation:
    Improved wavefunction reuse through dual PAW basis 

  Fermi-Dirac: width=0.0010 eV

Eigensolver
   Davidson(niter=2) 

Densities:
  Coarse grid: 60*35*27 grid
  Fine grid: 120*70*54 grid
  Total Charge: 0.000000 

Density mixing:
  Method: difference
  Backend: pulay
  Linear mixing parameter: 0.05
  Mixing with 5 old densities
  Damping of long wave oscillations: 50 

Hamiltonian:
  XC and Coulomb potentials evaluated on a 120*70*54 grid
  Using the LDA Exchange-Correlation functional
 

Memory estimate:
  Process memory now: 12752.06 MiB
  Calculator: 354.82 MiB
    Density: 10.06 MiB
      Arrays: 3.79 MiB
      Localized functions: 4.71 MiB
      Mixer: 1.56 MiB
    Hamiltonian: 2.95 MiB
      Arrays: 2.82 MiB
      XC: 0.00 MiB
      Poisson: 0.00 MiB
      vbar: 0.14 MiB
    Wavefunctions: 341.80 MiB
      Arrays psit_nG: 311.46 MiB
      Eigensolver: 19.99 MiB
      Projections: 2.71 MiB
      Projectors: 4.87 MiB
      PW-descriptor: 2.77 MiB

Total number of cores used: 64
Parallelization over k-points: 16
Domain decomposition: 2 x 2 x 1

Number of atoms: 28
Number of atomic orbitals: 148
Number of bands in calculation: 112
Number of valence electrons: 180
Bands to converge: occupied

... initialized

Initializing position-dependent things.

Density initialized from atomic densities
Creating initial wave functions:
  112 bands from LCAO basis set

     .-------------------------.  
    /|         OP              |  
   / |O            O        O  |  
  /  |       O            O  P |  
 *   |O    Mn      O           |  
 |   |          OLi          O |  
 |   .P-O--------------Mn------.  
 |  /          Li    O  Mn  O /   
 | /Li O           PO        /    
 |/       Mn                /     
 *Li-----------------------*      

Positions:
   0 O     -1.360678   -2.541161   -1.202221    ( 0.0000,  0.0000,  0.0000)
   1 O     -3.121941    2.976855    1.167242    ( 0.0000,  0.0000,  0.0000)
   2 O      2.107533    0.508090    1.540712    ( 0.0000,  0.0000,  0.0000)
   3 O      3.869373   -0.072395   -0.828750    ( 0.0000,  0.0000,  0.0000)
   4 O      2.107821    2.976875    1.540792    ( 0.0000,  0.0000,  0.0000)
   5 O      3.869084   -2.541141   -0.828671    ( 0.0000,  0.0000,  0.0000)
   6 O     -1.360390   -0.072375   -1.202141    ( 0.0000,  0.0000,  0.0000)
   7 O     -3.122230    0.508109    1.167321    ( 0.0000,  0.0000,  0.0000)
   8 O     -4.413461   -1.306992   -0.794251    ( 0.0000,  0.0000,  0.0000)
   9 O     -0.069585    1.742707    1.575662    ( 0.0000,  0.0000,  0.0000)
  10 O      5.160604    1.742707    1.132822    ( 0.0000,  0.0000,  0.0000)
  11 O      0.816728   -1.306992   -1.237091    ( 0.0000,  0.0000,  0.0000)
  12 Mn    -2.560809   -1.307302    0.247161    ( 0.0000,  0.0000,  1.0000)
  13 Mn    -1.912021    1.743016   -2.122906    ( 0.0000,  0.0000, -1.0000)
  14 Mn     3.317952    1.743017    0.091411    ( 0.0000,  0.0000, -1.0000)
  15 Mn     2.659164   -1.307302    2.461478    ( 0.0000,  0.0000,  1.0000)
  16 P     -0.620664   -1.306816   -1.828465    ( 0.0000,  0.0000,  0.0000)
  17 P     -3.862097    1.742530    0.541238    ( 0.0000,  0.0000,  0.0000)
  18 P      1.367807    1.742530    2.167036    ( 0.0000,  0.0000,  0.0000)
  19 P      4.609240   -1.306816   -0.202666    ( 0.0000,  0.0000,  0.0000)
  20 O     -0.646437   -1.306845    1.374751    ( 0.0000,  0.0000,  0.0000)
  21 O     -3.836504    1.742559   -0.995565    ( 0.0000,  0.0000,  0.0000)
  22 O      1.393580    1.742559   -1.036179    ( 0.0000,  0.0000,  0.0000)
  23 O      4.583647   -1.306845    1.334136    ( 0.0000,  0.0000,  0.0000)
  24 Li    -4.856429   -2.832143   -2.200714    ( 0.0000,  0.0000,  0.0000)
  25 Li     0.373571   -2.832143    0.169286    ( 0.0000,  0.0000,  0.0000)
  26 Li    -4.856429    0.217857   -2.200714    ( 0.0000,  0.0000,  0.0000)
  27 Li     0.373571    0.217857    0.169286    ( 0.0000,  0.0000,  0.0000)

Unit cell:
           periodic     x           y           z      points  spacing
  1. axis:    yes   10.460000    0.000000    0.000000    60     0.1743
  2. axis:    yes    0.000000    6.100000    0.000000    35     0.1743
  3. axis:    yes    0.000000    0.000000    4.740000    27     0.1756

  Lengths:  10.460000   6.100000   4.740000
  Angles:   90.000000  90.000000  90.000000

Effective grid spacing dv^(1/3) = 0.1747

                     log10-error:           total        iterations:
           time      wfs    density  force  energy       poisson  magmom
iter:   1  14:31:29                       -231.921329             +0.0000
iter:   2  14:31:51  -0.55  -0.94         -231.718312             +0.0053
iter:   3  14:32:12  -0.72  -0.98         -220.582689             +0.0066
iter:   4  14:32:33  -0.94  -1.20         -218.865523             +0.0047
iter:   5  14:32:54  -1.94  -1.36         -222.447440             +0.0026
iter:   6  14:33:16  -2.01  -1.40         -221.770197             +0.0165
iter:   7  14:33:37  -1.80  -1.56         -224.772174             -0.0509
iter:   8  14:33:58  -2.31  -1.60         -224.675158             -1.4897
iter:   9  14:34:20  -2.63  -1.81         -226.089456             -1.4900
iter:  10  14:34:41  -1.93  -1.82         -226.720629             -0.4471
iter:  11  14:35:02  -1.76  -1.93         -227.218949             -0.1322
iter:  12  14:35:23  -2.87  -1.96         -227.002132             -0.1353
iter:  13  14:35:45  -3.04  -2.00         -226.591079             -0.0434
iter:  14  14:36:06  -2.37  -2.18         -226.294052             -0.0140
iter:  15  14:36:27  -2.63  -2.37         -226.301000             -0.0083
iter:  16  14:36:48  -3.70  -2.41         -226.272516             -0.0044
iter:  17  14:37:10  -3.02  -2.47         -226.246342             +0.0013
iter:  18  14:37:31  -3.37  -2.75         -226.229296             +0.0002
iter:  19  14:37:52  -3.89  -3.05         -226.231178             +0.0003
iter:  20  14:38:13  -4.45  -3.19         -226.228918             +0.0001
iter:  21  14:38:34  -4.65  -3.45         -226.227859             +0.0000
iter:  22  14:38:56  -5.70  -3.56         -226.227830             +0.0000
iter:  23  14:39:17  -5.73  -3.62         -226.227766             +0.0000
iter:  24  14:39:38  -5.37  -3.67         -226.227716             -0.0000
iter:  25  14:39:59  -5.48  -3.74         -226.227675             +0.0000
iter:  26  14:40:20  -5.18  -3.80         -226.227802             -0.0000
iter:  27  14:40:42  -5.66  -3.77         -226.227599             +0.0000
iter:  28  14:41:03  -6.09  -3.99         -226.227589             +0.0000
iter:  29  14:41:24  -7.11  -4.08         -226.227586             +0.0000
iter:  30  14:41:45  -7.13  -4.14         -226.227582             +0.0000
iter:  31  14:42:06  -6.87  -4.19         -226.227583             +0.0000
iter:  32  14:42:33  -7.45  -4.26         -226.227583             +0.0000
iter:  33  14:42:54  -7.22  -4.30         -226.227580             +0.0000
iter:  34  14:43:16  -6.95  -4.37         -226.227580             +0.0000
iter:  35  14:43:42  -7.53  -4.59    -2.40-226.227576             +0.0000
iter:  36  14:44:03  -6.85  -4.70         -226.227577             +0.0000
iter:  37  14:44:30  -7.45  -4.81    -2.55-226.227575             +0.0000
iter:  38  14:44:57  -8.59  -5.07    -3.39-226.227575             +0.0000
iter:  39  14:45:24  -8.18  -5.13    -2.76-226.227575             -0.0000
iter:  40  14:45:50  -8.33  -5.29    -3.03-226.227575             +0.0000
iter:  41  14:46:17  -9.58  -5.42    -3.72-226.227575             +0.0000
iter:  42  14:46:44  -8.67  -5.45    -3.26-226.227575             +0.0000
iter:  43  14:47:11  -8.64  -5.48    -3.21-226.227575             +0.0000
iter:  44  14:47:37  -9.57  -5.69    -3.58-226.227575             +0.0000
iter:  45  14:48:04  -9.23  -5.80    -3.52-226.227575             +0.0000
iter:  46  14:48:31  -9.46  -5.82    -3.59-226.227575             +0.0000
iter:  47  14:48:57 -10.54  -5.99    -4.19-226.227575             +0.0000
iter:  48  14:49:24 -10.96  -6.04    -4.33-226.227575             +0.0000
iter:  49  14:49:51 -10.04  -6.08    -3.66-226.227575             +0.0000
iter:  50  14:50:17 -10.24  -6.31    -4.08-226.227575             +0.0000
iter:  51  14:50:44 -11.64  -6.46    -4.61-226.227575             +0.0000
iter:  52  14:51:11 -10.75  -6.52    -4.20-226.227575             +0.0000
iter:  53  14:51:38 -11.24  -6.82    -4.49-226.227575             +0.0000
iter:  54  14:52:04 -12.10  -6.91    -4.93-226.227575             +0.0000
iter:  55  14:52:31 -12.48  -7.01    -5.09-226.227575             +0.0000
iter:  56  14:52:58 -11.72  -7.05    -4.75-226.227575             +0.0000
iter:  57  14:53:24 -12.95  -7.26    -5.25-226.227575             +0.0000
iter:  58  14:53:51 -13.40  -7.32    -5.47-226.227575             +0.0000
iter:  59  14:54:18 -13.54  -7.37    -5.73-226.227575             +0.0000
iter:  60  14:54:44 -13.62  -7.44    -5.60-226.227575             +0.0000
iter:  61  14:55:11 -13.50  -7.50    -5.77-226.227575             +0.0000
iter:  62  14:55:38 -13.71  -7.57    -5.62-226.227575             +0.0000
iter:  63  14:56:05 -13.68  -7.72    -5.75-226.227575             +0.0000
iter:  64  14:56:31 -13.58  -7.90    -5.73-226.227575             -0.0000
iter:  65  14:56:58 -14.58  -8.26    -6.15-226.227575             +0.0000

Converged after 65 iterations.

Dipole moment: (10.681627, 1.411885, -6.270231) |e|*Ang

Total magnetic moment: (0.000000, 0.000000, 0.000000)
Local magnetic moments:
   0 O  ( 0.000000,  0.000000, -0.000158)
   1 O  ( 0.000000,  0.000000,  0.000295)
   2 O  ( 0.000000,  0.000000,  0.000559)
   3 O  ( 0.000000,  0.000000, -0.000576)
   4 O  ( 0.000000,  0.000000,  0.000540)
   5 O  ( 0.000000,  0.000000, -0.000556)
   6 O  ( 0.000000,  0.000000, -0.000178)
   7 O  ( 0.000000,  0.000000,  0.000315)
   8 O  ( 0.000000,  0.000000,  0.028250)
   9 O  ( 0.000000,  0.000000, -0.028671)
  10 O  ( 0.000000,  0.000000, -0.028714)
  11 O  ( 0.000000,  0.000000,  0.028634)
  12 Mn ( 0.000000,  0.000000,  4.448429)
  13 Mn ( 0.000000,  0.000000, -4.448054)
  14 Mn ( 0.000000,  0.000000, -4.448171)
  15 Mn ( 0.000000,  0.000000,  4.448209)
  16 P  ( 0.000000,  0.000000,  0.001728)
  17 P  ( 0.000000,  0.000000, -0.001589)
  18 P  ( 0.000000,  0.000000, -0.001553)
  19 P  ( 0.000000,  0.000000,  0.001420)
  20 O  ( 0.000000,  0.000000,  0.025688)
  21 O  ( 0.000000,  0.000000, -0.025362)
  22 O  ( 0.000000,  0.000000, -0.025283)
  23 O  ( 0.000000,  0.000000,  0.025336)
  24 Li ( 0.000000,  0.000000, -0.000010)
  25 Li ( 0.000000,  0.000000, -0.000003)
  26 Li ( 0.000000,  0.000000, -0.000010)
  27 Li ( 0.000000,  0.000000, -0.000003)

Energy contributions relative to reference atoms: (reference = -196157.275402)

Kinetic:       +217.353471
Potential:     -195.233274
External:        +0.000000
XC:            -250.388962
Entropy (-ST):   -0.000000
Local:           +2.041191
--------------------------
Free energy:   -226.227575
Extrapolated:  -226.227575

Spin contamination: 9.559998 electrons
Showing only first 2 kpts
                      Up                     Down
 Kpt  Band  Eigenvalues  Occupancy  Eigenvalues  Occupancy
  0    88      5.10830    1.00000      5.10826    1.00000
  0    89      5.13187    1.00000      5.13432    1.00000
  0    90      7.28816    0.00000      7.28949    0.00000
  0    91      7.30585    0.00000      7.30722    0.00000

  1    88      5.13455    1.00000      5.13412    1.00000
  1    89      5.16228    1.00000      5.16474    1.00000
  1    90      7.23064    0.00000      7.23307    0.00000
  1    91      7.24331    0.00000      7.24488    0.00000


Fermi level: 5.52525

Gap: 1.972 eV
Transition (v -> c):
  (s=1, k=69, n=89, [-0.08, 0.42, -0.12]) -> (s=0, k=58, n=90, [-0.08, -0.08, 0.12])
Writing to born-0.01-12x+.gpw (mode='all')

Timing:                              incl.     excl.
-----------------------------------------------------------
Hamiltonian:                         0.244     0.003   0.0% |
 Atomic:                             0.055     0.055   0.0% |
  XC Correction:                     0.000     0.000   0.0% |
 Calculate atomic Hamiltonians:      0.090     0.090   0.0% |
 Communicate:                        0.000     0.000   0.0% |
 Initialize Hamiltonian:             0.000     0.000   0.0% |
 Poisson:                            0.001     0.001   0.0% |
 XC 3D grid:                         0.095     0.095   0.0% |
LCAO initialization:                70.360     0.676   0.0% |
 LCAO eigensolver:                  17.985     0.003   0.0% |
  Calculate projections:             0.030     0.030   0.0% |
  DenseAtomicCorrection:             0.043     0.043   0.0% |
  Distribute overlap matrix:         0.005     0.005   0.0% |
  Orbital Layouts:                   0.281     0.281   0.0% |
  Potential matrix:                 17.528    17.528   0.5% |
  Sum over cells:                    0.096     0.096   0.0% |
 LCAO to grid:                      50.417    50.417   1.4% ||
 Set positions (LCAO WFS):           1.281     0.181   0.0% |
  Basic WFS set positions:           0.001     0.001   0.0% |
  Basis functions set positions:     0.000     0.000   0.0% |
  P tci:                             0.514     0.514   0.0% |
  ST tci:                            0.371     0.371   0.0% |
  mktci:                             0.214     0.214   0.0% |
PWDescriptor:                        0.025     0.025   0.0% |
SCF-cycle:                        1551.785     6.074   0.2% |
 Davidson:                        1305.295   418.147  11.3% |----|
  Apply H:                          87.168    84.514   2.3% ||
   HMM T:                            2.654     2.654   0.1% |
  Subspace diag:                   187.117     0.190   0.0% |
   calc_h_matrix:                  119.197    32.701   0.9% |
    Apply H:                        86.496    83.830   2.3% ||
     HMM T:                          2.666     2.666   0.1% |
   diagonalize:                      6.576     6.576   0.2% |
   rotate_psi:                      61.154    61.154   1.7% ||
  calc. matrices:                  390.003   217.952   5.9% |-|
   Apply H:                        172.050   166.831   4.5% |-|
    HMM T:                           5.219     5.219   0.1% |
  diagonalize:                     100.979   100.979   2.7% ||
  rotate_psi:                      121.881   121.881   3.3% ||
 Density:                           51.973     0.002   0.0% |
  Atomic density matrices:           0.854     0.854   0.0% |
  Mix:                               8.883     8.883   0.2% |
  Multipole moments:                 0.023     0.023   0.0% |
  Pseudo density:                   42.211    42.210   1.1% |
   Symmetrize density:               0.002     0.002   0.0% |
 Forces:                           170.266   170.266   4.6% |-|
 Hamiltonian:                       15.872     0.135   0.0% |
  Atomic:                            3.652     3.651   0.1% |
   XC Correction:                    0.000     0.000   0.0% |
  Calculate atomic Hamiltonians:     6.073     6.073   0.2% |
  Communicate:                       0.016     0.016   0.0% |
  Poisson:                           0.057     0.057   0.0% |
  XC 3D grid:                        5.938     5.938   0.2% |
 Orthonormalize:                     2.305     0.003   0.0% |
  calc_s_matrix:                     0.267     0.267   0.0% |
  inverse-cholesky:                  0.040     0.040   0.0% |
  projections:                       1.502     1.502   0.0% |
  rotate_psi_s:                      0.493     0.493   0.0% |
Set symmetry:                        0.000     0.000   0.0% |
Other:                            2076.571  2076.571  56.1% |---------------------|
-----------------------------------------------------------
Total:                                      3698.985 100.0%

Memory usage: 12.47 GiB
Date: Tue Mar 30 15:31:33 2021
