
  ___ ___ ___ _ _ _  
 |   |   |_  | | | | 
 | | | | | . | | | | 
 |__ |  _|___|_____|  20.10.1b1
 |___|_|             

User:   madkru@g064.nifl.fysik.dtu.dk
Date:   Sun Mar 21 15:18:24 2021
Arch:   x86_64
Pid:    60512
Python: 3.7.4
gpaw:   /home/niflheim/madkru/venv_folder/gpaw/gpaw (d0d1ca1c71)
_gpaw:  /home/niflheim/madkru/venv_folder/gpaw/build/lib.linux-x86_64-sandybridge-3.7/
        _gpaw.cpython-37m-x86_64-linux-gnu.so (4fd39e8b1e)
ase:    /home/niflheim/madkru/venv_folder/ase/ase (version 3.21.0b1-7e6c206a91)
numpy:  /home/niflheim/madkru/venv_folder/lib/python3.7/site-packages/numpy (version 1.19.4)
scipy:  /home/niflheim/madkru/venv_folder/lib/python3.7/site-packages/scipy (version 1.5.4)
libxc:  4.3.4
units:  Angstrom and eV
cores: 32
OMP_NUM_THREADS: 1

Input parameters:
  convergence: {bands: occupied,
                density: 0.0001,
                eigenstates: 4e-08,
                energy: 0.0005,
                forces: 1e-06}
  kpts: [6 6 4]
  mode: {ecut: 600.0,
         gammacentered: False,
         name: pw}
  occupations: {fixmagmom: False,
                name: fermi-dirac,
                width: 0.001}
  symmetry: {point_group: False,
             time_reversal: False}

System changes: positions, numbers, cell, pbc, initial_charges, initial_magmoms 

Initialize ...

O-setup:
  name: Oxygen
  id: 9b9d51c344dea68c822856295a461509
  Z: 8.0
  valence: 6
  core: 2
  charge: 0.0
  file: /home/modules/software/GPAW-setups/0.9.20000/O.LDA.gz
  compensation charges: gauss, rc=0.21, lmax=2
  cutoffs: 1.17(filt), 0.83(core),
  valence states:
                energy  radius
    2s(2.00)   -23.752   0.688
    2p(4.00)    -9.195   0.598
    *s           3.459   0.688
    *p          18.016   0.598
    *d           0.000   0.619

  Using partial waves for O as LCAO basis

Mn-setup:
  name: Manganese
  id: 0d715a8018be061a6e9ea6f2d364ac92
  Z: 25.0
  valence: 15
  core: 10
  charge: 0.0
  file: /home/modules/software/GPAW-setups/0.9.20000/Mn.LDA.gz
  compensation charges: gauss, rc=0.38, lmax=2
  cutoffs: 2.14(filt), 0.86(core),
  valence states:
                energy  radius
    3s(2.00)   -85.387   1.275
    4s(2.00)    -5.282   1.275
    3p(6.00)   -54.493   1.281
    4p(0.00)    -1.471   1.281
    3d(5.00)    -7.009   1.138
    *d          20.203   1.138

  Using partial waves for Mn as LCAO basis

P-setup:
  name: Phosphorus
  id: a5561c299094968922a179ab894d2e2d
  Z: 15.0
  valence: 5
  core: 10
  charge: 0.0
  file: /home/modules/software/GPAW-setups/0.9.20000/P.LDA.gz
  compensation charges: gauss, rc=0.30, lmax=2
  cutoffs: 1.69(filt), 1.81(core),
  valence states:
                energy  radius
    3s(2.00)   -14.015   0.953
    3p(3.00)    -5.596   0.953
    *s          13.197   0.953
    *p          21.615   0.953
    *d           0.000   0.953

  Using partial waves for P as LCAO basis

Li-setup:
  name: Lithium
  id: b73562207f97a71b6967473b66fe8b65
  Z: 3.0
  valence: 1
  core: 2
  charge: 0.0
  file: /home/modules/software/GPAW-setups/0.9.20000/Li.LDA.gz
  compensation charges: gauss, rc=0.33, lmax=2
  cutoffs: 1.91(filt), 2.55(core),
  valence states:
                energy  radius
    2s(1.00)    -2.874   1.058
    2p(0.00)    -1.126   1.058
    *s          24.338   1.058

  Using partial waves for Li as LCAO basis

Reference energy: -196157.275402

Spin-polarized calculation.
Magnetic moment: 0.000000

Convergence criteria:
  Maximum total energy change: 0.0005 eV / electron
  Maximum integral of absolute density change: 0.0001 electrons
  Maximum integral of absolute eigenstate change: 4e-08 eV^2
  Maximum change in atomic force: 1e-06 eV / Ang
  Maximum number of iterations: 333

Symmetries present (total): 1

  ( 1  0  0)
  ( 0  1  0)
  ( 0  0  1)

144 k-points: 6 x 6 x 4 Monkhorst-Pack grid
144 k-points in the irreducible part of the Brillouin zone
       k-points in crystal coordinates                weights
   0:    -0.41666667   -0.41666667   -0.37500000          1/144
   1:    -0.41666667   -0.41666667   -0.12500000          1/144
   2:    -0.41666667   -0.41666667    0.12500000          1/144
   3:    -0.41666667   -0.41666667    0.37500000          1/144
   4:    -0.41666667   -0.25000000   -0.37500000          1/144
   5:    -0.41666667   -0.25000000   -0.12500000          1/144
   6:    -0.41666667   -0.25000000    0.12500000          1/144
   7:    -0.41666667   -0.25000000    0.37500000          1/144
   8:    -0.41666667   -0.08333333   -0.37500000          1/144
   9:    -0.41666667   -0.08333333   -0.12500000          1/144
          ...
 143:     0.41666667    0.41666667    0.37500000          1/144

Wave functions: Plane wave expansion
  Cutoff energy: 600.000 eV
  Number of coefficients (min, max): 10068, 10125
  Pulay-stress correction: 0.000000 eV/Ang^3 (de/decut=0.000000)
  Using FFTW library
  ScaLapack parameters: grid=1x1, blocksize=None
  Wavefunction extrapolation:
    Improved wavefunction reuse through dual PAW basis 

  Fermi-Dirac: width=0.0010 eV

Eigensolver
   Davidson(niter=2, smin=None, normalize=True) 

Densities:
  Coarse grid: 60*35*27 grid
  Fine grid: 120*70*54 grid
  Total Charge: 0.000000 

Density mixing:
  Method: difference
  Backend: pulay
  Linear mixing parameter: 0.05
  Mixing with 5 old densities
  Damping of long wave oscillations: 50 

Hamiltonian:
  XC and Coulomb potentials evaluated on a 120*70*54 grid
  Using the LDA Exchange-Correlation functional
 

Memory estimate:
  Process memory now: 12541.94 MiB
  Calculator: 375.55 MiB
    Density: 20.02 MiB
      Arrays: 7.57 MiB
      Localized functions: 9.42 MiB
      Mixer: 3.03 MiB
    Hamiltonian: 5.90 MiB
      Arrays: 5.62 MiB
      XC: 0.00 MiB
      Poisson: 0.00 MiB
      vbar: 0.27 MiB
    Wavefunctions: 349.64 MiB
      Arrays psit_nG: 311.46 MiB
      Eigensolver: 19.99 MiB
      Projections: 5.41 MiB
      Projectors: 9.73 MiB
      PW-descriptor: 3.03 MiB

Total number of cores used: 32
Parallelization over k-points: 16
Domain decomposition: 2 x 1 x 1

Number of atoms: 28
Number of atomic orbitals: 148
Number of bands in calculation: 112
Number of valence electrons: 180
Bands to converge: occupied

... initialized

Initializing position-dependent things.

Density initialized from atomic densities
Creating initial wave functions:
  112 bands from LCAO basis set

     .-------------------------.  
    /|         OP              |  
   / |O            O        O  |  
  /  |       O            O  P |  
 *   |O    Mn      O           |  
 |   |          OLi          O |  
 |   .P-O--------------Mn------.  
 |  /          Li    O  Mn  O /   
 | /Li O           PO        /    
 |/       Mn                /     
 *Li-----------------------*      

Positions:
   0 O     -1.360678   -2.541161   -1.202221    ( 0.0000,  0.0000,  0.0000)
   1 O     -3.121941    2.976855    1.167242    ( 0.0000,  0.0000,  0.0000)
   2 O      2.117533    0.508090    1.540712    ( 0.0000,  0.0000,  0.0000)
   3 O      3.869373   -0.072395   -0.828750    ( 0.0000,  0.0000,  0.0000)
   4 O      2.107821    2.976875    1.540792    ( 0.0000,  0.0000,  0.0000)
   5 O      3.869084   -2.541141   -0.828671    ( 0.0000,  0.0000,  0.0000)
   6 O     -1.360390   -0.072375   -1.202141    ( 0.0000,  0.0000,  0.0000)
   7 O     -3.122230    0.508109    1.167321    ( 0.0000,  0.0000,  0.0000)
   8 O     -4.413461   -1.306992   -0.794251    ( 0.0000,  0.0000,  0.0000)
   9 O     -0.069585    1.742707    1.575662    ( 0.0000,  0.0000,  0.0000)
  10 O      5.160604    1.742707    1.132822    ( 0.0000,  0.0000,  0.0000)
  11 O      0.816728   -1.306992   -1.237091    ( 0.0000,  0.0000,  0.0000)
  12 Mn    -2.570809   -1.307302    0.247161    ( 0.0000,  0.0000,  1.0000)
  13 Mn    -1.912021    1.743016   -2.122906    ( 0.0000,  0.0000, -1.0000)
  14 Mn     3.317952    1.743017    0.091411    ( 0.0000,  0.0000, -1.0000)
  15 Mn     2.659164   -1.307302    2.461478    ( 0.0000,  0.0000,  1.0000)
  16 P     -0.620664   -1.306816   -1.828465    ( 0.0000,  0.0000,  0.0000)
  17 P     -3.862097    1.742530    0.541238    ( 0.0000,  0.0000,  0.0000)
  18 P      1.367807    1.742530    2.167036    ( 0.0000,  0.0000,  0.0000)
  19 P      4.609240   -1.306816   -0.202666    ( 0.0000,  0.0000,  0.0000)
  20 O     -0.646437   -1.306845    1.374751    ( 0.0000,  0.0000,  0.0000)
  21 O     -3.836504    1.742559   -0.995565    ( 0.0000,  0.0000,  0.0000)
  22 O      1.393580    1.742559   -1.036179    ( 0.0000,  0.0000,  0.0000)
  23 O      4.583647   -1.306845    1.334136    ( 0.0000,  0.0000,  0.0000)
  24 Li    -4.856429   -2.832143   -2.200714    ( 0.0000,  0.0000,  0.0000)
  25 Li     0.373571   -2.832143    0.169286    ( 0.0000,  0.0000,  0.0000)
  26 Li    -4.856429    0.217857   -2.200714    ( 0.0000,  0.0000,  0.0000)
  27 Li     0.373571    0.217857    0.169286    ( 0.0000,  0.0000,  0.0000)

Unit cell:
           periodic     x           y           z      points  spacing
  1. axis:    yes   10.460000    0.000000    0.000000    60     0.1743
  2. axis:    yes    0.000000    6.100000    0.000000    35     0.1743
  3. axis:    yes    0.000000    0.000000    4.740000    27     0.1756

  Lengths:  10.460000   6.100000   4.740000
  Angles:   90.000000  90.000000  90.000000

Effective grid spacing dv^(1/3) = 0.1747

                     log10-error:           total        iterations:
           time      wfs    density  force  energy       poisson  magmom
iter:   1  15:21:22                       -231.918829             +0.0000
iter:   2  15:22:01  -0.55  -0.94         -231.715216             -0.0001
iter:   3  15:22:40  -0.72  -0.98         -220.586814             -0.0001
iter:   4  15:23:20  -0.95  -1.20         -218.869292             -0.0000
iter:   5  15:24:00  -1.93  -1.36         -222.192873             -0.0000
iter:   6  15:24:39  -1.99  -1.44         -220.988533             -0.0000
iter:   7  15:25:19  -2.13  -1.66         -224.185422             -0.0738
iter:   8  15:25:58  -1.89  -1.88         -226.785247             +0.4630
iter:   9  15:26:38  -2.63  -1.83         -227.548674             +0.1459
iter:  10  15:27:17  -2.46  -1.77         -226.989288             -0.0028
iter:  11  15:27:57  -2.04  -1.87         -226.488669             +0.0056
iter:  12  15:28:36  -2.12  -2.16         -226.366055             -0.0020
iter:  13  15:29:16  -3.22  -2.46         -226.328406             +0.0035
iter:  14  15:29:55  -2.37  -2.50         -226.262880             +0.0046
iter:  15  15:30:35  -3.65  -2.79         -226.246792             +0.0012
iter:  16  15:31:14  -3.73  -2.88         -226.230981             -0.0003
iter:  17  15:31:54  -4.53  -2.98         -226.230558             -0.0000
iter:  18  15:32:34  -4.26  -3.08         -226.227719             -0.0000
iter:  19  15:33:13  -4.87  -3.24         -226.227474             -0.0000
iter:  20  15:33:53  -5.59  -3.33         -226.227681             +0.0000
iter:  21  15:34:32  -6.07  -3.42         -226.227688             +0.0000
iter:  22  15:35:12  -5.17  -3.44         -226.227443             +0.0000
iter:  23  15:35:51  -6.24  -4.06         -226.227406             +0.0000
iter:  24  15:36:31  -6.42  -4.20         -226.227376             +0.0000
iter:  25  15:37:10  -6.81  -4.32         -226.227370             +0.0000
iter:  26  15:38:00  -7.47  -4.42         -226.227372             +0.0000
iter:  27  15:38:50  -7.40  -4.48    -2.30-226.227371             +0.0000
iter:  28  15:39:41  -7.70  -4.56    -2.71-226.227369             +0.0000
iter:  29  15:40:31  -8.10  -4.62    -2.72-226.227368             +0.0000
iter:  30  15:41:21  -8.42  -4.68    -2.59-226.227368             +0.0000
iter:  31  15:42:11  -8.43  -4.86    -3.08-226.227367             +0.0000
iter:  32  15:43:01  -8.96  -4.95    -3.41-226.227367             -0.0000
iter:  33  15:43:51  -7.95  -5.00    -3.01-226.227367             +0.0000
iter:  34  15:44:41  -8.20  -5.16    -2.81-226.227367             -0.0000
iter:  35  15:45:31  -8.25  -5.14    -3.15-226.227367             -0.0000
iter:  36  15:46:21  -9.25  -5.49    -3.62-226.227367             -0.0000
iter:  37  15:47:11  -9.11  -5.51    -3.47-226.227367             +0.0000
iter:  38  15:48:01  -9.03  -5.61    -3.43-226.227367             +0.0000
iter:  39  15:48:51  -9.95  -5.71    -3.91-226.227367             +0.0000
iter:  40  15:49:42  -9.58  -5.80    -3.52-226.227367             +0.0000
iter:  41  15:50:32 -10.41  -5.85    -4.01-226.227367             +0.0000
iter:  42  15:51:22  -9.60  -5.98    -4.02-226.227367             +0.0000
iter:  43  15:52:12 -10.57  -6.11    -4.05-226.227367             +0.0000
iter:  44  15:53:02 -10.70  -6.23    -4.22-226.227367             +0.0000
iter:  45  15:53:52 -11.59  -6.31    -4.77-226.227367             -0.0000
iter:  46  15:54:42 -10.78  -6.34    -4.18-226.227367             +0.0000
iter:  47  15:55:32 -11.71  -6.76    -4.56-226.227367             -0.0000
iter:  48  15:56:23 -12.01  -6.86    -5.01-226.227367             -0.0000
iter:  49  15:57:13 -12.08  -6.95    -4.89-226.227367             -0.0000
iter:  50  15:58:03 -12.84  -7.01    -5.61-226.227367             -0.0000
iter:  51  15:58:53 -12.21  -7.06    -4.93-226.227367             -0.0000
iter:  52  15:59:43 -13.08  -7.30    -5.16-226.227367             -0.0000
iter:  53  16:00:34 -13.15  -7.39    -5.36-226.227367             -0.0000
iter:  54  16:01:24 -13.12  -7.60    -5.36-226.227367             -0.0000
iter:  55  16:02:14 -13.97  -7.92    -5.87-226.227367             +0.0000
iter:  56  16:03:04 -13.74  -7.95    -6.02-226.227367             -0.0000

Converged after 56 iterations.

Dipole moment: (10.669987, 1.407970, -6.270126) |e|*Ang

Total magnetic moment: (0.000000, 0.000000, -0.000000)
Local magnetic moments:
   0 O  ( 0.000000,  0.000000, -0.000538)
   1 O  ( 0.000000,  0.000000,  0.000514)
   2 O  ( 0.000000,  0.000000,  0.000494)
   3 O  ( 0.000000,  0.000000, -0.000532)
   4 O  ( 0.000000,  0.000000,  0.000499)
   5 O  ( 0.000000,  0.000000, -0.000466)
   6 O  ( 0.000000,  0.000000, -0.000562)
   7 O  ( 0.000000,  0.000000,  0.000534)
   8 O  ( 0.000000,  0.000000,  0.028747)
   9 O  ( 0.000000,  0.000000, -0.028583)
  10 O  ( 0.000000,  0.000000, -0.028693)
  11 O  ( 0.000000,  0.000000,  0.028654)
  12 Mn ( 0.000000,  0.000000,  4.448155)
  13 Mn ( 0.000000,  0.000000, -4.448218)
  14 Mn ( 0.000000,  0.000000, -4.447576)
  15 Mn ( 0.000000,  0.000000,  4.447497)
  16 P  ( 0.000000,  0.000000,  0.001570)
  17 P  ( 0.000000,  0.000000, -0.001554)
  18 P  ( 0.000000,  0.000000, -0.001599)
  19 P  ( 0.000000,  0.000000,  0.001532)
  20 O  ( 0.000000,  0.000000,  0.025290)
  21 O  ( 0.000000,  0.000000, -0.025348)
  22 O  ( 0.000000,  0.000000, -0.025280)
  23 O  ( 0.000000,  0.000000,  0.025341)
  24 Li ( 0.000000,  0.000000, -0.000000)
  25 Li ( 0.000000,  0.000000,  0.000003)
  26 Li ( 0.000000,  0.000000,  0.000000)
  27 Li ( 0.000000,  0.000000, -0.000004)

Energy contributions relative to reference atoms: (reference = -196157.275402)

Kinetic:       +217.087395
Potential:     -195.036081
External:        +0.000000
XC:            -250.320328
Entropy (-ST):   -0.000000
Local:           +2.041647
--------------------------
Free energy:   -226.227367
Extrapolated:  -226.227367

Spin contamination: 9.559608 electrons
Showing only first 2 kpts
                      Up                     Down
 Kpt  Band  Eigenvalues  Occupancy  Eigenvalues  Occupancy
  0    88      5.11274    0.00694      5.10899    0.00694
  0    89      5.13824    0.00694      5.13773    0.00694
  0    90      7.28935    0.00000      7.28980    0.00000
  0    91      7.30983    0.00000      7.31017    0.00000

  1    88      5.13866    0.00694      5.13476    0.00694
  1    89      5.16847    0.00694      5.16822    0.00694
  1    90      7.23169    0.00000      7.23217    0.00000
  1    91      7.24943    0.00000      7.24779    0.00000


Fermi level: 6.64080

Gap: 1.970 eV
Transition (v -> c):
  (s=0, k=93, n=89, [0.08, 0.42, -0.12]) -> (s=0, k=85, n=90, [0.08, 0.08, -0.12])
Writing to born-0.01-2x+.gpw (mode='all')

Timing:                              incl.     excl.
-----------------------------------------------------------
Hamiltonian:                         0.416     0.003   0.0% |
 Atomic:                             0.061     0.061   0.0% |
  XC Correction:                     0.000     0.000   0.0% |
 Calculate atomic Hamiltonians:      0.183     0.183   0.0% |
 Communicate:                        0.001     0.001   0.0% |
 Initialize Hamiltonian:             0.000     0.000   0.0% |
 Poisson:                            0.002     0.002   0.0% |
 XC 3D grid:                         0.167     0.167   0.0% |
LCAO initialization:               131.523     0.678   0.0% |
 LCAO eigensolver:                  33.931     0.002   0.0% |
  Calculate projections:             0.056     0.056   0.0% |
  DenseAtomicCorrection:             0.083     0.083   0.0% |
  Distribute overlap matrix:         0.231     0.231   0.0% |
  Orbital Layouts:                   0.362     0.362   0.0% |
  Potential matrix:                 33.109    33.109   0.6% |
  Sum over cells:                    0.088     0.088   0.0% |
 LCAO to grid:                      94.646    94.646   1.6% ||
 Set positions (LCAO WFS):           2.269     0.346   0.0% |
  Basic WFS set positions:           0.001     0.001   0.0% |
  Basis functions set positions:     0.000     0.000   0.0% |
  P tci:                             1.061     1.061   0.0% |
  ST tci:                            0.655     0.655   0.0% |
  mktci:                             0.205     0.205   0.0% |
PWDescriptor:                        0.025     0.025   0.0% |
SCF-cycle:                        2546.050    12.574   0.2% |
 Davidson:                        2089.701   681.923  11.4% |----|
  Apply H:                         145.815   141.406   2.4% ||
   HMM T:                            4.409     4.409   0.1% |
  Subspace diag:                   308.339     0.173   0.0% |
   calc_h_matrix:                  199.636    55.352   0.9% |
    Apply H:                       144.284   140.032   2.3% ||
     HMM T:                          4.252     4.252   0.1% |
   diagonalize:                      6.818     6.818   0.1% |
   rotate_psi:                     101.711   101.711   1.7% ||
  calc. matrices:                  653.436   370.347   6.2% |-|
   Apply H:                        283.089   275.007   4.6% |-|
    HMM T:                           8.082     8.082   0.1% |
  diagonalize:                      93.289    93.289   1.6% ||
  rotate_psi:                      206.899   206.899   3.5% ||
 Density:                           86.628     0.001   0.0% |
  Atomic density matrices:           1.551     1.551   0.0% |
  Mix:                              13.727    13.727   0.2% |
  Multipole moments:                 0.032     0.032   0.0% |
  Pseudo density:                   71.316    71.315   1.2% |
   Symmetrize density:               0.002     0.002   0.0% |
 Forces:                           329.400   329.400   5.5% |-|
 Hamiltonian:                       23.338     0.131   0.0% |
  Atomic:                            3.015     3.014   0.1% |
   XC Correction:                    0.000     0.000   0.0% |
  Calculate atomic Hamiltonians:    10.156    10.156   0.2% |
  Communicate:                       0.099     0.099   0.0% |
  Poisson:                           0.093     0.093   0.0% |
  XC 3D grid:                        9.845     9.845   0.2% |
 Orthonormalize:                     4.409     0.004   0.0% |
  calc_s_matrix:                     0.524     0.524   0.0% |
  inverse-cholesky:                  0.054     0.054   0.0% |
  projections:                       2.894     2.894   0.0% |
  rotate_psi_s:                      0.934     0.934   0.0% |
Set symmetry:                        0.000     0.000   0.0% |
Other:                            3287.593  3287.593  55.1% |---------------------|
-----------------------------------------------------------
Total:                                      5965.607 100.0%

Memory usage: 12.30 GiB
Date: Sun Mar 21 16:57:50 2021
