
  ___ ___ ___ _ _ _  
 |   |   |_  | | | | 
 | | | | | . | | | | 
 |__ |  _|___|_____|  21.1.1b1
 |___|_|             

User:   madkru@i009.nifl.fysik.dtu.dk
Date:   Fri Apr  2 10:46:23 2021
Arch:   x86_64
Pid:    31381
Python: 3.8.6
gpaw:   /home/niflheim/madkru/venv_madkru/gpaw/gpaw (e6f0d78a31)
_gpaw:  /home/niflheim/madkru/venv_madkru/gpaw/build/lib.linux-x86_64-ivybridge-3.8/
        _gpaw.cpython-38-x86_64-linux-gnu.so (e6f0d78a31)
ase:    /home/niflheim/madkru/venv_madkru/ase/ase (version 3.22.0b1-4d5a73cb29)
numpy:  /home/modules/software/SciPy-bundle/2020.11-foss-2020b/lib/python3.8/site-packages/numpy (version 1.19.4)
scipy:  /home/modules/software/SciPy-bundle/2020.11-foss-2020b/lib/python3.8/site-packages/scipy (version 1.5.4)
libxc:  4.3.4
units:  Angstrom and eV
cores: 64
OpenMP: False
OMP_NUM_THREADS: 1

Input parameters:
  convergence: {bands: occupied,
                density: 0.0001,
                eigenstates: 4e-08,
                energy: 0.0005,
                forces: 1e-06}
  kpts: [6 6 4]
  maxiter: 1000
  mode: {ecut: 600.0,
         gammacentered: False,
         name: pw}
  occupations: {fixmagmom: False,
                name: fermi-dirac,
                width: 0.001}
  symmetry: {point_group: False,
             time_reversal: False}

System changes: positions, numbers, cell, pbc, initial_charges, initial_magmoms 

Initialize ...

O-setup:
  name: Oxygen
  id: 9b9d51c344dea68c822856295a461509
  Z: 8.0
  valence: 6
  core: 2
  charge: 0.0
  file: /home/modules/software/GPAW-setups/0.9.20000/O.LDA.gz
  compensation charges: gauss, rc=0.21, lmax=2
  cutoffs: 1.17(filt), 0.83(core),
  valence states:
                energy  radius
    2s(2.00)   -23.752   0.688
    2p(4.00)    -9.195   0.598
    *s           3.459   0.688
    *p          18.016   0.598
    *d           0.000   0.619

  Using partial waves for O as LCAO basis

Mn-setup:
  name: Manganese
  id: 0d715a8018be061a6e9ea6f2d364ac92
  Z: 25.0
  valence: 15
  core: 10
  charge: 0.0
  file: /home/modules/software/GPAW-setups/0.9.20000/Mn.LDA.gz
  compensation charges: gauss, rc=0.38, lmax=2
  cutoffs: 2.14(filt), 0.86(core),
  valence states:
                energy  radius
    3s(2.00)   -85.387   1.275
    4s(2.00)    -5.282   1.275
    3p(6.00)   -54.493   1.281
    4p(0.00)    -1.471   1.281
    3d(5.00)    -7.009   1.138
    *d          20.203   1.138

  Using partial waves for Mn as LCAO basis

P-setup:
  name: Phosphorus
  id: a5561c299094968922a179ab894d2e2d
  Z: 15.0
  valence: 5
  core: 10
  charge: 0.0
  file: /home/modules/software/GPAW-setups/0.9.20000/P.LDA.gz
  compensation charges: gauss, rc=0.30, lmax=2
  cutoffs: 1.69(filt), 1.81(core),
  valence states:
                energy  radius
    3s(2.00)   -14.015   0.953
    3p(3.00)    -5.596   0.953
    *s          13.197   0.953
    *p          21.615   0.953
    *d           0.000   0.953

  Using partial waves for P as LCAO basis

Li-setup:
  name: Lithium
  id: b73562207f97a71b6967473b66fe8b65
  Z: 3.0
  valence: 1
  core: 2
  charge: 0.0
  file: /home/modules/software/GPAW-setups/0.9.20000/Li.LDA.gz
  compensation charges: gauss, rc=0.33, lmax=2
  cutoffs: 1.91(filt), 2.55(core),
  valence states:
                energy  radius
    2s(1.00)    -2.874   1.058
    2p(0.00)    -1.126   1.058
    *s          24.338   1.058

  Using partial waves for Li as LCAO basis

Reference energy: -196157.275402

Spin-polarized calculation.
Magnetic moment: 0.000000

Convergence criteria:
  Maximum total energy change: 0.0005 eV / electron
  Maximum integral of absolute density change: 0.0001 electrons
  Maximum integral of absolute eigenstate change: 4e-08 eV^2
  Maximum change in atomic force: 1e-06 eV / Ang
  Maximum number of iterations: 1000

Symmetries present (total): 1

  ( 1  0  0)
  ( 0  1  0)
  ( 0  0  1)

144 k-points: 6 x 6 x 4 Monkhorst-Pack grid
144 k-points in the irreducible part of the Brillouin zone
       k-points in crystal coordinates                weights
   0:    -0.41666667   -0.41666667   -0.37500000          1/144
   1:    -0.41666667   -0.41666667   -0.12500000          1/144
   2:    -0.41666667   -0.41666667    0.12500000          1/144
   3:    -0.41666667   -0.41666667    0.37500000          1/144
   4:    -0.41666667   -0.25000000   -0.37500000          1/144
   5:    -0.41666667   -0.25000000   -0.12500000          1/144
   6:    -0.41666667   -0.25000000    0.12500000          1/144
   7:    -0.41666667   -0.25000000    0.37500000          1/144
   8:    -0.41666667   -0.08333333   -0.37500000          1/144
   9:    -0.41666667   -0.08333333   -0.12500000          1/144
          ...
 143:     0.41666667    0.41666667    0.37500000          1/144

Wave functions: Plane wave expansion
  Cutoff energy: 600.000 eV
  Number of coefficients (min, max): 10068, 10125
  Pulay-stress correction: 0.000000 eV/Ang^3 (de/decut=0.000000)
  Using FFTW library
  ScaLapack parameters: grid=1x1, blocksize=None
  Wavefunction extrapolation:
    Improved wavefunction reuse through dual PAW basis 

  Fermi-Dirac: width=0.0010 eV

Eigensolver
   Davidson(niter=2) 

Densities:
  Coarse grid: 60*35*27 grid
  Fine grid: 120*70*54 grid
  Total Charge: 0.000000 

Density mixing:
  Method: difference
  Backend: pulay
  Linear mixing parameter: 0.05
  Mixing with 5 old densities
  Damping of long wave oscillations: 50 

Hamiltonian:
  XC and Coulomb potentials evaluated on a 120*70*54 grid
  Using the LDA Exchange-Correlation functional
 

Memory estimate:
  Process memory now: 12838.76 MiB
  Calculator: 354.82 MiB
    Density: 10.06 MiB
      Arrays: 3.79 MiB
      Localized functions: 4.71 MiB
      Mixer: 1.56 MiB
    Hamiltonian: 2.95 MiB
      Arrays: 2.82 MiB
      XC: 0.00 MiB
      Poisson: 0.00 MiB
      vbar: 0.14 MiB
    Wavefunctions: 341.80 MiB
      Arrays psit_nG: 311.46 MiB
      Eigensolver: 19.99 MiB
      Projections: 2.71 MiB
      Projectors: 4.87 MiB
      PW-descriptor: 2.77 MiB

Total number of cores used: 64
Parallelization over k-points: 16
Domain decomposition: 2 x 2 x 1

Number of atoms: 28
Number of atomic orbitals: 148
Number of bands in calculation: 112
Number of valence electrons: 180
Bands to converge: occupied

... initialized

Initializing position-dependent things.

Density initialized from atomic densities
Creating initial wave functions:
  112 bands from LCAO basis set

     .-------------------------.  
    /|         OP              |  
   / |O            O        O  |  
  /  |       O            O  P |  
 *   |O    Mn      O           |  
 |   |          OLi          O |  
 |   .P-O--------------Mn------.  
 |  /          Li    O  Mn  O /   
 | /Li O           PO        /    
 |/       Mn                /     
 *Li-----------------------*      

Positions:
   0 O     -1.360678   -2.541161   -1.202221    ( 0.0000,  0.0000,  0.0000)
   1 O     -3.121941    2.976855    1.167242    ( 0.0000,  0.0000,  0.0000)
   2 O      2.107533    0.508090    1.540712    ( 0.0000,  0.0000,  0.0000)
   3 O      3.869373   -0.072395   -0.828750    ( 0.0000,  0.0000,  0.0000)
   4 O      2.107821    2.976875    1.540792    ( 0.0000,  0.0000,  0.0000)
   5 O      3.869084   -2.541141   -0.828671    ( 0.0000,  0.0000,  0.0000)
   6 O     -1.360390   -0.072375   -1.202141    ( 0.0000,  0.0000,  0.0000)
   7 O     -3.122230    0.508109    1.167321    ( 0.0000,  0.0000,  0.0000)
   8 O     -4.413461   -1.306992   -0.794251    ( 0.0000,  0.0000,  0.0000)
   9 O     -0.069585    1.742707    1.575662    ( 0.0000,  0.0000,  0.0000)
  10 O      5.160604    1.742707    1.132822    ( 0.0000,  0.0000,  0.0000)
  11 O      0.816728   -1.306992   -1.237091    ( 0.0000,  0.0000,  0.0000)
  12 Mn    -2.570809   -1.307302    0.247161    ( 0.0000,  0.0000,  1.0000)
  13 Mn    -1.912021    1.743016   -2.122906    ( 0.0000,  0.0000, -1.0000)
  14 Mn     3.317952    1.743017    0.091411    ( 0.0000,  0.0000, -1.0000)
  15 Mn     2.659164   -1.307302    2.461478    ( 0.0000,  0.0000,  1.0000)
  16 P     -0.620664   -1.306816   -1.828465    ( 0.0000,  0.0000,  0.0000)
  17 P     -3.862097    1.742530    0.541238    ( 0.0000,  0.0000,  0.0000)
  18 P      1.367807    1.742530    2.167036    ( 0.0000,  0.0000,  0.0000)
  19 P      4.609240   -1.306816   -0.202666    ( 0.0000,  0.0000,  0.0000)
  20 O     -0.646437   -1.306845    1.374751    ( 0.0000,  0.0000,  0.0000)
  21 O     -3.836504    1.742559   -0.995565    ( 0.0000,  0.0000,  0.0000)
  22 O      1.393580    1.742559   -1.036179    ( 0.0000,  0.0000,  0.0000)
  23 O      4.583647   -1.306845    1.334136    ( 0.0000,  0.0000,  0.0000)
  24 Li    -4.856429   -2.832143   -2.200714    ( 0.0000,  0.0000,  0.0000)
  25 Li     0.373571   -2.832143    0.169286    ( 0.0000,  0.0000,  0.0000)
  26 Li    -4.856429    0.217857   -2.210714    ( 0.0000,  0.0000,  0.0000)
  27 Li     0.373571    0.217857    0.169286    ( 0.0000,  0.0000,  0.0000)

Unit cell:
           periodic     x           y           z      points  spacing
  1. axis:    yes   10.460000    0.000000    0.000000    60     0.1743
  2. axis:    yes    0.000000    6.100000    0.000000    35     0.1743
  3. axis:    yes    0.000000    0.000000    4.740000    27     0.1756

  Lengths:  10.460000   6.100000   4.740000
  Angles:   90.000000  90.000000  90.000000

Effective grid spacing dv^(1/3) = 0.1747

                     log10-error:           total        iterations:
           time      wfs    density  force  energy       poisson  magmom
iter:   1  10:47:52                       -231.920310             +0.0000
iter:   2  10:48:13  -0.55  -0.94         -231.730953             +0.0058
iter:   3  10:48:34  -0.72  -0.98         -220.584866             +0.0072
iter:   4  10:48:54  -0.96  -1.20         -218.866262             +0.0024
iter:   5  10:49:15  -1.94  -1.36         -221.227949             +0.0015
iter:   6  10:49:36  -1.98  -1.50         -219.959991             +0.0008
iter:   7  10:49:57  -2.22  -1.68         -222.774787             +0.1062
iter:   8  10:50:17  -2.74  -1.89         -219.782972             +0.1435
iter:   9  10:50:38  -2.23  -1.94         -224.644078             +0.6468
iter:  10  10:50:59  -2.26  -1.88         -227.043507             +0.1127
iter:  11  10:51:20  -2.88  -1.85         -227.360535             -0.0110
iter:  12  10:51:40  -2.52  -1.80         -227.044528             -0.0032
iter:  13  10:52:01  -1.78  -1.89         -227.235621             -0.0022
iter:  14  10:52:22  -2.66  -2.06         -226.799613             -0.0010
iter:  15  10:52:43  -2.97  -2.09         -226.580161             +0.0000
iter:  16  10:53:03  -1.99  -2.11         -226.497978             +0.0001
iter:  17  10:53:24  -2.42  -2.16         -226.744251             +0.0000
iter:  18  10:53:45  -2.22  -2.25         -226.298670             +0.0001
iter:  19  10:54:06  -3.41  -2.52         -226.326444             +0.0000
iter:  20  10:54:26  -2.46  -2.56         -226.471784             +0.0000
iter:  21  10:54:47  -2.42  -2.56         -226.222677             +0.0000
iter:  22  10:55:08  -3.45  -3.01         -226.228698             +0.0000
iter:  23  10:55:29  -3.99  -3.02         -226.232682             -0.0000
iter:  24  10:55:49  -4.48  -3.15         -226.230820             -0.0000
iter:  25  10:56:10  -5.15  -3.36         -226.229592             -0.0000
iter:  26  10:56:31  -4.64  -3.38         -226.228140             -0.0000
iter:  27  10:56:52  -5.38  -3.58         -226.227976             -0.0000
iter:  28  10:57:12  -5.52  -3.65         -226.227914             -0.0000
iter:  29  10:57:33  -5.94  -3.79         -226.227940             -0.0000
iter:  30  10:57:54  -5.78  -3.81         -226.228015             +0.0000
iter:  31  10:58:15  -6.26  -3.89         -226.228037             +0.0000
iter:  32  10:58:35  -5.67  -3.97         -226.227916             +0.0000
iter:  33  10:58:56  -6.51  -4.12         -226.227919             +0.0000
iter:  34  10:59:17  -6.54  -4.17         -226.227921             +0.0000
iter:  35  10:59:38  -6.69  -4.31         -226.227917             +0.0000
iter:  36  11:00:04  -7.75  -4.44         -226.227915             +0.0000
iter:  37  11:00:24  -7.30  -4.47         -226.227915             -0.0000
iter:  38  11:00:45  -7.27  -4.60         -226.227920             -0.0000
iter:  39  11:01:06  -6.79  -4.71         -226.227913             +0.0000
iter:  40  11:01:26  -7.08  -4.83         -226.227915             -0.0000
iter:  41  11:01:52  -7.42  -4.83    -2.08-226.227912             +0.0000
iter:  42  11:02:18  -8.45  -5.12    -3.17-226.227912             +0.0000
iter:  43  11:02:44  -9.21  -5.22    -3.88-226.227912             -0.0000
iter:  44  11:03:11  -8.28  -5.26    -2.81-226.227912             -0.0000
iter:  45  11:03:36  -9.09  -5.58    -3.39-226.227912             -0.0000
iter:  46  11:04:02 -10.07  -5.85    -4.14-226.227912             -0.0000
iter:  47  11:04:28  -9.17  -5.88    -3.36-226.227912             -0.0000
iter:  48  11:04:54 -10.39  -6.04    -3.75-226.227912             -0.0000
iter:  49  11:05:20 -10.52  -6.15    -4.30-226.227912             -0.0000
iter:  50  11:05:46 -10.87  -6.26    -4.15-226.227912             -0.0000
iter:  51  11:06:12 -10.44  -6.32    -4.30-226.227912             -0.0000
iter:  52  11:06:38 -10.84  -6.39    -4.27-226.227912             -0.0000
iter:  53  11:07:04 -10.62  -6.45    -4.09-226.227912             -0.0000
iter:  54  11:07:30 -10.93  -6.62    -4.67-226.227912             -0.0000
iter:  55  11:07:55 -12.16  -6.70    -5.21-226.227912             -0.0000
iter:  56  11:08:21 -11.88  -6.75    -4.75-226.227912             -0.0000
iter:  57  11:08:47 -12.01  -6.84    -4.72-226.227912             -0.0000
iter:  58  11:09:13 -12.15  -6.96    -4.89-226.227912             -0.0000
iter:  59  11:09:39 -12.18  -7.15    -4.83-226.227912             -0.0000
iter:  60  11:10:05 -12.02  -7.38    -4.89-226.227912             -0.0000
iter:  61  11:10:30 -12.93  -7.75    -5.75-226.227912             -0.0000
iter:  62  11:10:56 -13.57  -7.83    -5.84-226.227912             -0.0000
iter:  63  11:11:22 -13.57  -7.89    -5.59-226.227912             -0.0000
iter:  64  11:11:48 -13.56  -8.03    -5.66-226.227912             -0.0000
iter:  65  11:12:14 -14.88  -8.21    -6.33-226.227912             -0.0000

Converged after 65 iterations.

Dipole moment: (10.671580, 1.412291, -6.275372) |e|*Ang

Total magnetic moment: (0.000000, 0.000000, -0.000000)
Local magnetic moments:
   0 O  ( 0.000000,  0.000000, -0.000519)
   1 O  ( 0.000000,  0.000000,  0.000529)
   2 O  ( 0.000000,  0.000000,  0.000535)
   3 O  ( 0.000000,  0.000000, -0.000549)
   4 O  ( 0.000000,  0.000000,  0.000517)
   5 O  ( 0.000000,  0.000000, -0.000538)
   6 O  ( 0.000000,  0.000000, -0.000541)
   7 O  ( 0.000000,  0.000000,  0.000558)
   8 O  ( 0.000000,  0.000000,  0.028733)
   9 O  ( 0.000000,  0.000000, -0.028699)
  10 O  ( 0.000000,  0.000000, -0.028652)
  11 O  ( 0.000000,  0.000000,  0.028704)
  12 Mn ( 0.000000,  0.000000,  4.448150)
  13 Mn ( 0.000000,  0.000000, -4.448261)
  14 Mn ( 0.000000,  0.000000, -4.448173)
  15 Mn ( 0.000000,  0.000000,  4.448221)
  16 P  ( 0.000000,  0.000000,  0.001558)
  17 P  ( 0.000000,  0.000000, -0.001544)
  18 P  ( 0.000000,  0.000000, -0.001557)
  19 P  ( 0.000000,  0.000000,  0.001543)
  20 O  ( 0.000000,  0.000000,  0.025309)
  21 O  ( 0.000000,  0.000000, -0.025325)
  22 O  ( 0.000000,  0.000000, -0.025321)
  23 O  ( 0.000000,  0.000000,  0.025287)
  24 Li ( 0.000000,  0.000000,  0.000001)
  25 Li ( 0.000000,  0.000000,  0.000000)
  26 Li ( 0.000000,  0.000000, -0.000008)
  27 Li ( 0.000000,  0.000000, -0.000000)

Energy contributions relative to reference atoms: (reference = -196157.275402)

Kinetic:       +217.352826
Potential:     -195.237696
External:        +0.000000
XC:            -250.384190
Entropy (-ST):   -0.000000
Local:           +2.041149
--------------------------
Free energy:   -226.227912
Extrapolated:  -226.227912

Spin contamination: 9.560411 electrons
Showing only first 2 kpts
                      Up                     Down
 Kpt  Band  Eigenvalues  Occupancy  Eigenvalues  Occupancy
  0    88      5.10993    1.00000      5.10985    1.00000
  0    89      5.13443    1.00000      5.13431    1.00000
  0    90      7.28864    0.00000      7.28865    0.00000
  0    91      7.30636    0.00000      7.30634    0.00000

  1    88      5.13563    1.00000      5.13560    1.00000
  1    89      5.16493    1.00000      5.16472    1.00000
  1    90      7.23138    0.00000      7.23149    0.00000
  1    91      7.24357    0.00000      7.24374    0.00000


Fermi level: 6.31685

Gap: 1.972 eV
Transition (v -> c):
  (s=0, k=69, n=89, [-0.08, 0.42, -0.12]) -> (s=0, k=85, n=90, [0.08, 0.08, -0.12])
Writing to born-0.01-26z-.gpw (mode='all')

Timing:                              incl.     excl.
-----------------------------------------------------------
Hamiltonian:                         0.235     0.003   0.0% |
 Atomic:                             0.067     0.067   0.0% |
  XC Correction:                     0.000     0.000   0.0% |
 Calculate atomic Hamiltonians:      0.081     0.081   0.0% |
 Communicate:                        0.000     0.000   0.0% |
 Initialize Hamiltonian:             0.000     0.000   0.0% |
 Poisson:                            0.001     0.001   0.0% |
 XC 3D grid:                         0.083     0.083   0.0% |
LCAO initialization:                65.868     0.650   0.0% |
 LCAO eigensolver:                  16.673     0.002   0.0% |
  Calculate projections:             0.029     0.029   0.0% |
  DenseAtomicCorrection:             0.045     0.045   0.0% |
  Distribute overlap matrix:         0.031     0.031   0.0% |
  Orbital Layouts:                   0.261     0.261   0.0% |
  Potential matrix:                 16.212    16.212   0.4% |
  Sum over cells:                    0.092     0.092   0.0% |
 LCAO to grid:                      47.285    47.285   1.3% ||
 Set positions (LCAO WFS):           1.260     0.178   0.0% |
  Basic WFS set positions:           0.001     0.001   0.0% |
  Basis functions set positions:     0.000     0.000   0.0% |
  P tci:                             0.507     0.507   0.0% |
  ST tci:                            0.361     0.361   0.0% |
  mktci:                             0.212     0.212   0.0% |
PWDescriptor:                        0.023     0.023   0.0% |
SCF-cycle:                        1483.558     1.290   0.0% |
 Davidson:                        1281.709   409.722  11.2% |---|
  Apply H:                          84.633    82.188   2.2% ||
   HMM T:                            2.446     2.446   0.1% |
  Subspace diag:                   184.044     0.186   0.0% |
   calc_h_matrix:                  116.743    32.354   0.9% |
    Apply H:                        84.389    82.043   2.2% ||
     HMM T:                          2.346     2.346   0.1% |
   diagonalize:                      6.640     6.640   0.2% |
   rotate_psi:                      60.475    60.475   1.7% ||
  calc. matrices:                  384.287   217.543   5.9% |-|
   Apply H:                        166.744   162.101   4.4% |-|
    HMM T:                           4.643     4.643   0.1% |
  diagonalize:                      97.736    97.736   2.7% ||
  rotate_psi:                      121.287   121.287   3.3% ||
 Density:                           49.301     0.002   0.0% |
  Atomic density matrices:           0.839     0.839   0.0% |
  Mix:                               7.957     7.957   0.2% |
  Multipole moments:                 0.023     0.023   0.0% |
  Pseudo density:                   40.480    40.478   1.1% |
   Symmetrize density:               0.002     0.002   0.0% |
 Forces:                           134.655   134.655   3.7% ||
 Hamiltonian:                       14.341     0.135   0.0% |
  Atomic:                            3.436     3.436   0.1% |
   XC Correction:                    0.000     0.000   0.0% |
  Calculate atomic Hamiltonians:     5.300     5.300   0.1% |
  Communicate:                       0.016     0.016   0.0% |
  Poisson:                           0.049     0.049   0.0% |
  XC 3D grid:                        5.406     5.406   0.1% |
 Orthonormalize:                     2.263     0.003   0.0% |
  calc_s_matrix:                     0.265     0.265   0.0% |
  inverse-cholesky:                  0.039     0.039   0.0% |
  projections:                       1.475     1.475   0.0% |
  rotate_psi_s:                      0.480     0.480   0.0% |
Set symmetry:                        0.000     0.000   0.0% |
Other:                            2106.578  2106.578  57.6% |----------------------|
-----------------------------------------------------------
Total:                                      3656.262 100.0%

Memory usage: 12.58 GiB
Date: Fri Apr  2 11:47:19 2021
