
  ___ ___ ___ _ _ _  
 |   |   |_  | | | | 
 | | | | | . | | | | 
 |__ |  _|___|_____|  21.1.1b1
 |___|_|             

User:   madkru@i009.nifl.fysik.dtu.dk
Date:   Thu Apr  1 23:28:41 2021
Arch:   x86_64
Pid:    31381
Python: 3.8.6
gpaw:   /home/niflheim/madkru/venv_madkru/gpaw/gpaw (e6f0d78a31)
_gpaw:  /home/niflheim/madkru/venv_madkru/gpaw/build/lib.linux-x86_64-ivybridge-3.8/
        _gpaw.cpython-38-x86_64-linux-gnu.so (e6f0d78a31)
ase:    /home/niflheim/madkru/venv_madkru/ase/ase (version 3.22.0b1-4d5a73cb29)
numpy:  /home/modules/software/SciPy-bundle/2020.11-foss-2020b/lib/python3.8/site-packages/numpy (version 1.19.4)
scipy:  /home/modules/software/SciPy-bundle/2020.11-foss-2020b/lib/python3.8/site-packages/scipy (version 1.5.4)
libxc:  4.3.4
units:  Angstrom and eV
cores: 64
OpenMP: False
OMP_NUM_THREADS: 1

Input parameters:
  convergence: {bands: occupied,
                density: 0.0001,
                eigenstates: 4e-08,
                energy: 0.0005,
                forces: 1e-06}
  kpts: [6 6 4]
  maxiter: 1000
  mode: {ecut: 600.0,
         gammacentered: False,
         name: pw}
  occupations: {fixmagmom: False,
                name: fermi-dirac,
                width: 0.001}
  symmetry: {point_group: False,
             time_reversal: False}

System changes: positions, numbers, cell, pbc, initial_charges, initial_magmoms 

Initialize ...

O-setup:
  name: Oxygen
  id: 9b9d51c344dea68c822856295a461509
  Z: 8.0
  valence: 6
  core: 2
  charge: 0.0
  file: /home/modules/software/GPAW-setups/0.9.20000/O.LDA.gz
  compensation charges: gauss, rc=0.21, lmax=2
  cutoffs: 1.17(filt), 0.83(core),
  valence states:
                energy  radius
    2s(2.00)   -23.752   0.688
    2p(4.00)    -9.195   0.598
    *s           3.459   0.688
    *p          18.016   0.598
    *d           0.000   0.619

  Using partial waves for O as LCAO basis

Mn-setup:
  name: Manganese
  id: 0d715a8018be061a6e9ea6f2d364ac92
  Z: 25.0
  valence: 15
  core: 10
  charge: 0.0
  file: /home/modules/software/GPAW-setups/0.9.20000/Mn.LDA.gz
  compensation charges: gauss, rc=0.38, lmax=2
  cutoffs: 2.14(filt), 0.86(core),
  valence states:
                energy  radius
    3s(2.00)   -85.387   1.275
    4s(2.00)    -5.282   1.275
    3p(6.00)   -54.493   1.281
    4p(0.00)    -1.471   1.281
    3d(5.00)    -7.009   1.138
    *d          20.203   1.138

  Using partial waves for Mn as LCAO basis

P-setup:
  name: Phosphorus
  id: a5561c299094968922a179ab894d2e2d
  Z: 15.0
  valence: 5
  core: 10
  charge: 0.0
  file: /home/modules/software/GPAW-setups/0.9.20000/P.LDA.gz
  compensation charges: gauss, rc=0.30, lmax=2
  cutoffs: 1.69(filt), 1.81(core),
  valence states:
                energy  radius
    3s(2.00)   -14.015   0.953
    3p(3.00)    -5.596   0.953
    *s          13.197   0.953
    *p          21.615   0.953
    *d           0.000   0.953

  Using partial waves for P as LCAO basis

Li-setup:
  name: Lithium
  id: b73562207f97a71b6967473b66fe8b65
  Z: 3.0
  valence: 1
  core: 2
  charge: 0.0
  file: /home/modules/software/GPAW-setups/0.9.20000/Li.LDA.gz
  compensation charges: gauss, rc=0.33, lmax=2
  cutoffs: 1.91(filt), 2.55(core),
  valence states:
                energy  radius
    2s(1.00)    -2.874   1.058
    2p(0.00)    -1.126   1.058
    *s          24.338   1.058

  Using partial waves for Li as LCAO basis

Reference energy: -196157.275402

Spin-polarized calculation.
Magnetic moment: 0.000000

Convergence criteria:
  Maximum total energy change: 0.0005 eV / electron
  Maximum integral of absolute density change: 0.0001 electrons
  Maximum integral of absolute eigenstate change: 4e-08 eV^2
  Maximum change in atomic force: 1e-06 eV / Ang
  Maximum number of iterations: 1000

Symmetries present (total): 1

  ( 1  0  0)
  ( 0  1  0)
  ( 0  0  1)

144 k-points: 6 x 6 x 4 Monkhorst-Pack grid
144 k-points in the irreducible part of the Brillouin zone
       k-points in crystal coordinates                weights
   0:    -0.41666667   -0.41666667   -0.37500000          1/144
   1:    -0.41666667   -0.41666667   -0.12500000          1/144
   2:    -0.41666667   -0.41666667    0.12500000          1/144
   3:    -0.41666667   -0.41666667    0.37500000          1/144
   4:    -0.41666667   -0.25000000   -0.37500000          1/144
   5:    -0.41666667   -0.25000000   -0.12500000          1/144
   6:    -0.41666667   -0.25000000    0.12500000          1/144
   7:    -0.41666667   -0.25000000    0.37500000          1/144
   8:    -0.41666667   -0.08333333   -0.37500000          1/144
   9:    -0.41666667   -0.08333333   -0.12500000          1/144
          ...
 143:     0.41666667    0.41666667    0.37500000          1/144

Wave functions: Plane wave expansion
  Cutoff energy: 600.000 eV
  Number of coefficients (min, max): 10068, 10125
  Pulay-stress correction: 0.000000 eV/Ang^3 (de/decut=0.000000)
  Using FFTW library
  ScaLapack parameters: grid=1x1, blocksize=None
  Wavefunction extrapolation:
    Improved wavefunction reuse through dual PAW basis 

  Fermi-Dirac: width=0.0010 eV

Eigensolver
   Davidson(niter=2) 

Densities:
  Coarse grid: 60*35*27 grid
  Fine grid: 120*70*54 grid
  Total Charge: 0.000000 

Density mixing:
  Method: difference
  Backend: pulay
  Linear mixing parameter: 0.05
  Mixing with 5 old densities
  Damping of long wave oscillations: 50 

Hamiltonian:
  XC and Coulomb potentials evaluated on a 120*70*54 grid
  Using the LDA Exchange-Correlation functional
 

Memory estimate:
  Process memory now: 12286.19 MiB
  Calculator: 354.82 MiB
    Density: 10.06 MiB
      Arrays: 3.79 MiB
      Localized functions: 4.71 MiB
      Mixer: 1.56 MiB
    Hamiltonian: 2.95 MiB
      Arrays: 2.82 MiB
      XC: 0.00 MiB
      Poisson: 0.00 MiB
      vbar: 0.14 MiB
    Wavefunctions: 341.80 MiB
      Arrays psit_nG: 311.46 MiB
      Eigensolver: 19.99 MiB
      Projections: 2.71 MiB
      Projectors: 4.87 MiB
      PW-descriptor: 2.77 MiB

Total number of cores used: 64
Parallelization over k-points: 16
Domain decomposition: 2 x 2 x 1

Number of atoms: 28
Number of atomic orbitals: 148
Number of bands in calculation: 112
Number of valence electrons: 180
Bands to converge: occupied

... initialized

Initializing position-dependent things.

Density initialized from atomic densities
Creating initial wave functions:
  112 bands from LCAO basis set

     .-------------------------.  
    /|         OP              |  
   / |O            O        O  |  
  /  |       O            O  P |  
 *   |O    Mn      O           |  
 |   |          OLi          O |  
 |   .P-O--------------Mn------.  
 |  /          Li    O  Mn  O /   
 | /Li O           PO        /    
 |/       Mn                /     
 *Li-----------------------*      

Positions:
   0 O     -1.360678   -2.541161   -1.202221    ( 0.0000,  0.0000,  0.0000)
   1 O     -3.121941    2.976855    1.167242    ( 0.0000,  0.0000,  0.0000)
   2 O      2.107533    0.508090    1.540712    ( 0.0000,  0.0000,  0.0000)
   3 O      3.869373   -0.072395   -0.828750    ( 0.0000,  0.0000,  0.0000)
   4 O      2.107821    2.976875    1.540792    ( 0.0000,  0.0000,  0.0000)
   5 O      3.869084   -2.541141   -0.828671    ( 0.0000,  0.0000,  0.0000)
   6 O     -1.360390   -0.072375   -1.202141    ( 0.0000,  0.0000,  0.0000)
   7 O     -3.122230    0.508109    1.167321    ( 0.0000,  0.0000,  0.0000)
   8 O     -4.413461   -1.306992   -0.794251    ( 0.0000,  0.0000,  0.0000)
   9 O     -0.069585    1.742707    1.575662    ( 0.0000,  0.0000,  0.0000)
  10 O      5.160604    1.742707    1.132822    ( 0.0000,  0.0000,  0.0000)
  11 O      0.816728   -1.306992   -1.237091    ( 0.0000,  0.0000,  0.0000)
  12 Mn    -2.570809   -1.307302    0.247161    ( 0.0000,  0.0000,  1.0000)
  13 Mn    -1.912021    1.743016   -2.122906    ( 0.0000,  0.0000, -1.0000)
  14 Mn     3.317952    1.743017    0.091411    ( 0.0000,  0.0000, -1.0000)
  15 Mn     2.659164   -1.307302    2.461478    ( 0.0000,  0.0000,  1.0000)
  16 P     -0.620664   -1.306816   -1.828465    ( 0.0000,  0.0000,  0.0000)
  17 P     -3.862097    1.742530    0.541238    ( 0.0000,  0.0000,  0.0000)
  18 P      1.367807    1.742530    2.167036    ( 0.0000,  0.0000,  0.0000)
  19 P      4.609240   -1.306816   -0.202666    ( 0.0000,  0.0000,  0.0000)
  20 O     -0.646437   -1.306845    1.374751    ( 0.0000,  0.0000,  0.0000)
  21 O     -3.836504    1.742559   -0.995565    ( 0.0000,  0.0000,  0.0000)
  22 O      1.393580    1.742559   -1.036179    ( 0.0000,  0.0000,  0.0000)
  23 O      4.583647   -1.316845    1.334136    ( 0.0000,  0.0000,  0.0000)
  24 Li    -4.856429   -2.832143   -2.200714    ( 0.0000,  0.0000,  0.0000)
  25 Li     0.373571   -2.832143    0.169286    ( 0.0000,  0.0000,  0.0000)
  26 Li    -4.856429    0.217857   -2.200714    ( 0.0000,  0.0000,  0.0000)
  27 Li     0.373571    0.217857    0.169286    ( 0.0000,  0.0000,  0.0000)

Unit cell:
           periodic     x           y           z      points  spacing
  1. axis:    yes   10.460000    0.000000    0.000000    60     0.1743
  2. axis:    yes    0.000000    6.100000    0.000000    35     0.1743
  3. axis:    yes    0.000000    0.000000    4.740000    27     0.1756

  Lengths:  10.460000   6.100000   4.740000
  Angles:   90.000000  90.000000  90.000000

Effective grid spacing dv^(1/3) = 0.1747

                     log10-error:           total        iterations:
           time      wfs    density  force  energy       poisson  magmom
iter:   1  23:30:11                       -231.920206             +0.0000
iter:   2  23:30:31  -0.55  -0.94         -231.730835             +0.0052
iter:   3  23:30:52  -0.72  -0.98         -220.584671             +0.0065
iter:   4  23:31:13  -0.96  -1.20         -218.866122             +0.0021
iter:   5  23:31:33  -1.94  -1.36         -221.250618             +0.0014
iter:   6  23:31:54  -1.98  -1.50         -219.966537             +0.0007
iter:   7  23:32:15  -2.21  -1.68         -222.901360             +0.1709
iter:   8  23:32:36  -2.74  -1.89         -219.860563             +0.2350
iter:   9  23:32:56  -2.20  -1.94         -224.947378             +0.6757
iter:  10  23:33:17  -2.25  -1.87         -227.202437             +0.0386
iter:  11  23:33:38  -2.96  -1.84         -227.307107             -0.0135
iter:  12  23:33:58  -3.20  -1.81         -227.203390             -0.0042
iter:  13  23:34:19  -1.38  -1.81         -228.521024             -0.0027
iter:  14  23:34:40  -2.79  -1.87         -227.216190             -0.0013
iter:  15  23:35:01  -2.85  -2.07         -227.065744             -0.0003
iter:  16  23:35:21  -2.85  -2.08         -226.870092             +0.0001
iter:  17  23:35:42  -2.58  -2.14         -226.559249             +0.0001
iter:  18  23:36:03  -2.87  -2.21         -226.328298             +0.0000
iter:  19  23:36:24  -2.77  -2.46         -226.234740             +0.0000
iter:  20  23:36:44  -3.01  -2.65         -226.241989             +0.0000
iter:  21  23:37:05  -3.08  -2.64         -226.235387             -0.0000
iter:  22  23:37:26  -4.32  -2.95         -226.231203             -0.0000
iter:  23  23:37:46  -4.44  -3.20         -226.229142             -0.0000
iter:  24  23:38:07  -4.81  -3.23         -226.228681             -0.0000
iter:  25  23:38:28  -4.16  -3.36         -226.229126             -0.0000
iter:  26  23:38:48  -4.82  -3.28         -226.227977             -0.0000
iter:  27  23:39:09  -5.06  -3.57         -226.227917             -0.0000
iter:  28  23:39:30  -5.60  -3.63         -226.227835             -0.0000
iter:  29  23:39:50  -5.46  -3.77         -226.227822             -0.0000
iter:  30  23:40:11  -5.66  -3.81         -226.227732             -0.0000
iter:  31  23:40:32  -6.68  -4.45         -226.227733             -0.0000
iter:  32  23:40:52  -6.49  -4.47         -226.227735             +0.0000
iter:  33  23:41:18  -7.46  -4.47         -226.227730             +0.0000
iter:  34  23:41:44  -7.54  -4.70    -2.92-226.227729             -0.0000
iter:  35  23:42:10  -7.95  -4.78    -3.03-226.227729             -0.0000
iter:  36  23:42:35  -8.62  -4.86    -2.92-226.227729             -0.0000
iter:  37  23:43:01  -8.63  -4.96    -2.88-226.227729             -0.0000
iter:  38  23:43:27  -9.05  -5.02    -3.65-226.227729             -0.0000
iter:  39  23:43:53  -7.79  -5.04    -2.89-226.227729             -0.0000
iter:  40  23:44:19  -8.84  -5.32    -3.53-226.227729             -0.0000
iter:  41  23:44:44  -9.02  -5.49    -3.62-226.227729             -0.0000
iter:  42  23:45:10  -9.56  -5.64    -3.83-226.227729             -0.0000
iter:  43  23:45:36  -9.50  -5.70    -3.26-226.227729             +0.0000
iter:  44  23:46:02 -10.35  -5.79    -3.96-226.227729             +0.0000
iter:  45  23:46:28  -9.85  -5.83    -3.72-226.227729             +0.0000
iter:  46  23:46:53  -9.44  -5.95    -3.40-226.227729             +0.0000
iter:  47  23:47:19  -9.76  -5.97    -3.46-226.227729             +0.0000
iter:  48  23:47:45 -11.16  -6.15    -4.76-226.227729             +0.0000
iter:  49  23:48:11 -10.26  -6.21    -4.27-226.227729             +0.0000
iter:  50  23:48:37 -10.99  -6.44    -4.11-226.227729             +0.0000
iter:  51  23:49:02 -11.48  -6.51    -4.55-226.227729             +0.0000
iter:  52  23:49:28 -11.49  -6.57    -4.48-226.227729             +0.0000
iter:  53  23:49:54 -11.28  -6.64    -4.66-226.227729             +0.0000
iter:  54  23:50:20 -12.50  -6.70    -5.16-226.227729             +0.0000
iter:  55  23:50:46 -11.79  -6.72    -4.70-226.227729             +0.0000
iter:  56  23:51:12 -12.55  -6.82    -5.24-226.227729             +0.0000
iter:  57  23:51:37 -11.30  -6.85    -4.47-226.227729             +0.0000
iter:  58  23:52:03 -12.26  -7.14    -4.98-226.227729             +0.0000
iter:  59  23:52:29 -12.13  -7.18    -5.06-226.227729             +0.0000
iter:  60  23:52:55 -12.51  -7.27    -4.95-226.227729             +0.0000
iter:  61  23:53:21 -13.26  -7.65    -5.50-226.227729             +0.0000
iter:  62  23:53:46 -13.08  -7.74    -5.37-226.227729             +0.0000
iter:  63  23:54:12 -13.41  -7.81    -5.68-226.227729             +0.0000
iter:  64  23:54:38 -13.76  -7.97    -5.48-226.227729             +0.0000
iter:  65  23:55:04 -14.09  -8.10    -5.85-226.227729             +0.0000
iter:  66  23:55:30 -14.60  -8.37    -6.27-226.227729             +0.0000

Converged after 66 iterations.

Dipole moment: (10.671449, 1.411670, -6.269771) |e|*Ang

Total magnetic moment: (0.000000, 0.000000, 0.000000)
Local magnetic moments:
   0 O  ( 0.000000,  0.000000, -0.000519)
   1 O  ( 0.000000,  0.000000,  0.000528)
   2 O  ( 0.000000,  0.000000,  0.000520)
   3 O  ( 0.000000,  0.000000, -0.000591)
   4 O  ( 0.000000,  0.000000,  0.000535)
   5 O  ( 0.000000,  0.000000, -0.000496)
   6 O  ( 0.000000,  0.000000, -0.000538)
   7 O  ( 0.000000,  0.000000,  0.000559)
   8 O  ( 0.000000,  0.000000,  0.028692)
   9 O  ( 0.000000,  0.000000, -0.028701)
  10 O  ( 0.000000,  0.000000, -0.028693)
  11 O  ( 0.000000,  0.000000,  0.028702)
  12 Mn ( 0.000000,  0.000000,  4.448162)
  13 Mn ( 0.000000,  0.000000, -4.448240)
  14 Mn ( 0.000000,  0.000000, -4.448161)
  15 Mn ( 0.000000,  0.000000,  4.448239)
  16 P  ( 0.000000,  0.000000,  0.001558)
  17 P  ( 0.000000,  0.000000, -0.001543)
  18 P  ( 0.000000,  0.000000, -0.001558)
  19 P  ( 0.000000,  0.000000,  0.001543)
  20 O  ( 0.000000,  0.000000,  0.025315)
  21 O  ( 0.000000,  0.000000, -0.025306)
  22 O  ( 0.000000,  0.000000, -0.025315)
  23 O  ( 0.000000,  0.000000,  0.025307)
  24 Li ( 0.000000,  0.000000,  0.000004)
  25 Li ( 0.000000,  0.000000, -0.000000)
  26 Li ( 0.000000,  0.000000, -0.000004)
  27 Li ( 0.000000,  0.000000,  0.000000)

Energy contributions relative to reference atoms: (reference = -196157.275402)

Kinetic:       +217.349643
Potential:     -195.235098
External:        +0.000000
XC:            -250.383412
Entropy (-ST):   -0.000000
Local:           +2.041138
--------------------------
Free energy:   -226.227729
Extrapolated:  -226.227729

Spin contamination: 9.560411 electrons
Showing only first 2 kpts
                      Up                     Down
 Kpt  Band  Eigenvalues  Occupancy  Eigenvalues  Occupancy
  0    88      5.10975    1.00000      5.10991    1.00000
  0    89      5.13432    1.00000      5.13436    1.00000
  0    90      7.28865    0.00000      7.28862    0.00000
  0    91      7.30637    0.00000      7.30635    0.00000

  1    88      5.13545    1.00000      5.13562    1.00000
  1    89      5.16476    1.00000      5.16482    1.00000
  1    90      7.23145    0.00000      7.23140    0.00000
  1    91      7.24367    0.00000      7.24366    0.00000


Fermi level: 5.33268

Gap: 1.972 eV
Transition (v -> c):
  (s=0, k=50, n=89, [-0.08, -0.42, 0.12]) -> (s=0, k=58, n=90, [-0.08, -0.08, 0.12])
Writing to born-0.01-23y-.gpw (mode='all')

Timing:                              incl.     excl.
-----------------------------------------------------------
Hamiltonian:                         0.255     0.003   0.0% |
 Atomic:                             0.092     0.092   0.0% |
  XC Correction:                     0.000     0.000   0.0% |
 Calculate atomic Hamiltonians:      0.076     0.076   0.0% |
 Communicate:                        0.000     0.000   0.0% |
 Initialize Hamiltonian:             0.000     0.000   0.0% |
 Poisson:                            0.001     0.001   0.0% |
 XC 3D grid:                         0.083     0.083   0.0% |
LCAO initialization:                64.860     0.649   0.0% |
 LCAO eigensolver:                  16.720     0.002   0.0% |
  Calculate projections:             0.029     0.029   0.0% |
  DenseAtomicCorrection:             0.045     0.045   0.0% |
  Distribute overlap matrix:         0.093     0.093   0.0% |
  Orbital Layouts:                   0.262     0.262   0.0% |
  Potential matrix:                 16.204    16.204   0.4% |
  Sum over cells:                    0.086     0.086   0.0% |
 LCAO to grid:                      46.235    46.235   1.2% |
 Set positions (LCAO WFS):           1.256     0.177   0.0% |
  Basic WFS set positions:           0.001     0.001   0.0% |
  Basis functions set positions:     0.000     0.000   0.0% |
  P tci:                             0.507     0.507   0.0% |
  ST tci:                            0.359     0.359   0.0% |
  mktci:                             0.211     0.211   0.0% |
PWDescriptor:                        0.023     0.023   0.0% |
SCF-cycle:                        1542.205     3.274   0.1% |
 Davidson:                        1296.057   415.942  11.1% |---|
  Apply H:                          84.871    82.413   2.2% ||
   HMM T:                            2.458     2.458   0.1% |
  Subspace diag:                   185.247     0.189   0.0% |
   calc_h_matrix:                  117.330    32.803   0.9% |
    Apply H:                        84.528    82.153   2.2% ||
     HMM T:                          2.375     2.375   0.1% |
   diagonalize:                      6.653     6.653   0.2% |
   rotate_psi:                      61.075    61.075   1.6% ||
  calc. matrices:                  388.693   220.615   5.9% |-|
   Apply H:                        168.078   163.304   4.4% |-|
    HMM T:                           4.773     4.773   0.1% |
  diagonalize:                      98.438    98.438   2.6% ||
  rotate_psi:                      122.866   122.866   3.3% ||
 Density:                           49.936     0.002   0.0% |
  Atomic density matrices:           0.859     0.859   0.0% |
  Mix:                               8.194     8.194   0.2% |
  Multipole moments:                 0.023     0.023   0.0% |
  Pseudo density:                   40.859    40.857   1.1% |
   Symmetrize density:               0.002     0.002   0.0% |
 Forces:                           176.095   176.095   4.7% |-|
 Hamiltonian:                       14.592     0.137   0.0% |
  Atomic:                            3.394     3.394   0.1% |
   XC Correction:                    0.000     0.000   0.0% |
  Calculate atomic Hamiltonians:     5.413     5.413   0.1% |
  Communicate:                       0.009     0.009   0.0% |
  Poisson:                           0.049     0.049   0.0% |
  XC 3D grid:                        5.590     5.590   0.1% |
 Orthonormalize:                     2.251     0.003   0.0% |
  calc_s_matrix:                     0.265     0.265   0.0% |
  inverse-cholesky:                  0.041     0.041   0.0% |
  projections:                       1.461     1.461   0.0% |
  rotate_psi_s:                      0.481     0.481   0.0% |
Set symmetry:                        0.000     0.000   0.0% |
Other:                            2127.960  2127.960  57.0% |----------------------|
-----------------------------------------------------------
Total:                                      3735.302 100.0%

Memory usage: 12.04 GiB
Date: Fri Apr  2 00:30:57 2021
