
  ___ ___ ___ _ _ _  
 |   |   |_  | | | | 
 | | | | | . | | | | 
 |__ |  _|___|_____|  20.10.1b1
 |___|_|             

User:   madkru@g046.nifl.fysik.dtu.dk
Date:   Wed Mar 17 16:38:15 2021
Arch:   x86_64
Pid:    34217
Python: 3.7.4
gpaw:   /home/niflheim/madkru/venv_folder/gpaw/gpaw (d0d1ca1c71)
_gpaw:  /home/niflheim/madkru/venv_folder/gpaw/build/lib.linux-x86_64-sandybridge-3.7/
        _gpaw.cpython-37m-x86_64-linux-gnu.so (4fd39e8b1e)
ase:    /home/niflheim/madkru/venv_folder/ase/ase (version 3.21.0b1-7e6c206a91)
numpy:  /home/niflheim/madkru/venv_folder/lib/python3.7/site-packages/numpy (version 1.19.4)
scipy:  /home/niflheim/madkru/venv_folder/lib/python3.7/site-packages/scipy (version 1.5.4)
libxc:  4.3.4
units:  Angstrom and eV
cores: 32
OMP_NUM_THREADS: 1

Input parameters:
  convergence: {forces: 1e-06}
  kpts: [6 6 4]
  mode: {ecut: 600.0,
         gammacentered: False,
         name: pw}
  occupations: {fixmagmom: False,
                name: fermi-dirac,
                width: 0.001}
  symmetry: {point_group: False}

System changes: positions, numbers, cell, pbc, initial_charges, initial_magmoms 

Initialize ...

O-setup:
  name: Oxygen
  id: 9b9d51c344dea68c822856295a461509
  Z: 8.0
  valence: 6
  core: 2
  charge: 0.0
  file: /home/modules/software/GPAW-setups/0.9.20000/O.LDA.gz
  compensation charges: gauss, rc=0.21, lmax=2
  cutoffs: 1.17(filt), 0.83(core),
  valence states:
                energy  radius
    2s(2.00)   -23.752   0.688
    2p(4.00)    -9.195   0.598
    *s           3.459   0.688
    *p          18.016   0.598
    *d           0.000   0.619

  Using partial waves for O as LCAO basis

Mn-setup:
  name: Manganese
  id: 0d715a8018be061a6e9ea6f2d364ac92
  Z: 25.0
  valence: 15
  core: 10
  charge: 0.0
  file: /home/modules/software/GPAW-setups/0.9.20000/Mn.LDA.gz
  compensation charges: gauss, rc=0.38, lmax=2
  cutoffs: 2.14(filt), 0.86(core),
  valence states:
                energy  radius
    3s(2.00)   -85.387   1.275
    4s(2.00)    -5.282   1.275
    3p(6.00)   -54.493   1.281
    4p(0.00)    -1.471   1.281
    3d(5.00)    -7.009   1.138
    *d          20.203   1.138

  Using partial waves for Mn as LCAO basis

P-setup:
  name: Phosphorus
  id: a5561c299094968922a179ab894d2e2d
  Z: 15.0
  valence: 5
  core: 10
  charge: 0.0
  file: /home/modules/software/GPAW-setups/0.9.20000/P.LDA.gz
  compensation charges: gauss, rc=0.30, lmax=2
  cutoffs: 1.69(filt), 1.81(core),
  valence states:
                energy  radius
    3s(2.00)   -14.015   0.953
    3p(3.00)    -5.596   0.953
    *s          13.197   0.953
    *p          21.615   0.953
    *d           0.000   0.953

  Using partial waves for P as LCAO basis

Li-setup:
  name: Lithium
  id: b73562207f97a71b6967473b66fe8b65
  Z: 3.0
  valence: 1
  core: 2
  charge: 0.0
  file: /home/modules/software/GPAW-setups/0.9.20000/Li.LDA.gz
  compensation charges: gauss, rc=0.33, lmax=2
  cutoffs: 1.91(filt), 2.55(core),
  valence states:
                energy  radius
    2s(1.00)    -2.874   1.058
    2p(0.00)    -1.126   1.058
    *s          24.338   1.058

  Using partial waves for Li as LCAO basis

Reference energy: -196157.275402

Spin-polarized calculation.
Magnetic moment: 0.000000

Convergence criteria:
  Maximum total energy change: 0.0005 eV / electron
  Maximum integral of absolute density change: 0.0001 electrons
  Maximum integral of absolute eigenstate change: 4e-08 eV^2
  Maximum change in atomic force: 1e-06 eV / Ang
  Maximum number of iterations: 333

Symmetries present (total): 1

  ( 1  0  0)
  ( 0  1  0)
  ( 0  0  1)

144 k-points: 6 x 6 x 4 Monkhorst-Pack grid
72 k-points in the irreducible part of the Brillouin zone
       k-points in crystal coordinates                weights
   0:     0.08333333   -0.41666667   -0.37500000          2/144
   1:     0.08333333   -0.41666667   -0.12500000          2/144
   2:     0.08333333   -0.41666667    0.12500000          2/144
   3:     0.08333333   -0.41666667    0.37500000          2/144
   4:     0.08333333   -0.25000000   -0.37500000          2/144
   5:     0.08333333   -0.25000000   -0.12500000          2/144
   6:     0.08333333   -0.25000000    0.12500000          2/144
   7:     0.08333333   -0.25000000    0.37500000          2/144
   8:     0.08333333   -0.08333333   -0.37500000          2/144
   9:     0.08333333   -0.08333333   -0.12500000          2/144
          ...
  71:     0.41666667    0.41666667    0.37500000          2/144

Wave functions: Plane wave expansion
  Cutoff energy: 600.000 eV
  Number of coefficients (min, max): 10068, 10125
  Pulay-stress correction: 0.000000 eV/Ang^3 (de/decut=0.000000)
  Using FFTW library
  ScaLapack parameters: grid=1x1, blocksize=None
  Wavefunction extrapolation:
    Improved wavefunction reuse through dual PAW basis 

  Fermi-Dirac: width=0.0010 eV

Eigensolver
   Davidson(niter=2, smin=None, normalize=True) 

Densities:
  Coarse grid: 60*35*27 grid
  Fine grid: 120*70*54 grid
  Total Charge: 0.000000 

Density mixing:
  Method: difference
  Backend: pulay
  Linear mixing parameter: 0.05
  Mixing with 5 old densities
  Damping of long wave oscillations: 50 

Hamiltonian:
  XC and Coulomb potentials evaluated on a 120*70*54 grid
  Using the LDA Exchange-Correlation functional
 

Memory estimate:
  Process memory now: 101.75 MiB
  Calculator: 150.23 MiB
    Density: 40.04 MiB
      Arrays: 15.14 MiB
      Localized functions: 18.84 MiB
      Mixer: 6.06 MiB
    Hamiltonian: 11.79 MiB
      Arrays: 11.25 MiB
      XC: 0.00 MiB
      Poisson: 0.00 MiB
      vbar: 0.54 MiB
    Wavefunctions: 98.40 MiB
      Arrays psit_nG: 69.21 MiB
      Eigensolver: 19.99 MiB
      Projections: 2.41 MiB
      Projectors: 4.31 MiB
      PW-descriptor: 2.47 MiB

Total number of cores used: 32
Parallelization over k-points: 32

Number of atoms: 28
Number of atomic orbitals: 148
Number of bands in calculation: 112
Number of valence electrons: 180
Bands to converge: occupied

... initialized

Initializing position-dependent things.

Density initialized from atomic densities
Creating initial wave functions:
  112 bands from LCAO basis set

     .-------------------------.  
    /|             P  O        |  
   / |   O      O            Li|  
  /  |            Li Mn      O |  
 *   |P O   O           Mn Li  |  
 |   | O        Li       O     |  
 |   .--Mn----------O---O-P----.  
 | O/      On                 /   
 | /            O      O     /    
 |/       O  P              /     
 *-------------------------*      

Positions:
   0 O      3.495751    0.290982    0.998493    ( 0.0000,  0.0000,  0.0000)
   1 O      1.734488    5.808998    3.367956    ( 0.0000,  0.0000,  0.0000)
   2 O      6.963961    3.340232    3.741427    ( 0.0000,  0.0000,  0.0000)
   3 O      8.725801    2.759748    1.371964    ( 0.0000,  0.0000,  0.0000)
   4 O      6.964249    5.809018    3.741507    ( 0.0000,  0.0000,  0.0000)
   5 O      8.725512    0.291002    1.372044    ( 0.0000,  0.0000,  0.0000)
   6 O      3.496039    2.759768    0.998573    ( 0.0000,  0.0000,  0.0000)
   7 O      1.734199    3.340252    3.368036    ( 0.0000,  0.0000,  0.0000)
   8 O      0.442968    1.525150    1.406463    ( 0.0000,  0.0000,  0.0000)
   9 O      4.786844    4.574849    3.776377    ( 0.0000,  0.0000,  0.0000)
  10 O     10.017032    4.574850    3.333537    ( 0.0000,  0.0000,  0.0000)
  11 O      5.673156    1.525151    0.963623    ( 0.0000,  0.0000,  0.0000)
  12 Mn     2.285619    1.524841    2.447875    ( 0.0000,  0.0000,  1.0000)
  13 Mn     2.944407    4.575159    0.077808    ( 0.0000,  0.0000, -1.0000)
  14 Mn     8.174381    4.575159    2.292125    ( 0.0000,  0.0000, -1.0000)
  15 Mn     7.515593    1.524841    4.662192    ( 0.0000,  0.0000,  1.0000)
  16 P      4.235765    1.525327    0.372250    ( 0.0000,  0.0000,  0.0000)
  17 P      0.994332    4.574673    2.741952    ( 0.0000,  0.0000,  0.0000)
  18 P      6.224235    4.574673    4.367750    ( 0.0000,  0.0000,  0.0000)
  19 P      9.465668    1.525327    1.998048    ( 0.0000,  0.0000,  0.0000)
  20 O      4.209991    1.525298    3.575465    ( 0.0000,  0.0000,  0.0000)
  21 O      1.019924    4.574702    1.205150    ( 0.0000,  0.0000,  0.0000)
  22 O      6.250009    4.574702    1.164535    ( 0.0000,  0.0000,  0.0000)
  23 O      9.440076    1.525298    3.534850    ( 0.0000,  0.0000,  0.0000)
  24 Li    -0.000000    0.000000   -0.000000    ( 0.0000,  0.0000,  0.0000)
  25 Li     5.230000   -0.000000    2.370000    ( 0.0000,  0.0000,  0.0000)
  26 Li    -0.000000    3.050000   -0.000000    ( 0.0000,  0.0000,  0.0000)
  27 Li     5.230000    3.050000    2.370000    ( 0.0000,  0.0000,  0.0000)

Unit cell:
           periodic     x           y           z      points  spacing
  1. axis:    yes   10.460000    0.000000    0.000000    60     0.1743
  2. axis:    yes    0.000000    6.100000    0.000000    35     0.1743
  3. axis:    yes    0.000000    0.000000    4.740000    27     0.1756

  Lengths:  10.460000   6.100000   4.740000
  Angles:   90.000000  90.000000  90.000000

Effective grid spacing dv^(1/3) = 0.1747

                     log10-error:           total        iterations:
           time      wfs    density  force  energy       poisson  magmom
iter:   1  16:40:10                       -231.920290             +0.0000
iter:   2  16:40:35  -0.55  -0.94         -231.730926             -0.0000
iter:   3  16:41:01  -0.72  -0.98         -220.584096             -0.0000
iter:   4  16:41:26  -0.96  -1.20         -218.865044             -0.0000
iter:   5  16:41:52  -1.96  -1.36         -220.565717             -0.0000
iter:   6  16:42:18  -1.73  -1.56         -218.259027             -0.0000
iter:   7  16:42:43  -2.30  -1.78         -217.753327             -0.0000
iter:   8  16:43:09  -2.96  -1.90         -218.275231             -0.0000
iter:   9  16:43:34  -3.58  -1.96         -218.071757             -0.0000
iter:  10  16:44:00  -2.65  -1.98         -217.944833             -0.0000
iter:  11  16:44:25  -2.69  -1.93         -218.624236             +0.0000
iter:  12  16:44:51  -2.22  -2.08         -219.607419             -0.0000
iter:  13  16:45:17  -2.36  -1.89         -220.724184             -0.0000
iter:  14  16:45:42  -2.63  -1.92         -222.118381             -0.0000
iter:  15  16:46:08  -2.55  -1.88         -221.858846             -0.0000
iter:  16  16:46:33  -2.78  -1.85         -222.421657             -0.0000
iter:  17  16:46:59  -2.40  -1.84         -222.324103             +0.0000
iter:  18  16:47:24  -2.21  -1.88         -222.707251             +0.0000
iter:  19  16:47:50  -3.06  -1.91         -222.867470             +0.0000
iter:  20  16:48:16  -3.21  -1.99         -222.340037             +0.0000
iter:  21  16:48:41  -2.99  -1.98         -224.101860             +0.0000
iter:  22  16:49:07  -2.56  -1.90         -221.754459             +0.0000
iter:  23  16:49:32  -2.92  -1.98         -221.564485             +0.0000
iter:  24  16:49:58  -3.03  -1.99         -221.662095             +0.0000
iter:  25  16:50:23  -2.90  -2.10         -222.042444             +0.0000
iter:  26  16:50:49  -3.15  -2.11         -221.538429             +0.0000
iter:  27  16:51:14  -3.53  -2.07         -221.528989             +0.0000
iter:  28  16:51:40  -3.37  -2.13         -221.529225             -0.0000
iter:  29  16:52:05  -3.56  -2.20         -221.511035             +0.0000
iter:  30  16:52:31  -3.87  -2.34         -221.489006             -0.0000
iter:  31  16:52:57  -3.82  -2.39         -221.462618             -0.0000
iter:  32  16:53:22  -2.82  -2.45         -221.468643             -0.0000
iter:  33  16:53:48  -3.90  -2.49         -221.426968             +0.0001
iter:  34  16:54:13  -3.19  -2.66         -221.690686             -0.0060
iter:  35  16:54:39  -3.27  -2.49         -221.404169             +0.0007
iter:  36  16:55:04  -4.60  -2.60         -221.413680             +0.0003
iter:  37  16:55:30  -5.18  -2.63         -221.410155             +0.0002
iter:  38  16:55:55  -4.26  -2.65         -221.438979             -0.0000
iter:  39  16:56:21  -4.45  -2.86         -221.418048             +0.0001
iter:  40  16:56:46  -4.09  -2.68         -221.469762             +0.0000
iter:  41  16:57:12  -4.26  -2.62         -221.447465             +0.0000
iter:  42  16:57:38  -4.24  -2.65         -221.513538             +0.0000
iter:  43  16:58:03  -4.02  -2.55         -221.420584             +0.0000
iter:  44  16:58:29  -3.76  -2.71         -221.356032             +0.0000
iter:  45  16:58:54  -3.69  -2.85         -221.482857             +0.0000
iter:  46  16:59:20  -4.11  -2.49         -221.390503             +0.0000
iter:  47  16:59:45  -4.12  -2.85         -221.387713             +0.0000
iter:  48  17:00:11  -4.02  -2.80         -221.411673             -0.0000
iter:  49  17:00:36  -4.02  -2.72         -221.393987             +0.0000
iter:  50  17:01:02  -4.62  -2.75         -221.407846             +0.0000
iter:  51  17:01:27  -4.68  -2.72         -221.390494             +0.0000
iter:  52  17:01:53  -4.31  -2.79         -221.383553             +0.0000
iter:  53  17:02:18  -3.96  -2.82         -221.421944             +0.0000
iter:  54  17:02:44  -4.05  -2.70         -221.369205             +0.0000
iter:  55  17:03:09  -4.05  -2.90         -221.348028             -0.0000
iter:  56  17:03:35  -3.74  -2.85         -221.399576             +0.0000
iter:  57  17:04:00  -4.05  -2.82         -221.432659             +0.0000
iter:  58  17:04:26  -4.61  -2.82         -221.394430             -0.0000
iter:  59  17:04:51  -4.41  -2.88         -221.373978             -0.0000
iter:  60  17:05:17  -4.55  -2.94         -221.402976             -0.0000
iter:  61  17:05:42  -4.49  -2.85         -221.407940             -0.0000
iter:  62  17:06:08  -4.29  -2.82         -221.434998             -0.0000
iter:  63  17:06:33  -4.50  -2.81         -221.474010             -0.0000
iter:  64  17:06:59  -4.02  -2.58         -221.497000             -0.0000
iter:  65  17:07:24  -3.73  -2.67         -221.633011             +0.0000
iter:  66  17:07:50  -4.09  -2.50         -221.668131             -0.0000
iter:  67  17:08:15  -3.52  -2.54         -221.741107             +0.0079
iter:  68  17:08:41  -3.32  -2.44         -221.712745             +0.0186
iter:  69  17:09:06  -3.13  -2.41         -221.860877             +0.0017
iter:  70  17:09:32  -3.07  -2.46         -221.977479             +0.0057
iter:  71  17:09:57  -3.11  -2.21         -222.739597             +0.0057
iter:  72  17:10:23  -3.35  -2.28         -222.245393             -0.0022
iter:  73  17:10:48  -3.26  -2.32         -222.482583             -0.0823
iter:  74  17:11:14  -3.22  -2.24         -223.177906             +0.3540
iter:  75  17:11:39  -2.39  -2.23         -221.709801             -1.4186
iter:  76  17:12:05  -2.65  -2.23         -220.721289             -2.7550
iter:  77  17:12:30  -2.59  -2.29         -222.959691             -1.8951
iter:  78  17:12:56  -2.89  -2.15         -223.757446             -1.9722
iter:  79  17:13:21  -3.75  -2.27         -223.897154             -1.9709
iter:  80  17:13:47  -2.17  -2.27         -225.554212             -1.9844
iter:  81  17:14:12  -3.02  -2.21         -225.714333             -1.3296
iter:  82  17:14:38  -2.77  -2.24         -226.200582             -0.3870
iter:  83  17:15:03  -3.02  -2.24         -226.256339             -0.0019
iter:  84  17:15:28  -2.38  -2.25         -226.394093             -0.0031
iter:  85  17:15:54  -2.78  -2.31         -226.901586             -0.0005
iter:  86  17:16:19  -3.01  -2.14         -227.882134             -0.0010
iter:  87  17:16:45  -2.32  -1.99         -226.040367             +0.0000
iter:  88  17:17:10  -2.32  -2.39         -226.059321             -0.0000
iter:  89  17:17:36  -3.11  -2.39         -226.113810             -0.0000
iter:  90  17:18:02  -3.29  -2.40         -226.085886             -0.0000
iter:  91  17:18:27  -3.43  -2.52         -226.087958             -0.0000
iter:  92  17:18:52  -3.18  -2.60         -226.053950             -0.0000
iter:  93  17:19:18  -3.80  -2.97         -226.056265             -0.0000
iter:  94  17:19:43  -3.70  -3.02         -226.051452             -0.0000
iter:  95  17:20:09  -4.41  -3.24         -226.050905             -0.0000
iter:  96  17:20:34  -5.04  -3.51         -226.051109             -0.0000
iter:  97  17:21:00  -5.17  -3.55         -226.050295             -0.0000
iter:  98  17:21:25  -5.49  -3.71         -226.050468             -0.0000
iter:  99  17:21:51  -5.80  -3.71         -226.050179             -0.0000
iter: 100  17:22:16  -4.83  -3.82         -226.050094             -0.0000
iter: 101  17:22:42  -5.89  -3.90         -226.050010             -0.0000
iter: 102  17:23:07  -6.54  -4.15         -226.049983             -0.0000
iter: 103  17:23:33  -7.05  -4.27         -226.049984             +0.0000
iter: 104  17:23:58  -6.76  -4.31         -226.049972             +0.0000
iter: 105  17:24:24  -7.11  -4.36         -226.049970             +0.0000
iter: 106  17:24:57  -7.46  -4.44         -226.049970             -0.0000
iter: 107  17:25:23  -7.06  -4.49         -226.049971             -0.0000
iter: 108  17:25:56  -7.77  -4.67    -2.30-226.049971             -0.0000
iter: 109  17:26:30  -7.53  -4.75    -2.75-226.049967             -0.0000
iter: 110  17:26:56  -7.28  -4.87         -226.049966             -0.0000
iter: 111  17:27:29  -8.17  -4.97    -2.51-226.049965             -0.0000
iter: 112  17:28:02  -8.37  -5.02    -3.26-226.049966             -0.0000
iter: 113  17:28:36  -8.76  -5.11    -3.27-226.049966             -0.0000
iter: 114  17:29:09  -8.72  -5.19    -3.27-226.049966             -0.0000
iter: 115  17:29:43  -8.59  -5.22    -3.00-226.049966             -0.0000
iter: 116  17:30:17  -8.73  -5.34    -3.40-226.049966             -0.0000
iter: 117  17:30:50  -9.06  -5.39    -3.54-226.049966             -0.0000
iter: 118  17:31:24  -9.54  -5.42    -3.62-226.049966             -0.0000
iter: 119  17:31:57  -9.81  -5.51    -3.68-226.049966             -0.0000
iter: 120  17:32:31  -9.45  -5.57    -3.35-226.049966             -0.0000
iter: 121  17:33:04 -10.29  -5.75    -4.20-226.049966             -0.0000
iter: 122  17:33:38 -10.67  -5.80    -4.23-226.049966             -0.0000
iter: 123  17:34:12  -9.05  -5.85    -3.49-226.049966             -0.0000
iter: 124  17:34:45 -10.07  -6.02    -4.17-226.049966             -0.0000
iter: 125  17:35:19 -11.16  -6.05    -4.52-226.049966             -0.0000
iter: 126  17:35:52  -9.77  -6.08    -3.72-226.049966             -0.0000
iter: 127  17:36:26 -10.79  -6.39    -4.18-226.049966             -0.0000
iter: 128  17:36:59 -10.60  -6.54    -4.29-226.049966             -0.0000
iter: 129  17:37:33 -11.90  -6.54    -4.79-226.049966             -0.0000
iter: 130  17:38:06 -10.68  -6.59    -4.27-226.049966             -0.0000
iter: 131  17:38:40 -11.02  -6.71    -4.36-226.049966             -0.0000
iter: 132  17:39:13 -12.40  -6.87    -5.20-226.049966             -0.0000
iter: 133  17:39:47 -11.67  -6.92    -4.76-226.049966             -0.0000
iter: 134  17:40:20 -12.09  -7.09    -4.87-226.049966             -0.0000
iter: 135  17:40:54 -12.20  -7.07    -4.90-226.049966             -0.0000
iter: 136  17:41:27 -12.42  -7.16    -5.09-226.049966             -0.0000
iter: 137  17:42:01 -12.81  -7.22    -5.27-226.049966             -0.0000
iter: 138  17:42:35 -13.20  -7.28    -5.41-226.049966             -0.0000
iter: 139  17:43:08 -13.29  -7.32    -5.49-226.049966             -0.0000
iter: 140  17:43:42 -13.76  -7.38    -5.55-226.049966             -0.0000
iter: 141  17:44:15 -13.80  -7.45    -5.65-226.049966             -0.0000
iter: 142  17:44:49 -12.40  -7.54    -5.26-226.049966             -0.0000
iter: 143  17:45:22 -13.58  -7.98    -5.71-226.049966             -0.0000
iter: 144  17:45:56 -14.18  -8.30    -6.07-226.049966             -0.0000

Converged after 144 iterations.

Dipole moment: (-0.000000, 0.000000, 0.000000) |e|*Ang

Total magnetic moment: (0.000000, 0.000000, -0.000000)
Local magnetic moments:
   0 O  ( 0.000000,  0.000000,  0.057766)
   1 O  ( 0.000000,  0.000000,  0.057766)
   2 O  ( 0.000000,  0.000000, -0.057760)
   3 O  ( 0.000000,  0.000000, -0.057759)
   4 O  ( 0.000000,  0.000000, -0.057766)
   5 O  ( 0.000000,  0.000000, -0.057766)
   6 O  ( 0.000000,  0.000000,  0.057760)
   7 O  ( 0.000000,  0.000000,  0.057760)
   8 O  ( 0.000000,  0.000000,  0.023047)
   9 O  ( 0.000000,  0.000000,  0.023049)
  10 O  ( 0.000000,  0.000000, -0.023047)
  11 O  ( 0.000000,  0.000000, -0.023049)
  12 Mn ( 0.000000,  0.000000,  4.485798)
  13 Mn ( 0.000000,  0.000000,  4.485884)
  14 Mn ( 0.000000,  0.000000, -4.485798)
  15 Mn ( 0.000000,  0.000000, -4.485884)
  16 P  ( 0.000000,  0.000000,  0.011250)
  17 P  ( 0.000000,  0.000000,  0.011261)
  18 P  ( 0.000000,  0.000000, -0.011250)
  19 P  ( 0.000000,  0.000000, -0.011261)
  20 O  ( 0.000000,  0.000000,  0.026040)
  21 O  ( 0.000000,  0.000000,  0.026036)
  22 O  ( 0.000000,  0.000000, -0.026040)
  23 O  ( 0.000000,  0.000000, -0.026036)
  24 Li ( 0.000000,  0.000000, -0.000000)
  25 Li ( 0.000000,  0.000000, -0.000000)
  26 Li ( 0.000000,  0.000000, -0.000000)
  27 Li ( 0.000000,  0.000000, -0.000000)

Energy contributions relative to reference atoms: (reference = -196157.275402)

Kinetic:       +220.282139
Potential:     -197.400959
External:        +0.000000
XC:            -250.963140
Entropy (-ST):   -0.000000
Local:           +2.031994
--------------------------
Free energy:   -226.049966
Extrapolated:  -226.049966

Spin contamination: 9.879322 electrons
Showing only first 2 kpts
                      Up                     Down
 Kpt  Band  Eigenvalues  Occupancy  Eigenvalues  Occupancy
  0    88      5.16482    0.01389      5.16482    0.01389
  0    89      5.20141    0.01389      5.20141    0.01389
  0    90      7.24253    0.00000      7.24253    0.00000
  0    91      7.26940    0.00000      7.26940    0.00000

  1    88      5.13124    0.01389      5.13124    0.01389
  1    89      5.20510    0.01389      5.20510    0.01389
  1    90      7.18545    0.00000      7.18545    0.00000
  1    91      7.21747    0.00000      7.21747    0.00000


Fermi level: 5.98909

Gap: 1.683 eV
Transition (v -> c):
  (s=1, k=14, n=89, [0.08, 0.08, 0.12]) -> (s=1, k=9, n=90, [0.08, -0.08, -0.12])
Writing to LiMnPO4.gpw (mode='')


Forces in eV/Ang:
  0 O     0.08030    0.07952   -0.01760
  1 O    -0.08038   -0.07955   -0.01749
  2 O    -0.08024    0.07949    0.01751
  3 O     0.08032   -0.07953    0.01740
  4 O    -0.08030   -0.07952    0.01760
  5 O     0.08038    0.07955    0.01749
  6 O     0.08024   -0.07949   -0.01751
  7 O    -0.08032    0.07953   -0.01740
  8 O     0.01275    0.00000    0.00178
  9 O    -0.01274   -0.00000    0.00220
 10 O    -0.01275   -0.00000   -0.00178
 11 O     0.01274    0.00000   -0.00220
 12 Mn   -0.05265    0.00006    0.04780
 13 Mn    0.05282   -0.00006    0.04813
 14 Mn    0.05265   -0.00006   -0.04780
 15 Mn   -0.05282    0.00006   -0.04813
 16 P    -0.00684    0.00003   -0.00032
 17 P     0.00667   -0.00003   -0.00011
 18 P     0.00684   -0.00003    0.00032
 19 P    -0.00667    0.00003    0.00010
 20 O     0.01149   -0.00003   -0.01758
 21 O    -0.01160    0.00003   -0.01743
 22 O    -0.01149    0.00003    0.01758
 23 O     0.01160   -0.00003    0.01743
 24 Li   -0.00000    0.00000   -0.00000
 25 Li    0.00000    0.00000    0.00000
 26 Li   -0.00000   -0.00000   -0.00000
 27 Li    0.00000   -0.00000    0.00000

System changes: positions 

Initializing position-dependent things.

Density initialized from wave functions
     .-------------------------.  
    /|             P  O        |  
   / |   O      O            Li|  
  /  |            Li Mn      O |  
 *   |P O   O           Mn Li  |  
 |   | O        Li       O     |  
 |   .--Mn----------O---O-P----.  
 | O/      On                 /   
 | /            O      O     /    
 |/       O  P              /     
 *-------------------------*      

Positions:
   0 O      3.485751    0.290982    0.998493    ( 0.0000,  0.0000,  0.0000)
   1 O      1.734488    5.808998    3.367956    ( 0.0000,  0.0000,  0.0000)
   2 O      6.963961    3.340232    3.741427    ( 0.0000,  0.0000,  0.0000)
   3 O      8.725801    2.759748    1.371964    ( 0.0000,  0.0000,  0.0000)
   4 O      6.964249    5.809018    3.741507    ( 0.0000,  0.0000,  0.0000)
   5 O      8.725512    0.291002    1.372044    ( 0.0000,  0.0000,  0.0000)
   6 O      3.496039    2.759768    0.998573    ( 0.0000,  0.0000,  0.0000)
   7 O      1.734199    3.340252    3.368036    ( 0.0000,  0.0000,  0.0000)
   8 O      0.442968    1.525150    1.406463    ( 0.0000,  0.0000,  0.0000)
   9 O      4.786844    4.574849    3.776377    ( 0.0000,  0.0000,  0.0000)
  10 O     10.017032    4.574850    3.333537    ( 0.0000,  0.0000,  0.0000)
  11 O      5.673156    1.525151    0.963623    ( 0.0000,  0.0000,  0.0000)
  12 Mn     2.285619    1.524841    2.447875    ( 0.0000,  0.0000,  1.0000)
  13 Mn     2.944407    4.575159    0.077808    ( 0.0000,  0.0000, -1.0000)
  14 Mn     8.174381    4.575159    2.292125    ( 0.0000,  0.0000, -1.0000)
  15 Mn     7.515593    1.524841    4.662192    ( 0.0000,  0.0000,  1.0000)
  16 P      4.235765    1.525327    0.372250    ( 0.0000,  0.0000,  0.0000)
  17 P      0.994332    4.574673    2.741952    ( 0.0000,  0.0000,  0.0000)
  18 P      6.224235    4.574673    4.367750    ( 0.0000,  0.0000,  0.0000)
  19 P      9.465668    1.525327    1.998048    ( 0.0000,  0.0000,  0.0000)
  20 O      4.209991    1.525298    3.575465    ( 0.0000,  0.0000,  0.0000)
  21 O      1.019924    4.574702    1.205150    ( 0.0000,  0.0000,  0.0000)
  22 O      6.250009    4.574702    1.164535    ( 0.0000,  0.0000,  0.0000)
  23 O      9.440076    1.525298    3.534850    ( 0.0000,  0.0000,  0.0000)
  24 Li    -0.000000    0.000000   -0.000000    ( 0.0000,  0.0000,  0.0000)
  25 Li     5.230000   -0.000000    2.370000    ( 0.0000,  0.0000,  0.0000)
  26 Li    -0.000000    3.050000   -0.000000    ( 0.0000,  0.0000,  0.0000)
  27 Li     5.230000    3.050000    2.370000    ( 0.0000,  0.0000,  0.0000)

Unit cell:
           periodic     x           y           z      points  spacing
  1. axis:    yes   10.460000    0.000000    0.000000    60     0.1743
  2. axis:    yes    0.000000    6.100000    0.000000    35     0.1743
  3. axis:    yes    0.000000    0.000000    4.740000    27     0.1756

  Lengths:  10.460000   6.100000   4.740000
  Angles:   90.000000  90.000000  90.000000

Effective grid spacing dv^(1/3) = 0.1747

                     log10-error:           total        iterations:
           time      wfs    density  force  energy       poisson  magmom
iter:   1  17:46:39  -3.90                -226.049163             -0.0008
iter:   2  17:47:04  -5.31  -3.59         -226.049034             -0.0002
iter:   3  17:47:30  -4.12  -3.63         -226.048722             +0.0000
iter:   4  17:47:55  -5.67  -3.75         -226.048542             -0.0001
iter:   5  17:48:20  -7.04  -3.94         -226.048547             -0.0000
iter:   6  17:48:45  -5.95  -3.94         -226.048499             -0.0000
iter:   7  17:49:10  -5.87  -4.22         -226.048496             -0.0000
iter:   8  17:49:36  -6.03  -4.42         -226.048493             -0.0000
iter:   9  17:50:01  -6.02  -4.46         -226.048494             -0.0000
iter:  10  17:50:26  -7.13  -4.52         -226.048488             -0.0000
iter:  11  17:50:51  -6.63  -4.74         -226.048488             -0.0000
iter:  12  17:51:16  -7.37  -4.90         -226.048487             -0.0000
iter:  13  17:51:49  -8.67  -5.22         -226.048487             -0.0000
iter:  14  17:52:22  -8.94  -5.33    -3.04-226.048487             -0.0000
iter:  15  17:52:55  -8.48  -5.41    -2.24-226.048487             +0.0000
iter:  16  17:53:28  -9.23  -5.38    -3.22-226.048487             +0.0000
iter:  17  17:54:02  -9.40  -5.43    -3.41-226.048487             +0.0000
iter:  18  17:54:35  -9.35  -5.54    -3.40-226.048486             +0.0000
iter:  19  17:55:08  -9.58  -5.59    -3.23-226.048486             +0.0000
iter:  20  17:55:41 -10.05  -5.75    -3.63-226.048486             -0.0000
iter:  21  17:56:15  -9.20  -5.87    -3.17-226.048486             -0.0000
iter:  22  17:56:48 -10.07  -6.13    -3.58-226.048486             -0.0000
iter:  23  17:57:21 -10.94  -6.51    -4.16-226.048486             -0.0000
iter:  24  17:57:54 -10.93  -6.58    -3.81-226.048486             -0.0000
iter:  25  17:58:27 -10.95  -6.67    -4.07-226.048486             -0.0000
iter:  26  17:59:01 -11.03  -6.88    -4.31-226.048486             -0.0000
iter:  27  17:59:34 -11.53  -6.87    -3.89-226.048486             -0.0000
iter:  28  18:00:07 -11.92  -7.10    -4.60-226.048486             -0.0000
iter:  29  18:00:41 -13.00  -7.42    -5.22-226.048486             -0.0000
iter:  30  18:01:14 -12.60  -7.48    -4.70-226.048486             +0.0000
iter:  31  18:01:47 -12.74  -7.59    -5.01-226.048486             -0.0000
iter:  32  18:02:20 -13.80  -7.72    -5.61-226.048486             +0.0000
iter:  33  18:02:54 -13.15  -7.76    -4.91-226.048486             +0.0000
iter:  34  18:03:27 -13.65  -7.80    -5.34-226.048486             +0.0000
iter:  35  18:04:00 -14.47  -7.95    -5.80-226.048486             +0.0000
iter:  36  18:04:33 -14.05  -8.00    -5.41-226.048486             +0.0000
iter:  37  18:05:07 -13.99  -8.04    -5.92-226.048486             +0.0000
iter:  38  18:05:40 -13.68  -8.11    -5.43-226.048486             +0.0000
iter:  39  18:06:13 -14.92  -8.07    -5.83-226.048486             +0.0000
iter:  40  18:06:46 -14.37  -8.19    -5.79-226.048486             +0.0000
iter:  41  18:07:20 -14.19  -8.33    -5.52-226.048486             +0.0000
iter:  42  18:07:53 -14.62  -8.49    -5.85-226.048486             +0.0000
iter:  43  18:08:26 -15.63  -9.06    -6.68-226.048486             +0.0000

Converged after 43 iterations.

Dipole moment: (0.004222, -0.004230, -0.002054) |e|*Ang

Total magnetic moment: (0.000000, 0.000000, 0.000000)
Local magnetic moments:
   0 O  ( 0.000000,  0.000000,  0.058079)
   1 O  ( 0.000000,  0.000000,  0.057835)
   2 O  ( 0.000000,  0.000000, -0.057729)
   3 O  ( 0.000000,  0.000000, -0.057799)
   4 O  ( 0.000000,  0.000000, -0.057744)
   5 O  ( 0.000000,  0.000000, -0.057806)
   6 O  ( 0.000000,  0.000000,  0.057706)
   7 O  ( 0.000000,  0.000000,  0.057657)
   8 O  ( 0.000000,  0.000000,  0.023040)
   9 O  ( 0.000000,  0.000000,  0.023016)
  10 O  ( 0.000000,  0.000000, -0.023091)
  11 O  ( 0.000000,  0.000000, -0.022913)
  12 Mn ( 0.000000,  0.000000,  4.485559)
  13 Mn ( 0.000000,  0.000000,  4.485523)
  14 Mn ( 0.000000,  0.000000, -4.485777)
  15 Mn ( 0.000000,  0.000000, -4.485885)
  16 P  ( 0.000000,  0.000000,  0.011341)
  17 P  ( 0.000000,  0.000000,  0.011273)
  18 P  ( 0.000000,  0.000000, -0.011239)
  19 P  ( 0.000000,  0.000000, -0.011233)
  20 O  ( 0.000000,  0.000000,  0.026008)
  21 O  ( 0.000000,  0.000000,  0.026072)
  22 O  ( 0.000000,  0.000000, -0.026017)
  23 O  ( 0.000000,  0.000000, -0.026086)
  24 Li ( 0.000000,  0.000000,  0.000002)
  25 Li ( 0.000000,  0.000000, -0.000004)
  26 Li ( 0.000000,  0.000000,  0.000002)
  27 Li ( 0.000000,  0.000000,  0.000005)

Energy contributions relative to reference atoms: (reference = -196157.275402)

Kinetic:       +220.031427
Potential:     -197.210265
External:        +0.000000
XC:            -250.902018
Entropy (-ST):   -0.000000
Local:           +2.032369
--------------------------
Free energy:   -226.048486
Extrapolated:  -226.048486

Spin contamination: 9.879193 electrons
Showing only first 2 kpts
                      Up                     Down
 Kpt  Band  Eigenvalues  Occupancy  Eigenvalues  Occupancy
  0    88      5.17594    0.01389      5.16147    0.01389
  0    89      5.20808    0.01389      5.19814    0.01389
  0    90      7.23942    0.00000      7.25025    0.00000
  0    91      7.26649    0.00000      7.27638    0.00000

  1    88      5.14021    0.01389      5.12785    0.01389
  1    89      5.21315    0.01389      5.20177    0.01389
  1    90      7.18241    0.00000      7.19326    0.00000
  1    91      7.21449    0.00000      7.22521    0.00000


Fermi level: 5.98909

Gap: 1.666 eV
Transition (v -> c):
  (s=0, k=10, n=89, [0.08, -0.08, 0.12]) -> (s=0, k=9, n=90, [0.08, -0.08, -0.12])

Forces in eV/Ang:
  0 O     0.21528    0.19901   -0.06958
  1 O    -0.08598   -0.08441   -0.01790
  2 O    -0.08168    0.07795    0.01920
  3 O     0.07516   -0.07856    0.01631
  4 O    -0.08177   -0.07823    0.01853
  5 O     0.07580    0.07876    0.01656
  6 O     0.09656   -0.07831   -0.01855
  7 O    -0.08037    0.07842   -0.01696
  8 O     0.00292    0.00098    0.00306
  9 O    -0.00880    0.00236    0.00291
 10 O    -0.01852   -0.00066   -0.00108
 11 O    -0.01803   -0.02948    0.00454
 12 Mn   -0.06255   -0.00315    0.04865
 13 Mn    0.04272   -0.00349    0.04621
 14 Mn    0.05882    0.00002   -0.04755
 15 Mn   -0.04233   -0.00043   -0.05122
 16 P    -0.11349   -0.07541    0.03773
 17 P     0.01369    0.00515   -0.00293
 18 P     0.00635   -0.00057   -0.00342
 19 P     0.00376    0.00010   -0.00101
 20 O     0.02314   -0.00698   -0.01073
 21 O    -0.01662   -0.00346   -0.01563
 22 O    -0.01393    0.00099    0.01853
 23 O     0.00772    0.00002    0.01832
 24 Li    0.00346   -0.00032    0.00021
 25 Li   -0.00100   -0.00299    0.00443
 26 Li    0.00207    0.00041    0.00029
 27 Li   -0.00218    0.00229    0.00106

System changes: positions 

Initializing position-dependent things.

Density initialized from wave functions
     .-------------------------.  
    /|             P  O        |  
   / |   O      O            Li|  
  /  |            Li Mn      O |  
 *   |P O   O           Mn Li  |  
 |   | O        Li       O     |  
 |   .--Mn----------O---O-P----.  
 | O/      On                 /   
 | /            O      O     /    
 |/       O  P              /     
 *-------------------------*      

Positions:
   0 O      3.505751    0.290982    0.998493    ( 0.0000,  0.0000,  0.0000)
   1 O      1.734488    5.808998    3.367956    ( 0.0000,  0.0000,  0.0000)
   2 O      6.963961    3.340232    3.741427    ( 0.0000,  0.0000,  0.0000)
   3 O      8.725801    2.759748    1.371964    ( 0.0000,  0.0000,  0.0000)
   4 O      6.964249    5.809018    3.741507    ( 0.0000,  0.0000,  0.0000)
   5 O      8.725512    0.291002    1.372044    ( 0.0000,  0.0000,  0.0000)
   6 O      3.496039    2.759768    0.998573    ( 0.0000,  0.0000,  0.0000)
   7 O      1.734199    3.340252    3.368036    ( 0.0000,  0.0000,  0.0000)
   8 O      0.442968    1.525150    1.406463    ( 0.0000,  0.0000,  0.0000)
   9 O      4.786844    4.574849    3.776377    ( 0.0000,  0.0000,  0.0000)
  10 O     10.017032    4.574850    3.333537    ( 0.0000,  0.0000,  0.0000)
  11 O      5.673156    1.525151    0.963623    ( 0.0000,  0.0000,  0.0000)
  12 Mn     2.285619    1.524841    2.447875    ( 0.0000,  0.0000,  1.0000)
  13 Mn     2.944407    4.575159    0.077808    ( 0.0000,  0.0000, -1.0000)
  14 Mn     8.174381    4.575159    2.292125    ( 0.0000,  0.0000, -1.0000)
  15 Mn     7.515593    1.524841    4.662192    ( 0.0000,  0.0000,  1.0000)
  16 P      4.235765    1.525327    0.372250    ( 0.0000,  0.0000,  0.0000)
  17 P      0.994332    4.574673    2.741952    ( 0.0000,  0.0000,  0.0000)
  18 P      6.224235    4.574673    4.367750    ( 0.0000,  0.0000,  0.0000)
  19 P      9.465668    1.525327    1.998048    ( 0.0000,  0.0000,  0.0000)
  20 O      4.209991    1.525298    3.575465    ( 0.0000,  0.0000,  0.0000)
  21 O      1.019924    4.574702    1.205150    ( 0.0000,  0.0000,  0.0000)
  22 O      6.250009    4.574702    1.164535    ( 0.0000,  0.0000,  0.0000)
  23 O      9.440076    1.525298    3.534850    ( 0.0000,  0.0000,  0.0000)
  24 Li    -0.000000    0.000000   -0.000000    ( 0.0000,  0.0000,  0.0000)
  25 Li     5.230000   -0.000000    2.370000    ( 0.0000,  0.0000,  0.0000)
  26 Li    -0.000000    3.050000   -0.000000    ( 0.0000,  0.0000,  0.0000)
  27 Li     5.230000    3.050000    2.370000    ( 0.0000,  0.0000,  0.0000)

Unit cell:
           periodic     x           y           z      points  spacing
  1. axis:    yes   10.460000    0.000000    0.000000    60     0.1743
  2. axis:    yes    0.000000    6.100000    0.000000    35     0.1743
  3. axis:    yes    0.000000    0.000000    4.740000    27     0.1756

  Lengths:  10.460000   6.100000   4.740000
  Angles:   90.000000  90.000000  90.000000

Effective grid spacing dv^(1/3) = 0.1747

                     log10-error:           total        iterations:
           time      wfs    density  force  energy       poisson  magmom
iter:   1  18:09:08  -3.30                -226.052810             +0.0015
iter:   2  18:09:33  -4.71  -3.30         -226.052277             +0.0005
iter:   3  18:09:59  -3.51  -3.33         -226.051027             -0.0001
iter:   4  18:10:24  -5.07  -3.45         -226.050315             +0.0001
iter:   5  18:10:49  -5.77  -3.64         -226.050474             +0.0001
iter:   6  18:11:14  -4.74  -3.57         -226.050099             +0.0000
iter:   7  18:11:39  -6.04  -4.17         -226.050104             +0.0000
iter:   8  18:12:04  -5.55  -4.19         -226.050124             +0.0000
iter:   9  18:12:30  -5.54  -4.11         -226.050096             +0.0000
iter:  10  18:12:55  -6.94  -4.44         -226.050094             +0.0000
iter:  11  18:13:20  -6.30  -4.47         -226.050090             -0.0000
iter:  12  18:13:45  -7.38  -4.80         -226.050088             +0.0000
iter:  13  18:14:18  -7.87  -5.12         -226.050088             +0.0000
iter:  14  18:14:51  -8.70  -5.27    -2.35-226.050088             +0.0000
iter:  15  18:15:25  -8.43  -5.36    -2.91-226.050088             +0.0000
iter:  16  18:15:58  -9.31  -5.67    -3.18-226.050088             +0.0000
iter:  17  18:16:31 -10.28  -5.74    -3.63-226.050088             -0.0000
iter:  18  18:17:04  -9.96  -5.81    -3.38-226.050088             -0.0000
iter:  19  18:17:38 -10.25  -5.96    -3.46-226.050088             -0.0000
iter:  20  18:18:11 -10.98  -6.00    -3.40-226.050088             -0.0000
iter:  21  18:18:44 -10.15  -6.05    -3.06-226.050088             -0.0000
iter:  22  18:19:17 -10.23  -6.08    -3.41-226.050088             -0.0000
iter:  23  18:19:51 -10.99  -6.15    -3.47-226.050088             -0.0000
iter:  24  18:20:24 -10.64  -6.26    -3.80-226.050088             -0.0000
iter:  25  18:20:57 -11.49  -6.46    -3.97-226.050088             -0.0000
iter:  26  18:21:30 -11.25  -6.50    -3.62-226.050088             -0.0000
iter:  27  18:22:04 -11.86  -6.49    -4.50-226.050088             -0.0000
iter:  28  18:22:37 -11.00  -6.54    -4.09-226.050088             -0.0000
iter:  29  18:23:10 -11.44  -6.98    -4.12-226.050088             -0.0000
iter:  30  18:23:43 -12.59  -7.33    -4.46-226.050088             -0.0000
iter:  31  18:24:16 -13.32  -7.40    -5.08-226.050088             -0.0000
iter:  32  18:24:50 -13.08  -7.42    -4.80-226.050088             -0.0000
iter:  33  18:25:23 -13.98  -7.91    -5.10-226.050088             -0.0000
iter:  34  18:25:56 -13.93  -7.89    -5.50-226.050088             -0.0000
iter:  35  18:26:29 -14.64  -7.95    -5.59-226.050088             -0.0000
iter:  36  18:27:02 -14.43  -7.98    -5.49-226.050088             -0.0000
iter:  37  18:27:35 -14.28  -8.12    -5.71-226.050088             -0.0000
iter:  38  18:28:09 -14.18  -8.25    -5.40-226.050088             -0.0000
iter:  39  18:28:42 -15.07  -8.75    -6.37-226.050088             -0.0000

Converged after 39 iterations.

Dipole moment: (-0.004233, 0.004217, 0.002062) |e|*Ang

Total magnetic moment: (0.000000, 0.000000, -0.000000)
Local magnetic moments:
   0 O  ( 0.000000,  0.000000,  0.057456)
   1 O  ( 0.000000,  0.000000,  0.057697)
   2 O  ( 0.000000,  0.000000, -0.057790)
   3 O  ( 0.000000,  0.000000, -0.057720)
   4 O  ( 0.000000,  0.000000, -0.057788)
   5 O  ( 0.000000,  0.000000, -0.057727)
   6 O  ( 0.000000,  0.000000,  0.057810)
   7 O  ( 0.000000,  0.000000,  0.057862)
   8 O  ( 0.000000,  0.000000,  0.023054)
   9 O  ( 0.000000,  0.000000,  0.023083)
  10 O  ( 0.000000,  0.000000, -0.023003)
  11 O  ( 0.000000,  0.000000, -0.023185)
  12 Mn ( 0.000000,  0.000000,  4.486022)
  13 Mn ( 0.000000,  0.000000,  4.486238)
  14 Mn ( 0.000000,  0.000000, -4.485818)
  15 Mn ( 0.000000,  0.000000, -4.485877)
  16 P  ( 0.000000,  0.000000,  0.011160)
  17 P  ( 0.000000,  0.000000,  0.011248)
  18 P  ( 0.000000,  0.000000, -0.011262)
  19 P  ( 0.000000,  0.000000, -0.011289)
  20 O  ( 0.000000,  0.000000,  0.026072)
  21 O  ( 0.000000,  0.000000,  0.026000)
  22 O  ( 0.000000,  0.000000, -0.026062)
  23 O  ( 0.000000,  0.000000, -0.025985)
  24 Li ( 0.000000,  0.000000, -0.000002)
  25 Li ( 0.000000,  0.000000,  0.000004)
  26 Li ( 0.000000,  0.000000, -0.000001)
  27 Li ( 0.000000,  0.000000, -0.000005)

Energy contributions relative to reference atoms: (reference = -196157.275402)

Kinetic:       +220.538704
Potential:     -197.596029
External:        +0.000000
XC:            -251.024416
Entropy (-ST):   -0.000000
Local:           +2.031653
--------------------------
Free energy:   -226.050088
Extrapolated:  -226.050088

Spin contamination: 9.879444 electrons
Showing only first 2 kpts
                      Up                     Down
 Kpt  Band  Eigenvalues  Occupancy  Eigenvalues  Occupancy
  0    88      5.15369    0.01389      5.16795    0.01389
  0    89      5.19482    0.01389      5.20497    0.01389
  0    90      7.24551    0.00000      7.23466    0.00000
  0    91      7.27244    0.00000      7.26241    0.00000

  1    88      5.12226    0.01389      5.13451    0.01389
  1    89      5.19715    0.01389      5.20860    0.01389
  1    90      7.18842    0.00000      7.17744    0.00000
  1    91      7.22052    0.00000      7.20977    0.00000


Fermi level: 5.98909

Gap: 1.672 eV
Transition (v -> c):
  (s=1, k=9, n=89, [0.08, -0.08, -0.12]) -> (s=1, k=10, n=90, [0.08, -0.08, 0.12])

Forces in eV/Ang:
  0 O    -0.05602   -0.04378    0.03565
  1 O    -0.07481   -0.07473   -0.01708
  2 O    -0.07883    0.08104    0.01580
  3 O     0.08547   -0.08048    0.01849
  4 O    -0.07885   -0.08082    0.01667
  5 O     0.08496    0.08033    0.01842
  6 O     0.06387   -0.08089   -0.01646
  7 O    -0.08024    0.08060   -0.01783
  8 O     0.02253   -0.00096    0.00051
  9 O    -0.01676   -0.00239    0.00147
 10 O    -0.00697    0.00065   -0.00248
 11 O     0.04438    0.03018   -0.00895
 12 Mn   -0.04294    0.00344    0.04718
 13 Mn    0.06295    0.00339    0.05003
 14 Mn    0.04647   -0.00013   -0.04807
 15 Mn   -0.06335    0.00056   -0.04500
 16 P     0.10060    0.07873   -0.03997
 17 P    -0.00036   -0.00517    0.00269
 18 P     0.00740    0.00052    0.00410
 19 P    -0.01710   -0.00004    0.00121
 20 O    -0.00032    0.00689   -0.02445
 21 O    -0.00659    0.00348   -0.01923
 22 O    -0.00905   -0.00095    0.01663
 23 O     0.01549   -0.00007    0.01654
 24 Li   -0.00345    0.00033   -0.00021
 25 Li    0.00119    0.00298   -0.00432
 26 Li   -0.00207   -0.00042   -0.00029
 27 Li    0.00222   -0.00229   -0.00108

System changes: positions 

Initializing position-dependent things.

Density initialized from wave functions
     .-------------------------.  
    /|             P  O        |  
   / |   O      O            Li|  
  /  |            Li Mn      O |  
 *   |P O   O           Mn Li  |  
 |   | O        Li       O     |  
 |   .--Mn----------O---O-P----.  
 | O/      On                 /   
 | /            O      O     /    
 |/       O  P              /     
 *-------------------------*      

Positions:
   0 O      3.495751    0.280982    0.998493    ( 0.0000,  0.0000,  0.0000)
   1 O      1.734488    5.808998    3.367956    ( 0.0000,  0.0000,  0.0000)
   2 O      6.963961    3.340232    3.741427    ( 0.0000,  0.0000,  0.0000)
   3 O      8.725801    2.759748    1.371964    ( 0.0000,  0.0000,  0.0000)
   4 O      6.964249    5.809018    3.741507    ( 0.0000,  0.0000,  0.0000)
   5 O      8.725512    0.291002    1.372044    ( 0.0000,  0.0000,  0.0000)
   6 O      3.496039    2.759768    0.998573    ( 0.0000,  0.0000,  0.0000)
   7 O      1.734199    3.340252    3.368036    ( 0.0000,  0.0000,  0.0000)
   8 O      0.442968    1.525150    1.406463    ( 0.0000,  0.0000,  0.0000)
   9 O      4.786844    4.574849    3.776377    ( 0.0000,  0.0000,  0.0000)
  10 O     10.017032    4.574850    3.333537    ( 0.0000,  0.0000,  0.0000)
  11 O      5.673156    1.525151    0.963623    ( 0.0000,  0.0000,  0.0000)
  12 Mn     2.285619    1.524841    2.447875    ( 0.0000,  0.0000,  1.0000)
  13 Mn     2.944407    4.575159    0.077808    ( 0.0000,  0.0000, -1.0000)
  14 Mn     8.174381    4.575159    2.292125    ( 0.0000,  0.0000, -1.0000)
  15 Mn     7.515593    1.524841    4.662192    ( 0.0000,  0.0000,  1.0000)
  16 P      4.235765    1.525327    0.372250    ( 0.0000,  0.0000,  0.0000)
  17 P      0.994332    4.574673    2.741952    ( 0.0000,  0.0000,  0.0000)
  18 P      6.224235    4.574673    4.367750    ( 0.0000,  0.0000,  0.0000)
  19 P      9.465668    1.525327    1.998048    ( 0.0000,  0.0000,  0.0000)
  20 O      4.209991    1.525298    3.575465    ( 0.0000,  0.0000,  0.0000)
  21 O      1.019924    4.574702    1.205150    ( 0.0000,  0.0000,  0.0000)
  22 O      6.250009    4.574702    1.164535    ( 0.0000,  0.0000,  0.0000)
  23 O      9.440076    1.525298    3.534850    ( 0.0000,  0.0000,  0.0000)
  24 Li    -0.000000    0.000000   -0.000000    ( 0.0000,  0.0000,  0.0000)
  25 Li     5.230000   -0.000000    2.370000    ( 0.0000,  0.0000,  0.0000)
  26 Li    -0.000000    3.050000   -0.000000    ( 0.0000,  0.0000,  0.0000)
  27 Li     5.230000    3.050000    2.370000    ( 0.0000,  0.0000,  0.0000)

Unit cell:
           periodic     x           y           z      points  spacing
  1. axis:    yes   10.460000    0.000000    0.000000    60     0.1743
  2. axis:    yes    0.000000    6.100000    0.000000    35     0.1743
  3. axis:    yes    0.000000    0.000000    4.740000    27     0.1756

  Lengths:  10.460000   6.100000   4.740000
  Angles:   90.000000  90.000000  90.000000

Effective grid spacing dv^(1/3) = 0.1747

                     log10-error:           total        iterations:
           time      wfs    density  force  energy       poisson  magmom
iter:   1  18:29:24  -3.36                -226.051700             -0.0013
iter:   2  18:29:49  -4.81  -3.25         -226.050822             -0.0004
iter:   3  18:30:14  -3.48  -3.29         -226.048754             +0.0000
iter:   4  18:30:39  -4.87  -3.42         -226.047973             -0.0001
iter:   5  18:31:05  -5.09  -3.66         -226.047946             -0.0001
iter:   6  18:31:30  -5.27  -3.85         -226.047777             -0.0000
iter:   7  18:31:55  -6.60  -4.10         -226.047762             -0.0000
iter:   8  18:32:20  -6.39  -4.31         -226.047758             +0.0000
iter:   9  18:32:45  -6.73  -4.51         -226.047760             +0.0000
iter:  10  18:33:10  -6.90  -4.51         -226.047756             +0.0000
iter:  11  18:33:43  -8.05  -4.96         -226.047756             +0.0000
iter:  12  18:34:16  -8.41  -5.05    -2.84-226.047756             +0.0000
iter:  13  18:34:50  -8.45  -5.10    -2.23-226.047756             -0.0000
iter:  14  18:35:23  -8.80  -5.19    -2.81-226.047756             +0.0000
iter:  15  18:35:56  -9.08  -5.26    -2.74-226.047756             +0.0000
iter:  16  18:36:29  -9.15  -5.40    -3.07-226.047756             +0.0000
iter:  17  18:37:03  -9.81  -5.54    -2.67-226.047756             -0.0000
iter:  18  18:37:36  -9.81  -5.66    -3.27-226.047756             -0.0000
iter:  19  18:38:09 -10.23  -5.80    -3.69-226.047755             -0.0000
iter:  20  18:38:42  -9.99  -5.88    -3.48-226.047755             -0.0000
iter:  21  18:39:15  -9.23  -6.02    -2.93-226.047755             -0.0000
iter:  22  18:39:49  -9.90  -6.03    -3.41-226.047755             -0.0000
iter:  23  18:40:22 -10.47  -6.31    -4.38-226.047755             -0.0000
iter:  24  18:40:55 -10.51  -6.38    -3.20-226.047755             +0.0000
iter:  25  18:41:28 -10.44  -6.59    -4.09-226.047755             -0.0000
iter:  26  18:42:01 -11.35  -6.79    -4.12-226.047755             +0.0000
iter:  27  18:42:34 -11.40  -7.02    -4.21-226.047755             +0.0000
iter:  28  18:43:08 -11.46  -6.92    -4.47-226.047755             +0.0000
iter:  29  18:43:41 -12.80  -7.24    -5.07-226.047755             +0.0000
iter:  30  18:44:14 -13.32  -7.29    -4.66-226.047755             +0.0000
iter:  31  18:44:47 -13.25  -7.36    -5.01-226.047755             +0.0000
iter:  32  18:45:20 -13.46  -7.44    -5.13-226.047755             +0.0000
iter:  33  18:45:54 -13.90  -7.62    -5.77-226.047755             +0.0000
iter:  34  18:46:27 -13.19  -7.67    -4.79-226.047755             +0.0000
iter:  35  18:47:00 -14.17  -7.89    -5.88-226.047755             +0.0000
iter:  36  18:47:33 -13.35  -7.94    -5.60-226.047755             +0.0000
iter:  37  18:48:06 -13.09  -7.91    -4.97-226.047755             +0.0000
iter:  38  18:48:40 -13.69  -7.81    -5.36-226.047755             +0.0000
iter:  39  18:49:13 -14.64  -8.29    -5.96-226.047755             +0.0000
iter:  40  18:49:46 -13.98  -8.35    -4.97-226.047755             +0.0000
iter:  41  18:50:19 -14.27  -8.21    -5.76-226.047755             +0.0000
iter:  42  18:50:52 -15.50  -8.86    -7.02-226.047755             +0.0000

Converged after 42 iterations.

Dipole moment: (0.001530, -0.139621, -0.002510) |e|*Ang

Total magnetic moment: (0.000000, 0.000000, 0.000000)
Local magnetic moments:
   0 O  ( 0.000000,  0.000000,  0.058257)
   1 O  ( 0.000000,  0.000000,  0.057869)
   2 O  ( 0.000000,  0.000000, -0.057754)
   3 O  ( 0.000000,  0.000000, -0.057765)
   4 O  ( 0.000000,  0.000000, -0.057770)
   5 O  ( 0.000000,  0.000000, -0.057772)
   6 O  ( 0.000000,  0.000000,  0.057511)
   7 O  ( 0.000000,  0.000000,  0.057654)
   8 O  ( 0.000000,  0.000000,  0.023073)
   9 O  ( 0.000000,  0.000000,  0.023060)
  10 O  ( 0.000000,  0.000000, -0.023046)
  11 O  ( 0.000000,  0.000000, -0.022915)
  12 Mn ( 0.000000,  0.000000,  4.486054)
  13 Mn ( 0.000000,  0.000000,  4.484778)
  14 Mn ( 0.000000,  0.000000, -4.485801)
  15 Mn ( 0.000000,  0.000000, -4.485808)
  16 P  ( 0.000000,  0.000000,  0.011380)
  17 P  ( 0.000000,  0.000000,  0.011267)
  18 P  ( 0.000000,  0.000000, -0.011223)
  19 P  ( 0.000000,  0.000000, -0.011264)
  20 O  ( 0.000000,  0.000000,  0.025993)
  21 O  ( 0.000000,  0.000000,  0.026083)
  22 O  ( 0.000000,  0.000000, -0.026061)
  23 O  ( 0.000000,  0.000000, -0.026056)
  24 Li ( 0.000000,  0.000000, -0.000001)
  25 Li ( 0.000000,  0.000000,  0.000015)
  26 Li ( 0.000000,  0.000000,  0.000001)
  27 Li ( 0.000000,  0.000000, -0.000002)

Energy contributions relative to reference atoms: (reference = -196157.275402)

Kinetic:       +219.790261
Potential:     -197.019756
External:        +0.000000
XC:            -250.851298
Entropy (-ST):   -0.000000
Local:           +2.033037
--------------------------
Free energy:   -226.047755
Extrapolated:  -226.047755

Spin contamination: 9.879089 electrons
Showing only first 2 kpts
                      Up                     Down
 Kpt  Band  Eigenvalues  Occupancy  Eigenvalues  Occupancy
  0    88      5.17127    0.01389      5.16364    0.01389
  0    89      5.20456    0.01389      5.20023    0.01389
  0    90      7.24166    0.00000      7.24376    0.00000
  0    91      7.26864    0.00000      7.27277    0.00000

  1    88      5.13615    0.01389      5.13007    0.01389
  1    89      5.20933    0.01389      5.20399    0.01389
  1    90      7.18465    0.00000      7.18648    0.00000
  1    91      7.21670    0.00000      7.22042    0.00000


Fermi level: 5.98909

Gap: 1.675 eV
Transition (v -> c):
  (s=0, k=13, n=89, [0.08, 0.08, -0.12]) -> (s=0, k=9, n=90, [0.08, -0.08, -0.12])

Forces in eV/Ang:
  0 O     0.19853    0.36093   -0.08191
  1 O    -0.08521   -0.07737   -0.02028
  2 O    -0.07869    0.07593    0.01771
  3 O     0.07936   -0.08056    0.01691
  4 O    -0.07900   -0.07691    0.01801
  5 O     0.07960    0.08057    0.01707
  6 O     0.07893   -0.14047   -0.01302
  7 O    -0.07922    0.07421   -0.01787
  8 O     0.01417    0.00043    0.00199
  9 O    -0.00280   -0.00575   -0.00183
 10 O    -0.01489   -0.00069   -0.00048
 11 O    -0.00735   -0.00340    0.00213
 12 Mn   -0.05620   -0.01195    0.04602
 13 Mn    0.04568   -0.00653    0.03747
 14 Mn    0.05360    0.00003   -0.04780
 15 Mn   -0.04752   -0.00023   -0.05041
 16 P    -0.09091   -0.18616    0.06886
 17 P     0.00873    0.00553   -0.00533
 18 P    -0.00177    0.00128   -0.00003
 19 P    -0.00609   -0.00004    0.00053
 20 O     0.00605   -0.00074   -0.00881
 21 O    -0.01778   -0.00427   -0.01389
 22 O    -0.00812   -0.00176    0.01745
 23 O     0.01094    0.00002    0.01745
 24 Li    0.00137   -0.00120   -0.00005
 25 Li   -0.00370   -0.00691   -0.00181
 26 Li    0.00024    0.00118    0.00016
 27 Li    0.00205    0.00470    0.00177

System changes: positions 

Initializing position-dependent things.

Density initialized from wave functions
     .-------------------------.  
    /|             P  O        |  
   / |   O      O            Li|  
  /  |            Li Mn      O |  
 *   |P O   O           Mn Li  |  
 |   | O        Li       O     |  
 |   .--Mn----------O---O-P----.  
 | O/      On                 /   
 | /            O      O     /    
 |/       O  P              /     
 *-------------------------*      

Positions:
   0 O      3.495751    0.300982    0.998493    ( 0.0000,  0.0000,  0.0000)
   1 O      1.734488    5.808998    3.367956    ( 0.0000,  0.0000,  0.0000)
   2 O      6.963961    3.340232    3.741427    ( 0.0000,  0.0000,  0.0000)
   3 O      8.725801    2.759748    1.371964    ( 0.0000,  0.0000,  0.0000)
   4 O      6.964249    5.809018    3.741507    ( 0.0000,  0.0000,  0.0000)
   5 O      8.725512    0.291002    1.372044    ( 0.0000,  0.0000,  0.0000)
   6 O      3.496039    2.759768    0.998573    ( 0.0000,  0.0000,  0.0000)
   7 O      1.734199    3.340252    3.368036    ( 0.0000,  0.0000,  0.0000)
   8 O      0.442968    1.525150    1.406463    ( 0.0000,  0.0000,  0.0000)
   9 O      4.786844    4.574849    3.776377    ( 0.0000,  0.0000,  0.0000)
  10 O     10.017032    4.574850    3.333537    ( 0.0000,  0.0000,  0.0000)
  11 O      5.673156    1.525151    0.963623    ( 0.0000,  0.0000,  0.0000)
  12 Mn     2.285619    1.524841    2.447875    ( 0.0000,  0.0000,  1.0000)
  13 Mn     2.944407    4.575159    0.077808    ( 0.0000,  0.0000, -1.0000)
  14 Mn     8.174381    4.575159    2.292125    ( 0.0000,  0.0000, -1.0000)
  15 Mn     7.515593    1.524841    4.662192    ( 0.0000,  0.0000,  1.0000)
  16 P      4.235765    1.525327    0.372250    ( 0.0000,  0.0000,  0.0000)
  17 P      0.994332    4.574673    2.741952    ( 0.0000,  0.0000,  0.0000)
  18 P      6.224235    4.574673    4.367750    ( 0.0000,  0.0000,  0.0000)
  19 P      9.465668    1.525327    1.998048    ( 0.0000,  0.0000,  0.0000)
  20 O      4.209991    1.525298    3.575465    ( 0.0000,  0.0000,  0.0000)
  21 O      1.019924    4.574702    1.205150    ( 0.0000,  0.0000,  0.0000)
  22 O      6.250009    4.574702    1.164535    ( 0.0000,  0.0000,  0.0000)
  23 O      9.440076    1.525298    3.534850    ( 0.0000,  0.0000,  0.0000)
  24 Li    -0.000000    0.000000   -0.000000    ( 0.0000,  0.0000,  0.0000)
  25 Li     5.230000   -0.000000    2.370000    ( 0.0000,  0.0000,  0.0000)
  26 Li    -0.000000    3.050000   -0.000000    ( 0.0000,  0.0000,  0.0000)
  27 Li     5.230000    3.050000    2.370000    ( 0.0000,  0.0000,  0.0000)

Unit cell:
           periodic     x           y           z      points  spacing
  1. axis:    yes   10.460000    0.000000    0.000000    60     0.1743
  2. axis:    yes    0.000000    6.100000    0.000000    35     0.1743
  3. axis:    yes    0.000000    0.000000    4.740000    27     0.1756

  Lengths:  10.460000   6.100000   4.740000
  Angles:   90.000000  90.000000  90.000000

Effective grid spacing dv^(1/3) = 0.1747

                     log10-error:           total        iterations:
           time      wfs    density  force  energy       poisson  magmom
iter:   1  18:51:35  -3.10                -226.056007             +0.0010
iter:   2  18:52:00  -4.55  -3.14         -226.054507             +0.0003
iter:   3  18:52:25  -3.33  -3.18         -226.050654             -0.0000
iter:   4  18:52:50  -4.65  -3.36         -226.049715             +0.0001
iter:   5  18:53:15  -4.37  -3.58         -226.050395             +0.0001
iter:   6  18:53:41  -4.38  -3.55         -226.049334             +0.0000
iter:   7  18:54:06  -5.07  -3.99         -226.049357             +0.0000
iter:   8  18:54:31  -6.11  -4.04         -226.049315             +0.0000
iter:   9  18:54:56  -6.25  -4.39         -226.049319             -0.0000
iter:  10  18:55:22  -6.88  -4.54         -226.049315             -0.0000
iter:  11  18:55:55  -7.72  -4.87         -226.049315             -0.0000
iter:  12  18:56:28  -8.60  -4.91    -2.24-226.049314             -0.0000
iter:  13  18:57:01  -8.37  -5.00    -2.81-226.049314             -0.0000
iter:  14  18:57:34  -9.07  -5.15    -2.93-226.049314             -0.0000
iter:  15  18:58:08  -9.11  -5.19    -2.52-226.049314             -0.0000
iter:  16  18:58:41  -8.54  -5.25    -2.13-226.049314             -0.0000
iter:  17  18:59:14  -8.74  -5.37    -3.03-226.049314             -0.0000
iter:  18  18:59:47  -8.11  -5.20    -2.35-226.049314             -0.0000
iter:  19  19:00:20  -9.25  -5.77    -3.10-226.049314             -0.0000
iter:  20  19:00:54  -8.97  -5.80    -2.52-226.049314             +0.0000
iter:  21  19:01:27  -9.38  -5.74    -3.05-226.049314             -0.0000
iter:  22  19:02:00 -10.13  -6.33    -3.67-226.049314             +0.0000
iter:  23  19:02:33 -10.61  -6.37    -3.56-226.049314             +0.0000
iter:  24  19:03:07 -10.55  -6.48    -3.79-226.049314             +0.0000
iter:  25  19:03:40 -11.67  -6.62    -3.92-226.049314             +0.0000
iter:  26  19:04:13 -10.96  -6.74    -4.17-226.049314             +0.0000
iter:  27  19:04:46 -10.94  -6.66    -3.94-226.049314             +0.0000
iter:  28  19:05:19 -12.56  -7.17    -4.82-226.049314             +0.0000
iter:  29  19:05:52 -13.07  -7.43    -5.41-226.049314             +0.0000
iter:  30  19:06:25 -12.70  -7.52    -4.98-226.049314             -0.0000
iter:  31  19:06:59 -13.84  -7.77    -5.21-226.049314             -0.0000
iter:  32  19:07:32 -14.13  -7.85    -5.65-226.049314             -0.0000
iter:  33  19:08:05 -13.76  -7.92    -5.04-226.049314             -0.0000
iter:  34  19:08:38 -13.99  -8.05    -5.56-226.049314             -0.0000
iter:  35  19:09:11 -15.28  -8.37    -6.18-226.049314             -0.0000

Converged after 35 iterations.

Dipole moment: (-0.001528, 0.151937, 0.002552) |e|*Ang

Total magnetic moment: (0.000000, 0.000000, -0.000000)
Local magnetic moments:
   0 O  ( 0.000000,  0.000000,  0.057283)
   1 O  ( 0.000000,  0.000000,  0.057663)
   2 O  ( 0.000000,  0.000000, -0.057765)
   3 O  ( 0.000000,  0.000000, -0.057754)
   4 O  ( 0.000000,  0.000000, -0.057763)
   5 O  ( 0.000000,  0.000000, -0.057760)
   6 O  ( 0.000000,  0.000000,  0.058014)
   7 O  ( 0.000000,  0.000000,  0.057864)
   8 O  ( 0.000000,  0.000000,  0.023021)
   9 O  ( 0.000000,  0.000000,  0.023038)
  10 O  ( 0.000000,  0.000000, -0.023048)
  11 O  ( 0.000000,  0.000000, -0.023180)
  12 Mn ( 0.000000,  0.000000,  4.485536)
  13 Mn ( 0.000000,  0.000000,  4.486921)
  14 Mn ( 0.000000,  0.000000, -4.485794)
  15 Mn ( 0.000000,  0.000000, -4.485954)
  16 P  ( 0.000000,  0.000000,  0.011133)
  17 P  ( 0.000000,  0.000000,  0.011255)
  18 P  ( 0.000000,  0.000000, -0.011276)
  19 P  ( 0.000000,  0.000000, -0.011257)
  20 O  ( 0.000000,  0.000000,  0.026089)
  21 O  ( 0.000000,  0.000000,  0.025988)
  22 O  ( 0.000000,  0.000000, -0.026019)
  23 O  ( 0.000000,  0.000000, -0.026015)
  24 Li ( 0.000000,  0.000000,  0.000001)
  25 Li ( 0.000000,  0.000000, -0.000014)
  26 Li ( 0.000000,  0.000000, -0.000001)
  27 Li ( 0.000000,  0.000000,  0.000002)

Energy contributions relative to reference atoms: (reference = -196157.275402)

Kinetic:       +220.797552
Potential:     -197.800251
External:        +0.000000
XC:            -251.077503
Entropy (-ST):   -0.000000
Local:           +2.030887
--------------------------
Free energy:   -226.049314
Extrapolated:  -226.049314

Spin contamination: 9.879543 electrons
Showing only first 2 kpts
                      Up                     Down
 Kpt  Band  Eigenvalues  Occupancy  Eigenvalues  Occupancy
  0    88      5.15662    0.01389      5.16582    0.01389
  0    89      5.20062    0.01389      5.20277    0.01389
  0    90      7.24328    0.00000      7.23864    0.00000
  0    91      7.27023    0.00000      7.26819    0.00000

  1    88      5.12525    0.01389      5.13231    0.01389
  1    89      5.20256    0.01389      5.20629    0.01389
  1    90      7.18618    0.00000      7.18233    0.00000
  1    91      7.21827    0.00000      7.21582    0.00000


Fermi level: 5.98909

Gap: 1.681 eV
Transition (v -> c):
  (s=1, k=14, n=89, [0.08, 0.08, 0.12]) -> (s=1, k=13, n=90, [0.08, 0.08, -0.12])

Forces in eV/Ang:
  0 O    -0.04436   -0.21138    0.05315
  1 O    -0.07554   -0.08164   -0.01469
  2 O    -0.08178    0.08301    0.01731
  3 O     0.08128   -0.07851    0.01789
  4 O    -0.08159   -0.08209    0.01719
  5 O     0.08117    0.07855    0.01791
  6 O     0.08154   -0.01687   -0.02206
  7 O    -0.08141    0.08481   -0.01691
  8 O     0.01137   -0.00044    0.00156
  9 O    -0.02258    0.00571    0.00614
 10 O    -0.01061    0.00070   -0.00307
 11 O     0.03299    0.00325   -0.00656
 12 Mn   -0.04930    0.01231    0.04981
 13 Mn    0.05948    0.00487    0.05803
 14 Mn    0.05168   -0.00014   -0.04781
 15 Mn   -0.05811    0.00035   -0.04585
 16 P     0.08407    0.19559   -0.07517
 17 P     0.00462   -0.00561    0.00506
 18 P     0.01537   -0.00133    0.00068
 19 P    -0.00729    0.00009   -0.00031
 20 O     0.01695    0.00054   -0.02643
 21 O    -0.00550    0.00432   -0.02094
 22 O    -0.01481    0.00181    0.01772
 23 O     0.01227   -0.00007    0.01740
 24 Li   -0.00138    0.00118    0.00005
 25 Li    0.00376    0.00684    0.00185
 26 Li   -0.00023   -0.00117   -0.00015
 27 Li   -0.00207   -0.00465   -0.00179

System changes: positions 

Initializing position-dependent things.

Density initialized from wave functions
     .-------------------------.  
    /|             P  O        |  
   / |   O      O            Li|  
  /  |            Li Mn      O |  
 *   |P O   O           Mn Li  |  
 |   | O        Li       O     |  
 |   .--Mn----------O---O-P----.  
 | O/      On                 /   
 | /            O      O     /    
 |/       O  P              /     
 *-------------------------*      

Positions:
   0 O      3.495751    0.290982    0.988493    ( 0.0000,  0.0000,  0.0000)
   1 O      1.734488    5.808998    3.367956    ( 0.0000,  0.0000,  0.0000)
   2 O      6.963961    3.340232    3.741427    ( 0.0000,  0.0000,  0.0000)
   3 O      8.725801    2.759748    1.371964    ( 0.0000,  0.0000,  0.0000)
   4 O      6.964249    5.809018    3.741507    ( 0.0000,  0.0000,  0.0000)
   5 O      8.725512    0.291002    1.372044    ( 0.0000,  0.0000,  0.0000)
   6 O      3.496039    2.759768    0.998573    ( 0.0000,  0.0000,  0.0000)
   7 O      1.734199    3.340252    3.368036    ( 0.0000,  0.0000,  0.0000)
   8 O      0.442968    1.525150    1.406463    ( 0.0000,  0.0000,  0.0000)
   9 O      4.786844    4.574849    3.776377    ( 0.0000,  0.0000,  0.0000)
  10 O     10.017032    4.574850    3.333537    ( 0.0000,  0.0000,  0.0000)
  11 O      5.673156    1.525151    0.963623    ( 0.0000,  0.0000,  0.0000)
  12 Mn     2.285619    1.524841    2.447875    ( 0.0000,  0.0000,  1.0000)
  13 Mn     2.944407    4.575159    0.077808    ( 0.0000,  0.0000, -1.0000)
  14 Mn     8.174381    4.575159    2.292125    ( 0.0000,  0.0000, -1.0000)
  15 Mn     7.515593    1.524841    4.662192    ( 0.0000,  0.0000,  1.0000)
  16 P      4.235765    1.525327    0.372250    ( 0.0000,  0.0000,  0.0000)
  17 P      0.994332    4.574673    2.741952    ( 0.0000,  0.0000,  0.0000)
  18 P      6.224235    4.574673    4.367750    ( 0.0000,  0.0000,  0.0000)
  19 P      9.465668    1.525327    1.998048    ( 0.0000,  0.0000,  0.0000)
  20 O      4.209991    1.525298    3.575465    ( 0.0000,  0.0000,  0.0000)
  21 O      1.019924    4.574702    1.205150    ( 0.0000,  0.0000,  0.0000)
  22 O      6.250009    4.574702    1.164535    ( 0.0000,  0.0000,  0.0000)
  23 O      9.440076    1.525298    3.534850    ( 0.0000,  0.0000,  0.0000)
  24 Li    -0.000000    0.000000   -0.000000    ( 0.0000,  0.0000,  0.0000)
  25 Li     5.230000   -0.000000    2.370000    ( 0.0000,  0.0000,  0.0000)
  26 Li    -0.000000    3.050000   -0.000000    ( 0.0000,  0.0000,  0.0000)
  27 Li     5.230000    3.050000    2.370000    ( 0.0000,  0.0000,  0.0000)

Unit cell:
           periodic     x           y           z      points  spacing
  1. axis:    yes   10.460000    0.000000    0.000000    60     0.1743
  2. axis:    yes    0.000000    6.100000    0.000000    35     0.1743
  3. axis:    yes    0.000000    0.000000    4.740000    27     0.1756

  Lengths:  10.460000   6.100000   4.740000
  Angles:   90.000000  90.000000  90.000000

Effective grid spacing dv^(1/3) = 0.1747

                     log10-error:           total        iterations:
           time      wfs    density  force  energy       poisson  magmom
iter:   1  19:09:54  -3.66                -226.050398             -0.0003
iter:   2  19:10:19  -5.11  -3.58         -226.050282             -0.0001
iter:   3  19:10:44  -4.33  -3.60         -226.049785             +0.0000
iter:   4  19:11:10  -5.75  -3.82         -226.049644             -0.0000
iter:   5  19:11:35  -4.86  -3.99         -226.049905             -0.0000
iter:   6  19:12:00  -5.10  -3.77         -226.049584             -0.0000
iter:   7  19:12:26  -5.97  -4.44         -226.049593             -0.0000
iter:   8  19:12:51  -6.76  -4.35         -226.049582             -0.0000
iter:   9  19:13:16  -7.34  -4.81         -226.049581             -0.0000
iter:  10  19:13:49  -7.89  -5.08         -226.049581             -0.0000
iter:  11  19:14:23  -9.22  -5.35    -2.59-226.049581             -0.0000
iter:  12  19:14:56  -8.71  -5.40    -2.56-226.049581             -0.0000
iter:  13  19:15:29  -9.03  -5.50    -2.57-226.049581             -0.0000
iter:  14  19:16:03  -9.61  -5.63    -3.28-226.049581             -0.0000
iter:  15  19:16:36  -9.83  -5.72    -3.57-226.049581             -0.0000
iter:  16  19:17:10  -9.75  -5.84    -2.73-226.049581             -0.0000
iter:  17  19:17:43 -10.31  -6.01    -3.71-226.049581             -0.0000
iter:  18  19:18:16 -10.58  -6.04    -3.74-226.049581             -0.0000
iter:  19  19:18:50 -11.05  -6.07    -4.02-226.049581             -0.0000
iter:  20  19:19:23 -10.46  -6.14    -3.35-226.049581             +0.0000
iter:  21  19:19:56 -11.32  -6.55    -4.24-226.049581             -0.0000
iter:  22  19:20:30 -11.69  -6.60    -3.52-226.049581             -0.0000
iter:  23  19:21:03 -11.68  -6.73    -4.07-226.049581             -0.0000
iter:  24  19:21:37 -11.78  -6.81    -4.40-226.049581             +0.0000
iter:  25  19:22:10 -11.88  -6.97    -4.36-226.049581             -0.0000
iter:  26  19:22:43 -12.37  -7.18    -4.34-226.049581             -0.0000
iter:  27  19:23:17 -13.63  -7.43    -4.99-226.049581             +0.0000
iter:  28  19:23:50 -13.47  -7.49    -5.21-226.049581             -0.0000
iter:  29  19:24:24 -13.18  -7.66    -4.63-226.049581             -0.0000
iter:  30  19:24:57 -14.10  -7.78    -5.35-226.049581             -0.0000
iter:  31  19:25:30 -13.40  -7.84    -5.30-226.049581             +0.0000
iter:  32  19:26:04 -13.68  -7.80    -4.96-226.049581             -0.0000
iter:  33  19:26:37 -14.86  -8.10    -5.49-226.049581             +0.0000
iter:  34  19:27:10 -13.97  -8.16    -5.03-226.049581             +0.0000
iter:  35  19:27:44 -14.52  -8.33    -5.48-226.049581             +0.0000
iter:  36  19:28:17 -15.92  -8.63    -6.35-226.049581             +0.0000

Converged after 36 iterations.

Dipole moment: (-0.000580, 0.002184, -0.011638) |e|*Ang

Total magnetic moment: (0.000000, 0.000000, 0.000000)
Local magnetic moments:
   0 O  ( 0.000000,  0.000000,  0.057681)
   1 O  ( 0.000000,  0.000000,  0.057774)
   2 O  ( 0.000000,  0.000000, -0.057762)
   3 O  ( 0.000000,  0.000000, -0.057749)
   4 O  ( 0.000000,  0.000000, -0.057770)
   5 O  ( 0.000000,  0.000000, -0.057756)
   6 O  ( 0.000000,  0.000000,  0.057714)
   7 O  ( 0.000000,  0.000000,  0.057828)
   8 O  ( 0.000000,  0.000000,  0.023047)
   9 O  ( 0.000000,  0.000000,  0.023081)
  10 O  ( 0.000000,  0.000000, -0.023037)
  11 O  ( 0.000000,  0.000000, -0.023061)
  12 Mn ( 0.000000,  0.000000,  4.486185)
  13 Mn ( 0.000000,  0.000000,  4.485384)
  14 Mn ( 0.000000,  0.000000, -4.485804)
  15 Mn ( 0.000000,  0.000000, -4.485887)
  16 P  ( 0.000000,  0.000000,  0.011309)
  17 P  ( 0.000000,  0.000000,  0.011251)
  18 P  ( 0.000000,  0.000000, -0.011239)
  19 P  ( 0.000000,  0.000000, -0.011275)
  20 O  ( 0.000000,  0.000000,  0.026103)
  21 O  ( 0.000000,  0.000000,  0.026047)
  22 O  ( 0.000000,  0.000000, -0.026042)
  23 O  ( 0.000000,  0.000000, -0.026031)
  24 Li ( 0.000000,  0.000000,  0.000000)
  25 Li ( 0.000000,  0.000000, -0.000017)
  26 Li ( 0.000000,  0.000000, -0.000000)
  27 Li ( 0.000000,  0.000000,  0.000000)

Energy contributions relative to reference atoms: (reference = -196157.275402)

Kinetic:       +220.527517
Potential:     -197.588404
External:        +0.000000
XC:            -251.020092
Entropy (-ST):   -0.000000
Local:           +2.031398
--------------------------
Free energy:   -226.049581
Extrapolated:  -226.049581

Spin contamination: 9.879332 electrons
Showing only first 2 kpts
                      Up                     Down
 Kpt  Band  Eigenvalues  Occupancy  Eigenvalues  Occupancy
  0    88      5.16231    0.01389      5.16460    0.01389
  0    89      5.20091    0.01389      5.20113    0.01389
  0    90      7.24250    0.00000      7.23924    0.00000
  0    91      7.26933    0.00000      7.26711    0.00000

  1    88      5.12992    0.01389      5.13098    0.01389
  1    89      5.20425    0.01389      5.20479    0.01389
  1    90      7.18543    0.00000      7.18291    0.00000
  1    91      7.21745    0.00000      7.21472    0.00000


Fermi level: 5.98909

Gap: 1.681 eV
Transition (v -> c):
  (s=1, k=9, n=89, [0.08, -0.08, -0.12]) -> (s=1, k=14, n=90, [0.08, 0.08, 0.12])

Forces in eV/Ang:
  0 O     0.02721    0.01106    0.09441
  1 O    -0.08001   -0.07679   -0.02532
  2 O    -0.07854    0.07929    0.01808
  3 O     0.08140   -0.08002    0.01749
  4 O    -0.07937   -0.07910    0.01734
  5 O     0.08131    0.07997    0.01761
  6 O     0.07918   -0.08411   -0.00774
  7 O    -0.08075    0.07904   -0.01793
  8 O     0.01614   -0.00026    0.00205
  9 O    -0.00837   -0.00224   -0.00133
 10 O    -0.01192    0.00011   -0.00140
 11 O     0.00862   -0.00041    0.00466
 12 Mn   -0.04685    0.00204    0.04764
 13 Mn    0.05154   -0.01205    0.03945
 14 Mn    0.05162   -0.00018   -0.04745
 15 Mn   -0.05447    0.00021   -0.04848
 16 P     0.03234    0.06458   -0.07803
 17 P     0.00474   -0.00071   -0.00109
 18 P     0.00330   -0.00043   -0.00238
 19 P    -0.00923   -0.00000    0.00081
 20 O     0.02066    0.02019   -0.05156
 21 O    -0.01177    0.00021   -0.01699
 22 O    -0.01186    0.00074    0.01846
 23 O     0.01243   -0.00005    0.01720
 24 Li   -0.00027   -0.00007   -0.00004
 25 Li    0.00411    0.00077    0.00263
 26 Li   -0.00022    0.00015   -0.00008
 27 Li   -0.00099   -0.00195    0.00165

System changes: positions 

Initializing position-dependent things.

Density initialized from wave functions
     .-------------------------.  
    /|             P  O        |  
   / |   O      O            Li|  
  /  |            Li Mn      O |  
 *   |P O   O           Mn Li  |  
 |   | O        Li       O     |  
 |   .--Mn----------O---O-P----.  
 | O/      On                 /   
 | /            O      O     /    
 |/       O  P              /     
 *-------------------------*      

Positions:
   0 O      3.495751    0.290982    1.008493    ( 0.0000,  0.0000,  0.0000)
   1 O      1.734488    5.808998    3.367956    ( 0.0000,  0.0000,  0.0000)
   2 O      6.963961    3.340232    3.741427    ( 0.0000,  0.0000,  0.0000)
   3 O      8.725801    2.759748    1.371964    ( 0.0000,  0.0000,  0.0000)
   4 O      6.964249    5.809018    3.741507    ( 0.0000,  0.0000,  0.0000)
   5 O      8.725512    0.291002    1.372044    ( 0.0000,  0.0000,  0.0000)
   6 O      3.496039    2.759768    0.998573    ( 0.0000,  0.0000,  0.0000)
   7 O      1.734199    3.340252    3.368036    ( 0.0000,  0.0000,  0.0000)
   8 O      0.442968    1.525150    1.406463    ( 0.0000,  0.0000,  0.0000)
   9 O      4.786844    4.574849    3.776377    ( 0.0000,  0.0000,  0.0000)
  10 O     10.017032    4.574850    3.333537    ( 0.0000,  0.0000,  0.0000)
  11 O      5.673156    1.525151    0.963623    ( 0.0000,  0.0000,  0.0000)
  12 Mn     2.285619    1.524841    2.447875    ( 0.0000,  0.0000,  1.0000)
  13 Mn     2.944407    4.575159    0.077808    ( 0.0000,  0.0000, -1.0000)
  14 Mn     8.174381    4.575159    2.292125    ( 0.0000,  0.0000, -1.0000)
  15 Mn     7.515593    1.524841    4.662192    ( 0.0000,  0.0000,  1.0000)
  16 P      4.235765    1.525327    0.372250    ( 0.0000,  0.0000,  0.0000)
  17 P      0.994332    4.574673    2.741952    ( 0.0000,  0.0000,  0.0000)
  18 P      6.224235    4.574673    4.367750    ( 0.0000,  0.0000,  0.0000)
  19 P      9.465668    1.525327    1.998048    ( 0.0000,  0.0000,  0.0000)
  20 O      4.209991    1.525298    3.575465    ( 0.0000,  0.0000,  0.0000)
  21 O      1.019924    4.574702    1.205150    ( 0.0000,  0.0000,  0.0000)
  22 O      6.250009    4.574702    1.164535    ( 0.0000,  0.0000,  0.0000)
  23 O      9.440076    1.525298    3.534850    ( 0.0000,  0.0000,  0.0000)
  24 Li    -0.000000    0.000000   -0.000000    ( 0.0000,  0.0000,  0.0000)
  25 Li     5.230000   -0.000000    2.370000    ( 0.0000,  0.0000,  0.0000)
  26 Li    -0.000000    3.050000   -0.000000    ( 0.0000,  0.0000,  0.0000)
  27 Li     5.230000    3.050000    2.370000    ( 0.0000,  0.0000,  0.0000)

Unit cell:
           periodic     x           y           z      points  spacing
  1. axis:    yes   10.460000    0.000000    0.000000    60     0.1743
  2. axis:    yes    0.000000    6.100000    0.000000    35     0.1743
  3. axis:    yes    0.000000    0.000000    4.740000    27     0.1756

  Lengths:  10.460000   6.100000   4.740000
  Angles:   90.000000  90.000000  90.000000

Effective grid spacing dv^(1/3) = 0.1747

                     log10-error:           total        iterations:
           time      wfs    density  force  energy       poisson  magmom
iter:   1  19:28:59  -3.39                -226.051466             -0.0003
iter:   2  19:29:25  -4.77  -3.34         -226.051040             -0.0001
iter:   3  19:29:50  -3.80  -3.37         -226.049702             +0.0000
iter:   4  19:30:15  -5.35  -3.56         -226.049413             -0.0000
iter:   5  19:30:41  -4.87  -3.70         -226.049424             -0.0000
iter:   6  19:31:06  -5.23  -3.89         -226.049239             -0.0000
iter:   7  19:31:31  -6.05  -4.18         -226.049238             -0.0000
iter:   8  19:31:56  -6.74  -4.32         -226.049229             -0.0000
iter:   9  19:32:22  -6.67  -4.60         -226.049230             -0.0000
iter:  10  19:32:47  -7.19  -4.68         -226.049228             +0.0000
iter:  11  19:33:20  -7.88  -5.02         -226.049228             +0.0000
iter:  12  19:33:54  -8.96  -5.13    -2.49-226.049228             -0.0000
iter:  13  19:34:27  -8.45  -5.20    -3.04-226.049228             -0.0000
iter:  14  19:35:00  -9.23  -5.39    -2.84-226.049228             -0.0000
iter:  15  19:35:34  -8.51  -5.48    -2.23-226.049228             -0.0000
iter:  16  19:36:07  -8.38  -5.51    -2.82-226.049228             -0.0000
iter:  17  19:36:40  -9.63  -5.77    -3.24-226.049228             -0.0000
iter:  18  19:37:14 -10.33  -6.03    -4.03-226.049228             +0.0000
iter:  19  19:37:47  -9.40  -6.09    -3.42-226.049228             +0.0000
iter:  20  19:38:20  -9.98  -6.18    -3.80-226.049228             +0.0000
iter:  21  19:38:54 -10.32  -6.45    -3.68-226.049228             -0.0000
iter:  22  19:39:27 -10.17  -6.41    -3.98-226.049228             +0.0000
iter:  23  19:40:00 -10.26  -6.64    -3.65-226.049228             +0.0000
iter:  24  19:40:34 -11.10  -6.54    -3.82-226.049228             +0.0000
iter:  25  19:41:07 -11.14  -6.91    -4.27-226.049228             +0.0000
iter:  26  19:41:40 -11.53  -7.05    -4.77-226.049228             +0.0000
iter:  27  19:42:14 -12.40  -7.18    -5.02-226.049228             +0.0000
iter:  28  19:42:47 -13.26  -7.30    -4.94-226.049228             +0.0000
iter:  29  19:43:20 -12.00  -7.38    -4.72-226.049228             +0.0000
iter:  30  19:43:54 -12.20  -7.34    -5.13-226.049228             +0.0000
iter:  31  19:44:27 -13.86  -7.77    -5.53-226.049228             +0.0000
iter:  32  19:45:01 -13.73  -7.83    -5.30-226.049228             +0.0000
iter:  33  19:45:34 -12.91  -7.85    -4.89-226.049228             +0.0000
iter:  34  19:46:07 -13.01  -7.83    -4.99-226.049228             +0.0000
iter:  35  19:46:41 -14.44  -8.12    -5.88-226.049228             +0.0000
iter:  36  19:47:14 -14.11  -8.15    -5.58-226.049228             +0.0000
iter:  37  19:47:47 -13.89  -8.31    -5.59-226.049228             +0.0000
iter:  38  19:48:21 -15.18  -8.25    -6.01-226.049228             +0.0000

Converged after 38 iterations.

Dipole moment: (0.000587, -0.002209, 0.010936) |e|*Ang

Total magnetic moment: (0.000000, 0.000000, 0.000000)
Local magnetic moments:
   0 O  ( 0.000000,  0.000000,  0.057856)
   1 O  ( 0.000000,  0.000000,  0.057758)
   2 O  ( 0.000000,  0.000000, -0.057757)
   3 O  ( 0.000000,  0.000000, -0.057770)
   4 O  ( 0.000000,  0.000000, -0.057763)
   5 O  ( 0.000000,  0.000000, -0.057776)
   6 O  ( 0.000000,  0.000000,  0.057803)
   7 O  ( 0.000000,  0.000000,  0.057691)
   8 O  ( 0.000000,  0.000000,  0.023047)
   9 O  ( 0.000000,  0.000000,  0.023017)
  10 O  ( 0.000000,  0.000000, -0.023057)
  11 O  ( 0.000000,  0.000000, -0.023036)
  12 Mn ( 0.000000,  0.000000,  4.485391)
  13 Mn ( 0.000000,  0.000000,  4.486375)
  14 Mn ( 0.000000,  0.000000, -4.485792)
  15 Mn ( 0.000000,  0.000000, -4.485879)
  16 P  ( 0.000000,  0.000000,  0.011193)
  17 P  ( 0.000000,  0.000000,  0.011271)
  18 P  ( 0.000000,  0.000000, -0.011261)
  19 P  ( 0.000000,  0.000000, -0.011246)
  20 O  ( 0.000000,  0.000000,  0.025980)
  21 O  ( 0.000000,  0.000000,  0.026025)
  22 O  ( 0.000000,  0.000000, -0.026038)
  23 O  ( 0.000000,  0.000000, -0.026041)
  24 Li ( 0.000000,  0.000000, -0.000000)
  25 Li ( 0.000000,  0.000000,  0.000018)
  26 Li ( 0.000000,  0.000000,  0.000000)
  27 Li ( 0.000000,  0.000000, -0.000000)

Energy contributions relative to reference atoms: (reference = -196157.275402)

Kinetic:       +220.040858
Potential:     -197.216430
External:        +0.000000
XC:            -250.906222
Entropy (-ST):   -0.000000
Local:           +2.032565
--------------------------
Free energy:   -226.049228
Extrapolated:  -226.049228

Spin contamination: 9.879309 electrons
Showing only first 2 kpts
                      Up                     Down
 Kpt  Band  Eigenvalues  Occupancy  Eigenvalues  Occupancy
  0    88      5.16715    0.01389      5.16503    0.01389
  0    89      5.20230    0.01389      5.20168    0.01389
  0    90      7.24255    0.00000      7.24522    0.00000
  0    91      7.26945    0.00000      7.27213    0.00000

[...]
iter:   6  07:47:33  -5.24  -3.89         -226.049240             -0.0000
iter:   7  07:47:59  -6.05  -4.18         -226.049239             -0.0000
iter:   8  07:48:24  -6.75  -4.32         -226.049230             -0.0000
iter:   9  07:48:49  -6.68  -4.60         -226.049231             -0.0000
iter:  10  07:49:15  -7.19  -4.68         -226.049229             +0.0000
iter:  11  07:49:48  -7.89  -5.02         -226.049229             +0.0000
iter:  12  07:50:21  -8.96  -5.13    -2.50-226.049229             -0.0000
iter:  13  07:50:55  -8.44  -5.20    -3.03-226.049229             -0.0000
iter:  14  07:51:28  -9.22  -5.39    -2.83-226.049229             -0.0000
iter:  15  07:52:02  -8.49  -5.48    -2.22-226.049229             -0.0000
iter:  16  07:52:35  -8.38  -5.50    -2.76-226.049229             -0.0000
iter:  17  07:53:09  -9.67  -5.76    -3.24-226.049229             -0.0000
iter:  18  07:53:42 -10.30  -5.99    -3.96-226.049229             +0.0000
iter:  19  07:54:16  -9.40  -6.07    -3.43-226.049229             +0.0000
iter:  20  07:54:49 -10.00  -6.17    -3.82-226.049229             +0.0000
iter:  21  07:55:23 -10.45  -6.40    -3.66-226.049229             -0.0000
iter:  22  07:55:56 -10.08  -6.45    -3.98-226.049229             +0.0000
iter:  23  07:56:29 -10.11  -6.48    -3.50-226.049229             +0.0000
iter:  24  07:57:03 -11.40  -6.62    -4.12-226.049229             +0.0000
iter:  25  07:57:36 -10.71  -6.86    -3.96-226.049229             +0.0000
iter:  26  07:58:10 -10.80  -6.81    -4.29-226.049229             +0.0000
iter:  27  07:58:43 -11.86  -7.10    -4.65-226.049229             +0.0000
iter:  28  07:59:17 -13.03  -7.67    -5.81-226.049229             -0.0000
iter:  29  07:59:50 -12.94  -7.70    -5.03-226.049229             -0.0000
iter:  30  08:00:24 -13.22  -7.75    -5.51-226.049229             -0.0000
iter:  31  08:00:57 -13.42  -8.05    -5.66-226.049229             -0.0000
iter:  32  08:01:31 -14.02  -7.99    -5.61-226.049229             -0.0000
iter:  33  08:02:04 -14.88  -8.32    -5.81-226.049229             -0.0000
iter:  34  08:02:38 -14.39  -8.37    -6.14-226.049229             -0.0000

Converged after 34 iterations.

Dipole moment: (0.000587, -0.000769, 0.010931) |e|*Ang

Total magnetic moment: (0.000000, 0.000000, -0.000000)
Local magnetic moments:
   0 O  ( 0.000000,  0.000000,  0.057810)
   1 O  ( 0.000000,  0.000000,  0.057698)
   2 O  ( 0.000000,  0.000000, -0.057756)
   3 O  ( 0.000000,  0.000000, -0.057770)
   4 O  ( 0.000000,  0.000000, -0.057763)
   5 O  ( 0.000000,  0.000000, -0.057776)
   6 O  ( 0.000000,  0.000000,  0.057849)
   7 O  ( 0.000000,  0.000000,  0.057752)
   8 O  ( 0.000000,  0.000000,  0.023047)
   9 O  ( 0.000000,  0.000000,  0.023017)
  10 O  ( 0.000000,  0.000000, -0.023057)
  11 O  ( 0.000000,  0.000000, -0.023036)
  12 Mn ( 0.000000,  0.000000,  4.485392)
  13 Mn ( 0.000000,  0.000000,  4.486376)
  14 Mn ( 0.000000,  0.000000, -4.485792)
  15 Mn ( 0.000000,  0.000000, -4.485879)
  16 P  ( 0.000000,  0.000000,  0.011193)
  17 P  ( 0.000000,  0.000000,  0.011271)
  18 P  ( 0.000000,  0.000000, -0.011261)
  19 P  ( 0.000000,  0.000000, -0.011246)
  20 O  ( 0.000000,  0.000000,  0.025979)
  21 O  ( 0.000000,  0.000000,  0.026025)
  22 O  ( 0.000000,  0.000000, -0.026038)
  23 O  ( 0.000000,  0.000000, -0.026041)
  24 Li ( 0.000000,  0.000000,  0.000000)
  25 Li ( 0.000000,  0.000000, -0.000000)
  26 Li ( 0.000000,  0.000000, -0.000000)
  27 Li ( 0.000000,  0.000000,  0.000018)

Energy contributions relative to reference atoms: (reference = -196157.275402)

Kinetic:       +220.040560
Potential:     -197.216183
External:        +0.000000
XC:            -250.906173
Entropy (-ST):   -0.000000
Local:           +2.032567
--------------------------
Free energy:   -226.049229
Extrapolated:  -226.049229

Spin contamination: 9.879309 electrons
Showing only first 2 kpts
                      Up                     Down
 Kpt  Band  Eigenvalues  Occupancy  Eigenvalues  Occupancy
  0    88      5.16534    0.01389      5.16511    0.01389
  0    89      5.20457    0.01389      5.20160    0.01389
  0    90      7.24258    0.00000      7.24437    0.00000
  0    91      7.26943    0.00000      7.27208    0.00000

  1    88      5.13171    0.01389      5.13155    0.01389
  1    89      5.20747    0.01389      5.20533    0.01389
  1    90      7.18545    0.00000      7.18704    0.00000
  1    91      7.21752    0.00000      7.21960    0.00000


Fermi level: 5.98909

Gap: 1.676 eV
Transition (v -> c):
  (s=0, k=14, n=89, [0.08, 0.08, 0.12]) -> (s=0, k=10, n=90, [0.08, -0.08, 0.12])

Forces in eV/Ang:
  0 O     0.08133    0.07509   -0.02736
  1 O    -0.07994   -0.08002   -0.01696
  2 O    -0.08117    0.07990    0.01778
  3 O     0.07938   -0.07910    0.01728
  4 O    -0.08200   -0.07971    0.01703
  5 O     0.07928    0.07906    0.01740
  6 O     0.13233   -0.14603   -0.12989
  7 O    -0.08080    0.08236   -0.00954
  8 O     0.00935   -0.00026    0.00151
  9 O    -0.01706   -0.00217    0.00573
 10 O    -0.01360    0.00011   -0.00217
 11 O     0.01673   -0.00028   -0.00900
 12 Mn   -0.05862    0.00182    0.04826
 13 Mn    0.05400   -0.01183    0.05681
 14 Mn    0.05368   -0.00018   -0.04815
 15 Mn   -0.05115    0.00021   -0.04779
 16 P    -0.04490    0.06274    0.07745
 17 P     0.00863   -0.00075    0.00089
 18 P     0.01035   -0.00043    0.00299
 19 P    -0.00411   -0.00000   -0.00060
 20 O     0.00264    0.01965    0.01603
 21 O    -0.01143    0.00022   -0.01789
 22 O    -0.01113    0.00074    0.01671
 23 O     0.01077   -0.00005    0.01765
 24 Li    0.00022    0.00015    0.00008
 25 Li    0.00097   -0.00194   -0.00162
 26 Li    0.00027   -0.00007    0.00003
 27 Li   -0.00402    0.00078   -0.00250

System changes: positions 

Initializing position-dependent things.

Density initialized from wave functions
     .-------------------------.  
    /|             P  O        |  
   / |   O      O            Li|  
  /  |            Li Mn      O |  
 *   |PO    O           Mn Li  |  
 |   | O        Li       O     |  
 |   .--Mn----------O---O-P----.  
 | O/      On                 /   
 | /            O      O     /    
 |/       O  P              /     
 *-------------------------*      

Positions:
   0 O      3.495751    0.290982    0.998493    ( 0.0000,  0.0000,  0.0000)
   1 O      1.734488    5.808998    3.367956    ( 0.0000,  0.0000,  0.0000)
   2 O      6.963961    3.340232    3.741427    ( 0.0000,  0.0000,  0.0000)
   3 O      8.725801    2.759748    1.371964    ( 0.0000,  0.0000,  0.0000)
   4 O      6.964249    5.809018    3.741507    ( 0.0000,  0.0000,  0.0000)
   5 O      8.725512    0.291002    1.372044    ( 0.0000,  0.0000,  0.0000)
   6 O      3.496039    2.759768    0.998573    ( 0.0000,  0.0000,  0.0000)
   7 O      1.724199    3.340252    3.368036    ( 0.0000,  0.0000,  0.0000)
   8 O      0.442968    1.525150    1.406463    ( 0.0000,  0.0000,  0.0000)
   9 O      4.786844    4.574849    3.776377    ( 0.0000,  0.0000,  0.0000)
  10 O     10.017032    4.574850    3.333537    ( 0.0000,  0.0000,  0.0000)
  11 O      5.673156    1.525151    0.963623    ( 0.0000,  0.0000,  0.0000)
  12 Mn     2.285619    1.524841    2.447875    ( 0.0000,  0.0000,  1.0000)
  13 Mn     2.944407    4.575159    0.077808    ( 0.0000,  0.0000, -1.0000)
  14 Mn     8.174381    4.575159    2.292125    ( 0.0000,  0.0000, -1.0000)
  15 Mn     7.515593    1.524841    4.662192    ( 0.0000,  0.0000,  1.0000)
  16 P      4.235765    1.525327    0.372250    ( 0.0000,  0.0000,  0.0000)
  17 P      0.994332    4.574673    2.741952    ( 0.0000,  0.0000,  0.0000)
  18 P      6.224235    4.574673    4.367750    ( 0.0000,  0.0000,  0.0000)
  19 P      9.465668    1.525327    1.998048    ( 0.0000,  0.0000,  0.0000)
  20 O      4.209991    1.525298    3.575465    ( 0.0000,  0.0000,  0.0000)
  21 O      1.019924    4.574702    1.205150    ( 0.0000,  0.0000,  0.0000)
  22 O      6.250009    4.574702    1.164535    ( 0.0000,  0.0000,  0.0000)
  23 O      9.440076    1.525298    3.534850    ( 0.0000,  0.0000,  0.0000)
  24 Li    -0.000000    0.000000   -0.000000    ( 0.0000,  0.0000,  0.0000)
  25 Li     5.230000   -0.000000    2.370000    ( 0.0000,  0.0000,  0.0000)
  26 Li    -0.000000    3.050000   -0.000000    ( 0.0000,  0.0000,  0.0000)
  27 Li     5.230000    3.050000    2.370000    ( 0.0000,  0.0000,  0.0000)

Unit cell:
           periodic     x           y           z      points  spacing
  1. axis:    yes   10.460000    0.000000    0.000000    60     0.1743
  2. axis:    yes    0.000000    6.100000    0.000000    35     0.1743
  3. axis:    yes    0.000000    0.000000    4.740000    27     0.1756

  Lengths:  10.460000   6.100000   4.740000
  Angles:   90.000000  90.000000  90.000000

Effective grid spacing dv^(1/3) = 0.1747

                     log10-error:           total        iterations:
           time      wfs    density  force  energy       poisson  magmom
iter:   1  08:03:20  -3.58                -226.051233             +0.0009
iter:   2  08:03:46  -4.93  -3.39         -226.051017             +0.0003
iter:   3  08:04:11  -4.01  -3.42         -226.050406             -0.0000
iter:   4  08:04:36  -5.43  -3.61         -226.050183             +0.0001
iter:   5  08:05:02  -5.69  -3.77         -226.050158             +0.0001
iter:   6  08:05:27  -5.66  -3.91         -226.050095             +0.0000
iter:   7  08:05:53  -6.63  -4.25         -226.050092             +0.0000
iter:   8  08:06:18  -6.77  -4.41         -226.050089             +0.0000
iter:   9  08:06:43  -7.14  -4.69         -226.050090             +0.0000
iter:  10  08:07:09  -7.11  -4.70         -226.050089             +0.0000
iter:  11  08:07:42  -8.25  -5.00         -226.050088             +0.0000
iter:  12  08:08:15  -8.41  -5.21    -2.64-226.050088             +0.0000
iter:  13  08:08:49  -8.44  -5.28    -2.63-226.050088             +0.0000
iter:  14  08:09:22  -9.25  -5.49    -2.96-226.050088             +0.0000
iter:  15  08:09:56  -8.24  -5.60    -2.76-226.050088             +0.0000
iter:  16  08:10:29  -8.92  -5.41    -3.27-226.050088             +0.0000
iter:  17  08:11:03  -9.17  -5.79    -3.81-226.050088             +0.0000
iter:  18  08:11:37  -9.23  -5.90    -3.20-226.050088             -0.0000
iter:  19  08:12:10  -9.34  -5.81    -3.66-226.050088             +0.0000
iter:  20  08:12:44 -10.45  -6.56    -4.61-226.050088             +0.0000
iter:  21  08:13:17 -11.01  -6.65    -3.93-226.050088             +0.0000
iter:  22  08:13:51 -11.49  -6.88    -4.52-226.050088             +0.0000
iter:  23  08:14:24 -12.50  -7.13    -5.36-226.050088             -0.0000
iter:  24  08:14:58 -11.80  -7.16    -4.47-226.050088             -0.0000
iter:  25  08:15:31 -12.27  -7.12    -4.79-226.050088             -0.0000
iter:  26  08:16:05 -12.33  -7.26    -5.06-226.050088             +0.0000
iter:  27  08:16:39 -12.23  -7.30    -4.91-226.050088             +0.0000
iter:  28  08:17:12 -13.04  -7.40    -5.09-226.050088             +0.0000
iter:  29  08:17:46 -13.68  -7.57    -5.11-226.050088             -0.0000
iter:  30  08:18:19 -14.08  -7.64    -5.28-226.050088             -0.0000
iter:  31  08:18:53 -13.70  -7.71    -5.34-226.050088             -0.0000
iter:  32  08:19:26 -14.31  -7.92    -6.23-226.050088             -0.0000

Converged after 32 iterations.

Dipole moment: (-0.000598, -0.002185, -0.000379) |e|*Ang

Total magnetic moment: (0.000000, 0.000000, -0.000000)
Local magnetic moments:
   0 O  ( 0.000000,  0.000000,  0.057869)
   1 O  ( 0.000000,  0.000000,  0.057817)
   2 O  ( 0.000000,  0.000000, -0.057720)
   3 O  ( 0.000000,  0.000000, -0.057781)
   4 O  ( 0.000000,  0.000000, -0.057727)
   5 O  ( 0.000000,  0.000000, -0.057796)
   6 O  ( 0.000000,  0.000000,  0.057691)
   7 O  ( 0.000000,  0.000000,  0.057449)
   8 O  ( 0.000000,  0.000000,  0.023080)
   9 O  ( 0.000000,  0.000000,  0.023056)
  10 O  ( 0.000000,  0.000000, -0.023182)
  11 O  ( 0.000000,  0.000000, -0.023005)
  12 Mn ( 0.000000,  0.000000,  4.486153)
  13 Mn ( 0.000000,  0.000000,  4.486106)
  14 Mn ( 0.000000,  0.000000, -4.485791)
  15 Mn ( 0.000000,  0.000000, -4.485903)
  16 P  ( 0.000000,  0.000000,  0.011238)
  17 P  ( 0.000000,  0.000000,  0.011171)
  18 P  ( 0.000000,  0.000000, -0.011278)
  19 P  ( 0.000000,  0.000000, -0.011272)
  20 O  ( 0.000000,  0.000000,  0.026004)
  21 O  ( 0.000000,  0.000000,  0.026068)
  22 O  ( 0.000000,  0.000000, -0.025990)
  23 O  ( 0.000000,  0.000000, -0.026058)
  24 Li ( 0.000000,  0.000000, -0.000005)
  25 Li ( 0.000000,  0.000000, -0.000001)
  26 Li ( 0.000000,  0.000000,  0.000004)
  27 Li ( 0.000000,  0.000000, -0.000002)

Energy contributions relative to reference atoms: (reference = -196157.275402)

Kinetic:       +220.538799
Potential:     -197.596109
External:        +0.000000
XC:            -251.024430
Entropy (-ST):   -0.000000
Local:           +2.031653
--------------------------
Free energy:   -226.050088
Extrapolated:  -226.050088

Spin contamination: 9.879444 electrons
Showing only first 2 kpts
                      Up                     Down
 Kpt  Band  Eigenvalues  Occupancy  Eigenvalues  Occupancy
  0    88      5.15354    0.01389      5.16818    0.01389
  0    89      5.19492    0.01389      5.20475    0.01389
  0    90      7.24547    0.00000      7.23464    0.00000
  0    91      7.27249    0.00000      7.26245    0.00000

  1    88      5.12214    0.01389      5.13465    0.01389
  1    89      5.19720    0.01389      5.20844    0.01389
  1    90      7.18839    0.00000      7.17746    0.00000
  1    91      7.22053    0.00000      7.20975    0.00000


Fermi level: 5.98909

Gap: 1.672 eV
Transition (v -> c):
  (s=1, k=14, n=89, [0.08, 0.08, 0.12]) -> (s=1, k=13, n=90, [0.08, 0.08, -0.12])

Forces in eV/Ang:
  0 O     0.08022    0.08059   -0.01803
  1 O    -0.06401   -0.08097   -0.01644
  2 O    -0.08482    0.08027    0.01844
  3 O     0.07887   -0.08083    0.01647
  4 O    -0.08545   -0.08047    0.01869
  5 O     0.07896    0.08110    0.01579
  6 O     0.07467   -0.07468   -0.01708
  7 O     0.05598   -0.04387    0.03580
  8 O     0.01677   -0.00239    0.00105
  9 O    -0.02251   -0.00096    0.00092
 10 O    -0.04439    0.03019   -0.00853
 11 O     0.00695    0.00065   -0.00290
 12 Mn   -0.06278    0.00354    0.04972
 13 Mn    0.04315    0.00336    0.04754
 14 Mn    0.06317    0.00044   -0.04467
 15 Mn   -0.04665   -0.00002   -0.04839
 16 P     0.00019   -0.00512    0.00249
 17 P    -0.10078    0.07874   -0.03977
 18 P     0.01727   -0.00009    0.00142
 19 P    -0.00723    0.00058    0.00388
 20 O     0.00648    0.00342   -0.01939
 21 O     0.00021    0.00695   -0.02429
 22 O    -0.01538   -0.00002    0.01670
 23 O     0.00915   -0.00101    0.01648
 24 Li   -0.00222   -0.00229   -0.00108
 25 Li    0.00207   -0.00042   -0.00029
 26 Li   -0.00118    0.00298   -0.00433
 27 Li    0.00345    0.00033   -0.00021

System changes: positions 

Initializing position-dependent things.

Density initialized from wave functions
     .-------------------------.  
    /|             P  O        |  
   / |   O      O            Li|  
  /  |            Li Mn      O |  
 *   |P O   O           Mn Li  |  
 |   | O        Li       O     |  
 |   .--Mn----------O---O-P----.  
 | O/      On                 /   
 | /            O      O     /    
 |/       O  P              /     
 *-------------------------*      

Positions:
   0 O      3.495751    0.290982    0.998493    ( 0.0000,  0.0000,  0.0000)
   1 O      1.734488    5.808998    3.367956    ( 0.0000,  0.0000,  0.0000)
   2 O      6.963961    3.340232    3.741427    ( 0.0000,  0.0000,  0.0000)
   3 O      8.725801    2.759748    1.371964    ( 0.0000,  0.0000,  0.0000)
   4 O      6.964249    5.809018    3.741507    ( 0.0000,  0.0000,  0.0000)
   5 O      8.725512    0.291002    1.372044    ( 0.0000,  0.0000,  0.0000)
   6 O      3.496039    2.759768    0.998573    ( 0.0000,  0.0000,  0.0000)
   7 O      1.744199    3.340252    3.368036    ( 0.0000,  0.0000,  0.0000)
   8 O      0.442968    1.525150    1.406463    ( 0.0000,  0.0000,  0.0000)
   9 O      4.786844    4.574849    3.776377    ( 0.0000,  0.0000,  0.0000)
  10 O     10.017032    4.574850    3.333537    ( 0.0000,  0.0000,  0.0000)
  11 O      5.673156    1.525151    0.963623    ( 0.0000,  0.0000,  0.0000)
  12 Mn     2.285619    1.524841    2.447875    ( 0.0000,  0.0000,  1.0000)
  13 Mn     2.944407    4.575159    0.077808    ( 0.0000,  0.0000, -1.0000)
  14 Mn     8.174381    4.575159    2.292125    ( 0.0000,  0.0000, -1.0000)
  15 Mn     7.515593    1.524841    4.662192    ( 0.0000,  0.0000,  1.0000)
  16 P      4.235765    1.525327    0.372250    ( 0.0000,  0.0000,  0.0000)
  17 P      0.994332    4.574673    2.741952    ( 0.0000,  0.0000,  0.0000)
  18 P      6.224235    4.574673    4.367750    ( 0.0000,  0.0000,  0.0000)
  19 P      9.465668    1.525327    1.998048    ( 0.0000,  0.0000,  0.0000)
  20 O      4.209991    1.525298    3.575465    ( 0.0000,  0.0000,  0.0000)
  21 O      1.019924    4.574702    1.205150    ( 0.0000,  0.0000,  0.0000)
  22 O      6.250009    4.574702    1.164535    ( 0.0000,  0.0000,  0.0000)
  23 O      9.440076    1.525298    3.534850    ( 0.0000,  0.0000,  0.0000)
  24 Li    -0.000000    0.000000   -0.000000    ( 0.0000,  0.0000,  0.0000)
  25 Li     5.230000   -0.000000    2.370000    ( 0.0000,  0.0000,  0.0000)
  26 Li    -0.000000    3.050000   -0.000000    ( 0.0000,  0.0000,  0.0000)
  27 Li     5.230000    3.050000    2.370000    ( 0.0000,  0.0000,  0.0000)

Unit cell:
           periodic     x           y           z      points  spacing
  1. axis:    yes   10.460000    0.000000    0.000000    60     0.1743
  2. axis:    yes    0.000000    6.100000    0.000000    35     0.1743
  3. axis:    yes    0.000000    0.000000    4.740000    27     0.1756

  Lengths:  10.460000   6.100000   4.740000
  Angles:   90.000000  90.000000  90.000000

Effective grid spacing dv^(1/3) = 0.1747

                     log10-error:           total        iterations:
           time      wfs    density  force  energy       poisson  magmom
iter:   1  08:20:09  -3.30                -226.051143             -0.0015
iter:   2  08:20:34  -4.70  -3.30         -226.050644             -0.0005
iter:   3  08:21:00  -3.53  -3.33         -226.049427             +0.0001
iter:   4  08:21:25  -5.07  -3.44         -226.048703             -0.0001
iter:   5  08:21:50  -6.28  -3.64         -226.048690             -0.0001
iter:   6  08:22:16  -5.27  -3.67         -226.048507             -0.0000
iter:   7  08:22:41  -6.07  -4.08         -226.048502             -0.0000
iter:   8  08:23:06  -5.76  -4.17         -226.048529             +0.0000
iter:   9  08:23:32  -6.06  -4.07         -226.048489             -0.0000
iter:  10  08:23:57  -6.00  -4.50         -226.048490             -0.0000
iter:  11  08:24:22  -6.87  -4.58         -226.048487             -0.0000
iter:  12  08:24:55  -7.57  -4.74         -226.048487             -0.0000
iter:  13  08:25:29  -8.17  -5.09    -2.92-226.048486             -0.0000
iter:  14  08:26:02  -8.17  -5.22    -2.85-226.048486             +0.0000
iter:  15  08:26:36  -9.01  -5.38    -2.77-226.048486             -0.0000
iter:  16  08:27:09  -9.19  -5.51    -3.15-226.048486             -0.0000
iter:  17  08:27:43  -9.32  -5.58    -2.97-226.048486             -0.0000
iter:  18  08:28:16  -9.79  -5.68    -3.39-226.048486             -0.0000
iter:  19  08:28:50 -10.23  -5.75    -2.92-226.048486             -0.0000
iter:  20  08:29:23 -10.45  -5.77    -2.96-226.048486             +0.0000
iter:  21  08:29:57  -9.82  -5.78    -3.14-226.048486             +0.0000
iter:  22  08:30:30  -9.74  -5.87    -3.24-226.048486             +0.0000
iter:  23  08:31:04  -9.94  -6.04    -3.18-226.048486             +0.0000
iter:  24  08:31:37 -11.03  -6.53    -3.86-226.048486             +0.0000
iter:  25  08:32:11 -11.68  -6.57    -3.79-226.048486             +0.0000
