
  ___ ___ ___ _ _ _  
 |   |   |_  | | | | 
 | | | | | . | | | | 
 |__ |  _|___|_____|  21.6.1b1
 |___|_|             

User:   madkru@a104.nifl.fysik.dtu.dk
Date:   Fri Jun 24 16:20:35 2022
Arch:   x86_64
Pid:    4971
Python: 3.8.6
gpaw:   /home/niflheim/madkru/new_venv/gpaw/gpaw (1f0dfc9eae)
_gpaw:  /home/niflheim/madkru/new_venv/gpaw/build/lib.linux-x86_64-skylake-3.8/
        _gpaw.cpython-38-x86_64-linux-gnu.so (c1e45bfab3)
ase:    /home/niflheim/madkru/new_venv/ase/ase (version 3.23.0b1-ca38c75a67)
numpy:  /home/modules/software/SciPy-bundle/2020.11-foss-2020b/lib/python3.8/site-packages/numpy (version 1.19.4)
scipy:  /home/modules/software/SciPy-bundle/2020.11-foss-2020b/lib/python3.8/site-packages/scipy (version 1.5.4)
libxc:  4.3.4
units:  Angstrom and eV
cores: 40
OpenMP: False
OMP_NUM_THREADS: 1

Input parameters:
  convergence: {density: 1e-09}
  experimental: {magmoms: [[0. 0. 0.]
 [0. 0. 0.]
 [0. 0. 0.]
 ...
 [0. 0. 0.]
 [0. 0. 0.]
 [0. 0. 0.]],
                 soc: True}
  kpts: [4 4 6]
  maxiter: 5000
  mixer: {backend: pulay,
          beta: 0.05,
          method: difference,
          nmaxold: 3,
          weight: 100}
  mode: {ecut: 600.0,
         gammacentered: False,
         name: pw}
  occupations: {fixmagmom: False,
                name: fermi-dirac,
                width: 0.001}
  symmetry: off

System changes: positions, numbers, cell, pbc, initial_charges, initial_magmoms 

Initialize ...

O-setup:
  name: Oxygen
  id: 9b9d51c344dea68c822856295a461509
  Z: 8.0
  valence: 6
  core: 2
  charge: 0.0
  file: /home/modules/software/GPAW-setups/0.9.20000/O.LDA.gz
  compensation charges: gauss, rc=0.21, lmax=2
  cutoffs: 1.17(filt), 0.83(core),
  valence states:
                energy  radius
    2s(2.00)   -23.752   0.688
    2p(4.00)    -9.195   0.598
    *s           3.459   0.688
    *p          18.016   0.598
    *d           0.000   0.619

  Using partial waves for O as LCAO basis

Mn-setup:
  name: Manganese
  id: 0d715a8018be061a6e9ea6f2d364ac92
  Z: 25.0
  valence: 15
  core: 10
  charge: 0.0
  file: /home/modules/software/GPAW-setups/0.9.20000/Mn.LDA.gz
  compensation charges: gauss, rc=0.38, lmax=2
  cutoffs: 2.14(filt), 0.86(core),
  valence states:
                energy  radius
    3s(2.00)   -85.387   1.275
    4s(2.00)    -5.282   1.275
    3p(6.00)   -54.493   1.281
    4p(0.00)    -1.471   1.281
    3d(5.00)    -7.009   1.138
    *d          20.203   1.138

  Using partial waves for Mn as LCAO basis

P-setup:
  name: Phosphorus
  id: a5561c299094968922a179ab894d2e2d
  Z: 15.0
  valence: 5
  core: 10
  charge: 0.0
  file: /home/modules/software/GPAW-setups/0.9.20000/P.LDA.gz
  compensation charges: gauss, rc=0.30, lmax=2
  cutoffs: 1.69(filt), 1.81(core),
  valence states:
                energy  radius
    3s(2.00)   -14.015   0.953
    3p(3.00)    -5.596   0.953
    *s          13.197   0.953
    *p          21.615   0.953
    *d           0.000   0.953

  Using partial waves for P as LCAO basis

Li-setup:
  name: Lithium
  id: b73562207f97a71b6967473b66fe8b65
  Z: 3.0
  valence: 1
  core: 2
  charge: 0.0
  file: /home/modules/software/GPAW-setups/0.9.20000/Li.LDA.gz
  compensation charges: gauss, rc=0.33, lmax=2
  cutoffs: 1.91(filt), 2.55(core),
  valence states:
                energy  radius
    2s(1.00)    -2.874   1.058
    2p(0.00)    -1.126   1.058
    *s          24.338   1.058

  Using partial waves for Li as LCAO basis

Reference energy: -196157.275402

Non-collinear calculation.
Magnetic moment: (0.000000, 0.000000, 0.000000)

Convergence criteria:
  Maximum total energy change: 0.0005 eV / electron
  Maximum integral of absolute density change: 1e-09 electrons
  Maximum integral of absolute eigenstate change: 4e-08 eV^2
  Maximum number of iterations: 5000

Symmetries present (total): 1

  ( 1  0  0)
  ( 0  1  0)
  ( 0  0  1)

96 k-points: 4 x 4 x 6 Monkhorst-Pack grid
96 k-points in the irreducible part of the Brillouin zone
       k-points in crystal coordinates                weights
   0:    -0.37500000   -0.37500000   -0.41666667          1/96
   1:    -0.37500000   -0.37500000   -0.25000000          1/96
   2:    -0.37500000   -0.37500000   -0.08333333          1/96
   3:    -0.37500000   -0.37500000    0.08333333          1/96
   4:    -0.37500000   -0.37500000    0.25000000          1/96
   5:    -0.37500000   -0.37500000    0.41666667          1/96
   6:    -0.37500000   -0.12500000   -0.41666667          1/96
   7:    -0.37500000   -0.12500000   -0.25000000          1/96
   8:    -0.37500000   -0.12500000   -0.08333333          1/96
   9:    -0.37500000   -0.12500000    0.08333333          1/96
          ...
  95:     0.37500000    0.37500000    0.41666667          1/96

Wave functions: Plane wave expansion
  Cutoff energy: 600.000 eV
  Number of coefficients (min, max): 10065, 10119
  Pulay-stress correction: 0.000000 eV/Ang^3 (de/decut=0.000000)
  Using FFTW library
  ScaLapack parameters: grid=1x1, blocksize=None
  Wavefunction extrapolation:
    Improved wavefunction reuse through dual PAW basis 

Occupation numbers: Fermi-Dirac: width=0.0010 eV
 

Eigensolver
   Davidson(niter=2) 

Densities:
  Coarse grid: 60*35*27 grid
  Fine grid: 120*70*54 grid
  Total Charge: 0.000000 

Density mixing:
  Method: difference
  Backend: pulay
  Linear mixing parameter: 0.05
  Mixing with 3 old densities
  Damping of long wave oscillations: 100 

Hamiltonian:
  XC and Coulomb potentials evaluated on a 120*70*54 grid
  Using the LDA Exchange-Correlation functional
  External potential:
    <gpaw.external.NoExternalPotential object at 0x2ad083553d00>
 

Memory estimate:
  Process memory now: 893.50 MiB
  Calculator: 167.16 MiB
    Density: 37.88 MiB
      Arrays: 11.25 MiB
      Localized functions: 18.84 MiB
      Mixer: 7.79 MiB
    Hamiltonian: 7.90 MiB
      Arrays: 7.35 MiB
      XC: 0.00 MiB
      Poisson: 0.00 MiB
      vbar: 0.54 MiB
    Wavefunctions: 121.39 MiB
      Arrays psit_nG: 69.17 MiB
      Eigensolver: 43.02 MiB
      Projections: 2.41 MiB
      Projectors: 4.31 MiB
      PW-descriptor: 2.47 MiB

Total number of cores used: 40
Parallelization over k-points: 40

Number of atoms: 28
Number of atomic orbitals: 148
Number of bands in calculation: 224
Number of valence electrons: 180
Bands to converge: occupied

... initialized

Initializing position-dependent things.

Density initialized from atomic densities
Creating initial wave functions:
  148 bands from LCAO basis set
  76 bands from random numbers

     .-------------------------.  
    /|             P  O        |  
   / |   O      O            Li|  
  /  |            Li Mn      O |  
 *   |PO    O           Mn Li  |  
 |   | O        Li       O     |  
 |   .--Mn----------O---O-P----.  
 | O/      MO                 /   
 | /            O      O     /    
 |/       O  P              /     
 *-------------------------*      

Positions:
   0 O      3.501927    0.290496    1.014275    ( 0.0000,  0.0000,  0.0000)
   1 O      1.729802    5.809666    3.383721    ( 0.0000,  0.0000,  0.0000)
   2 O      6.965752    3.340877    3.756366    ( 0.0000,  0.0000,  0.0000)
   3 O      8.721320    2.759449    1.387584    ( 0.0000,  0.0000,  0.0000)
   4 O      6.966088    5.808273    3.756424    ( 0.0000,  0.0000, -3.0000)
   5 O      8.720981    0.291400    1.387645    ( 0.0000,  0.0000,  3.0000)
   6 O      3.502157    2.760144    1.014370    ( 0.0000,  0.0000,  3.0000)
   7 O      1.729577    3.339690    3.383816    ( 0.0000,  0.0000, -3.0000)
   8 O      0.441338    1.525179    1.417632    ( 0.0000,  0.0000,  0.0000)
   9 O      4.785695    4.574820    3.785999    ( 0.0000,  0.0000,  0.0000)
  10 O     10.015114    4.574871    3.344253    ( 0.0000,  0.0000,  0.0000)
  11 O      5.676597    1.525124    0.974435    ( 0.0000,  0.0000,  0.0000)
  12 Mn     2.287241    1.524895    2.430088    ( 0.0000,  0.0000,  0.0000)
  13 Mn     2.943735    4.575103    0.060901    ( 5.0000,  0.0000,  0.0000)
  14 Mn     8.173757    4.575213    2.274848    (-5.0000,  0.0000,  0.0000)
  15 Mn     7.515824    1.524786    4.643267    (-5.0000,  0.0000,  0.0000)
  16 P      4.239232    1.525290    0.376869    ( 5.0000,  0.0000,  0.0000)
  17 P      0.992457    4.574706    2.746786    ( 0.0000,  0.0000,  0.0000)
  18 P      6.222394    4.574639    4.371715    ( 0.0000,  0.0000,  0.0000)
  19 P      9.463726    1.525359    2.002550    ( 0.0000,  0.0000,  0.0000)
  20 O      4.207923    1.525298    3.586614    ( 0.0000,  0.0000,  0.0000)
  21 O      1.023879    4.574697    1.216400    ( 0.0000,  0.0000,  0.0000)
  22 O      6.244195    4.574708    1.174946    ( 0.0000,  0.0000,  0.0000)
  23 O      9.443212    1.525292    3.545909    ( 0.0000,  0.0000,  0.0000)
  24 Li    -0.000148    0.012272   -0.038857    ( 0.0000,  0.0000,  0.0000)
  25 Li     5.233199   -0.011916    2.329976    ( 0.0000,  0.0000,  0.0000)
  26 Li    -0.000231    3.037942   -0.038641    ( 0.0000,  0.0000,  0.0000)
  27 Li     5.233258    3.061725    2.330170    ( 0.0000,  0.0000,  0.0000)

Unit cell:
           periodic     x           y           z      points  spacing
  1. axis:    yes   10.460000    0.000000    0.000000    60     0.1743
  2. axis:    yes    0.000000    6.100000    0.000000    35     0.1743
  3. axis:    yes    0.000000    0.000000    4.740000    27     0.1756

  Lengths:  10.460000   6.100000   4.740000
  Angles:   90.000000  90.000000  90.000000

Effective grid spacing dv^(1/3) = 0.1747

                     log10-error:    total        iterations:
           time      wfs    density  energy       poisson
iter:   1  16:22:32                -258.451561            -1.0,+0.0,-0.0
iter:   2  16:23:06  -0.42  -0.89  -266.650409            +0.8,-0.0,+0.2
iter:   3  16:23:41  -0.87  -0.94  -254.705243            +0.0,-0.0,-0.0
iter:   4  16:24:16  -0.62  -0.97  -236.018557            -0.0,+0.0,-0.0
iter:   5  16:24:50  -0.41  -1.09  -232.881726            -0.0,+0.0,-0.0
iter:   6  16:25:25  -1.59  -1.25  -222.133344            -0.0,+0.0,-0.0
iter:   7  16:26:00  -2.42  -1.35  -222.229982            -0.0,+0.0,-0.0
iter:   8  16:26:34  -3.05  -1.35  -222.084588            -0.3,-0.0,-0.0
iter:   9  16:27:09  -2.27  -1.38  -222.343758            -0.6,-0.0,-0.1
iter:  10  16:27:43  -2.15  -1.43  -222.322293            -0.4,-0.0,-0.1
iter:  11  16:28:18  -2.74  -1.50  -223.319102            -0.9,-0.1,-0.1
iter:  12  16:28:52  -2.73  -1.52  -223.141756            -0.7,-0.1,-0.1
iter:  13  16:29:27  -2.82  -1.64  -223.076859            -1.6,-0.1,-0.2
iter:  14  16:30:01  -1.90  -1.67  -223.777922            -3.2,-0.1,-0.3
iter:  15  16:30:36  -2.17  -1.86  -224.899998            -2.2,-0.2,-0.3
iter:  16  16:31:11  -2.96  -1.95  -225.083854            -2.3,-0.2,-0.3
iter:  17  16:31:45  -2.35  -1.97  -226.313191            -0.7,-0.2,-0.1
iter:  18  16:32:20  -2.36  -2.15  -226.404409            -0.0,-0.2,-0.1
iter:  19  16:32:54  -3.50  -2.33  -226.343546            -0.0,-0.2,-0.1
iter:  20  16:33:29  -2.34  -2.42  -226.309953            +0.0,-0.2,-0.1
iter:  21  16:34:03  -3.72  -2.66  -226.279162            +0.0,-0.2,-0.1
iter:  22  16:34:38  -3.71  -2.69  -226.264003            +0.0,-0.2,-0.1
iter:  23  16:35:13  -3.44  -2.74  -226.281251            +0.0,-0.2,-0.1
iter:  24  16:35:47  -3.80  -2.82  -226.265486            +0.0,-0.2,-0.1
iter:  25  16:36:22  -4.25  -2.85  -226.264163            +0.0,-0.2,-0.1
iter:  26  16:36:56  -4.48  -2.87  -226.265587            +0.0,-0.2,-0.1
iter:  27  16:37:31  -4.61  -3.05  -226.264240            +0.0,-0.2,-0.1
iter:  28  16:38:05  -4.59  -3.08  -226.264558            +0.0,-0.2,-0.1
iter:  29  16:38:40  -4.17  -3.11  -226.264577            +0.0,-0.2,-0.1
iter:  30  16:39:14  -4.84  -3.39  -226.263376            +0.0,-0.2,-0.1
iter:  31  16:39:49  -5.48  -3.58  -226.263319            +0.0,-0.2,-0.1
iter:  32  16:40:23  -5.73  -3.61  -226.263265            +0.0,-0.2,-0.1
iter:  33  16:40:58  -6.14  -3.70  -226.263275            +0.0,-0.2,-0.1
iter:  34  16:41:32  -5.35  -3.73  -226.263365            +0.0,-0.2,-0.1
iter:  35  16:42:07  -5.75  -3.89  -226.263380            +0.0,-0.1,-0.1
iter:  36  16:42:41  -5.43  -3.96  -226.263363            +0.0,-0.1,-0.0
iter:  37  16:43:16  -5.62  -4.15  -226.263368            +0.0,-0.1,-0.0
iter:  38  16:43:51  -5.77  -4.25  -226.263388            +0.0,-0.1,-0.0
iter:  39  16:44:25  -6.85  -4.31  -226.263385            +0.0,-0.1,-0.0
iter:  40  16:45:00  -7.20  -4.42  -226.263387            +0.0,-0.1,-0.0
iter:  41  16:45:35  -6.04  -4.45  -226.263395            +0.0,-0.1,-0.0
iter:  42  16:46:09  -6.56  -4.81  -226.263397            +0.0,-0.1,+0.0
iter:  43  16:46:44  -6.94  -5.10  -226.263399            +0.0,-0.1,+0.0
iter:  44  16:47:19  -7.20  -5.15  -226.263400            +0.0,-0.1,+0.0
iter:  45  16:47:53  -6.66  -5.27  -226.263397            -0.0,-0.0,+0.0
iter:  46  16:48:28  -6.20  -5.29  -226.263403            +0.0,-0.0,+0.0
iter:  47  16:49:02  -6.74  -5.35  -226.263404            +0.0,-0.0,+0.0
iter:  48  16:49:37  -8.06  -5.40  -226.263402            +0.0,-0.0,+0.0
iter:  49  16:50:11  -7.92  -5.49  -226.263405            -0.0,-0.0,+0.0
iter:  50  16:50:46  -7.88  -5.61  -226.263404            -0.0,-0.0,+0.0
iter:  51  16:51:20  -8.21  -5.80  -226.263404            -0.0,-0.0,+0.0
iter:  52  16:51:55  -7.56  -5.85  -226.263405            -0.0,-0.0,+0.0
iter:  53  16:52:29  -8.48  -5.92  -226.263405            -0.0,-0.0,+0.0
iter:  54  16:53:04  -8.79  -5.98  -226.263405            -0.0,-0.0,+0.0
iter:  55  16:53:38  -7.70  -6.18  -226.263405            -0.0,-0.0,+0.0
iter:  56  16:54:13  -7.99  -6.21  -226.263405            -0.0,-0.0,+0.0
iter:  57  16:54:47  -7.26  -6.27  -226.263405            -0.0,-0.0,+0.0
iter:  58  16:55:22  -7.53  -6.33  -226.263405            -0.0,-0.0,+0.0
iter:  59  16:55:56  -7.95  -6.28  -226.263405            -0.0,-0.0,+0.0
iter:  60  16:56:31  -8.53  -6.24  -226.263405            -0.0,-0.0,+0.0
iter:  61  16:57:05  -9.41  -6.20  -226.263405            -0.0,-0.0,+0.0
iter:  62  16:57:40  -8.55  -6.29  -226.263405            -0.0,-0.0,+0.0
iter:  63  16:58:14  -9.04  -6.35  -226.263405            -0.0,-0.0,+0.0
iter:  64  16:58:49  -7.93  -6.36  -226.263406            -0.0,-0.0,+0.0
iter:  65  16:59:23  -8.16  -6.44  -226.263406            -0.0,-0.0,+0.0
iter:  66  16:59:58  -9.02  -6.46  -226.263406            -0.0,-0.0,+0.0
iter:  67  17:00:32  -9.43  -6.44  -226.263406            -0.0,-0.0,+0.0
iter:  68  17:01:07 -10.31  -6.48  -226.263406            -0.0,-0.0,+0.0
iter:  69  17:01:41  -9.54  -6.53  -226.263406            -0.0,-0.0,+0.0
iter:  70  17:02:16  -8.75  -6.56  -226.263406            -0.0,-0.0,+0.0
iter:  71  17:02:50  -9.36  -6.77  -226.263406            -0.0,-0.0,+0.0
iter:  72  17:03:24  -9.97  -6.95  -226.263406            -0.0,-0.0,+0.0
iter:  73  17:03:59 -10.25  -6.99  -226.263406            -0.0,-0.0,+0.0
iter:  74  17:04:33  -9.28  -6.97  -226.263406            -0.0,+0.0,+0.0
iter:  75  17:05:08  -8.97  -6.88  -226.263406            -0.0,+0.0,+0.0
iter:  76  17:05:42  -8.68  -7.27  -226.263406            -0.0,+0.0,+0.0
iter:  77  17:06:17  -8.43  -7.18  -226.263407            -0.0,+0.0,+0.0
iter:  78  17:06:51  -9.39  -6.97  -226.263407            -0.0,+0.0,+0.0
iter:  79  17:07:25  -9.03  -6.99  -226.263406            -0.0,+0.0,+0.0
iter:  80  17:08:00  -9.68  -7.16  -226.263406            -0.0,+0.0,+0.0
iter:  81  17:08:34  -8.19  -7.35  -226.263407            -0.0,-0.0,+0.0
iter:  82  17:09:08  -8.37  -7.20  -226.263407            -0.0,+0.0,+0.0
iter:  83  17:09:42  -8.65  -7.35  -226.263407            -0.0,+0.0,+0.0
iter:  84  17:10:17  -9.68  -7.38  -226.263407            -0.0,+0.0,+0.0
iter:  85  17:10:51 -10.14  -7.38  -226.263407            -0.0,+0.0,+0.0
iter:  86  17:11:25  -8.26  -7.34  -226.263407            -0.0,+0.0,+0.0
iter:  87  17:11:59  -9.13  -7.35  -226.263407            -0.0,+0.0,+0.0
iter:  88  17:12:33  -8.49  -7.38  -226.263407            +0.0,+0.0,+0.0
iter:  89  17:13:07  -9.24  -7.21  -226.263407            -0.0,+0.0,+0.0
iter:  90  17:13:42  -9.59  -7.36  -226.263407            -0.0,+0.0,+0.0
iter:  91  17:14:16  -8.66  -7.36  -226.263407            -0.0,+0.0,+0.0
iter:  92  17:14:50  -8.65  -7.44  -226.263407            -0.0,+0.0,+0.0
iter:  93  17:15:24  -9.33  -7.44  -226.263407            +0.0,+0.0,+0.0
iter:  94  17:15:58  -8.69  -7.45  -226.263407            +0.0,+0.0,+0.0
iter:  95  17:16:32  -9.99  -7.48  -226.263407            +0.0,+0.0,+0.0
iter:  96  17:17:06  -9.53  -7.52  -226.263407            +0.0,+0.0,+0.0
iter:  97  17:17:41 -10.13  -7.27  -226.263407            +0.0,+0.0,+0.0
iter:  98  17:18:15  -9.90  -7.78  -226.263407            +0.0,+0.0,+0.0
iter:  99  17:18:49  -9.84  -7.74  -226.263407            +0.0,+0.0,+0.0
iter: 100  17:19:23  -9.46  -7.64  -226.263407            +0.0,+0.0,+0.0
iter: 101  17:19:57  -8.67  -7.72  -226.263407            +0.0,+0.0,+0.0
iter: 102  17:20:31  -9.07  -7.84  -226.263407            +0.0,+0.0,+0.0
iter: 103  17:21:05  -6.84  -7.96  -226.263406            +0.0,+0.0,+0.0
iter: 104  17:21:39  -7.11  -7.03  -226.263407            +0.0,+0.0,+0.0
iter: 105  17:22:13  -7.99  -7.66  -226.263407            +0.0,+0.0,+0.0
iter: 106  17:22:47  -9.72  -7.28  -226.263407            +0.0,+0.0,+0.0
iter: 107  17:23:21  -9.08  -7.33  -226.263407            +0.0,+0.0,+0.0
iter: 108  17:23:55  -7.44  -7.27  -226.263407            +0.0,+0.0,+0.0
iter: 109  17:24:29  -8.78  -7.71  -226.263407            +0.0,+0.0,+0.0
iter: 110  17:25:03  -9.65  -8.03  -226.263407            +0.0,+0.0,+0.0
iter: 111  17:25:37 -10.33  -7.86  -226.263407            +0.0,+0.0,+0.0
iter: 112  17:26:12 -10.84  -7.81  -226.263407            +0.0,+0.0,+0.0
iter: 113  17:26:46  -9.30  -7.83  -226.263407            +0.0,+0.0,+0.0
iter: 114  17:27:20  -9.34  -7.60  -226.263407            +0.0,+0.0,+0.0
iter: 115  17:27:54  -9.33  -7.72  -226.263407            +0.0,+0.0,+0.0
iter: 116  17:28:28  -8.87  -7.63  -226.263407            +0.0,+0.0,+0.0
iter: 117  17:29:02  -8.92  -7.47  -226.263407            +0.0,+0.0,+0.0
iter: 118  17:29:36  -9.11  -7.63  -226.263407            +0.0,+0.0,+0.0
iter: 119  17:30:10 -10.22  -7.91  -226.263407            +0.0,+0.0,+0.0
iter: 120  17:30:44  -9.05  -7.80  -226.263407            +0.0,+0.0,+0.0
iter: 121  17:31:18  -9.31  -7.78  -226.263407            +0.0,+0.0,+0.0
iter: 122  17:31:52  -8.65  -7.53  -226.263407            +0.0,+0.0,+0.0
iter: 123  17:32:26  -9.20  -7.15  -226.263407            +0.0,+0.0,+0.0
iter: 124  17:33:00 -10.19  -7.08  -226.263407            +0.0,+0.0,+0.0
iter: 125  17:33:34  -9.46  -6.94  -226.263407            +0.0,+0.0,+0.0
iter: 126  17:34:08  -9.89  -7.94  -226.263407            +0.0,+0.0,+0.0
iter: 127  17:34:42  -9.60  -7.89  -226.263407            +0.0,+0.0,+0.0
iter: 128  17:35:16  -9.25  -8.07  -226.263407            +0.0,+0.0,+0.0
iter: 129  17:35:50 -10.01  -7.72  -226.263407            +0.0,+0.0,+0.0
iter: 130  17:36:24 -10.16  -7.61  -226.263407            +0.0,+0.0,+0.0
iter: 131  17:36:59  -9.29  -7.93  -226.263407            +0.0,+0.0,+0.0
iter: 132  17:37:33 -10.08  -8.16  -226.263407            +0.0,+0.0,+0.0
iter: 133  17:38:07  -9.19  -8.13  -226.263407            +0.0,+0.0,+0.0
iter: 134  17:38:41  -9.14  -8.03  -226.263407            +0.0,+0.0,+0.0
iter: 135  17:39:15 -10.32  -8.22  -226.263407            +0.0,+0.0,+0.0
iter: 136  17:39:49 -10.17  -8.08  -226.263407            +0.0,+0.0,+0.0
iter: 137  17:40:23  -8.63  -8.19  -226.263407            +0.0,+0.0,+0.0
iter: 138  17:40:57  -9.25  -7.73  -226.263407            +0.0,+0.0,+0.0
iter: 139  17:41:32  -8.56  -8.00  -226.263407            +0.0,+0.0,+0.0
iter: 140  17:42:06  -8.95  -7.28  -226.263407            +0.0,+0.0,+0.0
iter: 141  17:42:40  -9.20  -7.10  -226.263407            +0.0,+0.0,+0.0
iter: 142  17:43:14  -8.89  -7.03  -226.263407            +0.0,+0.0,+0.0
iter: 143  17:43:48  -8.49  -6.95  -226.263407            +0.0,+0.0,+0.0
iter: 144  17:44:22  -8.56  -6.80  -226.263407            +0.0,-0.0,+0.0
iter: 145  17:44:56  -8.86  -7.49  -226.263407            +0.0,+0.0,+0.0
iter: 146  17:45:30  -8.59  -7.70  -226.263408            +0.0,-0.0,+0.0
iter: 147  17:46:04  -8.16  -7.50  -226.263407            +0.0,+0.0,+0.0
iter: 148  17:46:38  -8.95  -7.00  -226.263408            +0.0,-0.0,+0.0
iter: 149  17:47:12  -9.61  -6.99  -226.263408            +0.0,-0.0,+0.0
iter: 150  17:47:46  -9.28  -7.21  -226.263408            +0.0,-0.0,+0.0
iter: 151  17:48:20  -9.34  -7.76  -226.263408            +0.0,-0.0,+0.0
iter: 152  17:48:54  -8.93  -7.70  -226.263408            +0.0,-0.0,+0.0
iter: 153  17:49:28  -9.34  -7.39  -226.263408            +0.0,-0.0,+0.0
iter: 154  17:50:03  -8.99  -7.10  -226.263408            +0.0,-0.0,+0.0
iter: 155  17:50:37  -8.35  -7.77  -226.263408            +0.0,-0.0,+0.0
iter: 156  17:51:11  -7.40  -7.51  -226.263408            +0.0,-0.0,+0.0
iter: 157  17:51:45  -8.63  -7.07  -226.263408            +0.0,-0.0,+0.0
iter: 158  17:52:19  -8.28  -7.25  -226.263408            +0.0,-0.0,+0.0
iter: 159  17:52:53  -9.15  -7.23  -226.263408            +0.0,-0.0,+0.0
iter: 160  17:53:27  -8.92  -7.25  -226.263408            +0.0,-0.0,+0.0
iter: 161  17:54:01  -8.95  -7.17  -226.263408            +0.0,-0.0,+0.0
iter: 162  17:54:35  -8.31  -7.86  -226.263408            +0.0,-0.0,+0.0
iter: 163  17:55:10  -8.17  -7.78  -226.263408            +0.0,-0.0,+0.0
iter: 164  17:55:44  -9.15  -7.92  -226.263408            +0.0,-0.0,+0.0
iter: 165  17:56:18  -8.49  -8.05  -226.263408            +0.0,-0.0,+0.0
iter: 166  17:56:52  -8.46  -8.04  -226.263408            +0.0,-0.0,+0.0
iter: 167  17:57:26  -8.87  -7.81  -226.263408            +0.0,-0.0,+0.0
iter: 168  17:58:00  -8.26  -7.93  -226.263409            +0.0,-0.0,+0.0
iter: 169  17:58:34  -9.40  -7.66  -226.263409            +0.0,-0.0,+0.0
iter: 170  17:59:08 -10.38  -7.60  -226.263409            +0.0,-0.0,+0.0
iter: 171  17:59:42 -10.04  -7.84  -226.263409            +0.0,-0.0,+0.0
iter: 172  18:00:16  -9.83  -7.96  -226.263409            +0.0,-0.0,+0.0
iter: 173  18:00:50  -7.65  -8.05  -226.263409            +0.0,-0.0,+0.0
iter: 174  18:01:25  -8.93  -7.47  -226.263409            +0.0,-0.0,+0.0
iter: 175  18:01:59  -9.95  -7.47  -226.263409            +0.0,-0.0,+0.0
iter: 176  18:02:33 -10.28  -7.53  -226.263409            +0.0,-0.0,+0.0
iter: 177  18:03:07 -10.99  -7.85  -226.263409            +0.0,-0.0,+0.0
iter: 178  18:03:41 -10.02  -8.04  -226.263409            +0.0,-0.0,+0.0
iter: 179  18:04:15  -9.02  -8.09  -226.263409            +0.0,-0.0,+0.0
iter: 180  18:04:49  -7.26  -7.84  -226.263409            +0.0,-0.0,+0.0
iter: 181  18:05:23  -7.68  -7.39  -226.263409            +0.0,-0.0,+0.0
iter: 182  18:05:57  -8.54  -7.23  -226.263409            +0.0,-0.0,+0.0
iter: 183  18:06:31  -8.37  -7.38  -226.263409            +0.0,-0.0,+0.0
iter: 184  18:07:06  -9.41  -7.15  -226.263409            +0.0,-0.0,+0.0
iter: 185  18:07:40 -10.32  -7.71  -226.263409            +0.0,-0.0,+0.0
iter: 186  18:08:14 -10.64  -7.59  -226.263409            +0.0,-0.0,+0.0
iter: 187  18:08:48 -10.70  -7.47  -226.263409            +0.0,-0.0,+0.0
iter: 188  18:09:22 -10.54  -7.58  -226.263409            +0.0,-0.0,+0.0
iter: 189  18:09:56 -10.27  -7.74  -226.263409            +0.0,-0.0,+0.0
iter: 190  18:10:30  -8.16  -7.71  -226.263409            +0.0,-0.0,+0.0
iter: 191  18:11:04  -9.28  -8.02  -226.263409            +0.0,-0.0,+0.0
iter: 192  18:11:38 -10.52  -8.10  -226.263409            +0.0,-0.0,+0.0
iter: 193  18:12:12  -9.56  -8.02  -226.263409            +0.0,-0.0,+0.0
iter: 194  18:12:46 -11.17  -7.82  -226.263409            +0.0,-0.0,+0.0
iter: 195  18:13:21 -11.18  -7.83  -226.263409            +0.0,-0.0,+0.0
iter: 196  18:13:55  -9.37  -7.82  -226.263409            +0.0,-0.0,+0.0
iter: 197  18:14:29  -8.17  -7.81  -226.263409            +0.0,-0.0,+0.0
iter: 198  18:15:03  -8.59  -7.75  -226.263409            +0.0,-0.0,+0.0
iter: 199  18:15:37 -10.10  -7.71  -226.263409            +0.0,-0.0,+0.0
iter: 200  18:16:11  -9.77  -7.66  -226.263409            +0.0,-0.0,+0.0
iter: 201  18:16:45 -11.02  -7.62  -226.263409            +0.0,-0.0,+0.0
iter: 202  18:17:19 -10.96  -7.95  -226.263409            +0.0,-0.0,+0.0
iter: 203  18:17:53  -8.50  -8.01  -226.263409            +0.0,+0.0,+0.0
iter: 204  18:18:27 -10.19  -8.00  -226.263409            +0.0,-0.0,+0.0
iter: 205  18:19:02 -10.16  -7.95  -226.263409            +0.0,+0.0,+0.0
iter: 206  18:19:36  -9.42  -8.03  -226.263409            +0.0,-0.0,+0.0
iter: 207  18:20:10  -8.95  -8.09  -226.263409            +0.0,+0.0,+0.0
iter: 208  18:20:44  -9.07  -8.06  -226.263409            +0.0,+0.0,+0.0
iter: 209  18:21:18 -10.31  -8.03  -226.263409            +0.0,+0.0,+0.0
iter: 210  18:21:52 -10.98  -7.82  -226.263409            +0.0,+0.0,+0.0
iter: 211  18:22:26 -11.48  -7.91  -226.263408            +0.0,+0.0,+0.0
iter: 212  18:23:00 -11.14  -8.26  -226.263408            +0.0,+0.0,+0.0
iter: 213  18:23:34  -9.77  -8.37  -226.263409            +0.0,+0.0,+0.0
iter: 214  18:24:08  -9.21  -7.86  -226.263409            +0.0,+0.0,+0.0
iter: 215  18:24:42  -8.91  -7.44  -226.263409            +0.0,+0.0,+0.0
iter: 216  18:25:16  -9.28  -7.15  -226.263409            +0.0,+0.0,+0.0
iter: 217  18:25:50 -10.10  -7.05  -226.263409            +0.0,+0.0,+0.0
iter: 218  18:26:25  -9.60  -7.02  -226.263409            +0.0,+0.0,+0.0
iter: 219  18:26:59  -9.30  -7.07  -226.263409            +0.0,+0.0,+0.0
iter: 220  18:27:33  -8.87  -7.73  -226.263409            +0.0,+0.0,+0.0
iter: 221  18:28:07 -10.09  -7.41  -226.263409            +0.0,+0.0,+0.0
iter: 222  18:28:41 -10.38  -7.59  -226.263409            +0.0,+0.0,+0.0
iter: 223  18:29:15 -10.67  -8.38  -226.263409            +0.0,+0.0,+0.0
iter: 224  18:29:49  -9.31  -8.38  -226.263409            +0.0,+0.0,+0.0
iter: 225  18:30:23  -9.46  -8.40  -226.263409            +0.0,+0.0,+0.0
iter: 226  18:30:57 -10.68  -8.41  -226.263409            +0.0,+0.0,+0.0
iter: 227  18:31:31 -10.82  -8.54  -226.263409            +0.0,+0.0,+0.0
iter: 228  18:32:06  -9.73  -8.74  -226.263409            +0.0,-0.0,+0.0
iter: 229  18:32:40  -9.61  -8.57  -226.263409            +0.0,-0.0,+0.0
iter: 230  18:33:14 -10.25  -8.33  -226.263409            +0.0,-0.0,+0.0
iter: 231  18:33:48  -9.99  -8.06  -226.263409            +0.0,-0.0,+0.0
iter: 232  18:34:22 -10.62  -8.33  -226.263409            +0.0,-0.0,+0.0
iter: 233  18:34:56 -11.16  -8.17  -226.263409            +0.0,-0.0,+0.0
iter: 234  18:35:30 -11.19  -8.25  -226.263409            +0.0,-0.0,+0.0
iter: 235  18:36:05 -10.10  -8.51  -226.263409            +0.0,-0.0,+0.0
iter: 236  18:36:39 -10.13  -8.61  -226.263409            +0.0,-0.0,+0.0
iter: 237  18:37:13  -9.74  -8.61  -226.263409            +0.0,-0.0,+0.0
iter: 238  18:37:47  -9.78  -8.58  -226.263409            +0.0,-0.0,+0.0
iter: 239  18:38:21 -10.21  -8.35  -226.263409            +0.0,-0.0,+0.0
iter: 240  18:38:55  -8.06  -8.47  -226.263409            +0.0,+0.0,+0.0
iter: 241  18:39:29  -8.36  -8.06  -226.263409            +0.0,-0.0,+0.0
iter: 242  18:40:03  -9.28  -8.66  -226.263409            +0.0,+0.0,+0.0
iter: 243  18:40:38 -11.02  -8.43  -226.263409            +0.0,+0.0,+0.0
iter: 244  18:41:12 -10.23  -8.38  -226.263409            +0.0,+0.0,+0.0
iter: 245  18:41:46  -8.59  -8.67  -226.263409            +0.0,-0.0,+0.0
iter: 246  18:42:20  -9.80  -8.20  -226.263409            +0.0,-0.0,+0.0
iter: 247  18:42:54 -10.74  -8.27  -226.263409            +0.0,-0.0,+0.0
iter: 248  18:43:28 -11.16  -8.37  -226.263409            +0.0,-0.0,+0.0
iter: 249  18:44:02 -11.25  -8.60  -226.263409            +0.0,-0.0,+0.0
iter: 250  18:44:36  -9.51  -8.60  -226.263409            +0.0,-0.0,+0.0
iter: 251  18:45:10  -9.72  -7.90  -226.263409            +0.0,-0.0,+0.0
iter: 252  18:45:44  -9.45  -7.63  -226.263409            +0.0,-0.0,+0.0
iter: 253  18:46:19  -9.71  -7.48  -226.263409            +0.0,-0.0,+0.0
iter: 254  18:46:53  -9.16  -7.60  -226.263409            +0.0,-0.0,+0.0
iter: 255  18:47:27  -8.88  -7.40  -226.263409            +0.0,-0.0,+0.0
iter: 256  18:48:01  -9.89  -7.21  -226.263409            +0.0,-0.0,+0.0
iter: 257  18:48:35 -10.01  -7.58  -226.263409            +0.0,-0.0,+0.0
iter: 258  18:49:09  -9.98  -7.75  -226.263409            +0.0,-0.0,+0.0
iter: 259  18:49:43  -9.75  -8.01  -226.263409            +0.0,-0.0,+0.0
iter: 260  18:50:18  -8.92  -8.02  -226.263409            +0.0,-0.0,+0.0
iter: 261  18:50:52  -9.83  -7.75  -226.263409            +0.0,-0.0,+0.0
iter: 262  18:51:26 -10.14  -7.55  -226.263409            +0.0,-0.0,+0.0
iter: 263  18:52:00  -9.61  -8.00  -226.263409            +0.0,-0.0,+0.0
iter: 264  18:52:34  -8.77  -7.72  -226.263409            +0.0,-0.0,+0.0
iter: 265  18:53:08  -9.14  -7.35  -226.263409            +0.0,-0.0,+0.0
iter: 266  18:53:42  -9.98  -7.62  -226.263409            +0.0,-0.0,+0.0
iter: 267  18:54:16 -10.34  -7.73  -226.263409            +0.0,-0.0,+0.0
iter: 268  18:54:50  -9.77  -7.93  -226.263409            +0.0,-0.0,+0.0
iter: 269  18:55:24  -9.92  -8.36  -226.263409            +0.0,-0.0,+0.0
iter: 270  18:55:58 -10.61  -8.28  -226.263409            +0.0,-0.0,+0.0
iter: 271  18:56:33  -9.99  -8.47  -226.263409            +0.0,-0.0,+0.0
iter: 272  18:57:07 -10.31  -7.95  -226.263409            +0.0,-0.0,+0.0
iter: 273  18:57:41  -9.73  -7.79  -226.263409            +0.0,-0.0,+0.0
iter: 274  18:58:15 -10.51  -7.54  -226.263409            +0.0,-0.0,+0.0
iter: 275  18:58:49 -10.80  -7.61  -226.263409            +0.0,-0.0,+0.0
iter: 276  18:59:23 -10.62  -7.50  -226.263409            +0.0,-0.0,+0.0
iter: 277  18:59:57  -9.64  -7.68  -226.263409            +0.0,-0.0,+0.0
iter: 278  19:00:31  -8.88  -7.90  -226.263409            +0.0,-0.0,+0.0
iter: 279  19:01:05  -8.97  -7.71  -226.263409            +0.0,+0.0,+0.0
iter: 280  19:01:39  -9.67  -7.77  -226.263409            +0.0,+0.0,+0.0
iter: 281  19:02:13  -9.78  -8.23  -226.263409            +0.0,+0.0,+0.0
iter: 282  19:02:47  -9.35  -8.19  -226.263409            +0.0,+0.0,+0.0
iter: 283  19:03:21 -10.88  -7.97  -226.263409            +0.0,+0.0,+0.0
iter: 284  19:03:55 -10.22  -7.99  -226.263409            +0.0,+0.0,+0.0
iter: 285  19:04:29 -10.52  -8.20  -226.263409            +0.0,+0.0,+0.0
iter: 286  19:05:03  -9.85  -8.30  -226.263409            +0.0,+0.0,+0.0
iter: 287  19:05:37 -10.12  -7.98  -226.263409            +0.0,+0.0,+0.0
iter: 288  19:06:11 -10.17  -7.84  -226.263409            +0.0,+0.0,+0.0
iter: 289  19:06:46 -11.57  -7.69  -226.263409            +0.0,+0.0,+0.0
iter: 290  19:07:20 -12.01  -8.35  -226.263409            +0.0,+0.0,+0.0
iter: 291  19:07:54 -11.35  -8.69  -226.263409            +0.0,+0.0,+0.0
iter: 292  19:08:28  -9.88  -8.50  -226.263409            +0.0,+0.0,+0.0
iter: 293  19:09:02 -10.12  -8.51  -226.263409            +0.0,+0.0,+0.0
iter: 294  19:09:36  -9.14  -8.64  -226.263409            +0.0,+0.0,+0.0
iter: 295  19:10:10  -8.14  -8.39  -226.263409            +0.0,+0.0,+0.0
iter: 296  19:10:43  -8.97  -7.96  -226.263409            +0.0,+0.0,+0.0
iter: 297  19:11:18  -9.76  -8.00  -226.263409            +0.0,+0.0,+0.0
iter: 298  19:11:52  -9.48  -8.09  -226.263409            +0.0,+0.0,+0.0
iter: 299  19:12:25  -9.11  -8.24  -226.263409            +0.0,-0.0,+0.0
iter: 300  19:13:00  -9.29  -8.10  -226.263409            +0.0,-0.0,+0.0
iter: 301  19:13:34 -10.57  -8.33  -226.263409            +0.0,-0.0,+0.0
iter: 302  19:14:08 -11.30  -8.31  -226.263409            +0.0,-0.0,+0.0
iter: 303  19:14:42 -12.29  -8.33  -226.263409            +0.0,-0.0,+0.0
iter: 304  19:15:16 -11.30  -8.40  -226.263409            +0.0,-0.0,+0.0
iter: 305  19:15:50 -10.09  -8.32  -226.263409            +0.0,-0.0,+0.0
iter: 306  19:16:24 -10.24  -7.90  -226.263409            +0.0,-0.0,+0.0
iter: 307  19:16:58 -11.12  -7.79  -226.263409            +0.0,-0.0,+0.0
iter: 308  19:17:32 -10.67  -7.75  -226.263409            +0.0,-0.0,+0.0
iter: 309  19:18:06 -10.67  -7.96  -226.263409            +0.0,-0.0,+0.0
iter: 310  19:18:40 -11.24  -8.03  -226.263409            +0.0,-0.0,+0.0
iter: 311  19:19:14 -10.55  -7.63  -226.263409            +0.0,-0.0,+0.0
iter: 312  19:19:48  -9.58  -8.28  -226.263409            +0.0,-0.0,+0.0
iter: 313  19:20:22 -10.51  -8.28  -226.263409            +0.0,-0.0,+0.0
iter: 314  19:20:56 -10.49  -8.22  -226.263409            +0.0,-0.0,+0.0
iter: 315  19:21:30 -11.12  -8.07  -226.263409            +0.0,-0.0,+0.0
iter: 316  19:22:04  -9.41  -8.35  -226.263409            +0.0,-0.0,+0.0
iter: 317  19:22:38  -9.83  -8.45  -226.263409            +0.0,-0.0,+0.0
iter: 318  19:23:13 -10.63  -8.46  -226.263409            +0.0,-0.0,+0.0
iter: 319  19:23:47 -10.73  -8.47  -226.263409            +0.0,-0.0,+0.0
iter: 320  19:24:21 -10.82  -8.44  -226.263409            +0.0,-0.0,+0.0
iter: 321  19:24:55 -10.77  -8.48  -226.263409            +0.0,-0.0,+0.0
iter: 322  19:25:29  -8.94  -8.53  -226.263409            +0.0,-0.0,+0.0
iter: 323  19:26:03 -10.18  -8.33  -226.263409            +0.0,-0.0,+0.0
iter: 324  19:26:37 -10.31  -8.24  -226.263409            +0.0,-0.0,+0.0
iter: 325  19:27:11  -9.91  -8.26  -226.263409            +0.0,-0.0,+0.0
iter: 326  19:27:45 -10.08  -8.45  -226.263409            +0.0,-0.0,+0.0
iter: 327  19:28:19 -10.13  -8.43  -226.263409            +0.0,-0.0,+0.0
iter: 328  19:28:53  -9.82  -8.48  -226.263409            +0.0,-0.0,+0.0
iter: 329  19:29:26  -9.49  -8.53  -226.263409            +0.0,-0.0,+0.0
iter: 330  19:30:00 -10.78  -8.46  -226.263409            +0.0,-0.0,+0.0
iter: 331  19:30:34 -11.57  -8.67  -226.263409            +0.0,-0.0,+0.0
iter: 332  19:31:08 -12.58  -8.59  -226.263409            +0.0,-0.0,+0.0
iter: 333  19:31:42 -11.54  -8.61  -226.263409            +0.0,-0.0,+0.0
iter: 334  19:32:16 -11.48  -8.60  -226.263409            +0.0,-0.0,+0.0
iter: 335  19:32:50 -10.82  -8.56  -226.263409            +0.0,-0.0,+0.0
iter: 336  19:33:24 -10.57  -8.58  -226.263409            +0.0,-0.0,+0.0
iter: 337  19:33:58 -10.14  -8.54  -226.263409            +0.0,-0.0,+0.0
iter: 338  19:34:31  -9.98  -8.59  -226.263410            +0.0,-0.0,+0.0
iter: 339  19:35:05  -9.87  -8.50  -226.263409            +0.0,-0.0,+0.0
iter: 340  19:35:39 -10.00  -8.63  -226.263410            +0.0,-0.0,+0.0
iter: 341  19:36:13 -11.15  -8.73  -226.263409            +0.0,-0.0,+0.0
iter: 342  19:36:47 -11.33  -8.63  -226.263409            +0.0,-0.0,+0.0
iter: 343  19:37:21 -11.70  -8.83  -226.263409            +0.0,-0.0,+0.0
iter: 344  19:37:55 -12.55  -8.85  -226.263409            +0.0,-0.0,+0.0
iter: 345  19:38:29 -10.34  -8.57  -226.263409            +0.0,-0.0,+0.0
iter: 346  19:39:02 -11.96  -9.03  -226.263409            +0.0,-0.0,+0.0

Converged after 346 iterations.

Dipole moment: (-0.120910, -0.005401, 1.226744) |e|*Ang

Total magnetic moment: (0.000371, -0.000482, 0.001925)
Local magnetic moments:
   0 O  (-0.001039, -0.000068,  0.000189)
   1 O  ( 0.001038,  0.000067,  0.000257)
   2 O  (-0.002048, -0.000074, -0.000257)
   3 O  ( 0.002070,  0.000090, -0.000125)
   4 O  (-0.002023,  0.000091, -0.000257)
   5 O  ( 0.002045, -0.000110, -0.000127)
   6 O  (-0.001024,  0.000073,  0.000189)
   7 O  ( 0.001023, -0.000080,  0.000256)
   8 O  (-0.028667,  0.000073, -0.000947)
   9 O  ( 0.028752, -0.000076,  0.001202)
  10 O  ( 0.028620, -0.000102,  0.000901)
  11 O  (-0.028605,  0.000100, -0.001118)
  12 Mn (-4.443841,  0.011289, -0.151162)
  13 Mn ( 4.442776, -0.011588,  0.182800)
  14 Mn ( 4.444523, -0.015942,  0.141008)
  15 Mn (-4.443236,  0.015808, -0.170965)
  16 P  (-0.002075,  0.000010,  0.000078)
  17 P  ( 0.002066, -0.000011,  0.000206)
  18 P  ( 0.001067,  0.000002, -0.000096)
  19 P  (-0.001014, -0.000003, -0.000200)
  20 O  (-0.024825,  0.000064, -0.001019)
  21 O  ( 0.024805, -0.000065,  0.000853)
  22 O  ( 0.025673, -0.000091,  0.000959)
  23 O  (-0.025741,  0.000091, -0.000839)
  24 Li ( 0.000038, -0.000002,  0.000001)
  25 Li (-0.000043,  0.000002, -0.000001)
  26 Li ( 0.000038,  0.000001,  0.000001)
  27 Li (-0.000043, -0.000001, -0.000001)

Energy contributions relative to reference atoms: (reference = -196157.275402)

Kinetic:       +217.273097
Potential:     -195.193980
External:        +0.000000
XC:            -250.383775
Entropy (-ST):   -0.000000
Local:           +2.041249
--------------------------
Free energy:   -226.263409
Extrapolated:  -226.263409

Showing only first 2 kpts
 Kpt  Band  Eigenvalues  Occupancy
  0    88     -2.04071    1.00000
  0    89     -2.03104    1.00000
  0    90     -1.94652    1.00000
  0    91     -1.93795    1.00000

  1    88     -2.16470    1.00000
  1    89     -2.15618    1.00000
  1    90     -2.11024    1.00000
  1    91     -2.09165    1.00000


Fermi level: 6.10238

Gap: 1.968 eV
Transition (v -> c):
  (s=0, k=51, n=179, [0.12, -0.38, 0.08]) -> (s=0, k=63, n=180, [0.12, 0.12, 0.08])

Forces in eV/Ang:
  0 O     0.01743    0.00441   -0.09346
  1 O    -0.02079   -0.00447   -0.09371
  2 O     0.01695   -0.00234   -0.08617
  3 O    -0.02036    0.00245   -0.08734
  4 O     0.01698    0.00236   -0.08614
  5 O    -0.02041   -0.00247   -0.08731
  6 O     0.01741   -0.00435   -0.09339
  7 O    -0.02076    0.00442   -0.09363
  8 O     0.00103   -0.00001   -0.08191
  9 O    -0.00441    0.00000   -0.08052
 10 O     0.00206   -0.00000   -0.08769
 11 O    -0.00477    0.00000   -0.08730
 12 Mn   -0.00220   -0.00001    0.13300
 13 Mn   -0.00157    0.00001    0.13360
 14 Mn    0.00160    0.00002    0.12852
 15 Mn   -0.00582   -0.00002    0.12890
 16 P    -0.01584   -0.00002    0.20690
 17 P     0.01231    0.00002    0.20670
 18 P     0.02942   -0.00002    0.19256
 19 P     0.01342    0.00003    0.19227
 20 O    -0.01591   -0.00000   -0.14669
 21 O     0.01284    0.00000   -0.14704
 22 O    -0.01140   -0.00001   -0.14628
 23 O     0.00898    0.00001   -0.14620
 24 Li   -0.00258    0.00388    0.08024
 25 Li   -0.00050   -0.00385    0.08084
 26 Li   -0.00257   -0.00387    0.08022
 27 Li   -0.00049    0.00382    0.08085

Timing:                              incl.     excl.
-----------------------------------------------------------
Forces:                              4.433     4.433   0.0% |
Hamiltonian:                         0.669     0.003   0.0% |
 Atomic:                             0.120     0.120   0.0% |
  XC Correction:                     0.000     0.000   0.0% |
 Calculate atomic Hamiltonians:      0.247     0.247   0.0% |
 Communicate:                        0.000     0.000   0.0% |
 Initialize Hamiltonian:             0.001     0.001   0.0% |
 Poisson:                            0.003     0.003   0.0% |
 XC 3D grid:                         0.294     0.294   0.0% |
LCAO initialization:                60.412     0.366   0.0% |
 LCAO eigensolver:                  10.368     0.002   0.0% |
  DenseAtomicCorrection:             0.017     0.017   0.0% |
  Distribute overlap matrix:         0.001     0.001   0.0% |
  Orbital Layouts:                   0.064     0.064   0.0% |
  Potential matrix:                 10.246    10.246   0.1% |
  Sum over cells:                    0.038     0.038   0.0% |
 LCAO to grid:                      48.704    48.704   0.4% |
 Set positions (LCAO WFS):           0.974     0.204   0.0% |
  Basic WFS set positions:           0.001     0.001   0.0% |
  Basis functions set positions:     0.000     0.000   0.0% |
  P tci:                             0.381     0.381   0.0% |
  ST tci:                            0.297     0.297   0.0% |
  mktci:                             0.091     0.091   0.0% |
PWDescriptor:                        0.010     0.010   0.0% |
SCF-cycle:                       11844.040  3334.332  28.0% |----------|
 Davidson:                        6958.091   766.654   6.4% |--|
  Apply H:                        1107.140  1107.140   9.3% |---|
  Subspace diag:                  1467.076     0.145   0.0% |
   calc_h_matrix:                 1248.050   136.940   1.1% |
    Apply H:                      1111.110  1111.110   9.3% |---|
   diagonalize:                     12.223    12.223   0.1% |
   rotate_psi:                     206.658   206.658   1.7% ||
  calc. matrices:                 2975.501   784.219   6.6% |--|
   Apply H:                       2191.282  2191.282  18.4% |------|
  diagonalize:                     257.525   257.525   2.2% ||
  rotate_psi:                      384.196   384.196   3.2% ||
 Density:                         1322.002     0.010   0.0% |
  Atomic density matrices:          42.282    42.282   0.4% |
  Mix:                             120.711   120.711   1.0% |
  Multipole moments:                 0.189     0.189   0.0% |
  Pseudo density:                 1158.811  1158.784   9.7% |---|
   Symmetrize density:               0.027     0.027   0.0% |
 Hamiltonian:                      228.669     1.260   0.0% |
  Atomic:                           22.989    22.988   0.2% |
   XC Correction:                    0.001     0.001   0.0% |
  Calculate atomic Hamiltonians:    97.732    97.732   0.8% |
  Communicate:                       0.081     0.081   0.0% |
  Poisson:                           1.047     1.047   0.0% |
  XC 3D grid:                      105.560   105.560   0.9% |
 Orthonormalize:                     0.947     0.001   0.0% |
  calc_s_matrix:                     0.199     0.199   0.0% |
  inverse-cholesky:                  0.009     0.009   0.0% |
  projections:                       0.432     0.432   0.0% |
  rotate_psi_s:                      0.306     0.306   0.0% |
Set symmetry:                        0.000     0.000   0.0% |
Other:                               2.659     2.659   0.0% |
-----------------------------------------------------------
Total:                                     11912.223 100.0%

Memory usage: 944.59 MiB
Date: Fri Jun 24 19:39:07 2022
