
  ___ ___ ___ _ _ _  
 |   |   |_  | | | | 
 | | | | | . | | | | 
 |__ |  _|___|_____|  21.6.1b1
 |___|_|             

User:   madkru@a104.nifl.fysik.dtu.dk
Date:   Fri Jun 24 13:04:29 2022
Arch:   x86_64
Pid:    4971
Python: 3.8.6
gpaw:   /home/niflheim/madkru/new_venv/gpaw/gpaw (1f0dfc9eae)
_gpaw:  /home/niflheim/madkru/new_venv/gpaw/build/lib.linux-x86_64-skylake-3.8/
        _gpaw.cpython-38-x86_64-linux-gnu.so (c1e45bfab3)
ase:    /home/niflheim/madkru/new_venv/ase/ase (version 3.23.0b1-ca38c75a67)
numpy:  /home/modules/software/SciPy-bundle/2020.11-foss-2020b/lib/python3.8/site-packages/numpy (version 1.19.4)
scipy:  /home/modules/software/SciPy-bundle/2020.11-foss-2020b/lib/python3.8/site-packages/scipy (version 1.5.4)
libxc:  4.3.4
units:  Angstrom and eV
cores: 40
OpenMP: False
OMP_NUM_THREADS: 1

Input parameters:
  convergence: {density: 1e-09}
  experimental: {magmoms: [[0. 0. 0.]
 [0. 0. 0.]
 [0. 0. 0.]
 ...
 [0. 0. 0.]
 [0. 0. 0.]
 [0. 0. 0.]],
                 soc: True}
  kpts: [4 4 6]
  maxiter: 5000
  mixer: {backend: pulay,
          beta: 0.05,
          method: difference,
          nmaxold: 3,
          weight: 100}
  mode: {ecut: 600.0,
         gammacentered: False,
         name: pw}
  occupations: {fixmagmom: False,
                name: fermi-dirac,
                width: 0.001}
  symmetry: off

System changes: positions, numbers, cell, pbc, initial_charges, initial_magmoms 

Initialize ...

O-setup:
  name: Oxygen
  id: 9b9d51c344dea68c822856295a461509
  Z: 8.0
  valence: 6
  core: 2
  charge: 0.0
  file: /home/modules/software/GPAW-setups/0.9.20000/O.LDA.gz
  compensation charges: gauss, rc=0.21, lmax=2
  cutoffs: 1.17(filt), 0.83(core),
  valence states:
                energy  radius
    2s(2.00)   -23.752   0.688
    2p(4.00)    -9.195   0.598
    *s           3.459   0.688
    *p          18.016   0.598
    *d           0.000   0.619

  Using partial waves for O as LCAO basis

Mn-setup:
  name: Manganese
  id: 0d715a8018be061a6e9ea6f2d364ac92
  Z: 25.0
  valence: 15
  core: 10
  charge: 0.0
  file: /home/modules/software/GPAW-setups/0.9.20000/Mn.LDA.gz
  compensation charges: gauss, rc=0.38, lmax=2
  cutoffs: 2.14(filt), 0.86(core),
  valence states:
                energy  radius
    3s(2.00)   -85.387   1.275
    4s(2.00)    -5.282   1.275
    3p(6.00)   -54.493   1.281
    4p(0.00)    -1.471   1.281
    3d(5.00)    -7.009   1.138
    *d          20.203   1.138

  Using partial waves for Mn as LCAO basis

P-setup:
  name: Phosphorus
  id: a5561c299094968922a179ab894d2e2d
  Z: 15.0
  valence: 5
  core: 10
  charge: 0.0
  file: /home/modules/software/GPAW-setups/0.9.20000/P.LDA.gz
  compensation charges: gauss, rc=0.30, lmax=2
  cutoffs: 1.69(filt), 1.81(core),
  valence states:
                energy  radius
    3s(2.00)   -14.015   0.953
    3p(3.00)    -5.596   0.953
    *s          13.197   0.953
    *p          21.615   0.953
    *d           0.000   0.953

  Using partial waves for P as LCAO basis

Li-setup:
  name: Lithium
  id: b73562207f97a71b6967473b66fe8b65
  Z: 3.0
  valence: 1
  core: 2
  charge: 0.0
  file: /home/modules/software/GPAW-setups/0.9.20000/Li.LDA.gz
  compensation charges: gauss, rc=0.33, lmax=2
  cutoffs: 1.91(filt), 2.55(core),
  valence states:
                energy  radius
    2s(1.00)    -2.874   1.058
    2p(0.00)    -1.126   1.058
    *s          24.338   1.058

  Using partial waves for Li as LCAO basis

Reference energy: -196157.275402

Non-collinear calculation.
Magnetic moment: (0.000000, 0.000000, 0.000000)

Convergence criteria:
  Maximum total energy change: 0.0005 eV / electron
  Maximum integral of absolute density change: 1e-09 electrons
  Maximum integral of absolute eigenstate change: 4e-08 eV^2
  Maximum number of iterations: 5000

Symmetries present (total): 1

  ( 1  0  0)
  ( 0  1  0)
  ( 0  0  1)

96 k-points: 4 x 4 x 6 Monkhorst-Pack grid
96 k-points in the irreducible part of the Brillouin zone
       k-points in crystal coordinates                weights
   0:    -0.37500000   -0.37500000   -0.41666667          1/96
   1:    -0.37500000   -0.37500000   -0.25000000          1/96
   2:    -0.37500000   -0.37500000   -0.08333333          1/96
   3:    -0.37500000   -0.37500000    0.08333333          1/96
   4:    -0.37500000   -0.37500000    0.25000000          1/96
   5:    -0.37500000   -0.37500000    0.41666667          1/96
   6:    -0.37500000   -0.12500000   -0.41666667          1/96
   7:    -0.37500000   -0.12500000   -0.25000000          1/96
   8:    -0.37500000   -0.12500000   -0.08333333          1/96
   9:    -0.37500000   -0.12500000    0.08333333          1/96
          ...
  95:     0.37500000    0.37500000    0.41666667          1/96

Wave functions: Plane wave expansion
  Cutoff energy: 600.000 eV
  Number of coefficients (min, max): 10065, 10119
  Pulay-stress correction: 0.000000 eV/Ang^3 (de/decut=0.000000)
  Using FFTW library
  ScaLapack parameters: grid=1x1, blocksize=None
  Wavefunction extrapolation:
    Improved wavefunction reuse through dual PAW basis 

Occupation numbers: Fermi-Dirac: width=0.0010 eV
 

Eigensolver
   Davidson(niter=2) 

Densities:
  Coarse grid: 60*35*27 grid
  Fine grid: 120*70*54 grid
  Total Charge: 0.000000 

Density mixing:
  Method: difference
  Backend: pulay
  Linear mixing parameter: 0.05
  Mixing with 3 old densities
  Damping of long wave oscillations: 100 

Hamiltonian:
  XC and Coulomb potentials evaluated on a 120*70*54 grid
  Using the LDA Exchange-Correlation functional
  External potential:
    <gpaw.external.NoExternalPotential object at 0x2ad066c5f1f0>
 

Memory estimate:
  Process memory now: 857.24 MiB
  Calculator: 167.16 MiB
    Density: 37.88 MiB
      Arrays: 11.25 MiB
      Localized functions: 18.84 MiB
      Mixer: 7.79 MiB
    Hamiltonian: 7.90 MiB
      Arrays: 7.35 MiB
      XC: 0.00 MiB
      Poisson: 0.00 MiB
      vbar: 0.54 MiB
    Wavefunctions: 121.39 MiB
      Arrays psit_nG: 69.17 MiB
      Eigensolver: 43.02 MiB
      Projections: 2.41 MiB
      Projectors: 4.31 MiB
      PW-descriptor: 2.47 MiB

Total number of cores used: 40
Parallelization over k-points: 40

Number of atoms: 28
Number of atomic orbitals: 148
Number of bands in calculation: 224
Number of valence electrons: 180
Bands to converge: occupied

... initialized

Initializing position-dependent things.

Density initialized from atomic densities
Creating initial wave functions:
  148 bands from LCAO basis set
  76 bands from random numbers

     .-------------------------.  
    /|             P  O        |  
   / |   O      O            Li|  
  /  |            Li Mn      O |  
 *   |PO    O           Mn Li  |  
 |   | O        Li       O     |  
 |   .--Mn----------O---O-P----.  
 | O/      MO                 /   
 | /            O      O     /    
 |/       O  P              /     
 *-------------------------*      

Positions:
   0 O      3.503985    0.290334    1.019535    ( 0.0000,  0.0000,  0.0000)
   1 O      1.728240    5.809889    3.388976    ( 0.0000,  0.0000,  0.0000)
   2 O      6.966348    3.341091    3.761346    ( 0.0000,  0.0000,  0.0000)
   3 O      8.719826    2.759349    1.392790    ( 0.0000,  0.0000,  0.0000)
   4 O      6.966701    5.808025    3.761396    ( 0.0000,  0.0000, -3.0000)
   5 O      8.719471    0.291533    1.392845    ( 0.0000,  0.0000,  3.0000)
   6 O      3.504197    2.760269    1.019635    ( 0.0000,  0.0000,  3.0000)
   7 O      1.728036    3.339503    3.389076    ( 0.0000,  0.0000, -3.0000)
   8 O      0.440795    1.525189    1.421355    ( 0.0000,  0.0000,  0.0000)
   9 O      4.785313    4.574811    3.789206    ( 0.0000,  0.0000,  0.0000)
  10 O     10.014475    4.574878    3.347825    ( 0.0000,  0.0000,  0.0000)
  11 O      5.677744    1.525115    0.978040    ( 0.0000,  0.0000,  0.0000)
  12 Mn     2.287782    1.524913    2.424159    ( 0.0000,  0.0000,  0.0000)
  13 Mn     2.943510    4.575084    0.055265    ( 5.0000,  0.0000,  0.0000)
  14 Mn     8.173550    4.575230    2.269089    (-5.0000,  0.0000,  0.0000)
  15 Mn     7.515902    1.524767    4.636959    (-5.0000,  0.0000,  0.0000)
  16 P      4.240387    1.525278    0.378409    ( 5.0000,  0.0000,  0.0000)
  17 P      0.991833    4.574717    2.748398    ( 0.0000,  0.0000,  0.0000)
  18 P      6.221780    4.574628    4.373037    ( 0.0000,  0.0000,  0.0000)
  19 P      9.463079    1.525370    2.004050    ( 0.0000,  0.0000,  0.0000)
  20 O      4.207233    1.525298    3.590330    ( 0.0000,  0.0000,  0.0000)
  21 O      1.025197    4.574696    1.220150    ( 0.0000,  0.0000,  0.0000)
  22 O      6.242257    4.574710    1.178417    ( 0.0000,  0.0000,  0.0000)
  23 O      9.444258    1.525290    3.549596    ( 0.0000,  0.0000,  0.0000)
  24 Li    -0.000197    0.016362   -0.051809    ( 0.0000,  0.0000,  0.0000)
  25 Li     5.234265   -0.015888    2.316635    ( 0.0000,  0.0000,  0.0000)
  26 Li    -0.000308    3.033923   -0.051521    ( 0.0000,  0.0000,  0.0000)
  27 Li     5.234344    3.065633    2.316894    ( 0.0000,  0.0000,  0.0000)

Unit cell:
           periodic     x           y           z      points  spacing
  1. axis:    yes   10.460000    0.000000    0.000000    60     0.1743
  2. axis:    yes    0.000000    6.100000    0.000000    35     0.1743
  3. axis:    yes    0.000000    0.000000    4.740000    27     0.1756

  Lengths:  10.460000   6.100000   4.740000
  Angles:   90.000000  90.000000  90.000000

Effective grid spacing dv^(1/3) = 0.1747

                     log10-error:    total        iterations:
           time      wfs    density  energy       poisson
iter:   1  13:06:26                -258.438690            -1.0,+0.0,-0.0
iter:   2  13:07:01  -0.42  -0.89  -266.627649            +0.8,-0.0,+0.2
iter:   3  13:07:35  -0.87  -0.94  -254.723735            +0.0,-0.0,-0.0
iter:   4  13:08:10  -0.62  -0.97  -235.985558            -0.0,+0.0,-0.0
iter:   5  13:08:44  -0.41  -1.09  -232.948675            -0.0,+0.0,-0.0
iter:   6  13:09:19  -1.59  -1.25  -222.114831            -0.0,+0.0,-0.0
iter:   7  13:09:53  -2.40  -1.35  -222.223871            -0.0,+0.0,-0.0
iter:   8  13:10:28  -3.07  -1.35  -222.068044            -0.2,-0.0,-0.0
iter:   9  13:11:02  -2.39  -1.38  -222.318971            -0.6,-0.0,-0.1
iter:  10  13:11:37  -2.02  -1.41  -221.993353            -0.6,-0.0,-0.1
iter:  11  13:12:11  -2.91  -1.55  -222.767468            -1.5,-0.0,-0.2
iter:  12  13:12:46  -2.43  -1.57  -223.585996            -1.9,-0.1,-0.2
iter:  13  13:13:20  -2.68  -1.60  -223.586526            -1.9,-0.1,-0.3
iter:  14  13:13:55  -2.49  -1.68  -225.123888            -1.4,-0.1,-0.3
iter:  15  13:14:29  -2.85  -1.69  -226.099399            -1.3,-0.2,-0.4
iter:  16  13:15:04  -1.93  -1.70  -226.509144            -0.3,-0.2,-0.5
iter:  17  13:15:38  -2.55  -1.85  -226.445095            -0.1,-0.2,-0.5
iter:  18  13:16:13  -2.07  -1.93  -226.334373            +0.0,-0.2,-0.5
iter:  19  13:16:47  -2.88  -2.12  -226.327520            +0.0,-0.2,-0.5
iter:  20  13:17:21  -3.42  -2.32  -226.289632            -0.0,-0.2,-0.5
iter:  21  13:17:56  -3.49  -2.36  -226.261452            +0.0,-0.2,-0.5
iter:  22  13:18:30  -3.54  -2.42  -226.248989            +0.0,-0.2,-0.4
iter:  23  13:19:05  -4.26  -2.46  -226.249758            +0.0,-0.2,-0.4
iter:  24  13:19:39  -3.31  -2.47  -226.264598            +0.0,-0.2,-0.4
iter:  25  13:20:14  -4.51  -2.63  -226.263677            +0.0,-0.2,-0.4
iter:  26  13:20:48  -3.58  -2.68  -226.251645            +0.0,-0.2,-0.4
iter:  27  13:21:23  -4.55  -2.85  -226.251593            +0.0,-0.2,-0.4
iter:  28  13:21:58  -4.13  -2.89  -226.250577            +0.0,-0.2,-0.4
iter:  29  13:22:32  -4.79  -3.22  -226.248894            +0.0,-0.2,-0.4
iter:  30  13:23:06  -4.89  -3.38  -226.248494            +0.0,-0.2,-0.4
iter:  31  13:23:41  -5.56  -3.45  -226.248472            +0.0,-0.2,-0.4
iter:  32  13:24:15  -5.71  -3.50  -226.248465            +0.0,-0.2,-0.4
iter:  33  13:24:50  -5.70  -3.52  -226.248262            +0.0,-0.1,-0.3
iter:  34  13:25:24  -5.84  -3.87  -226.248262            +0.0,-0.1,-0.3
iter:  35  13:25:59  -6.61  -3.98  -226.248242            +0.0,-0.1,-0.3
iter:  36  13:26:33  -6.13  -4.01  -226.248249            +0.0,-0.1,-0.3
iter:  37  13:27:08  -5.43  -4.07  -226.248285            +0.0,-0.1,-0.1
iter:  38  13:27:42  -6.59  -4.10  -226.248283            +0.0,-0.1,-0.1
iter:  39  13:28:17  -7.27  -4.20  -226.248291            +0.0,-0.1,-0.1
iter:  40  13:28:51  -7.30  -4.24  -226.248289            +0.0,-0.1,-0.1
iter:  41  13:29:26  -7.19  -4.47  -226.248293            +0.0,-0.1,-0.1
iter:  42  13:30:00  -6.63  -4.55  -226.248298            +0.0,-0.1,-0.1
iter:  43  13:30:35  -6.29  -4.61  -226.248303            +0.0,-0.1,-0.1
iter:  44  13:31:09  -6.13  -4.67  -226.248305            +0.0,-0.1,-0.0
iter:  45  13:31:43  -6.91  -4.88  -226.248304            +0.0,-0.0,-0.0
iter:  46  13:32:18  -7.64  -4.92  -226.248308            +0.0,-0.0,-0.0
iter:  47  13:32:52  -8.40  -5.22  -226.248309            +0.0,-0.0,-0.0
iter:  48  13:33:27  -8.34  -5.33  -226.248309            +0.0,-0.0,-0.0
iter:  49  13:34:02  -7.96  -5.36  -226.248309            +0.0,-0.0,-0.0
iter:  50  13:34:36  -7.87  -5.43  -226.248309            +0.0,-0.0,-0.0
iter:  51  13:35:10  -7.76  -5.54  -226.248309            +0.0,-0.0,-0.0
iter:  52  13:35:45  -7.80  -5.69  -226.248309            +0.0,-0.0,+0.0
iter:  53  13:36:19  -7.96  -5.73  -226.248308            +0.0,-0.0,+0.0
iter:  54  13:36:54  -8.70  -5.73  -226.248309            +0.0,-0.0,+0.0
iter:  55  13:37:28  -8.65  -5.80  -226.248309            -0.0,-0.0,+0.0
iter:  56  13:38:02  -7.20  -5.93  -226.248308            -0.0,-0.0,+0.0
iter:  57  13:38:36  -8.40  -5.96  -226.248308            -0.0,-0.0,+0.0
iter:  58  13:39:11  -9.47  -6.11  -226.248308            -0.0,-0.0,+0.0
iter:  59  13:39:45  -8.49  -6.27  -226.248309            -0.0,-0.0,+0.0
iter:  60  13:40:19  -9.00  -6.34  -226.248308            -0.0,-0.0,+0.0
iter:  61  13:40:53 -10.24  -6.39  -226.248308            -0.0,-0.0,+0.0
iter:  62  13:41:28  -9.27  -6.42  -226.248308            -0.0,-0.0,+0.0
iter:  63  13:42:02  -7.80  -6.57  -226.248308            -0.0,-0.0,+0.0
iter:  64  13:42:36  -8.13  -6.57  -226.248308            -0.0,-0.0,+0.0
iter:  65  13:43:10  -8.09  -6.55  -226.248308            -0.0,-0.0,+0.0
iter:  66  13:43:44  -9.28  -6.49  -226.248309            -0.0,-0.0,+0.0
iter:  67  13:44:19  -8.83  -6.51  -226.248309            -0.0,-0.0,+0.0
iter:  68  13:44:53  -8.78  -6.59  -226.248309            -0.0,-0.0,+0.0
iter:  69  13:45:27 -10.25  -6.65  -226.248309            -0.0,-0.0,+0.0
iter:  70  13:46:02 -10.32  -6.74  -226.248309            -0.0,-0.0,+0.0
iter:  71  13:46:36  -9.99  -6.93  -226.248308            -0.0,-0.0,+0.0
iter:  72  13:47:10  -9.36  -6.96  -226.248309            -0.0,-0.0,+0.0
iter:  73  13:47:44  -8.98  -7.37  -226.248309            -0.0,-0.0,+0.0
iter:  74  13:48:18  -7.67  -7.38  -226.248310            -0.0,-0.0,+0.0
iter:  75  13:48:52  -7.04  -6.94  -226.248311            -0.0,-0.0,+0.0
iter:  76  13:49:27  -7.19  -6.55  -226.248312            -0.0,-0.0,-0.0
iter:  77  13:50:01  -8.10  -6.38  -226.248313            -0.0,-0.0,-0.0
iter:  78  13:50:35  -7.77  -6.34  -226.248312            -0.0,-0.0,-0.0
iter:  79  13:51:09  -7.82  -6.59  -226.248313            -0.0,-0.0,-0.0
iter:  80  13:51:43  -8.48  -6.77  -226.248312            -0.0,-0.0,-0.0
iter:  81  13:52:17  -7.41  -6.70  -226.248313            -0.0,+0.0,-0.0
iter:  82  13:52:51  -8.01  -6.96  -226.248314            -0.0,+0.0,-0.0
iter:  83  13:53:25  -6.42  -6.98  -226.248310            -0.0,-0.0,+0.0
iter:  84  13:53:59  -6.49  -6.18  -226.248313            -0.0,+0.0,-0.0
iter:  85  13:54:33  -7.76  -7.23  -226.248313            -0.0,+0.0,-0.0
iter:  86  13:55:07  -8.62  -6.90  -226.248313            -0.0,+0.0,-0.0
iter:  87  13:55:41  -8.17  -7.07  -226.248313            -0.0,+0.0,-0.0
iter:  88  13:56:15  -7.06  -6.99  -226.248314            -0.0,+0.0,-0.0
iter:  89  13:56:49  -8.15  -7.14  -226.248314            -0.0,+0.0,-0.0
iter:  90  13:57:23  -7.91  -6.99  -226.248314            -0.0,+0.0,-0.0
iter:  91  13:57:57  -8.19  -7.65  -226.248314            -0.0,+0.0,-0.0
iter:  92  13:58:31  -8.83  -7.30  -226.248314            -0.0,+0.0,-0.0
iter:  93  13:59:05  -7.62  -7.54  -226.248314            -0.0,+0.0,-0.0
iter:  94  13:59:39  -8.32  -6.91  -226.248315            -0.0,+0.0,-0.0
iter:  95  14:00:13  -6.85  -6.83  -226.248313            -0.0,-0.0,-0.0
iter:  96  14:00:47  -7.10  -7.12  -226.248314            -0.0,+0.0,-0.0
iter:  97  14:01:21  -8.07  -6.97  -226.248314            -0.0,+0.0,-0.0
iter:  98  14:01:55  -9.01  -7.39  -226.248314            -0.0,+0.0,-0.0
iter:  99  14:02:29  -8.24  -7.21  -226.248314            -0.0,+0.0,-0.0
iter: 100  14:03:03  -6.86  -7.88  -226.248315            -0.0,+0.0,-0.0
iter: 101  14:03:37  -8.03  -6.64  -226.248315            -0.0,+0.0,-0.0
iter: 102  14:04:11  -9.03  -6.60  -226.248315            -0.0,+0.0,-0.0
iter: 103  14:04:45  -8.26  -6.70  -226.248315            -0.0,+0.0,-0.0
iter: 104  14:05:19  -7.68  -6.99  -226.248315            -0.0,+0.0,-0.0
iter: 105  14:05:53  -7.39  -6.86  -226.248316            -0.0,+0.0,-0.0
iter: 106  14:06:27  -7.61  -7.13  -226.248316            -0.0,+0.0,-0.0
iter: 107  14:07:01  -8.78  -6.91  -226.248316            -0.0,+0.0,-0.0
iter: 108  14:07:35  -8.23  -6.75  -226.248316            -0.0,+0.0,-0.0
iter: 109  14:08:09  -8.56  -7.33  -226.248316            -0.0,+0.0,-0.0
iter: 110  14:08:43  -8.43  -7.36  -226.248316            -0.0,+0.0,-0.0
iter: 111  14:09:17  -8.24  -6.66  -226.248316            -0.0,+0.0,-0.0
iter: 112  14:09:51  -6.63  -7.12  -226.248315            -0.0,-0.0,-0.0
iter: 113  14:10:25  -6.58  -6.50  -226.248316            -0.0,-0.0,-0.0
iter: 114  14:10:59  -8.00  -7.06  -226.248316            -0.0,-0.0,-0.0
iter: 115  14:11:33  -9.21  -7.73  -226.248316            -0.0,-0.0,-0.0
iter: 116  14:12:07  -8.95  -7.70  -226.248316            -0.0,-0.0,-0.0
iter: 117  14:12:41  -7.36  -7.76  -226.248317            -0.0,-0.0,-0.0
iter: 118  14:13:15  -8.25  -6.92  -226.248317            -0.0,-0.0,-0.0
iter: 119  14:13:49  -7.72  -6.84  -226.248316            -0.0,-0.0,-0.0
iter: 120  14:14:24  -7.96  -7.21  -226.248317            -0.0,-0.0,-0.0
iter: 121  14:14:58  -8.59  -6.90  -226.248317            -0.0,-0.0,-0.0
iter: 122  14:15:32  -7.48  -7.01  -226.248317            -0.0,-0.0,-0.0
iter: 123  14:16:06  -7.83  -6.66  -226.248317            -0.0,-0.0,-0.0
iter: 124  14:16:40  -6.66  -6.59  -226.248316            -0.0,-0.0,-0.0
iter: 125  14:17:14  -6.65  -8.03  -226.248317            -0.0,-0.0,-0.0
iter: 126  14:17:48  -7.76  -6.53  -226.248317            -0.0,-0.0,-0.0
iter: 127  14:18:22  -8.34  -6.69  -226.248317            -0.0,-0.0,-0.0
iter: 128  14:18:56  -8.73  -6.61  -226.248317            -0.0,-0.0,-0.0
iter: 129  14:19:30  -7.61  -6.70  -226.248318            -0.0,-0.0,-0.0
iter: 130  14:20:04  -8.20  -6.69  -226.248318            -0.0,-0.0,-0.0
iter: 131  14:20:38  -7.50  -6.47  -226.248317            -0.0,-0.0,-0.0
iter: 132  14:21:12  -7.57  -7.35  -226.248318            -0.0,-0.0,-0.0
iter: 133  14:21:46  -8.39  -7.04  -226.248318            -0.0,-0.0,-0.0
iter: 134  14:22:20  -7.93  -7.50  -226.248318            -0.0,-0.0,-0.0
iter: 135  14:22:54  -6.98  -7.05  -226.248318            -0.0,-0.0,-0.0
iter: 136  14:23:28  -8.47  -6.54  -226.248318            -0.0,-0.0,-0.0
iter: 137  14:24:02  -8.39  -6.61  -226.248318            -0.0,-0.0,-0.0
iter: 138  14:24:36  -8.27  -6.73  -226.248318            -0.0,-0.0,-0.0
iter: 139  14:25:10  -8.28  -7.03  -226.248318            -0.0,-0.0,-0.0
iter: 140  14:25:44  -7.47  -7.30  -226.248319            -0.0,-0.0,-0.0
iter: 141  14:26:18  -8.36  -6.96  -226.248319            -0.0,-0.0,-0.0
iter: 142  14:26:52  -8.61  -6.83  -226.248319            -0.0,+0.0,-0.0
iter: 143  14:27:27  -7.96  -7.27  -226.248319            -0.0,-0.0,-0.0
iter: 144  14:28:01  -7.97  -7.14  -226.248319            -0.0,-0.0,-0.0
iter: 145  14:28:35  -6.55  -6.69  -226.248320            -0.0,-0.0,-0.0
iter: 146  14:29:09  -7.43  -6.41  -226.248320            -0.0,-0.0,-0.0
iter: 147  14:29:43  -8.10  -6.25  -226.248320            +0.0,-0.0,-0.0
iter: 148  14:30:17  -8.77  -6.55  -226.248320            -0.0,-0.0,-0.0
iter: 149  14:30:51  -7.69  -7.43  -226.248320            -0.0,-0.0,-0.0
iter: 150  14:31:25  -8.52  -7.07  -226.248320            -0.0,-0.0,-0.0
iter: 151  14:31:59  -8.63  -7.16  -226.248320            -0.0,-0.0,-0.0
iter: 152  14:32:33  -9.84  -7.25  -226.248320            +0.0,-0.0,-0.0
iter: 153  14:33:07  -9.08  -7.65  -226.248320            +0.0,+0.0,-0.0
iter: 154  14:33:41  -7.92  -7.67  -226.248320            +0.0,-0.0,-0.0
iter: 155  14:34:15  -8.36  -7.24  -226.248320            +0.0,-0.0,-0.0
iter: 156  14:34:50  -8.15  -7.17  -226.248320            +0.0,-0.0,-0.0
iter: 157  14:35:24  -7.76  -7.27  -226.248320            -0.0,-0.0,-0.0
iter: 158  14:35:58  -7.89  -6.79  -226.248320            +0.0,-0.0,-0.0
iter: 159  14:36:32  -7.48  -6.82  -226.248321            +0.0,-0.0,-0.0
iter: 160  14:37:06  -6.80  -7.08  -226.248321            +0.0,-0.0,-0.0
iter: 161  14:37:40  -7.11  -6.96  -226.248321            -0.0,-0.0,-0.0
iter: 162  14:38:14  -7.36  -6.10  -226.248321            +0.0,-0.0,-0.0
iter: 163  14:38:48  -7.68  -7.19  -226.248321            +0.0,-0.0,-0.0
iter: 164  14:39:23  -8.59  -7.14  -226.248321            +0.0,-0.0,-0.0
iter: 165  14:39:57  -8.73  -6.75  -226.248321            +0.0,-0.0,-0.0
iter: 166  14:40:31  -9.27  -7.31  -226.248321            +0.0,-0.0,-0.0
iter: 167  14:41:05  -9.65  -7.53  -226.248321            +0.0,-0.0,-0.0
iter: 168  14:41:39 -10.12  -7.75  -226.248321            +0.0,-0.0,-0.0
iter: 169  14:42:13  -7.90  -7.76  -226.248321            +0.0,-0.0,-0.0
iter: 170  14:42:47  -9.61  -7.21  -226.248321            +0.0,-0.0,-0.0
iter: 171  14:43:22  -9.56  -7.28  -226.248321            +0.0,-0.0,-0.0
iter: 172  14:43:56  -8.94  -7.29  -226.248321            +0.0,-0.0,-0.0
iter: 173  14:44:30  -9.69  -7.17  -226.248321            +0.0,-0.0,-0.0
iter: 174  14:45:04  -9.94  -7.15  -226.248321            +0.0,-0.0,-0.0
iter: 175  14:45:38 -10.35  -7.49  -226.248321            +0.0,-0.0,-0.0
iter: 176  14:46:13 -10.26  -7.68  -226.248321            +0.0,-0.0,-0.0
iter: 177  14:46:47  -7.18  -7.68  -226.248321            +0.0,-0.0,-0.0
iter: 178  14:47:21  -8.68  -6.86  -226.248321            +0.0,-0.0,-0.0
iter: 179  14:47:55  -9.06  -6.89  -226.248321            +0.0,-0.0,-0.0
iter: 180  14:48:29  -8.76  -7.05  -226.248321            +0.0,-0.0,-0.0
iter: 181  14:49:04  -9.69  -7.38  -226.248321            +0.0,-0.0,-0.0
iter: 182  14:49:38  -9.63  -7.73  -226.248321            +0.0,-0.0,-0.0
iter: 183  14:50:12  -9.60  -7.71  -226.248321            +0.0,-0.0,-0.0
iter: 184  14:50:46  -9.38  -7.71  -226.248321            +0.0,-0.0,-0.0
iter: 185  14:51:20  -7.87  -7.59  -226.248321            +0.0,-0.0,+0.0
iter: 186  14:51:55  -7.56  -7.07  -226.248321            +0.0,-0.0,+0.0
iter: 187  14:52:29  -8.62  -6.79  -226.248321            +0.0,-0.0,+0.0
iter: 188  14:53:03  -9.43  -6.75  -226.248321            +0.0,-0.0,+0.0
iter: 189  14:53:37  -9.26  -7.13  -226.248321            +0.0,-0.0,+0.0
iter: 190  14:54:11  -8.76  -7.46  -226.248321            +0.0,-0.0,+0.0
iter: 191  14:54:45  -8.13  -7.51  -226.248321            +0.0,-0.0,+0.0
iter: 192  14:55:19  -8.37  -7.52  -226.248322            +0.0,-0.0,+0.0
iter: 193  14:55:54  -8.69  -7.70  -226.248322            +0.0,-0.0,+0.0
iter: 194  14:56:28  -8.14  -7.76  -226.248321            +0.0,-0.0,+0.0
iter: 195  14:57:02  -8.20  -8.06  -226.248322            +0.0,-0.0,+0.0
iter: 196  14:57:36  -9.38  -7.93  -226.248322            +0.0,-0.0,+0.0
iter: 197  14:58:10  -8.88  -7.58  -226.248322            +0.0,-0.0,+0.0
iter: 198  14:58:45  -8.35  -7.90  -226.248322            +0.0,-0.0,+0.0
iter: 199  14:59:19  -8.70  -8.11  -226.248322            +0.0,+0.0,+0.0
iter: 200  14:59:53  -8.50  -8.10  -226.248322            +0.0,-0.0,+0.0
iter: 201  15:00:27  -8.06  -8.05  -226.248322            +0.0,+0.0,+0.0
iter: 202  15:01:02  -8.32  -7.99  -226.248322            +0.0,+0.0,+0.0
iter: 203  15:01:36  -8.80  -8.09  -226.248322            +0.0,+0.0,+0.0
iter: 204  15:02:10  -8.52  -8.05  -226.248322            +0.0,+0.0,+0.0
iter: 205  15:02:44  -9.19  -8.21  -226.248322            +0.0,+0.0,+0.0
iter: 206  15:03:18 -10.60  -8.29  -226.248322            +0.0,+0.0,+0.0
iter: 207  15:03:53 -10.14  -8.30  -226.248322            +0.0,+0.0,+0.0
iter: 208  15:04:27  -9.83  -8.29  -226.248322            +0.0,+0.0,+0.0
iter: 209  15:05:01  -9.34  -8.16  -226.248322            +0.0,+0.0,+0.0
iter: 210  15:05:35  -8.56  -7.97  -226.248322            +0.0,+0.0,+0.0
iter: 211  15:06:09  -9.14  -8.15  -226.248322            +0.0,+0.0,+0.0
iter: 212  15:06:43  -8.57  -8.26  -226.248322            +0.0,+0.0,+0.0
iter: 213  15:07:18  -8.14  -7.91  -226.248322            +0.0,+0.0,+0.0
iter: 214  15:07:52  -9.53  -7.71  -226.248322            +0.0,+0.0,+0.0
iter: 215  15:08:26 -10.74  -7.85  -226.248322            +0.0,+0.0,+0.0
iter: 216  15:09:00 -10.89  -8.07  -226.248322            +0.0,+0.0,+0.0
iter: 217  15:09:34 -10.41  -8.40  -226.248322            +0.0,+0.0,+0.0
iter: 218  15:10:09  -9.65  -8.30  -226.248322            +0.0,+0.0,+0.0
iter: 219  15:10:43  -9.19  -8.27  -226.248322            +0.0,+0.0,+0.0
iter: 220  15:11:17  -7.91  -8.16  -226.248322            +0.0,+0.0,+0.0
iter: 221  15:11:51  -9.52  -7.90  -226.248322            +0.0,+0.0,+0.0
iter: 222  15:12:25  -9.97  -7.88  -226.248322            +0.0,+0.0,+0.0
iter: 223  15:12:59 -10.74  -7.98  -226.248322            +0.0,+0.0,+0.0
iter: 224  15:13:34 -10.81  -8.02  -226.248322            +0.0,+0.0,+0.0
iter: 225  15:14:08  -9.19  -7.95  -226.248322            +0.0,+0.0,+0.0
iter: 226  15:14:42 -10.22  -8.05  -226.248322            +0.0,+0.0,+0.0
iter: 227  15:15:16 -10.54  -8.20  -226.248322            +0.0,+0.0,+0.0
iter: 228  15:15:50 -11.17  -8.58  -226.248322            +0.0,+0.0,+0.0
iter: 229  15:16:25  -9.59  -8.64  -226.248322            +0.0,+0.0,+0.0
iter: 230  15:16:59  -9.90  -8.03  -226.248322            +0.0,+0.0,+0.0
iter: 231  15:17:33  -9.33  -7.90  -226.248322            +0.0,+0.0,+0.0
iter: 232  15:18:07  -9.63  -7.73  -226.248322            +0.0,+0.0,+0.0
iter: 233  15:18:41  -8.96  -7.76  -226.248322            +0.0,+0.0,+0.0
iter: 234  15:19:15  -9.87  -8.27  -226.248322            +0.0,+0.0,+0.0
iter: 235  15:19:49 -10.24  -8.45  -226.248322            +0.0,+0.0,+0.0
iter: 236  15:20:23 -10.03  -8.29  -226.248322            +0.0,+0.0,+0.0
iter: 237  15:20:57 -10.06  -8.45  -226.248322            +0.0,+0.0,+0.0
iter: 238  15:21:32 -11.00  -8.17  -226.248322            +0.0,+0.0,+0.0
iter: 239  15:22:06 -10.61  -8.08  -226.248322            +0.0,+0.0,+0.0
iter: 240  15:22:40 -10.20  -8.45  -226.248322            +0.0,+0.0,+0.0
iter: 241  15:23:14  -9.92  -8.54  -226.248322            +0.0,+0.0,+0.0
iter: 242  15:23:48 -10.33  -8.63  -226.248322            +0.0,+0.0,+0.0
iter: 243  15:24:22  -9.82  -8.48  -226.248322            +0.0,+0.0,+0.0
iter: 244  15:24:56  -9.13  -8.28  -226.248322            +0.0,+0.0,+0.0
iter: 245  15:25:30  -9.79  -8.21  -226.248322            +0.0,+0.0,+0.0
iter: 246  15:26:04  -9.85  -8.74  -226.248322            +0.0,+0.0,+0.0
iter: 247  15:26:39  -8.22  -8.68  -226.248322            +0.0,+0.0,+0.0
iter: 248  15:27:13  -9.80  -8.23  -226.248322            +0.0,+0.0,+0.0
iter: 249  15:27:47  -9.72  -8.27  -226.248322            +0.0,+0.0,+0.0
iter: 250  15:28:21 -10.15  -8.33  -226.248322            +0.0,+0.0,+0.0
iter: 251  15:28:55 -11.24  -8.15  -226.248322            +0.0,+0.0,+0.0
iter: 252  15:29:29 -12.22  -8.54  -226.248322            +0.0,+0.0,+0.0
iter: 253  15:30:03 -12.47  -8.51  -226.248322            +0.0,+0.0,+0.0
iter: 254  15:30:38 -12.96  -8.79  -226.248322            +0.0,+0.0,+0.0
iter: 255  15:31:12 -10.97  -8.93  -226.248322            +0.0,+0.0,+0.0
iter: 256  15:31:46 -10.70  -8.66  -226.248322            +0.0,+0.0,+0.0
iter: 257  15:32:20  -9.39  -8.37  -226.248322            +0.0,+0.0,+0.0
iter: 258  15:32:54  -9.73  -7.79  -226.248322            +0.0,+0.0,+0.0
iter: 259  15:33:28  -9.22  -7.66  -226.248322            +0.0,+0.0,+0.0
iter: 260  15:34:02  -9.18  -7.64  -226.248322            +0.0,+0.0,+0.0
iter: 261  15:34:36 -10.22  -7.85  -226.248322            +0.0,+0.0,+0.0
iter: 262  15:35:10 -10.89  -8.08  -226.248322            +0.0,+0.0,+0.0
iter: 263  15:35:44  -9.97  -8.15  -226.248322            +0.0,+0.0,+0.0
iter: 264  15:36:19 -10.31  -8.11  -226.248322            +0.0,+0.0,+0.0
iter: 265  15:36:53 -10.39  -7.87  -226.248322            +0.0,+0.0,+0.0
iter: 266  15:37:27  -9.36  -8.26  -226.248322            +0.0,+0.0,+0.0
iter: 267  15:38:01 -10.38  -8.14  -226.248322            +0.0,+0.0,+0.0
iter: 268  15:38:35  -9.58  -8.24  -226.248323            +0.0,+0.0,+0.0
iter: 269  15:39:09 -11.20  -7.92  -226.248325            +0.0,+0.0,+0.0
iter: 270  15:39:43 -11.10  -7.95  -226.248324            +0.0,+0.0,+0.0
iter: 271  15:40:17 -10.39  -7.97  -226.248321            +0.0,+0.0,+0.0
iter: 272  15:40:51  -9.95  -8.26  -226.248321            +0.0,+0.0,+0.0
iter: 273  15:41:25 -10.30  -8.29  -226.248324            +0.0,+0.0,+0.0
iter: 274  15:42:00  -9.44  -8.28  -226.248327            +0.0,+0.0,+0.0
iter: 275  15:42:34  -9.60  -8.38  -226.248326            +0.0,+0.0,+0.0
iter: 276  15:43:08 -10.28  -8.18  -226.248326            +0.0,+0.0,+0.0
iter: 277  15:43:42  -9.70  -8.17  -226.248325            +0.0,+0.0,+0.0
iter: 278  15:44:16  -9.47  -8.37  -226.248324            +0.0,+0.0,+0.0
iter: 279  15:44:50 -10.92  -8.30  -226.248325            +0.0,+0.0,+0.0
iter: 280  15:45:24 -11.01  -8.27  -226.248322            +0.0,+0.0,+0.0
iter: 281  15:45:58 -11.16  -8.44  -226.248323            +0.0,+0.0,+0.0
iter: 282  15:46:32 -10.44  -8.40  -226.248321            +0.0,+0.0,+0.0
iter: 283  15:47:06 -10.11  -8.29  -226.248322            +0.0,+0.0,+0.0
iter: 284  15:47:40 -10.20  -8.11  -226.248322            +0.0,+0.0,+0.0
iter: 285  15:48:14  -9.62  -8.52  -226.248321            +0.0,+0.0,+0.0
iter: 286  15:48:49  -9.37  -8.49  -226.248321            +0.0,+0.0,+0.0
iter: 287  15:49:23 -10.27  -8.53  -226.248321            +0.0,+0.0,+0.0
iter: 288  15:49:57 -10.68  -8.55  -226.248321            +0.0,+0.0,+0.0
iter: 289  15:50:31  -9.46  -8.59  -226.248321            +0.0,+0.0,+0.0
iter: 290  15:51:05 -11.12  -8.27  -226.248322            +0.0,+0.0,+0.0
iter: 291  15:51:39 -11.26  -7.87  -226.248321            +0.0,+0.0,+0.0
iter: 292  15:52:13 -10.74  -8.67  -226.248321            +0.0,+0.0,+0.0
iter: 293  15:52:47 -10.34  -8.44  -226.248322            +0.0,+0.0,+0.0
iter: 294  15:53:21 -10.16  -8.67  -226.248322            +0.0,+0.0,+0.0
iter: 295  15:53:55  -9.90  -8.64  -226.248322            +0.0,+0.0,+0.0
iter: 296  15:54:29 -10.07  -8.39  -226.248322            +0.0,+0.0,+0.0
iter: 297  15:55:03 -10.04  -8.76  -226.248322            +0.0,+0.0,+0.0
iter: 298  15:55:37  -9.95  -8.57  -226.248321            +0.0,+0.0,+0.0
iter: 299  15:56:11 -10.15  -8.88  -226.248321            +0.0,+0.0,+0.0
iter: 300  15:56:45  -9.89  -8.40  -226.248321            +0.0,+0.0,+0.0
iter: 301  15:57:18 -11.06  -7.99  -226.248322            +0.0,+0.0,+0.0
iter: 302  15:57:52 -11.15  -8.07  -226.248322            +0.0,+0.0,+0.0
iter: 303  15:58:26 -10.28  -8.33  -226.248322            +0.0,+0.0,+0.0
iter: 304  15:59:00 -10.41  -8.36  -226.248322            +0.0,+0.0,+0.0
iter: 305  15:59:34 -10.24  -8.90  -226.248322            +0.0,+0.0,+0.0
iter: 306  16:00:08  -9.93  -8.51  -226.248322            +0.0,+0.0,+0.0
iter: 307  16:00:42 -10.54  -8.25  -226.248322            +0.0,+0.0,+0.0
iter: 308  16:01:16 -10.62  -8.82  -226.248322            +0.0,+0.0,+0.0
iter: 309  16:01:50 -10.25  -8.92  -226.248322            +0.0,+0.0,+0.0
iter: 310  16:02:24 -10.23  -8.64  -226.248322            +0.0,+0.0,+0.0
iter: 311  16:02:58 -11.39  -8.59  -226.248322            +0.0,+0.0,+0.0
iter: 312  16:03:32 -10.81  -8.69  -226.248322            +0.0,+0.0,+0.0
iter: 313  16:04:06 -10.21  -8.92  -226.248322            +0.0,+0.0,+0.0
iter: 314  16:04:40 -10.14  -8.44  -226.248322            +0.0,+0.0,+0.0
iter: 315  16:05:14 -10.05  -8.61  -226.248322            +0.0,+0.0,+0.0
iter: 316  16:05:48 -10.96  -8.20  -226.248322            +0.0,+0.0,+0.0
iter: 317  16:06:22 -11.73  -8.06  -226.248322            +0.0,+0.0,+0.0
iter: 318  16:06:56 -11.27  -8.97  -226.248322            +0.0,+0.0,+0.0
iter: 319  16:07:30 -10.38  -8.92  -226.248322            +0.0,+0.0,+0.0
iter: 320  16:08:04 -10.80  -8.51  -226.248322            +0.0,+0.0,+0.0
iter: 321  16:08:38 -11.78  -8.74  -226.248322            +0.0,+0.0,+0.0
iter: 322  16:09:12 -11.67  -8.81  -226.248322            +0.0,+0.0,+0.0
iter: 323  16:09:46  -9.45  -8.67  -226.248323            +0.0,+0.0,+0.0
iter: 324  16:10:20 -10.47  -8.04  -226.248322            +0.0,+0.0,+0.0
iter: 325  16:10:54 -11.03  -8.24  -226.248322            +0.0,+0.0,+0.0
iter: 326  16:11:28 -11.05  -8.12  -226.248322            +0.0,+0.0,+0.0
iter: 327  16:12:02 -11.57  -8.04  -226.248322            +0.0,+0.0,+0.0
iter: 328  16:12:36 -11.36  -8.40  -226.248322            +0.0,+0.0,+0.0
iter: 329  16:13:10 -10.34  -8.97  -226.248322            +0.0,+0.0,+0.0
iter: 330  16:13:44 -11.29  -8.79  -226.248322            +0.0,+0.0,+0.0
iter: 331  16:14:18  -9.99  -8.62  -226.248322            +0.0,+0.0,+0.0
iter: 332  16:14:52 -10.63  -8.39  -226.248322            +0.0,+0.0,+0.0
iter: 333  16:15:25 -11.43  -8.24  -226.248323            +0.0,+0.0,+0.0
iter: 334  16:15:59 -11.03  -8.27  -226.248323            +0.0,+0.0,+0.0
iter: 335  16:16:33 -11.36  -7.62  -226.248323            +0.0,+0.0,+0.0
iter: 336  16:17:07 -11.69  -8.66  -226.248323            +0.0,+0.0,+0.0
iter: 337  16:17:41 -10.46  -8.59  -226.248323            +0.0,+0.0,+0.0
iter: 338  16:18:15 -11.06  -8.76  -226.248323            +0.0,+0.0,+0.0
iter: 339  16:18:49 -11.82  -8.64  -226.248323            +0.0,+0.0,+0.0
iter: 340  16:19:22 -11.59  -8.20  -226.248323            +0.0,+0.0,+0.0
iter: 341  16:19:56 -10.77  -8.87  -226.248323            +0.0,+0.0,+0.0
iter: 342  16:20:30 -10.35  -9.04  -226.248323            +0.0,-0.0,+0.0

Converged after 342 iterations.

Dipole moment: (-0.161222, -0.007216, 1.631289) |e|*Ang

Total magnetic moment: (0.000385, -0.000030, 0.003229)
Local magnetic moments:
   0 O  (-0.001561, -0.000071,  0.000199)
   1 O  ( 0.001576,  0.000070,  0.000264)
   2 O  (-0.002547, -0.000090, -0.000236)
   3 O  ( 0.002561,  0.000103, -0.000138)
   4 O  (-0.002522,  0.000085, -0.000235)
   5 O  ( 0.002536, -0.000098, -0.000138)
   6 O  (-0.001547,  0.000067,  0.000201)
   7 O  ( 0.001562, -0.000066,  0.000265)
   8 O  (-0.028683, -0.000055, -0.000533)
   9 O  ( 0.028800,  0.000055,  0.000796)
  10 O  ( 0.028620,  0.000041,  0.000512)
  11 O  (-0.028603, -0.000041, -0.000720)
  12 Mn (-4.445514, -0.008506, -0.087081)
  13 Mn ( 4.444802,  0.008502,  0.119583)
  14 Mn ( 4.446056,  0.006338,  0.080244)
  15 Mn (-4.445154, -0.006362, -0.109906)
  16 P  (-0.002241, -0.000002,  0.000099)
  17 P  ( 0.002242,  0.000002,  0.000184)
  18 P  ( 0.000900,  0.000004, -0.000117)
  19 P  (-0.000840, -0.000004, -0.000179)
  20 O  (-0.024683, -0.000047, -0.000662)
  21 O  ( 0.024653,  0.000047,  0.000493)
  22 O  ( 0.025810,  0.000037,  0.000606)
  23 O  (-0.025902, -0.000037, -0.000494)
  24 Li ( 0.000051, -0.000002,  0.000001)
  25 Li (-0.000058,  0.000002, -0.000001)
  26 Li ( 0.000051,  0.000002,  0.000001)
  27 Li (-0.000058, -0.000002, -0.000001)

Energy contributions relative to reference atoms: (reference = -196157.275402)

Kinetic:       +217.423882
Potential:     -195.305471
External:        +0.000000
XC:            -250.407778
Entropy (-ST):   -0.000000
Local:           +2.041045
--------------------------
Free energy:   -226.248323
Extrapolated:  -226.248323

Showing only first 2 kpts
 Kpt  Band  Eigenvalues  Occupancy
  0    88     -2.04354    1.00000
  0    89     -2.03117    1.00000
  0    90     -1.95000    1.00000
  0    91     -1.93945    1.00000

  1    88     -2.16891    1.00000
  1    89     -2.15852    1.00000
  1    90     -2.11356    1.00000
  1    91     -2.09054    1.00000


Fermi level: 6.19876

Gap: 1.965 eV
Transition (v -> c):
  (s=0, k=51, n=179, [0.12, -0.38, 0.08]) -> (s=0, k=63, n=180, [0.12, 0.12, 0.08])

Forces in eV/Ang:
  0 O     0.02330    0.00636   -0.12615
  1 O    -0.02769   -0.00646   -0.12628
  2 O     0.02217   -0.00278   -0.11345
  3 O    -0.02695    0.00291   -0.11504
  4 O     0.02223    0.00280   -0.11342
  5 O    -0.02702   -0.00293   -0.11502
  6 O     0.02328   -0.00628   -0.12606
  7 O    -0.02769    0.00638   -0.12619
  8 O     0.00091   -0.00001   -0.10782
  9 O    -0.00543    0.00000   -0.10620
 10 O     0.00332    0.00000   -0.11809
 11 O    -0.00677    0.00000   -0.11766
 12 Mn   -0.00393   -0.00002    0.17789
 13 Mn   -0.00163    0.00002    0.17877
 14 Mn    0.00280    0.00003    0.17027
 15 Mn   -0.00873   -0.00003    0.17093
 16 P    -0.02084   -0.00003    0.27942
 17 P     0.01612    0.00002    0.27884
 18 P     0.03947   -0.00003    0.25336
 19 P     0.01813    0.00004    0.25318
 20 O    -0.02187    0.00001   -0.19581
 21 O     0.01793   -0.00001   -0.19634
 22 O    -0.01381   -0.00003   -0.19553
 23 O     0.01094    0.00003   -0.19512
 24 Li   -0.00343    0.00494    0.10728
 25 Li   -0.00068   -0.00485    0.10837
 26 Li   -0.00342   -0.00494    0.10726
 27 Li   -0.00067    0.00482    0.10837

Timing:                              incl.     excl.
-----------------------------------------------------------
Forces:                              4.412     4.412   0.0% |
Hamiltonian:                         0.654     0.003   0.0% |
 Atomic:                             0.115     0.115   0.0% |
  XC Correction:                     0.000     0.000   0.0% |
 Calculate atomic Hamiltonians:      0.245     0.245   0.0% |
 Communicate:                        0.000     0.000   0.0% |
 Initialize Hamiltonian:             0.001     0.001   0.0% |
 Poisson:                            0.003     0.003   0.0% |
 XC 3D grid:                         0.288     0.288   0.0% |
LCAO initialization:                59.045     0.366   0.0% |
 LCAO eigensolver:                  10.422     0.002   0.0% |
  DenseAtomicCorrection:             0.017     0.017   0.0% |
  Distribute overlap matrix:         0.001     0.001   0.0% |
  Orbital Layouts:                   0.057     0.057   0.0% |
  Potential matrix:                 10.308    10.308   0.1% |
  Sum over cells:                    0.038     0.038   0.0% |
 LCAO to grid:                      47.278    47.278   0.4% |
 Set positions (LCAO WFS):           0.979     0.206   0.0% |
  Basic WFS set positions:           0.001     0.001   0.0% |
  Basis functions set positions:     0.000     0.000   0.0% |
  P tci:                             0.382     0.382   0.0% |
  ST tci:                            0.299     0.299   0.0% |
  mktci:                             0.091     0.091   0.0% |
PWDescriptor:                        0.010     0.010   0.0% |
SCF-cycle:                       11698.478  3372.270  28.7% |----------|
 Davidson:                        6821.272   756.009   6.4% |--|
  Apply H:                        1079.805  1079.805   9.2% |---|
  Subspace diag:                  1435.529     0.143   0.0% |
   calc_h_matrix:                 1218.894   136.135   1.2% |
    Apply H:                      1082.759  1082.759   9.2% |---|
   diagonalize:                     11.975    11.975   0.1% |
   rotate_psi:                     204.517   204.517   1.7% ||
  calc. matrices:                 2924.455   778.319   6.6% |--|
   Apply H:                       2146.136  2146.136  18.2% |------|
  diagonalize:                     243.992   243.992   2.1% ||
  rotate_psi:                      381.482   381.482   3.2% ||
 Density:                         1278.440     0.010   0.0% |
  Atomic density matrices:          42.693    42.693   0.4% |
  Mix:                             118.742   118.742   1.0% |
  Multipole moments:                 0.188     0.188   0.0% |
  Pseudo density:                 1116.808  1116.787   9.5% |---|
   Symmetrize density:               0.021     0.021   0.0% |
 Hamiltonian:                      225.549     1.264   0.0% |
  Atomic:                           22.254    22.253   0.2% |
   XC Correction:                    0.001     0.001   0.0% |
  Calculate atomic Hamiltonians:    96.038    96.038   0.8% |
  Communicate:                       0.087     0.087   0.0% |
  Poisson:                           1.057     1.057   0.0% |
  XC 3D grid:                      104.849   104.849   0.9% |
 Orthonormalize:                     0.947     0.001   0.0% |
  calc_s_matrix:                     0.201     0.201   0.0% |
  inverse-cholesky:                  0.009     0.009   0.0% |
  projections:                       0.430     0.430   0.0% |
  rotate_psi_s:                      0.306     0.306   0.0% |
Set symmetry:                        0.000     0.000   0.0% |
Other:                               2.624     2.624   0.0% |
-----------------------------------------------------------
Total:                                     11765.224 100.0%

Memory usage: 893.50 MiB
Date: Fri Jun 24 16:20:35 2022
