
  ___ ___ ___ _ _ _  
 |   |   |_  | | | | 
 | | | | | . | | | | 
 |__ |  _|___|_____|  21.6.1b1
 |___|_|             

User:   madkru@a104.nifl.fysik.dtu.dk
Date:   Sun Jun 26 02:44:11 2022
Arch:   x86_64
Pid:    4971
Python: 3.8.6
gpaw:   /home/niflheim/madkru/new_venv/gpaw/gpaw (1f0dfc9eae)
_gpaw:  /home/niflheim/madkru/new_venv/gpaw/build/lib.linux-x86_64-skylake-3.8/
        _gpaw.cpython-38-x86_64-linux-gnu.so (c1e45bfab3)
ase:    /home/niflheim/madkru/new_venv/ase/ase (version 3.23.0b1-ca38c75a67)
numpy:  /home/modules/software/SciPy-bundle/2020.11-foss-2020b/lib/python3.8/site-packages/numpy (version 1.19.4)
scipy:  /home/modules/software/SciPy-bundle/2020.11-foss-2020b/lib/python3.8/site-packages/scipy (version 1.5.4)
libxc:  4.3.4
units:  Angstrom and eV
cores: 40
OpenMP: False
OMP_NUM_THREADS: 1

Input parameters:
  convergence: {density: 1e-09}
  experimental: {magmoms: [[0. 0. 0.]
 [0. 0. 0.]
 [0. 0. 0.]
 ...
 [0. 0. 0.]
 [0. 0. 0.]
 [0. 0. 0.]],
                 soc: True}
  kpts: [4 4 6]
  maxiter: 5000
  mixer: {backend: pulay,
          beta: 0.05,
          method: difference,
          nmaxold: 3,
          weight: 100}
  mode: {ecut: 600.0,
         gammacentered: False,
         name: pw}
  occupations: {fixmagmom: False,
                name: fermi-dirac,
                width: 0.001}
  symmetry: off

System changes: positions, numbers, cell, pbc, initial_charges, initial_magmoms 

Initialize ...

O-setup:
  name: Oxygen
  id: 9b9d51c344dea68c822856295a461509
  Z: 8.0
  valence: 6
  core: 2
  charge: 0.0
  file: /home/modules/software/GPAW-setups/0.9.20000/O.LDA.gz
  compensation charges: gauss, rc=0.21, lmax=2
  cutoffs: 1.17(filt), 0.83(core),
  valence states:
                energy  radius
    2s(2.00)   -23.752   0.688
    2p(4.00)    -9.195   0.598
    *s           3.459   0.688
    *p          18.016   0.598
    *d           0.000   0.619

  Using partial waves for O as LCAO basis

Mn-setup:
  name: Manganese
  id: 0d715a8018be061a6e9ea6f2d364ac92
  Z: 25.0
  valence: 15
  core: 10
  charge: 0.0
  file: /home/modules/software/GPAW-setups/0.9.20000/Mn.LDA.gz
  compensation charges: gauss, rc=0.38, lmax=2
  cutoffs: 2.14(filt), 0.86(core),
  valence states:
                energy  radius
    3s(2.00)   -85.387   1.275
    4s(2.00)    -5.282   1.275
    3p(6.00)   -54.493   1.281
    4p(0.00)    -1.471   1.281
    3d(5.00)    -7.009   1.138
    *d          20.203   1.138

  Using partial waves for Mn as LCAO basis

P-setup:
  name: Phosphorus
  id: a5561c299094968922a179ab894d2e2d
  Z: 15.0
  valence: 5
  core: 10
  charge: 0.0
  file: /home/modules/software/GPAW-setups/0.9.20000/P.LDA.gz
  compensation charges: gauss, rc=0.30, lmax=2
  cutoffs: 1.69(filt), 1.81(core),
  valence states:
                energy  radius
    3s(2.00)   -14.015   0.953
    3p(3.00)    -5.596   0.953
    *s          13.197   0.953
    *p          21.615   0.953
    *d           0.000   0.953

  Using partial waves for P as LCAO basis

Li-setup:
  name: Lithium
  id: b73562207f97a71b6967473b66fe8b65
  Z: 3.0
  valence: 1
  core: 2
  charge: 0.0
  file: /home/modules/software/GPAW-setups/0.9.20000/Li.LDA.gz
  compensation charges: gauss, rc=0.33, lmax=2
  cutoffs: 1.91(filt), 2.55(core),
  valence states:
                energy  radius
    2s(1.00)    -2.874   1.058
    2p(0.00)    -1.126   1.058
    *s          24.338   1.058

  Using partial waves for Li as LCAO basis

Reference energy: -196157.275402

Non-collinear calculation.
Magnetic moment: (0.000000, 0.000000, 0.000000)

Convergence criteria:
  Maximum total energy change: 0.0005 eV / electron
  Maximum integral of absolute density change: 1e-09 electrons
  Maximum integral of absolute eigenstate change: 4e-08 eV^2
  Maximum number of iterations: 5000

Symmetries present (total): 1

  ( 1  0  0)
  ( 0  1  0)
  ( 0  0  1)

96 k-points: 4 x 4 x 6 Monkhorst-Pack grid
96 k-points in the irreducible part of the Brillouin zone
       k-points in crystal coordinates                weights
   0:    -0.37500000   -0.37500000   -0.41666667          1/96
   1:    -0.37500000   -0.37500000   -0.25000000          1/96
   2:    -0.37500000   -0.37500000   -0.08333333          1/96
   3:    -0.37500000   -0.37500000    0.08333333          1/96
   4:    -0.37500000   -0.37500000    0.25000000          1/96
   5:    -0.37500000   -0.37500000    0.41666667          1/96
   6:    -0.37500000   -0.12500000   -0.41666667          1/96
   7:    -0.37500000   -0.12500000   -0.25000000          1/96
   8:    -0.37500000   -0.12500000   -0.08333333          1/96
   9:    -0.37500000   -0.12500000    0.08333333          1/96
          ...
  95:     0.37500000    0.37500000    0.41666667          1/96

Wave functions: Plane wave expansion
  Cutoff energy: 600.000 eV
  Number of coefficients (min, max): 10065, 10119
  Pulay-stress correction: 0.000000 eV/Ang^3 (de/decut=0.000000)
  Using FFTW library
  ScaLapack parameters: grid=1x1, blocksize=None
  Wavefunction extrapolation:
    Improved wavefunction reuse through dual PAW basis 

Occupation numbers: Fermi-Dirac: width=0.0010 eV
 

Eigensolver
   Davidson(niter=2) 

Densities:
  Coarse grid: 60*35*27 grid
  Fine grid: 120*70*54 grid
  Total Charge: 0.000000 

Density mixing:
  Method: difference
  Backend: pulay
  Linear mixing parameter: 0.05
  Mixing with 3 old densities
  Damping of long wave oscillations: 100 

Hamiltonian:
  XC and Coulomb potentials evaluated on a 120*70*54 grid
  Using the LDA Exchange-Correlation functional
  External potential:
    <gpaw.external.NoExternalPotential object at 0x2ad0798a2580>
 

Memory estimate:
  Process memory now: 1257.22 MiB
  Calculator: 167.16 MiB
    Density: 37.88 MiB
      Arrays: 11.25 MiB
      Localized functions: 18.84 MiB
      Mixer: 7.79 MiB
    Hamiltonian: 7.90 MiB
      Arrays: 7.35 MiB
      XC: 0.00 MiB
      Poisson: 0.00 MiB
      vbar: 0.54 MiB
    Wavefunctions: 121.39 MiB
      Arrays psit_nG: 69.17 MiB
      Eigensolver: 43.02 MiB
      Projections: 2.41 MiB
      Projectors: 4.31 MiB
      PW-descriptor: 2.47 MiB

Total number of cores used: 40
Parallelization over k-points: 40

Number of atoms: 28
Number of atomic orbitals: 148
Number of bands in calculation: 224
Number of valence electrons: 180
Bands to converge: occupied

... initialized

Initializing position-dependent things.

Density initialized from atomic densities
Creating initial wave functions:
  148 bands from LCAO basis set
  76 bands from random numbers

     .-------------------------.  
    /|             P  O        |  
   / |   O      O              |  
  /  |              OMn      O |  
 *   |P O   O           Mn     |  
 |   | O        Li       O     |  
 |   Li-Mn----------O----OP----.  
 | O/      On Li              /   
 | /i           O      O     /    
 |/       O  P              /     
 *-------------------------*      

Positions:
   0 O      3.485457    0.291791    0.972192    ( 0.0000,  0.0000,  0.0000)
   1 O      1.742297    5.807885    3.341681    ( 0.0000,  0.0000,  0.0000)
   2 O      6.960977    3.339159    3.716528    ( 0.0000,  0.0000,  0.0000)
   3 O      8.733270    2.760247    1.345932    ( 0.0000,  0.0000,  0.0000)
   4 O      6.961185    5.810261    3.716644    ( 0.0000,  0.0000, -3.0000)
   5 O      8.733065    0.290338    1.346042    ( 0.0000,  0.0000,  3.0000)
   6 O      3.485841    2.759141    0.972246    ( 0.0000,  0.0000,  3.0000)
   7 O      1.741903    3.341188    3.341734    ( 0.0000,  0.0000, -3.0000)
   8 O      0.445684    1.525102    1.387849    ( 0.0000,  0.0000,  0.0000)
   9 O      4.788758    4.574898    3.760340    ( 0.0000,  0.0000,  0.0000)
  10 O     10.020229    4.574813    3.315676    ( 0.0000,  0.0000,  0.0000)
  11 O      5.667422    1.525195    0.945603    ( 0.0000,  0.0000,  0.0000)
  12 Mn     2.282916    1.524750    2.477521    ( 0.0000,  0.0000,  0.0000)
  13 Mn     2.945528    4.575253    0.105986    ( 5.0000,  0.0000,  0.0000)
  14 Mn     8.175419    4.575071    2.320920    (-5.0000,  0.0000,  0.0000)
  15 Mn     7.515207    1.524933    4.693733    (-5.0000,  0.0000,  0.0000)
  16 P      4.229986    1.525388    0.364550    ( 5.0000,  0.0000,  0.0000)
  17 P      0.997456    4.574618    2.733896    ( 0.0000,  0.0000,  0.0000)
  18 P      6.227305    4.574730    4.361143    ( 0.0000,  0.0000,  0.0000)
  19 P      9.468905    1.525273    1.990545    ( 0.0000,  0.0000,  0.0000)
  20 O      4.213440    1.525298    3.556884    ( 0.0000,  0.0000,  0.0000)
  21 O      1.013334    4.574710    1.186399    ( 0.0000,  0.0000,  0.0000)
  22 O      6.259698    4.574692    1.147182    ( 0.0000,  0.0000,  0.0000)
  23 O      9.434848    1.525307    3.516419    ( 0.0000,  0.0000,  0.0000)
  24 Li     0.000246   -0.020453    0.064761    ( 0.0000,  0.0000,  0.0000)
  25 Li     5.224669    0.019860    2.436706    ( 0.0000,  0.0000,  0.0000)
  26 Li     0.000385    3.070097    0.064401    ( 0.0000,  0.0000,  0.0000)
  27 Li     5.224570    3.030459    2.436383    ( 0.0000,  0.0000,  0.0000)

Unit cell:
           periodic     x           y           z      points  spacing
  1. axis:    yes   10.460000    0.000000    0.000000    60     0.1743
  2. axis:    yes    0.000000    6.100000    0.000000    35     0.1743
  3. axis:    yes    0.000000    0.000000    4.740000    27     0.1756

  Lengths:  10.460000   6.100000   4.740000
  Angles:   90.000000  90.000000  90.000000

Effective grid spacing dv^(1/3) = 0.1747

                     log10-error:    total        iterations:
           time      wfs    density  energy       poisson
iter:   1  02:46:05                -258.503893            -1.0,+0.0,+0.0
iter:   2  02:46:39  -0.42  -0.89  -266.796373            +0.8,-0.0,+0.2
iter:   3  02:47:14  -0.87  -0.94  -254.424015            +0.0,-0.0,+0.0
iter:   4  02:47:48  -0.61  -0.97  -236.181540            -0.0,+0.0,+0.0
iter:   5  02:48:23  -0.42  -1.09  -232.198396            -0.0,+0.0,+0.0
iter:   6  02:48:58  -1.60  -1.25  -222.205351            -0.0,+0.0,+0.0
iter:   7  02:49:32  -2.53  -1.35  -222.140155            -0.1,+0.0,+0.0
iter:   8  02:50:07  -2.37  -1.35  -221.934992            -0.1,-0.0,+0.0
iter:   9  02:50:41  -2.46  -1.38  -225.102605            +0.0,-0.0,-0.0
iter:  10  02:51:16  -1.84  -1.33  -224.445388            -0.1,-0.0,-0.0
iter:  11  02:51:51  -2.63  -1.33  -221.514237            -0.0,-0.0,-0.0
iter:  12  02:52:25  -3.27  -1.49  -221.502441            +0.0,-0.0,-0.1
iter:  13  02:53:00  -2.12  -1.50  -222.800160            +0.7,-0.0,-0.2
iter:  14  02:53:35  -2.46  -1.51  -222.109503            +0.6,-0.1,-0.2
iter:  15  02:54:09  -2.64  -1.59  -222.578752            +0.9,-0.1,-0.4
iter:  16  02:54:44  -3.21  -1.72  -222.571815            +1.6,-0.1,-0.4
iter:  17  02:55:19  -2.57  -1.74  -223.823404            +2.2,-0.2,-0.7
iter:  18  02:55:53  -2.38  -1.88  -225.212368            +2.0,-0.2,-0.8
iter:  19  02:56:28  -3.13  -2.10  -225.612360            +1.6,-0.3,-1.0
iter:  20  02:57:03  -2.66  -2.10  -226.414209            +0.1,-0.4,-1.1
iter:  21  02:57:37  -2.77  -2.06  -226.441279            +0.0,-0.4,-1.2
iter:  22  02:58:12  -2.27  -2.14  -226.730388            +0.0,-0.4,-1.1
iter:  23  02:58:47  -3.33  -2.25  -226.475859            +0.0,-0.4,-1.1
iter:  24  02:59:21  -3.80  -2.33  -226.432085            +0.0,-0.4,-1.1
iter:  25  02:59:56  -3.52  -2.41  -226.349723            +0.0,-0.4,-1.1
iter:  26  03:00:31  -2.50  -2.43  -226.237546            +0.0,-0.4,-1.1
iter:  27  03:01:05  -3.44  -2.63  -226.239269            +0.0,-0.4,-1.1
iter:  28  03:01:40  -2.98  -2.65  -226.262582            +0.0,-0.4,-1.1
iter:  29  03:02:15  -3.74  -2.85  -226.234803            +0.0,-0.4,-1.1
iter:  30  03:02:49  -3.70  -3.04  -226.230653            +0.0,-0.4,-1.1
iter:  31  03:03:24  -4.83  -3.13  -226.229920            +0.0,-0.4,-1.1
iter:  32  03:03:58  -4.96  -3.18  -226.229915            +0.0,-0.4,-1.1
iter:  33  03:04:33  -4.81  -3.24  -226.229281            +0.0,-0.4,-1.1
iter:  34  03:05:08  -4.58  -3.35  -226.229883            +0.0,-0.4,-1.1
iter:  35  03:05:42  -5.83  -3.47  -226.229402            +0.0,-0.4,-1.1
iter:  36  03:06:17  -4.84  -3.52  -226.228412            +0.0,-0.4,-1.0
iter:  37  03:06:51  -5.46  -3.62  -226.228393            +0.0,-0.4,-1.0
iter:  38  03:07:26  -5.85  -3.65  -226.228393            +0.0,-0.4,-1.0
iter:  39  03:08:01  -6.50  -3.76  -226.228406            +0.0,-0.4,-1.0
iter:  40  03:08:35  -5.67  -3.83  -226.228402            +0.0,-0.4,-1.0
iter:  41  03:09:10  -6.11  -4.07  -226.228426            +0.0,-0.4,-1.0
iter:  42  03:09:45  -6.55  -4.17  -226.228389            +0.0,-0.4,-1.0
iter:  43  03:10:19  -6.74  -4.27  -226.228394            +0.0,-0.4,-1.0
iter:  44  03:10:54  -5.96  -4.32  -226.228440            +0.0,-0.4,-0.9
iter:  45  03:11:29  -5.98  -4.66  -226.228379            +0.0,-0.3,-1.0
iter:  46  03:12:03  -5.85  -4.67  -226.228455            +0.0,-0.4,-0.9
iter:  47  03:12:38  -5.01  -4.69  -226.228618            +0.0,-0.4,-0.6
iter:  48  03:13:12  -5.30  -4.68  -226.228669            +0.0,-0.4,-0.5
iter:  49  03:13:47  -6.22  -4.76  -226.228690            +0.0,-0.4,-0.5
iter:  50  03:14:21  -6.60  -4.81  -226.228741            +0.0,-0.4,-0.5
iter:  51  03:14:56  -6.90  -4.91  -226.228746            +0.0,-0.4,-0.5
iter:  52  03:15:30  -5.97  -4.97  -226.228783            +0.0,-0.4,-0.4
iter:  53  03:16:05  -5.73  -5.10  -226.228817            +0.0,-0.4,-0.3
iter:  54  03:16:40  -5.75  -5.24  -226.228836            +0.0,-0.3,-0.2
iter:  55  03:17:14  -5.78  -5.36  -226.228854            +0.0,-0.2,-0.2
iter:  56  03:17:49  -6.16  -5.32  -226.228863            +0.0,-0.2,-0.2
iter:  57  03:18:23  -6.78  -5.26  -226.228896            +0.0,-0.1,-0.2
iter:  58  03:18:58  -7.39  -5.41  -226.228901            +0.0,-0.2,-0.2
iter:  59  03:19:32  -6.80  -5.33  -226.228906            +0.0,-0.1,-0.2
iter:  60  03:20:07  -6.02  -5.37  -226.228915            +0.0,-0.1,-0.1
iter:  61  03:20:42  -6.42  -5.46  -226.228917            +0.0,-0.1,-0.1
iter:  62  03:21:16  -7.48  -5.57  -226.228919            +0.0,-0.1,-0.1
iter:  63  03:21:51  -7.81  -5.75  -226.228921            +0.0,-0.1,-0.1
iter:  64  03:22:26  -8.46  -5.59  -226.228921            +0.0,-0.1,-0.1
iter:  65  03:23:00  -7.14  -5.55  -226.228922            +0.0,-0.1,-0.1
iter:  66  03:23:35  -6.93  -5.56  -226.228923            +0.0,-0.0,-0.0
iter:  67  03:24:09  -7.11  -5.72  -226.228923            +0.0,-0.0,-0.0
iter:  68  03:24:44  -7.11  -5.88  -226.228922            +0.0,-0.0,-0.0
iter:  69  03:25:18  -7.54  -5.95  -226.228923            +0.0,-0.0,-0.0
iter:  70  03:25:53  -8.57  -6.00  -226.228922            +0.0,-0.0,-0.0
iter:  71  03:26:27  -8.56  -6.15  -226.228924            +0.0,-0.0,-0.0
iter:  72  03:27:02  -8.65  -5.89  -226.228924            +0.0,-0.0,-0.0
iter:  73  03:27:37  -7.18  -5.78  -226.228926            +0.0,-0.0,-0.0
iter:  74  03:28:11  -6.43  -5.85  -226.228931            +0.0,-0.0,-0.0
iter:  75  03:28:46  -6.80  -5.93  -226.228933            +0.0,-0.0,+0.0
iter:  76  03:29:20  -7.27  -5.83  -226.228935            +0.0,-0.0,+0.0
iter:  77  03:29:55  -6.76  -5.79  -226.228930            +0.0,-0.0,-0.0
iter:  78  03:30:30  -7.28  -5.70  -226.228934            -0.0,-0.0,+0.0
iter:  79  03:31:04  -7.40  -5.73  -226.228933            -0.0,-0.0,-0.0
iter:  80  03:31:39  -5.96  -5.93  -226.228921            -0.0,-0.0,-0.0
iter:  81  03:32:13  -5.45  -5.69  -226.228939            -0.0,-0.0,+0.0
iter:  82  03:32:48  -6.35  -6.17  -226.228941            -0.0,-0.0,+0.0
iter:  83  03:33:22  -7.66  -5.95  -226.228941            -0.0,-0.0,+0.0
iter:  84  03:33:57  -7.76  -6.16  -226.228943            -0.0,-0.0,+0.0
iter:  85  03:34:32  -7.92  -6.56  -226.228942            -0.0,-0.0,+0.0
iter:  86  03:35:06  -7.53  -6.04  -226.228943            -0.0,-0.0,+0.0
iter:  87  03:35:41  -6.91  -6.30  -226.228945            -0.0,-0.0,+0.0
iter:  88  03:36:15  -7.38  -6.57  -226.228946            -0.0,-0.0,+0.0
iter:  89  03:36:50  -5.86  -6.50  -226.228937            -0.0,-0.0,+0.0
iter:  90  03:37:24  -6.01  -5.80  -226.228945            -0.0,-0.0,+0.0
iter:  91  03:37:59  -7.03  -6.85  -226.228943            -0.0,-0.0,+0.0
iter:  92  03:38:33  -7.37  -6.20  -226.228945            -0.0,-0.0,+0.0
iter:  93  03:39:08  -6.95  -6.45  -226.228947            -0.0,-0.0,+0.0
iter:  94  03:39:43  -6.69  -7.05  -226.228949            -0.0,-0.0,+0.0
iter:  95  03:40:17  -7.51  -6.25  -226.228950            -0.0,-0.0,+0.0
iter:  96  03:40:52  -6.49  -6.17  -226.228946            -0.0,-0.0,+0.0
iter:  97  03:41:26  -6.79  -6.69  -226.228948            -0.0,-0.0,+0.0
iter:  98  03:42:01  -7.81  -6.00  -226.228948            -0.0,-0.0,+0.0
iter:  99  03:42:36  -6.91  -6.63  -226.228951            -0.0,-0.0,+0.0
iter: 100  03:43:10  -6.70  -6.95  -226.228953            -0.0,-0.0,+0.0
iter: 101  03:43:45  -5.43  -5.88  -226.228936            -0.0,-0.0,+0.0
iter: 102  03:44:19  -5.29  -5.58  -226.228954            -0.0,-0.0,+0.0
iter: 103  03:44:54  -7.15  -5.82  -226.228952            -0.0,-0.0,+0.0
iter: 104  03:45:29  -7.50  -5.50  -226.228956            -0.0,-0.0,+0.0
iter: 105  03:46:03  -7.62  -6.08  -226.228956            -0.0,-0.0,+0.0
iter: 106  03:46:38  -7.87  -6.30  -226.228956            -0.0,-0.0,+0.0
iter: 107  03:47:12  -7.57  -6.17  -226.228957            -0.0,-0.0,+0.0
iter: 108  03:47:47  -7.95  -6.34  -226.228956            -0.0,-0.0,+0.0
iter: 109  03:48:21  -6.77  -6.30  -226.228958            -0.0,-0.0,+0.0
iter: 110  03:48:56  -7.83  -6.73  -226.228959            -0.0,-0.0,+0.0
iter: 111  03:49:30  -8.08  -6.80  -226.228958            -0.0,-0.0,+0.0
iter: 112  03:50:05  -7.86  -6.64  -226.228959            -0.0,-0.0,+0.0
iter: 113  03:50:40  -8.28  -6.58  -226.228958            -0.0,-0.0,+0.0
iter: 114  03:51:14  -7.15  -5.89  -226.228960            -0.0,-0.0,+0.0
iter: 115  03:51:49  -6.38  -6.46  -226.228963            -0.0,-0.0,+0.0
iter: 116  03:52:23  -6.85  -6.79  -226.228965            -0.0,-0.0,+0.0
iter: 117  03:52:58  -7.48  -6.18  -226.228965            -0.0,-0.0,+0.0
iter: 118  03:53:32  -7.27  -6.96  -226.228966            -0.0,-0.0,+0.0
iter: 119  03:54:07  -8.25  -6.60  -226.228966            -0.0,-0.0,+0.0
iter: 120  03:54:42  -7.52  -6.02  -226.228966            -0.0,+0.0,+0.0
iter: 121  03:55:16  -7.83  -6.30  -226.228967            -0.0,+0.0,+0.0
iter: 122  03:55:51  -7.70  -6.33  -226.228966            -0.0,+0.0,+0.0
iter: 123  03:56:25  -7.51  -6.43  -226.228967            -0.0,+0.0,+0.0
iter: 124  03:57:00  -7.20  -6.20  -226.228966            -0.0,+0.0,+0.0
iter: 125  03:57:34  -6.25  -6.14  -226.228969            -0.0,+0.0,+0.0
iter: 126  03:58:09  -7.30  -6.54  -226.228969            -0.0,+0.0,+0.0
iter: 127  03:58:43  -8.23  -6.99  -226.228969            -0.0,+0.0,+0.0
iter: 128  03:59:18  -7.59  -6.39  -226.228970            -0.0,+0.0,+0.0
iter: 129  03:59:53  -7.73  -6.40  -226.228970            -0.0,+0.0,+0.0
iter: 130  04:00:27  -7.95  -6.49  -226.228970            -0.0,+0.0,+0.0
iter: 131  04:01:02  -6.79  -6.28  -226.228968            -0.0,+0.0,+0.0
iter: 132  04:01:36  -6.44  -6.05  -226.228971            -0.0,+0.0,+0.0
iter: 133  04:02:11  -6.98  -6.47  -226.228972            -0.0,+0.0,+0.0
iter: 134  04:02:45  -7.65  -6.65  -226.228972            -0.0,+0.0,+0.0
iter: 135  04:03:20  -7.46  -6.68  -226.228973            -0.0,+0.0,+0.0
iter: 136  04:03:54  -6.71  -6.41  -226.228971            -0.0,+0.0,+0.0
iter: 137  04:04:29  -6.31  -6.10  -226.228974            -0.0,+0.0,+0.0
iter: 138  04:05:04  -6.88  -6.69  -226.228975            -0.0,+0.0,+0.0
iter: 139  04:05:38  -8.31  -7.05  -226.228975            -0.0,+0.0,+0.0
iter: 140  04:06:13  -8.41  -7.09  -226.228975            -0.0,+0.0,+0.0
iter: 141  04:06:47  -7.75  -6.10  -226.228974            -0.0,+0.0,+0.0
iter: 142  04:07:22  -7.15  -6.20  -226.228976            -0.0,+0.0,+0.0
iter: 143  04:07:56  -6.80  -6.47  -226.228977            -0.0,+0.0,+0.0
iter: 144  04:08:31  -7.42  -6.74  -226.228978            -0.0,+0.0,+0.0
iter: 145  04:09:06  -6.66  -6.67  -226.228979            -0.0,+0.0,+0.0
iter: 146  04:09:40  -6.68  -6.82  -226.228977            -0.0,+0.0,+0.0
iter: 147  04:10:15  -6.94  -5.77  -226.228980            -0.0,+0.0,+0.0
iter: 148  04:10:49  -6.77  -6.26  -226.228981            -0.0,+0.0,+0.0
iter: 149  04:11:24  -7.00  -6.42  -226.228982            -0.0,+0.0,+0.0
iter: 150  04:11:59  -6.37  -6.72  -226.228984            -0.0,+0.0,+0.0
iter: 151  04:12:33  -7.01  -6.71  -226.228985            -0.0,+0.0,+0.0
iter: 152  04:13:07  -7.74  -6.26  -226.228986            -0.0,+0.0,+0.0
iter: 153  04:13:42  -7.48  -6.46  -226.228985            -0.0,+0.0,+0.0
iter: 154  04:14:17  -7.02  -6.16  -226.228986            -0.0,+0.0,+0.0
iter: 155  04:14:51  -7.76  -6.28  -226.228987            -0.0,+0.0,+0.0
iter: 156  04:15:26  -6.96  -6.23  -226.228988            -0.0,+0.0,+0.0
iter: 157  04:16:01  -6.95  -5.97  -226.228987            -0.0,+0.0,+0.0
iter: 158  04:16:35  -7.98  -6.15  -226.228987            -0.0,+0.0,+0.0
iter: 159  04:17:10  -8.52  -6.23  -226.228987            -0.0,+0.0,+0.0
iter: 160  04:17:44  -6.61  -6.24  -226.228989            -0.0,+0.0,+0.0
iter: 161  04:18:18  -7.38  -6.42  -226.228989            -0.0,+0.0,+0.0
iter: 162  04:18:53  -8.48  -6.51  -226.228989            -0.0,+0.0,+0.0
iter: 163  04:19:27  -8.13  -6.52  -226.228989            -0.0,+0.0,+0.0
iter: 164  04:20:02  -7.07  -6.41  -226.228991            -0.0,+0.0,+0.0
iter: 165  04:20:37  -6.55  -6.40  -226.228993            +0.0,+0.0,+0.0
iter: 166  04:21:11  -6.08  -6.16  -226.228992            -0.0,+0.0,-0.0
iter: 167  04:21:46  -6.78  -6.72  -226.228993            -0.0,+0.0,-0.0
iter: 168  04:22:20  -7.11  -6.46  -226.228992            -0.0,+0.0,-0.0
iter: 169  04:22:54  -7.16  -6.50  -226.228988            -0.0,+0.0,-0.0
iter: 170  04:23:29  -7.65  -6.65  -226.228989            +0.0,+0.0,-0.0
iter: 171  04:24:03  -7.38  -6.58  -226.228986            +0.0,+0.0,-0.0
iter: 172  04:24:38  -8.44  -6.40  -226.228975            +0.0,+0.0,-0.0
iter: 173  04:25:12  -9.12  -6.30  -226.228994            +0.0,+0.0,-0.0
iter: 174  04:25:47  -9.71  -6.44  -226.228997            +0.0,+0.0,-0.0
iter: 175  04:26:21  -9.34  -6.32  -226.228995            +0.0,+0.0,-0.0
iter: 176  04:26:56 -10.03  -6.50  -226.228995            +0.0,+0.0,-0.0
iter: 177  04:27:30  -8.76  -6.53  -226.228993            +0.0,+0.0,-0.0
iter: 178  04:28:05  -7.77  -6.72  -226.228992            +0.0,+0.0,-0.0
iter: 179  04:28:39  -7.56  -6.74  -226.228991            +0.0,+0.0,-0.0
iter: 180  04:29:14  -7.08  -6.69  -226.228991            +0.0,-0.0,-0.0
iter: 181  04:29:48  -7.89  -6.53  -226.228994            +0.0,+0.0,-0.0
iter: 182  04:30:22  -8.64  -6.58  -226.228993            +0.0,+0.0,-0.0
iter: 183  04:30:57  -8.75  -6.70  -226.228985            +0.0,+0.0,-0.0
iter: 184  04:31:31  -7.59  -6.71  -226.228983            +0.0,-0.0,-0.0
iter: 185  04:32:05  -8.41  -6.87  -226.228981            +0.0,-0.0,-0.0
iter: 186  04:32:40  -8.05  -6.91  -226.228976            +0.0,-0.0,-0.0
iter: 187  04:33:14  -7.77  -6.62  -226.228976            +0.0,-0.0,-0.0
iter: 188  04:33:48  -9.30  -7.01  -226.228974            +0.0,-0.0,-0.0
iter: 189  04:34:23  -8.13  -7.10  -226.228976            +0.0,-0.0,-0.0
iter: 190  04:34:57  -9.37  -7.17  -226.228977            +0.0,-0.0,-0.0
iter: 191  04:35:31  -9.48  -7.20  -226.228980            +0.0,-0.0,-0.0
iter: 192  04:36:06  -9.15  -7.34  -226.228980            +0.0,-0.0,-0.0
iter: 193  04:36:40  -8.50  -7.36  -226.228980            +0.0,-0.0,-0.0
iter: 194  04:37:14  -7.94  -7.37  -226.228982            +0.0,-0.0,-0.0
iter: 195  04:37:49  -8.28  -7.41  -226.228985            +0.0,-0.0,-0.0
iter: 196  04:38:23  -8.21  -7.39  -226.228990            +0.0,-0.0,-0.0
iter: 197  04:38:57  -7.16  -7.34  -226.228983            +0.0,-0.0,-0.0
iter: 198  04:39:31  -7.26  -7.50  -226.228985            +0.0,-0.0,-0.0
iter: 199  04:40:06  -8.29  -7.31  -226.228988            +0.0,-0.0,-0.0
iter: 200  04:40:40  -8.70  -7.52  -226.228988            +0.0,-0.0,-0.0
iter: 201  04:41:14  -8.02  -7.38  -226.228988            +0.0,-0.0,-0.0
iter: 202  04:41:48  -8.04  -7.22  -226.228989            +0.0,-0.0,-0.0
iter: 203  04:42:22  -8.26  -7.12  -226.228988            +0.0,-0.0,-0.0
iter: 204  04:42:57  -7.26  -6.95  -226.228988            +0.0,-0.0,-0.0
iter: 205  04:43:31  -7.34  -7.62  -226.228986            +0.0,-0.0,-0.0
iter: 206  04:44:05  -8.36  -7.42  -226.228986            +0.0,-0.0,-0.0
iter: 207  04:44:39  -8.81  -7.67  -226.228987            +0.0,-0.0,-0.0
iter: 208  04:45:14  -8.91  -7.55  -226.228989            +0.0,-0.0,-0.0
iter: 209  04:45:48  -7.48  -7.56  -226.228985            +0.0,-0.0,-0.0
iter: 210  04:46:22  -8.03  -7.35  -226.228994            +0.0,-0.0,-0.0
iter: 211  04:46:56  -8.85  -7.01  -226.228993            +0.0,-0.0,-0.0
iter: 212  04:47:30  -8.88  -7.36  -226.228992            +0.0,-0.0,-0.0
iter: 213  04:48:05  -7.60  -7.56  -226.228993            +0.0,-0.0,-0.0
iter: 214  04:48:39  -9.22  -7.66  -226.228992            +0.0,-0.0,-0.0
iter: 215  04:49:13  -9.38  -7.82  -226.228992            +0.0,-0.0,-0.0
iter: 216  04:49:47  -9.52  -7.83  -226.228992            +0.0,-0.0,-0.0
iter: 217  04:50:21  -9.80  -7.59  -226.228992            +0.0,-0.0,-0.0
iter: 218  04:50:55  -8.20  -7.67  -226.228995            +0.0,-0.0,-0.0
iter: 219  04:51:29  -9.12  -7.94  -226.228994            +0.0,-0.0,-0.0
iter: 220  04:52:04  -9.43  -7.95  -226.228993            +0.0,-0.0,-0.0
iter: 221  04:52:38  -8.94  -7.85  -226.228993            +0.0,-0.0,-0.0
iter: 222  04:53:12  -9.30  -7.86  -226.228994            +0.0,-0.0,-0.0
iter: 223  04:53:46  -8.16  -7.60  -226.228993            +0.0,-0.0,-0.0
iter: 224  04:54:21  -9.29  -7.95  -226.228993            +0.0,-0.0,-0.0
iter: 225  04:54:55 -10.08  -7.94  -226.228992            +0.0,-0.0,-0.0
iter: 226  04:55:29  -8.99  -7.49  -226.228993            +0.0,-0.0,-0.0
iter: 227  04:56:03  -9.28  -7.74  -226.228993            +0.0,-0.0,-0.0
iter: 228  04:56:37  -9.31  -7.69  -226.228993            +0.0,-0.0,-0.0
iter: 229  04:57:12  -9.37  -7.69  -226.228992            +0.0,-0.0,-0.0
iter: 230  04:57:46  -9.24  -7.72  -226.228993            +0.0,-0.0,-0.0
iter: 231  04:58:20  -7.41  -7.68  -226.228992            +0.0,-0.0,-0.0
iter: 232  04:58:55  -9.18  -7.88  -226.228992            +0.0,-0.0,-0.0
iter: 233  04:59:29  -8.97  -7.87  -226.228992            +0.0,-0.0,-0.0
iter: 234  05:00:03  -8.52  -7.40  -226.228992            +0.0,-0.0,-0.0
iter: 235  05:00:37  -8.94  -7.68  -226.228992            +0.0,-0.0,-0.0
iter: 236  05:01:11  -8.24  -8.10  -226.228992            +0.0,-0.0,-0.0
iter: 237  05:01:46  -9.47  -8.24  -226.228992            +0.0,-0.0,-0.0
iter: 238  05:02:20 -10.53  -7.83  -226.228993            +0.0,-0.0,-0.0
iter: 239  05:02:54  -9.86  -7.87  -226.228993            +0.0,-0.0,-0.0
iter: 240  05:03:28 -10.31  -7.87  -226.228992            +0.0,-0.0,-0.0
iter: 241  05:04:02 -10.50  -7.92  -226.228993            +0.0,-0.0,-0.0
iter: 242  05:04:36  -8.59  -7.89  -226.228991            +0.0,-0.0,-0.0
iter: 243  05:05:11  -7.87  -8.14  -226.228990            +0.0,-0.0,-0.0
iter: 244  05:05:45  -8.66  -7.76  -226.228994            +0.0,-0.0,-0.0
iter: 245  05:06:19  -8.77  -7.67  -226.228996            +0.0,-0.0,-0.0
iter: 246  05:06:53  -8.16  -7.63  -226.228985            +0.0,-0.0,-0.0
iter: 247  05:07:28  -7.92  -7.09  -226.228996            +0.0,-0.0,-0.0
iter: 248  05:08:02  -9.18  -7.82  -226.228994            +0.0,-0.0,-0.0
iter: 249  05:08:36  -9.22  -7.80  -226.229004            +0.0,-0.0,-0.0
iter: 250  05:09:10  -8.52  -7.83  -226.229002            +0.0,-0.0,-0.0
iter: 251  05:09:44  -8.86  -8.01  -226.229004            +0.0,-0.0,-0.0
iter: 252  05:10:19  -9.46  -8.05  -226.229007            +0.0,-0.0,-0.0
iter: 253  05:10:53  -9.62  -7.97  -226.229004            +0.0,-0.0,-0.0
iter: 254  05:11:27  -9.40  -7.92  -226.229007            +0.0,-0.0,-0.0
iter: 255  05:12:01 -10.93  -7.85  -226.229009            +0.0,-0.0,-0.0
iter: 256  05:12:35  -9.30  -7.65  -226.229008            +0.0,-0.0,-0.0
iter: 257  05:13:09 -10.22  -7.80  -226.229008            +0.0,-0.0,-0.0
iter: 258  05:13:44 -10.76  -7.68  -226.229004            +0.0,-0.0,-0.0
iter: 259  05:14:18 -10.55  -7.69  -226.228996            +0.0,-0.0,-0.0
iter: 260  05:14:52  -9.79  -7.74  -226.228991            +0.0,-0.0,-0.0
iter: 261  05:15:26  -9.72  -7.67  -226.228985            +0.0,-0.0,-0.0
iter: 262  05:16:00 -10.24  -7.76  -226.228990            +0.0,-0.0,-0.0
iter: 263  05:16:35  -8.74  -7.80  -226.228994            +0.0,-0.0,-0.0
iter: 264  05:17:09  -9.59  -8.10  -226.228990            +0.0,-0.0,-0.0
iter: 265  05:17:43  -9.77  -8.15  -226.228990            +0.0,-0.0,-0.0
iter: 266  05:18:17  -8.89  -7.93  -226.228992            +0.0,-0.0,-0.0
iter: 267  05:18:51  -8.79  -7.89  -226.228988            +0.0,-0.0,-0.0
iter: 268  05:19:26  -9.13  -7.91  -226.229000            +0.0,-0.0,-0.0
iter: 269  05:20:00  -9.68  -8.21  -226.228994            +0.0,-0.0,-0.0
iter: 270  05:20:34 -10.04  -8.08  -226.229000            +0.0,-0.0,-0.0
iter: 271  05:21:08  -9.75  -8.12  -226.228998            +0.0,-0.0,-0.0
iter: 272  05:21:42 -10.61  -8.01  -226.229000            +0.0,-0.0,-0.0
iter: 273  05:22:16 -10.36  -7.95  -226.229002            +0.0,-0.0,-0.0
iter: 274  05:22:51 -10.70  -7.89  -226.229003            +0.0,-0.0,-0.0
iter: 275  05:23:25 -10.83  -7.94  -226.229005            +0.0,-0.0,-0.0
iter: 276  05:23:59  -8.83  -7.94  -226.229005            +0.0,+0.0,-0.0
iter: 277  05:24:33 -10.08  -8.18  -226.229001            +0.0,+0.0,-0.0
iter: 278  05:25:07 -10.94  -8.23  -226.229001            +0.0,+0.0,-0.0
iter: 279  05:25:41 -11.30  -8.14  -226.229004            +0.0,+0.0,-0.0
iter: 280  05:26:15 -11.98  -8.10  -226.229006            +0.0,+0.0,-0.0
iter: 281  05:26:50 -10.75  -8.09  -226.228999            +0.0,+0.0,-0.0
iter: 282  05:27:24 -10.50  -8.06  -226.228999            +0.0,+0.0,-0.0
iter: 283  05:27:58 -11.02  -8.13  -226.229000            +0.0,+0.0,-0.0
iter: 284  05:28:32 -11.33  -8.18  -226.229001            +0.0,+0.0,-0.0
iter: 285  05:29:07 -11.77  -8.09  -226.228999            +0.0,+0.0,-0.0
iter: 286  05:29:41 -11.14  -8.40  -226.228998            +0.0,+0.0,-0.0
iter: 287  05:30:15 -10.09  -8.45  -226.228996            +0.0,+0.0,-0.0
iter: 288  05:30:49  -9.46  -8.58  -226.228996            +0.0,+0.0,-0.0
iter: 289  05:31:23  -9.49  -8.33  -226.228996            +0.0,+0.0,-0.0
iter: 290  05:31:57 -10.36  -8.14  -226.228997            +0.0,+0.0,-0.0
iter: 291  05:32:31 -10.41  -8.11  -226.228998            +0.0,+0.0,-0.0
iter: 292  05:33:06 -10.35  -8.34  -226.228995            +0.0,+0.0,-0.0
iter: 293  05:33:40 -11.19  -8.25  -226.228992            +0.0,+0.0,-0.0
iter: 294  05:34:14  -9.67  -8.09  -226.229001            +0.0,+0.0,-0.0
iter: 295  05:34:48 -10.85  -8.38  -226.228998            +0.0,+0.0,-0.0
iter: 296  05:35:23 -11.15  -8.60  -226.228997            +0.0,+0.0,-0.0
iter: 297  05:35:57 -11.41  -8.79  -226.228997            +0.0,+0.0,-0.0
iter: 298  05:36:31 -11.02  -8.84  -226.228998            +0.0,+0.0,-0.0
iter: 299  05:37:05 -10.98  -8.77  -226.228997            +0.0,+0.0,-0.0
iter: 300  05:37:39 -10.76  -9.17  -226.228998            +0.0,+0.0,-0.0

Converged after 300 iterations.

Dipole moment: (0.201477, 0.008820, -2.038688) |e|*Ang

Total magnetic moment: (0.000531, 0.000693, -0.003488)
Local magnetic moments:
   0 O  ( 0.003005, -0.000072,  0.000223)
   1 O  (-0.003064,  0.000073,  0.000131)
   2 O  ( 0.002095, -0.000040, -0.000204)
   3 O  (-0.002046,  0.000062, -0.000262)
   4 O  ( 0.002107,  0.000074, -0.000201)
   5 O  (-0.002058, -0.000085, -0.000260)
   6 O  ( 0.003031,  0.000124,  0.000226)
   7 O  (-0.003090, -0.000118,  0.000133)
   8 O  (-0.028721, -0.000197, -0.000301)
   9 O  ( 0.028606,  0.000198,  0.000499)
  10 O  ( 0.028818,  0.000159,  0.000248)
  11 O  (-0.028820, -0.000156, -0.000507)
  12 Mn (-4.445048, -0.030803, -0.048304)
  13 Mn ( 4.445271,  0.031067,  0.077037)
  14 Mn ( 4.445165,  0.024419,  0.041968)
  15 Mn (-4.444756, -0.024057, -0.073760)
  16 P  (-0.000651,  0.000005,  0.000147)
  17 P  ( 0.000619, -0.000004,  0.000150)
  18 P  ( 0.002357,  0.000021, -0.000102)
  19 P  (-0.002362, -0.000020, -0.000175)
  20 O  (-0.026043, -0.000179, -0.000425)
  21 O  ( 0.026069,  0.000181,  0.000315)
  22 O  ( 0.024623,  0.000136,  0.000406)
  23 O  (-0.024499, -0.000134, -0.000225)
  24 Li (-0.000067,  0.000002, -0.000001)
  25 Li ( 0.000071, -0.000001,  0.000001)
  26 Li (-0.000067, -0.000003, -0.000001)
  27 Li ( 0.000071,  0.000003,  0.000001)

Energy contributions relative to reference atoms: (reference = -196157.275402)

Kinetic:       +217.895625
Potential:     -195.676283
External:        +0.000000
XC:            -250.487613
Entropy (-ST):   -0.000000
Local:           +2.039274
--------------------------
Free energy:   -226.228998
Extrapolated:  -226.228998

Showing only first 2 kpts
 Kpt  Band  Eigenvalues  Occupancy
  0    88     -2.04510    1.00000
  0    89     -2.03005    1.00000
  0    90     -1.95155    1.00000
  0    91     -1.93910    1.00000

  1    88     -2.17244    1.00000
  1    89     -2.16062    1.00000
  1    90     -2.11656    1.00000
  1    91     -2.08990    1.00000


Fermi level: 6.16653

Gap: 1.957 eV
Transition (v -> c):
  (s=0, k=45, n=179, [-0.12, 0.38, 0.08]) -> (s=0, k=33, n=180, [-0.12, -0.12, 0.08])

Forces in eV/Ang:
  0 O    -0.02867   -0.00278    0.14010
  1 O     0.03427    0.00345    0.14261
  2 O    -0.03063    0.00671    0.15920
  3 O     0.03428   -0.00695    0.15978
  4 O    -0.03065   -0.00681    0.15926
  5 O     0.03430    0.00706    0.15989
  6 O    -0.02859    0.00276    0.14011
  7 O     0.03418   -0.00345    0.14263
  8 O    -0.00325    0.00001    0.15013
  9 O     0.00931   -0.00000    0.14829
 10 O    -0.00021    0.00001    0.13367
 11 O     0.00641   -0.00001    0.13003
 12 Mn   -0.00523   -0.00005   -0.21390
 13 Mn    0.00772    0.00005   -0.21257
 14 Mn    0.00435    0.00003   -0.22389
 15 Mn   -0.00145   -0.00004   -0.22463
 16 P     0.02723    0.00004   -0.31296
 17 P    -0.02240   -0.00004   -0.31475
 18 P    -0.04655    0.00003   -0.35514
 19 P    -0.01975   -0.00003   -0.35386
 20 O     0.01653    0.00006    0.24462
 21 O    -0.01132   -0.00007    0.24551
 22 O     0.02980   -0.00003    0.24587
 23 O    -0.02217    0.00003    0.24680
 24 Li    0.00401   -0.00570   -0.13493
 25 Li    0.00222    0.00536   -0.13340
 26 Li    0.00400    0.00570   -0.13490
 27 Li    0.00221   -0.00534   -0.13341

Timing:                              incl.     excl.
-----------------------------------------------------------
Forces:                              4.425     4.425   0.0% |
Hamiltonian:                         0.778     0.003   0.0% |
 Atomic:                             0.290     0.290   0.0% |
  XC Correction:                     0.000     0.000   0.0% |
 Calculate atomic Hamiltonians:      0.226     0.226   0.0% |
 Communicate:                        0.000     0.000   0.0% |
 Initialize Hamiltonian:             0.001     0.001   0.0% |
 Poisson:                            0.003     0.003   0.0% |
 XC 3D grid:                         0.255     0.255   0.0% |
LCAO initialization:                57.910     0.366   0.0% |
 LCAO eigensolver:                  10.350     0.002   0.0% |
  DenseAtomicCorrection:             0.017     0.017   0.0% |
  Distribute overlap matrix:         0.001     0.001   0.0% |
  Orbital Layouts:                   0.065     0.065   0.0% |
  Potential matrix:                 10.226    10.226   0.1% |
  Sum over cells:                    0.039     0.039   0.0% |
 LCAO to grid:                      46.221    46.221   0.4% |
 Set positions (LCAO WFS):           0.974     0.205   0.0% |
  Basic WFS set positions:           0.001     0.001   0.0% |
  Basis functions set positions:     0.000     0.000   0.0% |
  P tci:                             0.378     0.378   0.0% |
  ST tci:                            0.299     0.299   0.0% |
  mktci:                             0.091     0.091   0.0% |
PWDescriptor:                        0.010     0.010   0.0% |
SCF-cycle:                       10346.798  2961.072  28.4% |----------|
 Davidson:                        6033.381   691.545   6.6% |--|
  Apply H:                         955.709   955.709   9.2% |---|
  Subspace diag:                  1261.003     0.132   0.0% |
   calc_h_matrix:                 1077.346   116.358   1.1% |
    Apply H:                       960.988   960.988   9.2% |---|
   diagonalize:                      9.953     9.953   0.1% |
   rotate_psi:                     173.573   173.573   1.7% ||
  calc. matrices:                 2565.827   670.214   6.4% |--|
   Apply H:                       1895.613  1895.613  18.2% |------|
  diagonalize:                     214.536   214.536   2.1% ||
  rotate_psi:                      344.761   344.761   3.3% ||
 Density:                         1156.108     0.009   0.0% |
  Atomic density matrices:          33.129    33.129   0.3% |
  Mix:                             107.238   107.238   1.0% |
  Multipole moments:                 0.165     0.165   0.0% |
  Pseudo density:                 1015.567  1015.545   9.8% |---|
   Symmetrize density:               0.021     0.021   0.0% |
 Hamiltonian:                      195.293     1.203   0.0% |
  Atomic:                           18.748    18.747   0.2% |
   XC Correction:                    0.001     0.001   0.0% |
  Calculate atomic Hamiltonians:    83.143    83.143   0.8% |
  Communicate:                       0.072     0.072   0.0% |
  Poisson:                           1.119     1.119   0.0% |
  XC 3D grid:                       91.009    91.009   0.9% |
 Orthonormalize:                     0.944     0.001   0.0% |
  calc_s_matrix:                     0.195     0.195   0.0% |
  inverse-cholesky:                  0.009     0.009   0.0% |
  projections:                       0.438     0.438   0.0% |
  rotate_psi_s:                      0.302     0.302   0.0% |
Set symmetry:                        0.000     0.000   0.0% |
Other:                               2.498     2.498   0.0% |
-----------------------------------------------------------
Total:                                     10412.420 100.0%

Memory usage: 1.28 GiB
Date: Sun Jun 26 05:37:44 2022
