
  ___ ___ ___ _ _ _  
 |   |   |_  | | | | 
 | | | | | . | | | | 
 |__ |  _|___|_____|  21.6.1b1
 |___|_|             

User:   madkru@a104.nifl.fysik.dtu.dk
Date:   Sat Jun 25 02:22:01 2022
Arch:   x86_64
Pid:    4971
Python: 3.8.6
gpaw:   /home/niflheim/madkru/new_venv/gpaw/gpaw (1f0dfc9eae)
_gpaw:  /home/niflheim/madkru/new_venv/gpaw/build/lib.linux-x86_64-skylake-3.8/
        _gpaw.cpython-38-x86_64-linux-gnu.so (c1e45bfab3)
ase:    /home/niflheim/madkru/new_venv/ase/ase (version 3.23.0b1-ca38c75a67)
numpy:  /home/modules/software/SciPy-bundle/2020.11-foss-2020b/lib/python3.8/site-packages/numpy (version 1.19.4)
scipy:  /home/modules/software/SciPy-bundle/2020.11-foss-2020b/lib/python3.8/site-packages/scipy (version 1.5.4)
libxc:  4.3.4
units:  Angstrom and eV
cores: 40
OpenMP: False
OMP_NUM_THREADS: 1

Input parameters:
  convergence: {density: 1e-09}
  experimental: {magmoms: [[0. 0. 0.]
 [0. 0. 0.]
 [0. 0. 0.]
 ...
 [0. 0. 0.]
 [0. 0. 0.]
 [0. 0. 0.]],
                 soc: True}
  kpts: [4 4 6]
  maxiter: 5000
  mixer: {backend: pulay,
          beta: 0.05,
          method: difference,
          nmaxold: 3,
          weight: 100}
  mode: {ecut: 600.0,
         gammacentered: False,
         name: pw}
  occupations: {fixmagmom: False,
                name: fermi-dirac,
                width: 0.001}
  symmetry: off

System changes: positions, numbers, cell, pbc, initial_charges, initial_magmoms 

Initialize ...

O-setup:
  name: Oxygen
  id: 9b9d51c344dea68c822856295a461509
  Z: 8.0
  valence: 6
  core: 2
  charge: 0.0
  file: /home/modules/software/GPAW-setups/0.9.20000/O.LDA.gz
  compensation charges: gauss, rc=0.21, lmax=2
  cutoffs: 1.17(filt), 0.83(core),
  valence states:
                energy  radius
    2s(2.00)   -23.752   0.688
    2p(4.00)    -9.195   0.598
    *s           3.459   0.688
    *p          18.016   0.598
    *d           0.000   0.619

  Using partial waves for O as LCAO basis

Mn-setup:
  name: Manganese
  id: 0d715a8018be061a6e9ea6f2d364ac92
  Z: 25.0
  valence: 15
  core: 10
  charge: 0.0
  file: /home/modules/software/GPAW-setups/0.9.20000/Mn.LDA.gz
  compensation charges: gauss, rc=0.38, lmax=2
  cutoffs: 2.14(filt), 0.86(core),
  valence states:
                energy  radius
    3s(2.00)   -85.387   1.275
    4s(2.00)    -5.282   1.275
    3p(6.00)   -54.493   1.281
    4p(0.00)    -1.471   1.281
    3d(5.00)    -7.009   1.138
    *d          20.203   1.138

  Using partial waves for Mn as LCAO basis

P-setup:
  name: Phosphorus
  id: a5561c299094968922a179ab894d2e2d
  Z: 15.0
  valence: 5
  core: 10
  charge: 0.0
  file: /home/modules/software/GPAW-setups/0.9.20000/P.LDA.gz
  compensation charges: gauss, rc=0.30, lmax=2
  cutoffs: 1.69(filt), 1.81(core),
  valence states:
                energy  radius
    3s(2.00)   -14.015   0.953
    3p(3.00)    -5.596   0.953
    *s          13.197   0.953
    *p          21.615   0.953
    *d           0.000   0.953

  Using partial waves for P as LCAO basis

Li-setup:
  name: Lithium
  id: b73562207f97a71b6967473b66fe8b65
  Z: 3.0
  valence: 1
  core: 2
  charge: 0.0
  file: /home/modules/software/GPAW-setups/0.9.20000/Li.LDA.gz
  compensation charges: gauss, rc=0.33, lmax=2
  cutoffs: 1.91(filt), 2.55(core),
  valence states:
                energy  radius
    2s(1.00)    -2.874   1.058
    2p(0.00)    -1.126   1.058
    *s          24.338   1.058

  Using partial waves for Li as LCAO basis

Reference energy: -196157.275402

Non-collinear calculation.
Magnetic moment: (0.000000, 0.000000, 0.000000)

Convergence criteria:
  Maximum total energy change: 0.0005 eV / electron
  Maximum integral of absolute density change: 1e-09 electrons
  Maximum integral of absolute eigenstate change: 4e-08 eV^2
  Maximum number of iterations: 5000

Symmetries present (total): 1

  ( 1  0  0)
  ( 0  1  0)
  ( 0  0  1)

96 k-points: 4 x 4 x 6 Monkhorst-Pack grid
96 k-points in the irreducible part of the Brillouin zone
       k-points in crystal coordinates                weights
   0:    -0.37500000   -0.37500000   -0.41666667          1/96
   1:    -0.37500000   -0.37500000   -0.25000000          1/96
   2:    -0.37500000   -0.37500000   -0.08333333          1/96
   3:    -0.37500000   -0.37500000    0.08333333          1/96
   4:    -0.37500000   -0.37500000    0.25000000          1/96
   5:    -0.37500000   -0.37500000    0.41666667          1/96
   6:    -0.37500000   -0.12500000   -0.41666667          1/96
   7:    -0.37500000   -0.12500000   -0.25000000          1/96
   8:    -0.37500000   -0.12500000   -0.08333333          1/96
   9:    -0.37500000   -0.12500000    0.08333333          1/96
          ...
  95:     0.37500000    0.37500000    0.41666667          1/96

Wave functions: Plane wave expansion
  Cutoff energy: 600.000 eV
  Number of coefficients (min, max): 10065, 10119
  Pulay-stress correction: 0.000000 eV/Ang^3 (de/decut=0.000000)
  Using FFTW library
  ScaLapack parameters: grid=1x1, blocksize=None
  Wavefunction extrapolation:
    Improved wavefunction reuse through dual PAW basis 

Occupation numbers: Fermi-Dirac: width=0.0010 eV
 

Eigensolver
   Davidson(niter=2) 

Densities:
  Coarse grid: 60*35*27 grid
  Fine grid: 120*70*54 grid
  Total Charge: 0.000000 

Density mixing:
  Method: difference
  Backend: pulay
  Linear mixing parameter: 0.05
  Mixing with 3 old densities
  Damping of long wave oscillations: 100 

Hamiltonian:
  XC and Coulomb potentials evaluated on a 120*70*54 grid
  Using the LDA Exchange-Correlation functional
  External potential:
    <gpaw.external.NoExternalPotential object at 0x2ad07222c760>
 

Memory estimate:
  Process memory now: 1023.29 MiB
  Calculator: 167.16 MiB
    Density: 37.88 MiB
      Arrays: 11.25 MiB
      Localized functions: 18.84 MiB
      Mixer: 7.79 MiB
    Hamiltonian: 7.90 MiB
      Arrays: 7.35 MiB
      XC: 0.00 MiB
      Poisson: 0.00 MiB
      vbar: 0.54 MiB
    Wavefunctions: 121.39 MiB
      Arrays psit_nG: 69.17 MiB
      Eigensolver: 43.02 MiB
      Projections: 2.41 MiB
      Projectors: 4.31 MiB
      PW-descriptor: 2.47 MiB

Total number of cores used: 40
Parallelization over k-points: 40

Number of atoms: 28
Number of atomic orbitals: 148
Number of bands in calculation: 224
Number of valence electrons: 180
Bands to converge: occupied

... initialized

Initializing position-dependent things.

Density initialized from atomic densities
Creating initial wave functions:
  148 bands from LCAO basis set
  76 bands from random numbers

     .-------------------------.  
    /|             P  O        |  
   / |   O      O              |  
  /  |              OMn      O |  
 *   |P O   O           Mn     |  
 |   | O        Li       O     |  
 |   Li-Mn----------O----OP----.  
 | O/      On Li              /   
 | /i           O      O     /    
 |/       O  P              /     
 *-------------------------*      

Positions:
   0 O      3.493692    0.291144    0.993233    ( 0.0000,  0.0000,  0.0000)
   1 O      1.736050    5.808776    3.362701    ( 0.0000,  0.0000,  0.0000)
   2 O      6.963364    3.340018    3.736447    ( 0.0000,  0.0000,  0.0000)
   3 O      8.727295    2.759848    1.366758    ( 0.0000,  0.0000,  0.0000)
   4 O      6.963636    5.809267    3.736534    ( 0.0000,  0.0000, -3.0000)
   5 O      8.727023    0.290869    1.366843    ( 0.0000,  0.0000,  3.0000)
   6 O      3.493999    2.759642    0.993308    ( 0.0000,  0.0000,  3.0000)
   7 O      1.735740    3.340439    3.362775    ( 0.0000,  0.0000, -3.0000)
   8 O      0.443511    1.525141    1.402741    ( 0.0000,  0.0000,  0.0000)
   9 O      4.787226    4.574859    3.773169    ( 0.0000,  0.0000,  0.0000)
  10 O     10.017672    4.574842    3.329964    ( 0.0000,  0.0000,  0.0000)
  11 O      5.672009    1.525159    0.960019    ( 0.0000,  0.0000,  0.0000)
  12 Mn     2.285079    1.524822    2.453804    ( 0.0000,  0.0000,  0.0000)
  13 Mn     2.944631    4.575178    0.083444    ( 5.0000,  0.0000,  0.0000)
  14 Mn     8.174588    4.575142    2.297884    (-5.0000,  0.0000,  0.0000)
  15 Mn     7.515516    1.524859    4.668500    (-5.0000,  0.0000,  0.0000)
  16 P      4.234609    1.525339    0.370710    ( 5.0000,  0.0000,  0.0000)
  17 P      0.994957    4.574662    2.740341    ( 0.0000,  0.0000,  0.0000)
  18 P      6.224849    4.574685    4.366429    ( 0.0000,  0.0000,  0.0000)
  19 P      9.466316    1.525316    1.996547    ( 0.0000,  0.0000,  0.0000)
  20 O      4.210681    1.525298    3.571749    ( 0.0000,  0.0000,  0.0000)
  21 O      1.018606    4.574704    1.201399    ( 0.0000,  0.0000,  0.0000)
  22 O      6.251946    4.574700    1.161064    ( 0.0000,  0.0000,  0.0000)
  23 O      9.439030    1.525300    3.531164    ( 0.0000,  0.0000,  0.0000)
  24 Li     0.000049   -0.004091    0.012952    ( 0.0000,  0.0000,  0.0000)
  25 Li     5.228934    0.003972    2.383341    ( 0.0000,  0.0000,  0.0000)
  26 Li     0.000077    3.054019    0.012880    ( 0.0000,  0.0000,  0.0000)
  27 Li     5.228914    3.046092    2.383277    ( 0.0000,  0.0000,  0.0000)

Unit cell:
           periodic     x           y           z      points  spacing
  1. axis:    yes   10.460000    0.000000    0.000000    60     0.1743
  2. axis:    yes    0.000000    6.100000    0.000000    35     0.1743
  3. axis:    yes    0.000000    0.000000    4.740000    27     0.1756

  Lengths:  10.460000   6.100000   4.740000
  Angles:   90.000000  90.000000  90.000000

Effective grid spacing dv^(1/3) = 0.1747

                     log10-error:    total        iterations:
           time      wfs    density  energy       poisson
iter:   1  02:24:00                -258.488234            -1.0,+0.0,+0.0
iter:   2  02:24:34  -0.42  -0.89  -266.749701            +0.8,-0.0,+0.2
iter:   3  02:25:09  -0.87  -0.94  -254.579273            +0.0,-0.0,+0.0
iter:   4  02:25:44  -0.61  -0.97  -236.141307            -0.0,+0.0,+0.0
iter:   5  02:26:18  -0.42  -1.09  -232.556411            -0.0,+0.0,+0.0
iter:   6  02:26:53  -1.60  -1.25  -222.191024            -0.0,+0.0,+0.0
iter:   7  02:27:27  -2.50  -1.35  -222.162606            -0.1,+0.0,+0.0
iter:   8  02:28:02  -2.46  -1.35  -221.966140            -0.0,-0.0,+0.0
iter:   9  02:28:37  -2.53  -1.38  -224.041599            -0.1,-0.0,-0.0
iter:  10  02:29:11  -2.30  -1.35  -222.356907            -0.2,-0.0,-0.1
iter:  11  02:29:46  -2.97  -1.42  -222.072170            -0.2,-0.0,-0.1
iter:  12  02:30:20  -2.61  -1.50  -222.988574            -0.3,-0.0,-0.1
iter:  13  02:30:55  -2.69  -1.57  -223.076614            -1.0,-0.1,-0.2
iter:  14  02:31:30  -2.58  -1.73  -224.765764            -0.6,-0.1,-0.3
iter:  15  02:32:04  -2.93  -1.75  -225.492953            -1.2,-0.1,-0.5
iter:  16  02:32:39  -2.56  -1.75  -226.634991            -0.5,-0.2,-0.3
iter:  17  02:33:13  -2.26  -1.74  -226.478053            -0.1,-0.2,-0.3
iter:  18  02:33:48  -2.71  -1.93  -226.422460            -0.0,-0.2,-0.3
iter:  19  02:34:22  -3.42  -2.19  -226.405793            -0.0,-0.2,-0.3
iter:  20  02:34:57  -2.87  -2.22  -226.380581            -0.0,-0.2,-0.3
iter:  21  02:35:31  -4.10  -2.33  -226.368627            -0.0,-0.2,-0.3
iter:  22  02:36:06  -2.80  -2.37  -226.308583            -0.0,-0.2,-0.3
iter:  23  02:36:41  -4.08  -2.64  -226.298910            -0.0,-0.2,-0.3
iter:  24  02:37:15  -3.88  -2.69  -226.288928            +0.0,-0.2,-0.3
iter:  25  02:37:50  -4.43  -2.79  -226.286621            +0.0,-0.2,-0.3
iter:  26  02:38:24  -4.39  -2.92  -226.285481            +0.0,-0.2,-0.3
iter:  27  02:38:59  -4.46  -3.05  -226.284588            +0.0,-0.2,-0.3
iter:  28  02:39:33  -5.66  -3.09  -226.283760            +0.0,-0.2,-0.3
iter:  29  02:40:08  -3.88  -3.12  -226.281476            +0.0,-0.2,-0.3
iter:  30  02:40:43  -5.38  -3.39  -226.280895            +0.0,-0.2,-0.3
iter:  31  02:41:17  -5.46  -3.43  -226.280643            +0.0,-0.2,-0.3
iter:  32  02:41:52  -4.98  -3.49  -226.281147            +0.0,-0.2,-0.3
iter:  33  02:42:26  -5.12  -3.48  -226.280629            +0.0,-0.2,-0.3
iter:  34  02:43:01  -6.00  -3.61  -226.280600            +0.0,-0.2,-0.3
iter:  35  02:43:35  -6.21  -3.64  -226.280659            +0.0,-0.2,-0.3
iter:  36  02:44:10  -6.51  -3.84  -226.280628            +0.0,-0.2,-0.3
iter:  37  02:44:44  -6.41  -3.99  -226.280621            +0.0,-0.2,-0.3
iter:  38  02:45:19  -7.28  -4.07  -226.280611            +0.0,-0.2,-0.3
iter:  39  02:45:53  -7.44  -4.07  -226.280601            +0.0,-0.2,-0.3
iter:  40  02:46:28  -6.95  -4.05  -226.280595            +0.0,-0.2,-0.3
iter:  41  02:47:02  -6.51  -4.09  -226.280598            +0.0,-0.1,-0.3
iter:  42  02:47:36  -6.59  -4.14  -226.280598            +0.0,-0.1,-0.3
iter:  43  02:48:11  -6.63  -4.28  -226.280597            +0.0,-0.1,-0.3
iter:  44  02:48:45  -6.38  -4.40  -226.280599            +0.0,-0.0,-0.2
iter:  45  02:49:19  -6.89  -4.51  -226.280601            +0.0,-0.0,-0.2
iter:  46  02:49:54  -6.15  -4.53  -226.280605            +0.0,-0.0,-0.2
iter:  47  02:50:28  -6.12  -4.58  -226.280609            +0.0,-0.0,-0.1
iter:  48  02:51:03  -6.56  -4.61  -226.280610            +0.0,-0.0,-0.1
iter:  49  02:51:37  -7.05  -4.68  -226.280610            +0.0,-0.0,-0.1
iter:  50  02:52:12  -6.80  -4.74  -226.280610            +0.0,-0.0,-0.1
iter:  51  02:52:46  -7.90  -4.88  -226.280610            +0.0,-0.0,-0.1
iter:  52  02:53:20  -8.20  -4.96  -226.280610            +0.0,-0.0,-0.1
iter:  53  02:53:55  -8.73  -4.99  -226.280610            +0.0,-0.0,-0.1
iter:  54  02:54:29  -8.04  -5.00  -226.280610            +0.0,-0.0,-0.1
iter:  55  02:55:04  -7.18  -5.03  -226.280612            +0.0,-0.0,-0.0
iter:  56  02:55:38  -6.59  -5.08  -226.280615            +0.0,-0.0,-0.0
iter:  57  02:56:12  -6.86  -5.14  -226.280616            +0.0,-0.0,-0.0
iter:  58  02:56:46  -7.66  -5.29  -226.280616            +0.0,-0.0,-0.0
iter:  59  02:57:21  -7.51  -5.35  -226.280615            +0.0,-0.0,-0.0
iter:  60  02:57:55  -7.47  -5.68  -226.280616            +0.0,-0.0,+0.0
iter:  61  02:58:29  -7.72  -5.77  -226.280616            +0.0,-0.0,+0.0
iter:  62  02:59:04  -8.02  -5.80  -226.280616            +0.0,-0.0,+0.0
iter:  63  02:59:38  -9.18  -5.92  -226.280616            +0.0,-0.0,+0.0
iter:  64  03:00:12  -8.64  -5.96  -226.280616            +0.0,-0.0,+0.0
iter:  65  03:00:47  -9.97  -6.03  -226.280616            +0.0,-0.0,+0.0
iter:  66  03:01:21  -9.85  -6.15  -226.280616            +0.0,-0.0,+0.0
iter:  67  03:01:55  -8.71  -6.81  -226.280616            +0.0,-0.0,+0.0
iter:  68  03:02:29 -10.07  -6.80  -226.280616            +0.0,-0.0,+0.0
iter:  69  03:03:04  -9.90  -6.85  -226.280616            +0.0,-0.0,+0.0
iter:  70  03:03:38  -8.79  -7.19  -226.280616            +0.0,-0.0,+0.0
iter:  71  03:04:12  -8.46  -7.29  -226.280616            +0.0,-0.0,+0.0
iter:  72  03:04:47  -8.70  -7.27  -226.280616            +0.0,-0.0,+0.0
iter:  73  03:05:21  -8.89  -7.32  -226.280616            +0.0,-0.0,+0.0
iter:  74  03:05:55  -7.88  -7.29  -226.280616            +0.0,-0.0,+0.0
iter:  75  03:06:29  -8.88  -7.21  -226.280616            +0.0,-0.0,+0.0
iter:  76  03:07:04  -9.30  -6.90  -226.280616            -0.0,-0.0,+0.0
iter:  77  03:07:38  -8.95  -7.41  -226.280616            -0.0,-0.0,+0.0
iter:  78  03:08:12  -9.15  -7.46  -226.280616            -0.0,-0.0,+0.0
iter:  79  03:08:47  -8.93  -7.59  -226.280616            -0.0,-0.0,+0.0
iter:  80  03:09:21  -8.60  -7.67  -226.280616            -0.0,-0.0,+0.0
iter:  81  03:09:55  -9.86  -7.76  -226.280616            -0.0,-0.0,+0.0
iter:  82  03:10:29  -9.94  -7.79  -226.280616            -0.0,-0.0,+0.0
iter:  83  03:11:04  -8.10  -7.85  -226.280616            -0.0,-0.0,+0.0
iter:  84  03:11:38  -8.24  -7.55  -226.280616            -0.0,-0.0,+0.0
iter:  85  03:12:12  -8.98  -7.34  -226.280616            -0.0,-0.0,+0.0
iter:  86  03:12:46  -9.28  -7.40  -226.280616            +0.0,-0.0,+0.0
iter:  87  03:13:21  -9.71  -7.48  -226.280616            +0.0,-0.0,+0.0
iter:  88  03:13:55  -9.51  -7.83  -226.280616            +0.0,-0.0,+0.0
iter:  89  03:14:29  -8.09  -7.87  -226.280617            +0.0,-0.0,+0.0
iter:  90  03:15:03  -7.74  -7.64  -226.280617            +0.0,+0.0,+0.0
iter:  91  03:15:37  -7.74  -7.30  -226.280617            +0.0,+0.0,+0.0
iter:  92  03:16:12  -7.80  -7.13  -226.280617            +0.0,+0.0,+0.0
iter:  93  03:16:46  -7.78  -6.97  -226.280617            +0.0,+0.0,+0.0
iter:  94  03:17:20  -7.74  -7.30  -226.280617            +0.0,+0.0,+0.0
iter:  95  03:17:54  -8.25  -7.29  -226.280617            +0.0,+0.0,+0.0
iter:  96  03:18:28  -8.62  -6.67  -226.280617            +0.0,+0.0,+0.0
iter:  97  03:19:03  -7.90  -7.81  -226.280617            +0.0,+0.0,+0.0
iter:  98  03:19:37  -9.14  -7.64  -226.280617            +0.0,+0.0,+0.0
iter:  99  03:20:11  -9.45  -7.69  -226.280617            +0.0,+0.0,+0.0
iter: 100  03:20:45 -10.32  -7.80  -226.280617            +0.0,+0.0,+0.0
iter: 101  03:21:19  -9.82  -7.91  -226.280617            +0.0,+0.0,+0.0
iter: 102  03:21:53  -9.16  -7.96  -226.280617            +0.0,+0.0,+0.0
iter: 103  03:22:28  -9.00  -8.19  -226.280617            +0.0,+0.0,+0.0
iter: 104  03:23:02  -8.32  -7.97  -226.280617            +0.0,+0.0,+0.0
iter: 105  03:23:36  -8.73  -8.08  -226.280617            +0.0,+0.0,+0.0
iter: 106  03:24:10  -8.84  -8.20  -226.280617            +0.0,+0.0,+0.0
iter: 107  03:24:44  -7.48  -8.17  -226.280617            +0.0,+0.0,+0.0
iter: 108  03:25:18  -8.86  -7.59  -226.280617            +0.0,+0.0,+0.0
iter: 109  03:25:52  -9.63  -7.59  -226.280617            +0.0,+0.0,+0.0
iter: 110  03:26:27  -9.72  -7.89  -226.280617            +0.0,+0.0,+0.0
iter: 111  03:27:01  -9.86  -8.17  -226.280617            +0.0,+0.0,+0.0
iter: 112  03:27:35 -10.01  -8.13  -226.280617            +0.0,+0.0,+0.0
iter: 113  03:28:09  -9.01  -8.13  -226.280617            +0.0,+0.0,+0.0
iter: 114  03:28:43  -8.77  -8.15  -226.280617            +0.0,+0.0,+0.0
iter: 115  03:29:17  -9.76  -8.00  -226.280617            +0.0,+0.0,+0.0
iter: 116  03:29:51  -8.69  -7.95  -226.280617            +0.0,+0.0,+0.0
iter: 117  03:30:25  -8.40  -8.00  -226.280617            +0.0,+0.0,+0.0
iter: 118  03:31:00  -8.09  -7.87  -226.280617            +0.0,+0.0,+0.0
iter: 119  03:31:34  -9.30  -7.47  -226.280617            +0.0,+0.0,+0.0
iter: 120  03:32:08 -10.25  -7.59  -226.280617            +0.0,+0.0,+0.0
iter: 121  03:32:42 -10.01  -8.08  -226.280617            +0.0,+0.0,+0.0
iter: 122  03:33:16 -10.31  -8.13  -226.280617            +0.0,+0.0,+0.0
iter: 123  03:33:50  -9.37  -8.17  -226.280618            +0.0,+0.0,+0.0
iter: 124  03:34:24  -8.63  -8.11  -226.280618            +0.0,+0.0,+0.0
iter: 125  03:34:59  -8.16  -7.85  -226.280618            +0.0,+0.0,+0.0
iter: 126  03:35:33  -8.56  -7.49  -226.280618            +0.0,+0.0,+0.0
iter: 127  03:36:07  -8.61  -7.39  -226.280618            +0.0,+0.0,+0.0
iter: 128  03:36:41  -8.48  -7.49  -226.280618            +0.0,+0.0,-0.0
iter: 129  03:37:15  -9.34  -7.28  -226.280618            +0.0,+0.0,-0.0
iter: 130  03:37:50  -8.95  -7.45  -226.280618            +0.0,+0.0,-0.0
iter: 131  03:38:24  -8.06  -8.13  -226.280618            +0.0,+0.0,-0.0
iter: 132  03:38:58  -8.57  -7.88  -226.280618            +0.0,+0.0,-0.0
iter: 133  03:39:32  -9.72  -7.76  -226.280618            +0.0,+0.0,-0.0
iter: 134  03:40:06  -9.01  -7.79  -226.280618            +0.0,-0.0,-0.0
iter: 135  03:40:40 -10.02  -7.67  -226.280618            +0.0,-0.0,-0.0
iter: 136  03:41:15 -10.18  -7.94  -226.280618            +0.0,-0.0,-0.0
iter: 137  03:41:49  -9.06  -8.15  -226.280618            +0.0,-0.0,-0.0
iter: 138  03:42:23 -10.00  -8.12  -226.280618            +0.0,-0.0,-0.0
iter: 139  03:42:57  -9.38  -8.02  -226.280618            +0.0,-0.0,-0.0
iter: 140  03:43:31 -10.21  -8.15  -226.280618            +0.0,-0.0,-0.0
iter: 141  03:44:05  -8.84  -8.22  -226.280618            +0.0,-0.0,-0.0
iter: 142  03:44:40 -10.30  -7.95  -226.280618            +0.0,-0.0,-0.0
iter: 143  03:45:14 -10.20  -7.98  -226.280618            +0.0,-0.0,-0.0
iter: 144  03:45:48  -9.14  -7.88  -226.280618            +0.0,-0.0,-0.0
iter: 145  03:46:22  -8.92  -8.23  -226.280618            +0.0,-0.0,-0.0
iter: 146  03:46:56  -8.54  -8.06  -226.280619            +0.0,-0.0,-0.0
iter: 147  03:47:30  -9.04  -7.71  -226.280619            +0.0,-0.0,-0.0
iter: 148  03:48:04  -8.56  -7.65  -226.280619            +0.0,-0.0,-0.0
iter: 149  03:48:39  -8.64  -7.60  -226.280619            +0.0,-0.0,-0.0
iter: 150  03:49:13  -9.18  -7.17  -226.280619            +0.0,-0.0,-0.0
iter: 151  03:49:47  -8.31  -8.23  -226.280619            +0.0,-0.0,-0.0
iter: 152  03:50:21  -9.67  -7.80  -226.280619            +0.0,-0.0,-0.0
iter: 153  03:50:55 -10.26  -7.76  -226.280619            +0.0,-0.0,-0.0
iter: 154  03:51:29 -11.25  -8.17  -226.280619            +0.0,-0.0,-0.0
iter: 155  03:52:03  -9.81  -8.24  -226.280619            +0.0,-0.0,-0.0
iter: 156  03:52:38  -8.86  -8.31  -226.280619            +0.0,-0.0,-0.0
iter: 157  03:53:12  -9.29  -8.22  -226.280619            +0.0,-0.0,-0.0
iter: 158  03:53:46  -8.82  -8.36  -226.280619            +0.0,-0.0,-0.0
iter: 159  03:54:20  -8.38  -8.48  -226.280619            +0.0,-0.0,-0.0
iter: 160  03:54:54  -8.61  -8.13  -226.280619            +0.0,-0.0,-0.0
iter: 161  03:55:28  -9.22  -7.93  -226.280619            +0.0,+0.0,-0.0
iter: 162  03:56:02  -8.66  -7.92  -226.280619            +0.0,-0.0,-0.0
iter: 163  03:56:36  -8.75  -8.35  -226.280619            +0.0,+0.0,-0.0
iter: 164  03:57:10  -9.60  -8.21  -226.280619            +0.0,-0.0,-0.0
iter: 165  03:57:45  -8.63  -8.11  -226.280619            +0.0,+0.0,-0.0
iter: 166  03:58:19  -9.02  -8.51  -226.280619            +0.0,+0.0,-0.0
iter: 167  03:58:53  -8.44  -8.37  -226.280619            +0.0,+0.0,-0.0
iter: 168  03:59:27  -7.95  -8.34  -226.280619            +0.0,+0.0,-0.0
iter: 169  04:00:01  -8.89  -8.10  -226.280619            +0.0,+0.0,-0.0
iter: 170  04:00:35  -9.19  -8.05  -226.280619            +0.0,+0.0,-0.0
iter: 171  04:01:09  -8.63  -7.99  -226.280619            +0.0,+0.0,-0.0
iter: 172  04:01:43  -8.59  -8.20  -226.280619            +0.0,+0.0,-0.0
iter: 173  04:02:18  -8.66  -8.16  -226.280619            +0.0,+0.0,-0.0
iter: 174  04:02:52  -9.28  -8.05  -226.280619            +0.0,+0.0,-0.0
iter: 175  04:03:26  -9.17  -8.04  -226.280619            +0.0,+0.0,-0.0
iter: 176  04:04:00  -9.27  -7.98  -226.280619            +0.0,+0.0,-0.0
iter: 177  04:04:34  -9.55  -8.11  -226.280619            +0.0,+0.0,-0.0
iter: 178  04:05:08  -9.16  -8.22  -226.280619            +0.0,+0.0,-0.0
iter: 179  04:05:42  -9.28  -8.10  -226.280619            +0.0,+0.0,-0.0
iter: 180  04:06:17  -8.40  -7.91  -226.280619            +0.0,+0.0,-0.0
iter: 181  04:06:51  -8.70  -7.70  -226.280619            +0.0,+0.0,-0.0
iter: 182  04:07:25  -9.30  -7.79  -226.280619            +0.0,+0.0,-0.0
iter: 183  04:07:59  -9.90  -7.45  -226.280619            +0.0,+0.0,-0.0
iter: 184  04:08:33  -8.54  -8.04  -226.280619            +0.0,+0.0,-0.0
iter: 185  04:09:07 -10.07  -7.93  -226.280619            +0.0,+0.0,-0.0
iter: 186  04:09:41  -9.82  -7.55  -226.280619            +0.0,+0.0,-0.0
iter: 187  04:10:15  -9.20  -8.26  -226.280619            +0.0,+0.0,-0.0
iter: 188  04:10:50  -9.29  -8.21  -226.280619            +0.0,+0.0,-0.0
iter: 189  04:11:24  -9.28  -8.16  -226.280619            +0.0,+0.0,-0.0
iter: 190  04:11:58  -9.42  -8.10  -226.280619            +0.0,+0.0,-0.0
iter: 191  04:12:32  -8.92  -8.13  -226.280619            +0.0,+0.0,-0.0
iter: 192  04:13:06  -9.64  -8.06  -226.280619            +0.0,+0.0,-0.0
iter: 193  04:13:40  -9.75  -8.10  -226.280619            +0.0,+0.0,-0.0
iter: 194  04:14:14  -8.76  -8.29  -226.280619            +0.0,+0.0,-0.0
iter: 195  04:14:49  -9.59  -8.18  -226.280619            +0.0,+0.0,-0.0
iter: 196  04:15:23  -9.23  -8.16  -226.280619            +0.0,+0.0,-0.0
iter: 197  04:15:57  -9.33  -8.20  -226.280619            +0.0,-0.0,-0.0
iter: 198  04:16:31  -9.25  -8.14  -226.280619            +0.0,+0.0,-0.0
iter: 199  04:17:05  -8.06  -7.91  -226.280619            +0.0,-0.0,-0.0
iter: 200  04:17:39  -8.31  -7.91  -226.280619            +0.0,-0.0,-0.0
iter: 201  04:18:13  -9.08  -8.12  -226.280619            +0.0,-0.0,-0.0
iter: 202  04:18:48  -9.41  -8.24  -226.280619            +0.0,-0.0,-0.0
iter: 203  04:19:22  -8.59  -8.31  -226.280619            +0.0,-0.0,-0.0
iter: 204  04:19:56  -9.85  -7.92  -226.280619            +0.0,-0.0,-0.0
iter: 205  04:20:30  -9.49  -7.94  -226.280619            +0.0,-0.0,-0.0
iter: 206  04:21:04 -10.12  -7.89  -226.280619            +0.0,-0.0,-0.0
iter: 207  04:21:38 -10.85  -8.17  -226.280619            +0.0,-0.0,-0.0
iter: 208  04:22:12  -9.41  -8.22  -226.280619            +0.0,-0.0,-0.0
iter: 209  04:22:46  -9.82  -8.11  -226.280619            +0.0,-0.0,-0.0
iter: 210  04:23:21  -9.47  -8.20  -226.280619            +0.0,-0.0,-0.0
iter: 211  04:23:55  -9.79  -7.79  -226.280619            +0.0,-0.0,-0.0
iter: 212  04:24:29  -7.65  -8.19  -226.280619            +0.0,-0.0,-0.0
iter: 213  04:25:03  -7.82  -7.52  -226.280619            +0.0,-0.0,-0.0
iter: 214  04:25:37  -8.70  -8.30  -226.280619            +0.0,-0.0,-0.0
iter: 215  04:26:11 -10.21  -7.86  -226.280619            +0.0,-0.0,-0.0
iter: 216  04:26:45  -9.88  -7.92  -226.280619            +0.0,-0.0,-0.0
iter: 217  04:27:20  -8.22  -7.85  -226.280619            +0.0,-0.0,-0.0
iter: 218  04:27:54  -9.97  -8.35  -226.280619            +0.0,-0.0,-0.0
iter: 219  04:28:28  -9.93  -8.42  -226.280619            +0.0,-0.0,-0.0
iter: 220  04:29:02  -9.49  -8.42  -226.280619            +0.0,-0.0,-0.0
iter: 221  04:29:36  -9.54  -8.56  -226.280619            +0.0,-0.0,-0.0
iter: 222  04:30:10  -9.23  -8.38  -226.280619            +0.0,-0.0,-0.0
iter: 223  04:30:44 -10.24  -8.10  -226.280619            +0.0,-0.0,-0.0
iter: 224  04:31:18 -10.16  -8.04  -226.280619            +0.0,-0.0,-0.0
iter: 225  04:31:52 -10.48  -8.48  -226.280619            +0.0,-0.0,-0.0
iter: 226  04:32:26  -8.89  -8.85  -226.280619            +0.0,+0.0,-0.0
iter: 227  04:33:00 -10.00  -8.52  -226.280619            +0.0,+0.0,-0.0
iter: 228  04:33:34 -10.41  -8.58  -226.280619            +0.0,+0.0,-0.0
iter: 229  04:34:08 -10.74  -8.58  -226.280619            +0.0,+0.0,-0.0
iter: 230  04:34:42 -10.62  -8.81  -226.280619            +0.0,+0.0,-0.0
iter: 231  04:35:16  -8.16  -8.66  -226.280619            +0.0,+0.0,-0.0
iter: 232  04:35:51  -9.06  -7.82  -226.280619            +0.0,+0.0,-0.0
iter: 233  04:36:25  -9.92  -7.74  -226.280619            +0.0,+0.0,-0.0
iter: 234  04:36:59  -9.16  -7.76  -226.280619            +0.0,+0.0,-0.0
iter: 235  04:37:33 -10.41  -7.35  -226.280619            +0.0,+0.0,-0.0
iter: 236  04:38:07 -11.14  -8.00  -226.280619            +0.0,+0.0,-0.0
iter: 237  04:38:41 -12.13  -8.55  -226.280619            +0.0,+0.0,-0.0
iter: 238  04:39:15 -12.02  -8.64  -226.280619            +0.0,+0.0,-0.0
iter: 239  04:39:49 -12.23  -8.70  -226.280619            +0.0,+0.0,-0.0
iter: 240  04:40:24 -11.04  -8.95  -226.280619            +0.0,+0.0,-0.0
iter: 241  04:40:58  -9.49  -8.98  -226.280619            +0.0,-0.0,-0.0
iter: 242  04:41:32  -9.00  -8.68  -226.280619            +0.0,-0.0,-0.0
iter: 243  04:42:06  -9.33  -8.16  -226.280619            +0.0,-0.0,-0.0
iter: 244  04:42:40  -9.00  -8.01  -226.280619            +0.0,-0.0,-0.0
iter: 245  04:43:14  -8.89  -8.39  -226.280619            +0.0,-0.0,-0.0
iter: 246  04:43:48 -10.06  -7.98  -226.280619            +0.0,-0.0,-0.0
iter: 247  04:44:22 -10.07  -7.95  -226.280619            +0.0,-0.0,-0.0
iter: 248  04:44:56 -10.29  -8.55  -226.280619            +0.0,-0.0,-0.0
iter: 249  04:45:30  -9.73  -8.69  -226.280619            +0.0,-0.0,-0.0
iter: 250  04:46:05  -9.90  -8.77  -226.280619            +0.0,-0.0,-0.0
iter: 251  04:46:39 -10.34  -8.75  -226.280619            +0.0,-0.0,-0.0
iter: 252  04:47:13  -9.39  -8.88  -226.280619            +0.0,-0.0,-0.0
iter: 253  04:47:47  -9.62  -8.87  -226.280619            +0.0,-0.0,-0.0
iter: 254  04:48:21  -9.35  -8.44  -226.280619            +0.0,-0.0,-0.0
iter: 255  04:48:55 -10.49  -8.80  -226.280619            +0.0,-0.0,-0.0
iter: 256  04:49:29 -11.13  -8.82  -226.280619            +0.0,-0.0,-0.0
iter: 257  04:50:03 -10.85  -8.99  -226.280619            +0.0,-0.0,-0.0
iter: 258  04:50:38 -11.02  -9.13  -226.280619            +0.0,-0.0,-0.0

Converged after 258 iterations.

Dipole moment: (0.040304, 0.001795, -0.410538) |e|*Ang

Total magnetic moment: (0.000338, -0.001054, -0.000710)
Local magnetic moments:
   0 O  ( 0.001024, -0.000087,  0.000225)
   1 O  (-0.001049,  0.000077,  0.000182)
   2 O  (-0.000018, -0.000073, -0.000203)
   3 O  ( 0.000042,  0.000077, -0.000224)
   4 O  ( 0.000001,  0.000074, -0.000204)
   5 O  ( 0.000023, -0.000092, -0.000225)
   6 O  ( 0.001045,  0.000088,  0.000225)
   7 O  (-0.001070, -0.000089,  0.000181)
   8 O  (-0.028682,  0.000024, -0.000159)
   9 O  ( 0.028665, -0.000027,  0.000392)
  10 O  ( 0.028703, -0.000084,  0.000014)
  11 O  (-0.028711,  0.000079, -0.000260)
  12 Mn (-4.446145,  0.003474, -0.028492)
  13 Mn ( 4.446224, -0.003882,  0.059263)
  14 Mn ( 4.446411, -0.013163,  0.004560)
  15 Mn (-4.446145,  0.012622, -0.035953)
  16 P  (-0.001377,  0.000012,  0.000164)
  17 P  ( 0.001357, -0.000014,  0.000130)
  18 P  ( 0.001717,  0.000005, -0.000109)
  19 P  (-0.001707, -0.000007, -0.000182)
  20 O  (-0.025451,  0.000021, -0.000321)
  21 O  ( 0.025452, -0.000024,  0.000184)
  22 O  ( 0.025172, -0.000073,  0.000189)
  23 O  (-0.025138,  0.000070, -0.000038)
  24 Li (-0.000013,  0.000000, -0.000001)
  25 Li ( 0.000014,  0.000000,  0.000001)
  26 Li (-0.000013, -0.000001, -0.000001)
  27 Li ( 0.000014,  0.000001,  0.000001)

Energy contributions relative to reference atoms: (reference = -196157.275402)

Kinetic:       +217.178251
Potential:     -195.129917
External:        +0.000000
XC:            -250.370021
Entropy (-ST):   -0.000000
Local:           +2.041068
--------------------------
Free energy:   -226.280619
Extrapolated:  -226.280619

Showing only first 2 kpts
 Kpt  Band  Eigenvalues  Occupancy
  0    88     -2.03527    1.00000
  0    89     -2.03188    1.00000
  0    90     -1.94025    1.00000
  0    91     -1.93708    1.00000

  1    88     -2.15784    1.00000
  1    89     -2.15467    1.00000
  1    90     -2.10304    1.00000
  1    91     -2.09623    1.00000


Fermi level: 6.10212

Gap: 1.974 eV
Transition (v -> c):
  (s=0, k=45, n=179, [-0.12, 0.38, 0.08]) -> (s=0, k=33, n=180, [-0.12, -0.12, 0.08])

Forces in eV/Ang:
  0 O    -0.00603   -0.00108    0.02939
  1 O     0.00704    0.00126    0.02979
  2 O    -0.00568    0.00097    0.03042
  3 O     0.00675   -0.00098    0.03052
  4 O    -0.00571   -0.00097    0.03047
  5 O     0.00678    0.00099    0.03058
  6 O    -0.00604    0.00106    0.02943
  7 O     0.00705   -0.00125    0.02983
  8 O     0.00003    0.00001    0.02874
  9 O     0.00127   -0.00000    0.02868
 10 O    -0.00085   -0.00000    0.02800
 11 O     0.00190    0.00000    0.02710
 12 Mn   -0.00009   -0.00001   -0.04358
 13 Mn    0.00120    0.00001   -0.04321
 14 Mn    0.00006    0.00000   -0.04392
 15 Mn    0.00072   -0.00000   -0.04443
 16 P     0.00519    0.00001   -0.06598
 17 P    -0.00426   -0.00001   -0.06593
 18 P    -0.00933   -0.00000   -0.06720
 19 P    -0.00433    0.00000   -0.06726
 20 O     0.00436   -0.00001    0.04835
 21 O    -0.00350    0.00001    0.04875
 22 O     0.00507    0.00002    0.04906
 23 O    -0.00376   -0.00002    0.04904
 24 Li    0.00085   -0.00135   -0.02668
 25 Li    0.00024    0.00135   -0.02662
 26 Li    0.00084    0.00135   -0.02668
 27 Li    0.00024   -0.00134   -0.02662

Timing:                              incl.     excl.
-----------------------------------------------------------
Forces:                              4.417     4.417   0.0% |
Hamiltonian:                         0.662     0.003   0.0% |
 Atomic:                             0.112     0.112   0.0% |
  XC Correction:                     0.000     0.000   0.0% |
 Calculate atomic Hamiltonians:      0.249     0.249   0.0% |
 Communicate:                        0.000     0.000   0.0% |
 Initialize Hamiltonian:             0.001     0.001   0.0% |
 Poisson:                            0.003     0.003   0.0% |
 XC 3D grid:                         0.294     0.294   0.0% |
LCAO initialization:                62.030     0.365   0.0% |
 LCAO eigensolver:                  10.364     0.002   0.0% |
  DenseAtomicCorrection:             0.017     0.017   0.0% |
  Distribute overlap matrix:         0.001     0.001   0.0% |
  Orbital Layouts:                   0.060     0.060   0.0% |
  Potential matrix:                 10.245    10.245   0.1% |
  Sum over cells:                    0.040     0.040   0.0% |
 LCAO to grid:                      50.325    50.325   0.6% |
 Set positions (LCAO WFS):           0.976     0.206   0.0% |
  Basic WFS set positions:           0.001     0.001   0.0% |
  Basis functions set positions:     0.000     0.000   0.0% |
  P tci:                             0.379     0.379   0.0% |
  ST tci:                            0.299     0.299   0.0% |
  mktci:                             0.092     0.092   0.0% |
PWDescriptor:                        0.010     0.010   0.0% |
SCF-cycle:                        8851.557  2541.390  28.5% |----------|
 Davidson:                        5156.465   572.392   6.4% |--|
  Apply H:                         816.849   816.849   9.2% |---|
  Subspace diag:                  1084.760     0.108   0.0% |
   calc_h_matrix:                  922.841   100.350   1.1% |
    Apply H:                       822.491   822.491   9.2% |---|
   diagonalize:                      9.229     9.229   0.1% |
   rotate_psi:                     152.582   152.582   1.7% ||
  calc. matrices:                 2200.882   578.145   6.5% |--|
   Apply H:                       1622.737  1622.737  18.2% |------|
  diagonalize:                     186.231   186.231   2.1% ||
  rotate_psi:                      295.351   295.351   3.3% ||
 Density:                          982.182     0.007   0.0% |
  Atomic density matrices:          29.184    29.184   0.3% |
  Mix:                              89.746    89.746   1.0% |
  Multipole moments:                 0.140     0.140   0.0% |
  Pseudo density:                  863.105   863.090   9.7% |---|
   Symmetrize density:               0.015     0.015   0.0% |
 Hamiltonian:                      170.583     0.933   0.0% |
  Atomic:                           17.451    17.450   0.2% |
   XC Correction:                    0.001     0.001   0.0% |
  Calculate atomic Hamiltonians:    72.274    72.274   0.8% |
  Communicate:                       0.059     0.059   0.0% |
  Poisson:                           0.789     0.789   0.0% |
  XC 3D grid:                       79.078    79.078   0.9% |
 Orthonormalize:                     0.937     0.001   0.0% |
  calc_s_matrix:                     0.195     0.195   0.0% |
  inverse-cholesky:                  0.009     0.009   0.0% |
  projections:                       0.427     0.427   0.0% |
  rotate_psi_s:                      0.306     0.306   0.0% |
Set symmetry:                        0.000     0.000   0.0% |
Other:                               2.644     2.644   0.0% |
-----------------------------------------------------------
Total:                                      8921.320 100.0%

Memory usage: 1.03 GiB
Date: Sat Jun 25 04:50:42 2022
