
  ___ ___ ___ _ _ _  
 |   |   |_  | | | | 
 | | | | | . | | | | 
 |__ |  _|___|_____|  21.6.1b1
 |___|_|             

User:   madkru@a018.nifl.fysik.dtu.dk
Date:   Fri Sep  2 09:15:24 2022
Arch:   x86_64
Pid:    197072
Python: 3.8.6
gpaw:   /home/niflheim/madkru/new_venv/gpaw/gpaw (1f0dfc9eae)
_gpaw:  /home/niflheim/madkru/new_venv/gpaw/build/lib.linux-x86_64-skylake-3.8/
        _gpaw.cpython-38-x86_64-linux-gnu.so (c1e45bfab3)
ase:    /home/niflheim/madkru/new_venv/ase/ase (version 3.23.0b1-ca38c75a67)
numpy:  /home/modules/software/SciPy-bundle/2020.11-foss-2020b/lib/python3.8/site-packages/numpy (version 1.19.4)
scipy:  /home/modules/software/SciPy-bundle/2020.11-foss-2020b/lib/python3.8/site-packages/scipy (version 1.5.4)
libxc:  4.3.4
units:  Angstrom and eV
cores: 40
OpenMP: False
OMP_NUM_THREADS: 1

Input parameters:
  convergence: {density: 1e-09}
  experimental: {magmoms: [[0. 0. 0.]
 [0. 0. 0.]
 [0. 0. 0.]
 ...
 [0. 0. 0.]
 [0. 0. 0.]
 [0. 0. 0.]],
                 soc: True}
  kpts: {gamma: True,
         size: (4, 4, 6)}
  maxiter: 5000
  mixer: {backend: pulay,
          beta: 0.05,
          method: difference,
          nmaxold: 3,
          weight: 100}
  mode: {ecut: 800.0,
         gammacentered: False,
         name: pw}
  occupations: {fixmagmom: False,
                name: fermi-dirac,
                width: 0.001}
  symmetry: off

System changes: positions, numbers, cell, pbc, initial_charges, initial_magmoms 

Initialize ...

O-setup:
  name: Oxygen
  id: 9b9d51c344dea68c822856295a461509
  Z: 8.0
  valence: 6
  core: 2
  charge: 0.0
  file: /home/modules/software/GPAW-setups/0.9.20000/O.LDA.gz
  compensation charges: gauss, rc=0.21, lmax=2
  cutoffs: 1.17(filt), 0.83(core),
  valence states:
                energy  radius
    2s(2.00)   -23.752   0.688
    2p(4.00)    -9.195   0.598
    *s           3.459   0.688
    *p          18.016   0.598
    *d           0.000   0.619

  Using partial waves for O as LCAO basis

Mn-setup:
  name: Manganese
  id: 0d715a8018be061a6e9ea6f2d364ac92
  Z: 25.0
  valence: 15
  core: 10
  charge: 0.0
  file: /home/modules/software/GPAW-setups/0.9.20000/Mn.LDA.gz
  compensation charges: gauss, rc=0.38, lmax=2
  cutoffs: 2.14(filt), 0.86(core),
  valence states:
                energy  radius
    3s(2.00)   -85.387   1.275
    4s(2.00)    -5.282   1.275
    3p(6.00)   -54.493   1.281
    4p(0.00)    -1.471   1.281
    3d(5.00)    -7.009   1.138
    *d          20.203   1.138

  Using partial waves for Mn as LCAO basis

P-setup:
  name: Phosphorus
  id: a5561c299094968922a179ab894d2e2d
  Z: 15.0
  valence: 5
  core: 10
  charge: 0.0
  file: /home/modules/software/GPAW-setups/0.9.20000/P.LDA.gz
  compensation charges: gauss, rc=0.30, lmax=2
  cutoffs: 1.69(filt), 1.81(core),
  valence states:
                energy  radius
    3s(2.00)   -14.015   0.953
    3p(3.00)    -5.596   0.953
    *s          13.197   0.953
    *p          21.615   0.953
    *d           0.000   0.953

  Using partial waves for P as LCAO basis

Li-setup:
  name: Lithium
  id: b73562207f97a71b6967473b66fe8b65
  Z: 3.0
  valence: 1
  core: 2
  charge: 0.0
  file: /home/modules/software/GPAW-setups/0.9.20000/Li.LDA.gz
  compensation charges: gauss, rc=0.33, lmax=2
  cutoffs: 1.91(filt), 2.55(core),
  valence states:
                energy  radius
    2s(1.00)    -2.874   1.058
    2p(0.00)    -1.126   1.058
    *s          24.338   1.058

  Using partial waves for Li as LCAO basis

Reference energy: -196157.275402

Non-collinear calculation.
Magnetic moment: (0.000000, 0.000000, 0.000000)

Convergence criteria:
  Maximum total energy change: 0.0005 eV / electron
  Maximum integral of absolute density change: 1e-09 electrons
  Maximum integral of absolute eigenstate change: 4e-08 eV^2
  Maximum number of iterations: 5000

Symmetries present (total): 1

  ( 1  0  0)
  ( 0  1  0)
  ( 0  0  1)

96 k-points: 4 x 4 x 6 Monkhorst-Pack grid + [1/8,1/8,1/12]
96 k-points in the irreducible part of the Brillouin zone
       k-points in crystal coordinates                weights
   0:    -0.25000000   -0.25000000   -0.33333333          1/96
   1:    -0.25000000   -0.25000000   -0.16666667          1/96
   2:    -0.25000000   -0.25000000    0.00000000          1/96
   3:    -0.25000000   -0.25000000    0.16666667          1/96
   4:    -0.25000000   -0.25000000    0.33333333          1/96
   5:    -0.25000000   -0.25000000    0.50000000          1/96
   6:    -0.25000000    0.00000000   -0.33333333          1/96
   7:    -0.25000000    0.00000000   -0.16666667          1/96
   8:    -0.25000000    0.00000000    0.00000000          1/96
   9:    -0.25000000    0.00000000    0.16666667          1/96
          ...
  95:     0.50000000    0.50000000    0.50000000          1/96

Wave functions: Plane wave expansion
  Cutoff energy: 800.000 eV
  Number of coefficients (min, max): 15476, 15624
  Pulay-stress correction: 0.000000 eV/Ang^3 (de/decut=0.000000)
  Using FFTW library
  ScaLapack parameters: grid=1x1, blocksize=None
  Wavefunction extrapolation:
    Improved wavefunction reuse through dual PAW basis 

Occupation numbers: Fermi-Dirac: width=0.0010 eV
 

Eigensolver
   Davidson(niter=2) 

Densities:
  Coarse grid: 70*40*32 grid
  Fine grid: 140*80*64 grid
  Total Charge: 0.000000 

Density mixing:
  Method: difference
  Backend: pulay
  Linear mixing parameter: 0.05
  Mixing with 3 old densities
  Damping of long wave oscillations: 100 

Hamiltonian:
  XC and Coulomb potentials evaluated on a 140*80*64 grid
  Using the LDA Exchange-Correlation functional
  External potential:
    <gpaw.external.NoExternalPotential object at 0x2b1ed23fadf0>
 

Memory estimate:
  Process memory now: 228.98 MiB
  Calculator: 253.55 MiB
    Density: 59.08 MiB
      Arrays: 17.77 MiB
      Localized functions: 29.00 MiB
      Mixer: 12.30 MiB
    Hamiltonian: 12.46 MiB
      Arrays: 11.62 MiB
      XC: 0.00 MiB
      Poisson: 0.00 MiB
      vbar: 0.84 MiB
    Wavefunctions: 182.01 MiB
      Arrays psit_nG: 106.80 MiB
      Eigensolver: 62.26 MiB
      Projections: 2.41 MiB
      Projectors: 6.64 MiB
      PW-descriptor: 3.89 MiB

Total number of cores used: 40
Parallelization over k-points: 40

Number of atoms: 28
Number of atomic orbitals: 148
Number of bands in calculation: 224
Number of valence electrons: 180
Bands to converge: occupied

... initialized

Initializing position-dependent things.

Density initialized from atomic densities
Creating initial wave functions:
  148 bands from LCAO basis set
  76 bands from random numbers

     .-------------------------.  
    /|             P  O        |  
   / |   O      O            Li|  
  /  |               Mn      O |  
 *   |P O   O           Mn Li  |  
 |   | O        Li       O     |  
 |   .--Mn----------O----OP----.  
 | O/      MO Li              /   
 | /            O      O     /    
 |/       O  P              /     
 *-------------------------*      

Positions:
   0 O      3.507138    0.289542    1.003457    ( 0.0000,  0.0000,  0.0000)
   1 O      1.744993    5.807615    3.365612    ( 0.0000,  0.0000,  0.0000)
   2 O      6.973526    3.341432    3.742841    ( 0.0000,  0.0000,  0.0000)
   3 O      8.736982    2.761134    1.367788    ( 0.0000,  0.0000,  0.0000)
   4 O      6.973828    5.807821    3.742949    ( 0.0000,  0.0000,  0.0000)
   5 O      8.736711    0.289612    1.367838    ( 0.0000,  0.0000,  0.0000)
   6 O      3.507408    2.761207    1.003506    ( 0.0000,  0.0000,  0.0000)
   7 O      1.744688    3.341631    3.365719    ( 0.0000,  0.0000,  0.0000)
   8 O      0.450412    1.525162    1.403120    ( 0.0000,  0.0000,  0.0000)
   9 O      4.792484    4.574862    3.778701    ( 0.0000,  0.0000,  0.0000)
  10 O     10.023687    4.574860    3.329954    ( 0.0000,  0.0000,  0.0000)
  11 O      5.680701    1.525164    0.968051    ( 0.0000,  0.0000,  0.0000)
  12 Mn     2.273762    1.524835    2.446005    ( 0.0000,  0.0000,  0.0000)
  13 Mn     2.932370    4.575156    0.082289    ( 5.0000,  0.0000,  0.0000)
  14 Mn     8.162079    4.575155    2.287649    (-5.0000,  0.0000,  0.0000)
  15 Mn     7.503319    1.524838    4.664843    (-5.0000,  0.0000,  0.0000)
  16 P      4.241378    1.525326    0.376294    ( 5.0000,  0.0000,  0.0000)
  17 P      0.999565    4.574671    2.739958    ( 0.0000,  0.0000,  0.0000)
  18 P      6.228390    4.574674    4.368316    ( 0.0000,  0.0000,  0.0000)
  19 P      9.471123    1.525325    1.994887    ( 0.0000,  0.0000,  0.0000)
  20 O      4.218878    1.525278    3.579527    ( 0.0000,  0.0000,  0.0000)
  21 O      1.029541    4.574683    1.203205    ( 0.0000,  0.0000,  0.0000)
  22 O      6.258895    4.574685    1.165127    ( 0.0000,  0.0000,  0.0000)
  23 O      9.448625    1.525278    3.531728    ( 0.0000,  0.0000,  0.0000)
  24 Li    -0.030127    0.001615   -0.009268    ( 0.0000,  0.0000,  0.0000)
  25 Li     5.199746    0.001856    2.379589    ( 0.0000,  0.0000,  0.0000)
  26 Li    -0.029989    3.048405   -0.009220    ( 0.0000,  0.0000,  0.0000)
  27 Li     5.199885    3.048185    2.379527    ( 0.0000,  0.0000,  0.0000)

Unit cell:
           periodic     x           y           z      points  spacing
  1. axis:    yes   10.460000    0.000000    0.000000    70     0.1494
  2. axis:    yes    0.000000    6.100000    0.000000    40     0.1525
  3. axis:    yes    0.000000    0.000000    4.740000    32     0.1481

  Lengths:  10.460000   6.100000   4.740000
  Angles:   90.000000  90.000000  90.000000

Effective grid spacing dv^(1/3) = 0.1500

                     log10-error:    total        iterations:
           time      wfs    density  energy       poisson
iter:   1  09:18:29                -250.838728            -1.0,+0.0,+0.0
iter:   2  09:19:26  -0.40  -0.91  -257.258747            +0.9,+0.0,-0.0
iter:   3  09:20:24  -1.02  -0.96  -242.258894            +0.1,+0.0,-0.0
iter:   4  09:21:21  -1.01  -1.00  -238.394523            -0.0,+0.0,-0.0
iter:   5  09:22:18  -0.70  -1.10  -230.765132            -0.0,+0.0,+0.0
iter:   6  09:23:16  -1.68  -1.29  -223.831796            -0.0,+0.0,-0.0
iter:   7  09:24:13  -2.52  -1.38  -223.814946            -0.1,+0.0,-0.0
iter:   8  09:25:10  -2.56  -1.38  -223.721102            -0.1,+0.0,-0.0
iter:   9  09:26:08  -2.14  -1.39  -225.592648            -0.2,-0.0,-0.0
iter:  10  09:27:05  -2.06  -1.37  -225.954506            -0.2,-0.0,-0.0
iter:  11  09:28:02  -2.79  -1.34  -222.940618            -0.1,+0.0,+0.0
iter:  12  09:29:00  -3.55  -1.50  -222.941732            -0.2,-0.0,+0.0
iter:  13  09:29:57  -1.93  -1.51  -223.924782            +0.5,-0.0,-0.0
iter:  14  09:30:54  -2.40  -1.62  -223.015198            -0.2,-0.0,-0.1
iter:  15  09:31:52  -3.61  -1.77  -222.782100            -0.3,-0.0,-0.1
iter:  16  09:32:49  -3.23  -1.80  -222.476375            -0.4,-0.0,-0.1
iter:  17  09:33:46  -3.64  -1.89  -222.620838            -0.4,-0.0,-0.3
iter:  18  09:34:44  -3.49  -1.88  -222.694888            -0.7,-0.0,-0.2
iter:  19  09:35:41  -2.95  -1.92  -222.978903            -1.2,-0.0,-0.5
iter:  20  09:36:38  -3.66  -1.98  -222.860499            -1.4,-0.0,-0.6
iter:  21  09:37:36  -3.11  -2.11  -224.031608            -3.0,-0.0,-1.2
iter:  22  09:38:33  -3.05  -1.98  -222.922859            -1.3,-0.0,-0.7
iter:  23  09:39:31  -2.94  -2.12  -222.948998            -0.6,-0.0,-0.7
iter:  24  09:40:28  -2.83  -2.06  -223.740036            -2.3,-0.1,-1.5
iter:  25  09:41:25  -3.25  -2.06  -223.773473            -2.1,-0.1,-1.0
iter:  26  09:42:23  -2.81  -2.05  -225.191384            -4.2,-0.2,-1.2
iter:  27  09:43:20  -3.23  -1.98  -225.351862            -4.8,-0.2,-1.3
iter:  28  09:44:17  -2.80  -2.01  -225.857564            -5.8,-0.2,-2.1
iter:  29  09:45:15  -2.17  -1.99  -226.597658            -6.4,-0.3,-2.8
iter:  30  09:46:12  -2.69  -1.96  -225.544588            -6.0,-0.3,-1.5
iter:  31  09:47:10  -2.60  -2.00  -226.379137            -6.9,-0.4,-1.3
iter:  32  09:48:07  -1.31  -1.97  -237.786628            -6.0,-0.6,-1.3
iter:  33  09:49:04  -1.24  -1.62  -227.517210            -7.1,-0.5,-1.2
iter:  34  09:50:01  -2.68  -1.98  -227.198249            -6.9,-0.5,-1.2
iter:  35  09:50:59  -3.13  -2.00  -227.580323            -7.6,-0.6,-1.2
iter:  36  09:51:56  -1.78  -1.98  -231.115341            -9.5,-0.8,-1.4
iter:  37  09:52:53  -2.71  -1.83  -233.017779            -8.1,-0.6,-1.2
iter:  38  09:53:51  -1.72  -1.80  -224.768896            -2.3,-0.1,-0.5
iter:  39  09:54:48  -1.16  -1.89  -239.866210            -3.9,-0.3,-0.7
iter:  40  09:55:45  -1.99  -1.60  -224.417520            -2.7,-0.2,-0.6
iter:  41  09:56:42  -2.32  -1.96  -223.911262            -2.9,-0.2,-0.6
iter:  42  09:57:40  -2.52  -2.11  -225.892714            -5.0,-0.3,-0.9
iter:  43  09:58:37  -2.38  -2.11  -227.934334            -9.8,-0.5,-1.7
iter:  44  09:59:34  -3.28  -2.05  -227.958754            -9.3,-0.5,-1.6
iter:  45  10:00:31  -4.18  -2.05  -227.939741            -9.3,-0.5,-1.6
iter:  46  10:01:28  -1.50  -2.08  -230.479656            -9.3,-0.5,-1.6
iter:  47  10:02:26  -1.94  -1.85  -227.806411            -9.3,-0.5,-1.6
iter:  48  10:03:23  -2.99  -2.34  -227.776988            -9.3,-0.5,-1.6
iter:  49  10:04:20  -3.42  -2.34  -227.740170            -9.3,-0.5,-1.6
iter:  50  10:05:17  -2.75  -2.35  -227.608547            -9.3,-0.5,-1.6
iter:  51  10:06:14  -3.40  -2.63  -227.600270            -9.3,-0.5,-1.6
iter:  52  10:07:11  -3.00  -2.73  -227.587435            -9.3,-0.5,-1.6
iter:  53  10:08:09  -4.10  -3.06  -227.581547            -9.3,-0.5,-1.6
iter:  54  10:09:06  -4.62  -3.13  -227.580946            -9.3,-0.5,-1.6
iter:  55  10:10:03  -4.84  -3.17  -227.580135            -9.3,-0.5,-1.6
iter:  56  10:11:00  -4.70  -3.38  -227.580245            -9.3,-0.5,-1.6
iter:  57  10:11:57  -5.19  -3.40  -227.580328            -9.3,-0.5,-1.6
iter:  58  10:12:55  -5.52  -3.42  -227.580353            -9.3,-0.5,-1.6
iter:  59  10:13:52  -5.42  -3.50  -227.580191            -9.2,-0.5,-1.6
iter:  60  10:14:49  -5.43  -3.56  -227.580272            -9.2,-0.5,-1.6
iter:  61  10:15:46  -5.46  -3.61  -227.579975            -9.2,-0.5,-1.7
iter:  62  10:16:43  -5.02  -3.66  -227.580584            -9.2,-0.5,-1.6
iter:  63  10:17:41  -3.75  -3.77  -227.582930            -9.2,-0.5,-1.2
iter:  64  10:18:38  -4.93  -3.75  -227.582806            -9.2,-0.5,-1.3
iter:  65  10:19:35  -5.44  -3.82  -227.582837            -9.2,-0.5,-1.2
iter:  66  10:20:32  -6.11  -3.97  -227.583404            -9.2,-0.5,-1.3
iter:  67  10:21:29  -5.95  -3.97  -227.584020            -9.2,-0.5,-1.2
iter:  68  10:22:27  -5.99  -3.99  -227.583938            -9.1,-0.5,-1.3
iter:  69  10:23:24  -5.68  -4.06  -227.584353            -9.1,-0.5,-1.2
iter:  70  10:24:21  -4.40  -4.23  -227.585721            -9.1,-0.5,-1.1
iter:  71  10:25:18  -5.92  -4.26  -227.585620            -9.1,-0.5,-1.1
iter:  72  10:26:15  -5.02  -4.28  -227.573084            -9.4,-0.5,-1.1
iter:  73  10:27:12  -4.77  -4.01  -227.586811            -9.0,-0.5,-1.1
iter:  74  10:28:09  -6.15  -4.14  -227.586853            -9.0,-0.5,-1.1
iter:  75  10:29:06  -6.42  -4.14  -227.586748            -9.0,-0.4,-1.0
iter:  76  10:30:04  -5.84  -4.16  -227.587130            -9.0,-0.4,-1.1
iter:  77  10:31:01  -5.81  -4.23  -227.587402            -9.0,-0.4,-1.1
iter:  78  10:31:58  -5.77  -4.38  -227.587478            -9.0,-0.4,-1.2
iter:  79  10:32:55  -6.48  -4.59  -227.587769            -9.0,-0.4,-1.1
iter:  80  10:33:52  -6.28  -4.70  -227.588138            -9.0,-0.4,-1.1
iter:  81  10:34:49  -6.96  -4.58  -227.588098            -8.9,-0.4,-1.1
iter:  82  10:35:46  -6.36  -4.49  -227.588377            -8.9,-0.4,-1.2
iter:  83  10:36:43  -5.60  -4.63  -227.588933            -8.9,-0.4,-1.2
iter:  84  10:37:41  -6.10  -4.72  -227.589024            -8.9,-0.4,-1.2
iter:  85  10:38:38  -6.45  -4.74  -227.589287            -8.9,-0.4,-1.2
iter:  86  10:39:35  -5.76  -4.81  -227.589753            -8.9,-0.3,-1.2
iter:  87  10:40:32  -6.07  -4.53  -227.589759            -8.9,-0.3,-1.2
iter:  88  10:41:29  -5.72  -4.45  -227.589954            -8.9,-0.2,-1.2
iter:  89  10:42:26  -5.71  -4.72  -227.590302            -8.9,-0.2,-1.2
iter:  90  10:43:23  -6.49  -4.96  -227.590385            -8.9,-0.2,-1.2
iter:  91  10:44:20  -6.34  -5.03  -227.590723            -8.9,-0.2,-1.2
iter:  92  10:45:17  -6.29  -5.06  -227.591132            -8.8,-0.2,-1.2
iter:  93  10:46:14  -6.31  -5.00  -227.590942            -8.8,-0.2,-1.2
iter:  94  10:47:11  -6.00  -4.65  -227.591500            -8.8,-0.2,-1.2
iter:  95  10:48:08  -5.35  -4.84  -227.592272            -8.8,-0.1,-1.1
iter:  96  10:49:05  -5.29  -4.88  -227.592241            -8.8,-0.1,-1.1
iter:  97  10:50:02  -6.24  -4.91  -227.592702            -8.8,-0.1,-1.1
iter:  98  10:50:59  -6.15  -4.93  -227.593421            -8.7,-0.1,-1.1
iter:  99  10:51:56  -6.08  -4.67  -227.593278            -8.6,-0.1,-1.1
iter: 100  10:52:53  -6.02  -4.28  -227.593872            -8.7,-0.1,-1.1
iter: 101  10:53:51  -5.39  -4.41  -227.594641            -8.7,-0.1,-1.0
iter: 102  10:54:48  -5.20  -4.74  -227.594483            -8.7,-0.1,-1.0
iter: 103  10:55:45  -6.03  -4.76  -227.595075            -8.6,-0.1,-1.0
iter: 104  10:56:42  -6.12  -4.78  -227.595807            -8.6,-0.1,-1.0
iter: 105  10:57:39  -6.00  -4.65  -227.595696            -8.5,-0.1,-1.0
iter: 106  10:58:36  -6.07  -4.31  -227.596290            -8.5,-0.1,-1.0
iter: 107  10:59:33  -5.48  -4.49  -227.597026            -8.5,-0.1,-0.9
iter: 108  11:00:30  -5.29  -4.62  -227.596882            -8.5,-0.1,-0.9
iter: 109  11:01:27  -6.17  -5.10  -227.597464            -8.5,-0.1,-0.9
iter: 110  11:02:24  -6.15  -4.80  -227.598177            -8.5,-0.1,-0.9
iter: 111  11:03:21  -6.01  -4.55  -227.598040            -8.4,-0.1,-0.9
iter: 112  11:04:18  -6.13  -4.27  -227.598633            -8.4,-0.1,-0.9
iter: 113  11:05:15  -5.55  -4.40  -227.599344            -8.4,-0.1,-0.9
iter: 114  11:06:11  -5.32  -4.57  -227.599176            -8.4,-0.1,-0.8
iter: 115  11:07:08  -6.16  -5.16  -227.599772            -8.4,-0.1,-0.8
iter: 116  11:08:05  -6.16  -4.74  -227.600461            -8.3,-0.1,-0.8
iter: 117  11:09:02  -5.97  -4.52  -227.600321            -8.2,-0.1,-0.9
iter: 118  11:09:59  -6.16  -4.22  -227.600916            -8.3,-0.1,-0.8
iter: 119  11:10:56  -5.61  -4.35  -227.601604            -8.3,-0.1,-0.8
iter: 120  11:11:53  -5.34  -4.49  -227.601435            -8.3,-0.1,-0.8
iter: 121  11:12:50  -6.15  -5.12  -227.602036            -8.2,-0.1,-0.8
iter: 122  11:13:47  -6.16  -4.66  -227.602702            -8.2,-0.1,-0.8
iter: 123  11:14:44  -5.91  -4.50  -227.602558            -8.1,-0.1,-0.8
iter: 124  11:15:41  -6.16  -4.21  -227.603156            -8.1,-0.1,-0.8
iter: 125  11:16:38  -5.66  -4.36  -227.603826            -8.1,-0.1,-0.8
iter: 126  11:17:35  -5.32  -4.48  -227.603655            -8.1,-0.1,-0.8
iter: 127  11:18:32  -6.09  -5.01  -227.604264            -8.1,-0.1,-0.8
iter: 128  11:19:29  -6.16  -4.71  -227.604913            -8.1,-0.1,-0.8
iter: 129  11:20:26  -5.85  -4.42  -227.604767            -8.0,-0.1,-0.8
iter: 130  11:21:22  -6.19  -4.19  -227.605376            -8.0,-0.1,-0.8
iter: 131  11:22:19  -5.67  -4.31  -227.606039            -8.0,-0.1,-0.8
iter: 132  11:23:16  -5.33  -4.29  -227.605882            -8.0,-0.1,-0.8
iter: 133  11:24:13  -6.10  -5.12  -227.606477            -8.0,-0.1,-0.8
iter: 134  11:25:10  -6.14  -4.74  -227.607119            -7.9,-0.1,-0.8
iter: 135  11:26:07  -5.83  -4.54  -227.606959            -7.8,-0.1,-0.8
iter: 136  11:27:04  -6.18  -4.19  -227.607575            -7.9,-0.1,-0.8
iter: 137  11:28:00  -5.72  -4.35  -227.608225            -7.8,-0.1,-0.8
iter: 138  11:28:57  -5.34  -4.51  -227.608065            -7.9,-0.1,-0.8
iter: 139  11:29:54  -6.12  -5.41  -227.608671            -7.8,-0.1,-0.8
iter: 140  11:30:50  -6.13  -4.68  -227.609305            -7.8,-0.1,-0.8
iter: 141  11:31:47  -5.79  -4.54  -227.609163            -7.7,-0.1,-0.8
iter: 142  11:32:44  -6.19  -4.21  -227.609765            -7.7,-0.1,-0.8
iter: 143  11:33:40  -5.74  -4.36  -227.610412            -7.7,-0.1,-0.8
iter: 144  11:34:37  -5.34  -4.48  -227.610259            -7.7,-0.1,-0.8
iter: 145  11:35:34  -6.11  -5.37  -227.610857            -7.7,-0.1,-0.8
iter: 146  11:36:30  -6.13  -4.68  -227.611490            -7.6,-0.1,-0.8
iter: 147  11:37:27  -5.75  -4.49  -227.611355            -7.5,-0.1,-0.8
iter: 148  11:38:23  -6.21  -4.17  -227.611953            -7.6,-0.1,-0.8
iter: 149  11:39:20  -5.76  -4.32  -227.612597            -7.6,-0.1,-0.8
iter: 150  11:40:17  -5.36  -4.42  -227.612455            -7.6,-0.1,-0.7
iter: 151  11:41:13  -6.12  -5.04  -227.613044            -7.6,-0.1,-0.7
iter: 152  11:42:10  -6.09  -4.63  -227.613676            -7.5,-0.1,-0.7
iter: 153  11:43:07  -5.72  -4.50  -227.613552            -7.4,-0.1,-0.7
iter: 154  11:44:03  -6.20  -4.18  -227.614140            -7.4,-0.1,-0.7
iter: 155  11:45:00  -5.78  -4.32  -227.614783            -7.4,-0.1,-0.7
iter: 156  11:45:56  -5.36  -4.43  -227.614648            -7.4,-0.1,-0.7
iter: 157  11:46:53  -6.06  -5.00  -227.615231            -7.4,-0.1,-0.7
iter: 158  11:47:50  -6.08  -4.65  -227.615862            -7.4,-0.1,-0.7
iter: 159  11:48:46  -5.68  -4.49  -227.615731            -7.2,-0.1,-0.7
iter: 160  11:49:43  -6.22  -4.12  -227.616330            -7.3,-0.1,-0.7
iter: 161  11:50:39  -5.80  -4.29  -227.616969            -7.3,-0.1,-0.7
iter: 162  11:51:36  -5.39  -4.43  -227.616849            -7.3,-0.1,-0.7
iter: 163  11:52:33  -6.14  -5.06  -227.617423            -7.3,-0.1,-0.7
iter: 164  11:53:29  -6.08  -4.74  -227.618058            -7.2,-0.1,-0.7
iter: 165  11:54:26  -5.67  -4.56  -227.617953            -7.1,-0.1,-0.7
iter: 166  11:55:23  -6.23  -4.14  -227.618529            -7.1,-0.1,-0.7
iter: 167  11:56:19  -5.83  -4.27  -227.619172            -7.1,-0.1,-0.7
iter: 168  11:57:16  -5.42  -4.41  -227.619051            -7.1,-0.1,-0.7
iter: 169  11:58:12  -6.17  -5.34  -227.619621            -7.1,-0.1,-0.7
iter: 170  11:59:09  -6.06  -4.67  -227.620258            -7.0,-0.1,-0.7
iter: 171  12:00:06  -5.64  -4.49  -227.620162            -6.9,-0.1,-0.7
iter: 172  12:01:02  -6.25  -4.15  -227.620729            -7.0,-0.1,-0.7
iter: 173  12:01:59  -5.85  -4.28  -227.621377            -7.0,-0.1,-0.7
iter: 174  12:02:55  -5.45  -4.41  -227.621265            -7.0,-0.1,-0.7
iter: 175  12:03:52  -6.19  -5.43  -227.621824            -6.9,-0.1,-0.7
iter: 176  12:04:48  -6.04  -4.65  -227.622468            -6.9,-0.1,-0.7
iter: 177  12:05:44  -5.61  -4.47  -227.622385            -6.8,-0.1,-0.7
iter: 178  12:06:41  -6.27  -4.15  -227.622939            -6.8,-0.1,-0.7
iter: 179  12:07:37  -5.87  -4.27  -227.623594            -6.8,-0.1,-0.7
iter: 180  12:08:34  -5.49  -4.38  -227.623497            -6.8,-0.1,-0.7
iter: 181  12:09:30  -6.22  -5.11  -227.624039            -6.8,-0.1,-0.7
iter: 182  12:10:26  -6.01  -4.57  -227.624692            -6.7,-0.1,-0.7
iter: 183  12:11:23  -5.58  -4.42  -227.624616            -6.6,-0.1,-0.7
iter: 184  12:12:19  -6.29  -4.14  -227.625159            -6.6,-0.1,-0.7
iter: 185  12:13:16  -5.89  -4.27  -227.625824            -6.6,-0.1,-0.7
iter: 186  12:14:12  -5.53  -4.36  -227.625739            -6.6,-0.1,-0.7
iter: 187  12:15:08  -6.25  -4.98  -227.626271            -6.6,-0.1,-0.7
iter: 188  12:16:05  -5.97  -4.60  -227.626929            -6.5,-0.1,-0.7
iter: 189  12:17:01  -5.57  -4.42  -227.626883            -6.4,-0.1,-0.7
iter: 190  12:17:57  -6.33  -4.12  -227.627399            -6.5,-0.1,-0.7
iter: 191  12:18:54  -5.89  -4.25  -227.628076            -6.4,-0.1,-0.7
iter: 192  12:19:50  -5.57  -4.41  -227.628011            -6.5,-0.1,-0.7
iter: 193  12:20:47  -6.25  -4.89  -227.628519            -6.4,-0.1,-0.7
iter: 194  12:21:43  -5.93  -4.62  -227.629194            -6.4,-0.1,-0.7
iter: 195  12:22:39  -5.54  -4.44  -227.629146            -6.2,-0.1,-0.7
iter: 196  12:23:35  -6.34  -4.11  -227.629652            -6.3,-0.1,-0.7
iter: 197  12:24:32  -5.90  -4.23  -227.630353            -6.3,-0.1,-0.7
iter: 198  12:25:28  -5.64  -4.42  -227.630290            -6.3,-0.1,-0.7
iter: 199  12:26:25  -6.32  -5.18  -227.630778            -6.3,-0.1,-0.7
iter: 200  12:27:21  -5.88  -4.61  -227.631478            -6.2,-0.1,-0.7
iter: 201  12:28:17  -5.52  -4.44  -227.631434            -6.1,-0.1,-0.7
iter: 202  12:29:14  -6.36  -4.16  -227.631963            -6.1,-0.1,-0.7
iter: 203  12:30:10  -5.91  -4.27  -227.632745            -6.1,-0.1,-0.7
iter: 204  12:31:07  -5.70  -4.37  -227.632621            -6.1,-0.1,-0.7
iter: 205  12:32:03  -6.32  -4.81  -227.633490            -6.1,-0.1,-0.7
iter: 206  12:33:00  -5.81  -4.58  -227.636253            -6.0,-0.1,-0.7
iter: 207  12:33:56  -5.52  -4.34  -227.634343            -5.9,-0.1,-0.7
iter: 208  12:34:53  -6.41  -4.15  -227.635336            -5.9,-0.1,-0.7
iter: 209  12:35:49  -5.89  -4.25  -227.637299            -5.9,-0.1,-0.7
iter: 210  12:36:45  -5.80  -4.42  -227.632634            -5.9,-0.1,-0.7
iter: 211  12:37:41  -6.32  -4.89  -227.637559            -5.9,-0.1,-0.7
iter: 212  12:38:38  -5.70  -4.70  -227.639389            -5.8,-0.1,-0.7
iter: 213  12:39:34  -5.54  -4.46  -227.637113            -5.7,-0.1,-0.7
iter: 214  12:40:31  -6.46  -4.17  -227.640972            -5.7,-0.1,-0.7
iter: 215  12:41:27  -5.85  -4.32  -227.641327            -5.7,-0.1,-0.7
iter: 216  12:42:24  -5.93  -4.52  -227.643784            -5.7,-0.1,-0.7
iter: 217  12:43:20  -6.33  -5.16  -227.644012            -5.6,-0.1,-0.7
iter: 218  12:44:16  -5.59  -4.89  -227.646058            -5.5,-0.1,-0.7
iter: 219  12:45:13  -5.57  -4.48  -227.645252            -5.4,-0.1,-0.7
iter: 220  12:46:09  -6.49  -4.25  -227.645240            -5.5,-0.1,-0.7
iter: 221  12:47:06  -5.81  -4.34  -227.648759            -5.4,-0.1,-0.7
iter: 222  12:48:02  -6.02  -4.52  -227.640983            -5.5,-0.1,-0.7
iter: 223  12:48:58  -6.20  -4.84  -227.645919            -5.4,-0.1,-0.7
iter: 224  12:49:55  -5.42  -4.49  -227.646997            -5.3,-0.1,-0.7
iter: 225  12:50:51  -5.60  -4.32  -227.644128            -5.2,-0.1,-0.7
iter: 226  12:51:48  -6.54  -4.14  -227.649460            -5.2,-0.1,-0.7
iter: 227  12:52:44  -5.69  -4.20  -227.650120            -5.2,-0.1,-0.7
iter: 228  12:53:40  -6.10  -4.45  -227.664018            -5.2,-0.1,-0.7
iter: 229  12:54:37  -6.18  -4.49  -227.653280            -5.2,-0.1,-0.7
iter: 230  12:55:33  -5.27  -4.28  -227.666777            -5.0,-0.1,-0.7
iter: 231  12:56:29  -5.55  -4.18  -227.689973            -4.9,-0.1,-0.7
iter: 232  12:57:26  -6.16  -4.04  -227.634054            -5.0,-0.1,-0.7
iter: 233  12:58:22  -5.58  -4.08  -227.645400            -4.9,-0.1,-0.7
iter: 234  12:59:19  -5.94  -4.30  -227.635053            -5.0,-0.1,-0.8
iter: 235  13:00:15  -5.68  -4.22  -227.682567            -4.9,-0.1,-0.8
iter: 236  13:01:12  -5.19  -4.42  -227.668306            -4.8,-0.1,-0.8
iter: 237  13:02:08  -5.54  -4.43  -227.681816            -4.7,-0.1,-0.8
iter: 238  13:03:05  -6.10  -4.19  -227.758520            -4.7,-0.1,-0.8
iter: 239  13:04:01  -5.49  -4.23  -227.723689            -4.7,-0.1,-0.8
iter: 240  13:04:57  -6.77  -4.54  -227.726895            -4.7,-0.1,-0.8
iter: 241  13:05:54  -5.70  -4.56  -227.728099            -4.6,-0.1,-0.8
iter: 242  13:06:50  -6.06  -4.61  -227.732046            -4.6,-0.1,-0.8
iter: 243  13:07:46  -6.22  -4.48  -227.696072            -4.5,-0.1,-0.8
iter: 244  13:08:43  -5.60  -4.32  -227.702798            -4.4,-0.1,-0.8
iter: 245  13:09:39  -6.18  -4.56  -227.671594            -4.5,-0.1,-0.8
iter: 246  13:10:36  -5.28  -4.92  -227.679105            -4.5,-0.1,-0.8
iter: 247  13:11:32  -6.03  -4.31  -227.733602            -4.5,-0.1,-0.8
iter: 248  13:12:28  -6.82  -4.75  -227.746180            -4.4,-0.1,-0.8
iter: 249  13:13:25  -5.22  -4.69  -227.677776            -4.5,-0.1,-0.8
iter: 250  13:14:21  -6.29  -4.71  -227.675751            -4.5,-0.1,-0.8
iter: 251  13:15:17  -4.84  -4.74  -227.701450            -4.3,-0.1,-0.7
iter: 252  13:16:14  -5.07  -4.65  -227.700468            -4.1,-0.1,-0.7
iter: 253  13:17:10  -6.29  -4.34  -227.696451            -4.1,-0.1,-0.7
iter: 254  13:18:06  -6.40  -4.56  -227.692155            -4.2,-0.1,-0.7
iter: 255  13:19:03  -6.04  -4.83  -227.693967            -4.1,-0.1,-0.7
iter: 256  13:19:59  -6.11  -4.76  -227.695699            -4.2,-0.1,-0.7
iter: 257  13:20:55  -5.24  -4.46  -227.704874            -4.0,-0.1,-0.7
iter: 258  13:21:52  -5.27  -4.74  -227.663471            -3.9,-0.1,-0.7
iter: 259  13:22:48  -5.78  -4.42  -227.679233            -3.9,-0.1,-0.7
iter: 260  13:23:45  -6.09  -4.37  -227.693304            -3.9,-0.1,-0.7
iter: 261  13:24:41  -6.13  -4.70  -227.695409            -3.9,-0.1,-0.7
iter: 262  13:25:38  -6.13  -4.74  -227.710476            -3.9,-0.1,-0.7
iter: 263  13:26:34  -4.92  -4.57  -227.718559            -3.7,-0.1,-0.7
iter: 264  13:27:30  -5.12  -4.65  -227.692506            -3.5,-0.1,-0.7
iter: 265  13:28:27  -5.75  -4.42  -227.682869            -3.5,-0.1,-0.7
iter: 266  13:29:23  -5.94  -4.30  -227.714232            -3.5,-0.1,-0.7
iter: 267  13:30:19  -6.11  -4.64  -227.713104            -3.5,-0.1,-0.7
iter: 268  13:31:16  -5.72  -4.66  -227.715397            -3.6,-0.1,-0.7
iter: 269  13:32:12  -4.30  -4.67  -227.718904            -3.2,-0.1,-0.7
iter: 270  13:33:08  -4.71  -4.50  -227.691004            -3.0,-0.1,-0.7
iter: 271  13:34:05  -5.98  -4.32  -227.713026            -3.0,-0.1,-0.7
iter: 272  13:35:01  -5.49  -4.30  -227.700661            -3.0,-0.1,-0.7
iter: 273  13:35:57  -6.85  -4.62  -227.693937            -3.0,-0.1,-0.7
iter: 274  13:36:53  -6.69  -4.65  -227.679836            -3.0,-0.1,-0.7
iter: 275  13:37:50  -6.79  -4.65  -227.670317            -3.0,-0.1,-0.7
iter: 276  13:38:46  -5.80  -4.68  -227.678930            -2.9,-0.1,-0.7
iter: 277  13:39:42  -6.40  -4.74  -227.681565            -2.9,-0.1,-0.7
iter: 278  13:40:39  -7.33  -4.78  -227.674936            -2.9,-0.1,-0.7
iter: 279  13:41:35  -6.44  -4.76  -227.662338            -2.8,-0.1,-0.7
iter: 280  13:42:31  -6.91  -4.79  -227.669506            -2.9,-0.1,-0.7
iter: 281  13:43:28  -6.62  -4.78  -227.675286            -2.8,-0.1,-0.7
iter: 282  13:44:24  -5.80  -4.99  -227.677491            -2.7,-0.1,-0.7
iter: 283  13:45:20  -5.65  -5.01  -227.672220            -2.7,-0.1,-0.7
iter: 284  13:46:16  -6.98  -5.03  -227.681681            -2.7,-0.1,-0.7
iter: 285  13:47:13  -6.64  -5.13  -227.681204            -2.7,-0.1,-0.7
iter: 286  13:48:09  -6.82  -4.94  -227.696111            -2.7,-0.1,-0.7
iter: 287  13:49:05  -6.50  -4.90  -227.682836            -2.6,-0.1,-0.7
iter: 288  13:50:02  -5.46  -4.94  -227.681318            -2.5,-0.1,-0.7
iter: 289  13:50:58  -5.25  -5.10  -227.669503            -2.4,-0.1,-0.7
iter: 290  13:51:54  -6.63  -5.00  -227.663229            -2.4,-0.1,-0.7
iter: 291  13:52:51  -6.53  -5.02  -227.668168            -2.4,-0.1,-0.6
iter: 292  13:53:47  -6.85  -4.94  -227.673143            -2.4,-0.1,-0.6
iter: 293  13:54:43  -6.56  -4.81  -227.675672            -2.4,-0.1,-0.6
iter: 294  13:55:40  -5.22  -4.91  -227.672699            -2.2,-0.1,-0.6
iter: 295  13:56:36  -5.08  -5.34  -227.666079            -2.1,-0.1,-0.6
iter: 296  13:57:32  -6.23  -5.15  -227.665802            -2.1,-0.1,-0.6
iter: 297  13:58:29  -6.40  -5.19  -227.667253            -2.1,-0.1,-0.6
iter: 298  13:59:25  -7.07  -5.22  -227.666682            -2.1,-0.1,-0.6
iter: 299  14:00:21  -7.38  -5.04  -227.667299            -2.1,-0.1,-0.6
iter: 300  14:01:18  -5.88  -4.99  -227.667563            -2.0,-0.1,-0.6
iter: 301  14:02:14  -6.49  -5.21  -227.667414            -2.0,-0.1,-0.6
iter: 302  14:03:11  -6.10  -5.30  -227.667671            -1.9,-0.1,-0.6
iter: 303  14:04:07  -4.88  -5.24  -227.668488            -1.7,-0.1,-0.6
iter: 304  14:05:03  -5.47  -4.82  -227.669399            -1.8,-0.1,-0.6
iter: 305  14:06:00  -6.74  -5.05  -227.669224            -1.8,-0.1,-0.6
iter: 306  14:06:56  -6.78  -5.02  -227.669364            -1.8,-0.1,-0.5
iter: 307  14:07:53  -6.89  -5.10  -227.667573            -1.8,-0.1,-0.5
iter: 308  14:08:49  -6.03  -5.08  -227.668151            -1.8,-0.1,-0.5
iter: 309  14:09:46  -4.83  -4.90  -227.672370            -1.6,-0.1,-0.5
iter: 310  14:10:42  -4.99  -5.00  -227.665909            -1.5,-0.1,-0.5
iter: 311  14:11:39  -6.43  -4.86  -227.660451            -1.5,-0.1,-0.5
iter: 312  14:12:35  -5.98  -4.91  -227.664119            -1.5,-0.1,-0.4
iter: 313  14:13:31  -6.92  -4.90  -227.661306            -1.5,-0.1,-0.5
iter: 314  14:14:28  -6.39  -4.99  -227.662104            -1.5,-0.1,-0.4
iter: 315  14:15:24  -5.81  -5.04  -227.660421            -1.4,-0.1,-0.5
iter: 316  14:16:21  -6.44  -5.06  -227.661539            -1.4,-0.1,-0.4
iter: 317  14:17:17  -6.17  -5.13  -227.662701            -1.4,-0.1,-0.5
iter: 318  14:18:13  -5.81  -4.81  -227.663030            -1.4,-0.1,-0.4
iter: 319  14:19:10  -6.78  -4.97  -227.664168            -1.4,-0.1,-0.4
iter: 320  14:20:06  -5.88  -4.90  -227.664959            -1.4,-0.1,-0.4
iter: 321  14:21:03  -4.94  -4.70  -227.664056            -1.2,-0.1,-0.4
iter: 322  14:21:59  -6.08  -5.32  -227.665755            -1.2,-0.1,-0.4
iter: 323  14:22:55  -5.79  -5.45  -227.666808            -1.2,-0.1,-0.5
iter: 324  14:23:52  -5.32  -4.67  -227.668651            -1.2,-0.1,-0.4
iter: 325  14:24:48  -6.60  -4.79  -227.669984            -1.2,-0.1,-0.4
iter: 326  14:25:45  -7.19  -4.77  -227.670136            -1.2,-0.1,-0.4
iter: 327  14:26:41  -7.25  -4.80  -227.663812            -1.2,-0.1,-0.4
iter: 328  14:27:37  -7.31  -4.89  -227.662644            -1.2,-0.1,-0.4
iter: 329  14:28:34  -5.89  -4.85  -227.664617            -1.1,-0.1,-0.4
iter: 330  14:29:30  -6.89  -4.81  -227.663636            -1.1,-0.1,-0.4
iter: 331  14:30:27  -7.17  -5.05  -227.663731            -1.1,-0.1,-0.4
iter: 332  14:31:23  -5.99  -5.09  -227.667453            -1.1,-0.1,-0.4
iter: 333  14:32:19  -6.74  -4.72  -227.663987            -1.1,-0.1,-0.4
iter: 334  14:33:16  -6.82  -4.77  -227.670361            -1.1,-0.1,-0.4
iter: 335  14:34:12  -6.00  -4.89  -227.663813            -1.2,-0.1,-0.4
iter: 336  14:35:09  -6.95  -4.80  -227.673602            -1.1,-0.1,-0.4
iter: 337  14:36:05  -5.64  -5.05  -227.673977            -1.1,-0.1,-0.4
iter: 338  14:37:02  -6.76  -5.12  -227.668122            -1.1,-0.1,-0.4
iter: 339  14:37:58  -6.60  -5.48  -227.668075            -1.0,-0.1,-0.3
iter: 340  14:38:54  -6.77  -5.12  -227.669107            -1.0,-0.1,-0.3
iter: 341  14:39:51  -7.38  -4.93  -227.667577            -1.0,-0.1,-0.3
iter: 342  14:40:47  -6.81  -4.85  -227.667626            -1.1,-0.1,-0.3
iter: 343  14:41:43  -7.43  -4.99  -227.672476            -1.0,-0.1,-0.3
iter: 344  14:42:40  -5.79  -5.22  -227.673400            -1.0,-0.1,-0.3
iter: 345  14:43:36  -7.04  -5.09  -227.670697            -1.0,-0.1,-0.3
iter: 346  14:44:33  -7.11  -5.39  -227.670260            -1.0,-0.1,-0.3
iter: 347  14:45:29  -7.35  -5.39  -227.670387            -1.0,-0.1,-0.3
iter: 348  14:46:25  -7.58  -5.17  -227.669892            -1.0,-0.1,-0.3
iter: 349  14:47:22  -7.43  -5.07  -227.669943            -1.0,-0.1,-0.3
iter: 350  14:48:18  -7.24  -5.13  -227.673076            -0.9,-0.1,-0.3
iter: 351  14:49:15  -7.41  -5.41  -227.673011            -0.9,-0.1,-0.3
iter: 352  14:50:11  -7.05  -5.39  -227.672500            -0.9,-0.1,-0.3
iter: 353  14:51:07  -6.28  -5.53  -227.672030            -0.9,-0.1,-0.3
iter: 354  14:52:03  -7.48  -5.30  -227.672071            -0.9,-0.1,-0.3
iter: 355  14:53:00  -6.55  -5.25  -227.672759            -0.9,-0.0,-0.3
iter: 356  14:53:56  -7.68  -5.32  -227.672365            -0.9,-0.0,-0.3
iter: 357  14:54:53  -7.29  -5.34  -227.672293            -0.9,-0.0,-0.3
iter: 358  14:55:49  -6.43  -5.41  -227.672307            -0.8,-0.0,-0.3
iter: 359  14:56:46  -7.53  -5.44  -227.672014            -0.8,-0.0,-0.3
iter: 360  14:57:42  -7.04  -5.74  -227.672019            -0.8,-0.0,-0.3
iter: 361  14:58:39  -6.04  -5.44  -227.671736            -0.8,-0.0,-0.3
iter: 362  14:59:35  -7.07  -4.85  -227.672430            -0.8,-0.0,-0.3
iter: 363  15:00:32  -7.04  -4.94  -227.672392            -0.8,-0.0,-0.3
iter: 364  15:01:28  -5.66  -5.00  -227.672298            -0.7,-0.0,-0.3
iter: 365  15:02:25  -6.82  -4.97  -227.673084            -0.7,-0.0,-0.3
iter: 366  15:03:21  -6.84  -5.07  -227.674050            -0.7,-0.0,-0.2
iter: 367  15:04:18  -7.33  -5.52  -227.673591            -0.7,-0.0,-0.2
iter: 368  15:05:14  -8.04  -5.34  -227.673702            -0.7,-0.0,-0.2
iter: 369  15:06:11  -7.13  -5.28  -227.673878            -0.7,-0.0,-0.2
iter: 370  15:07:07  -7.26  -5.34  -227.673508            -0.7,-0.0,-0.2
iter: 371  15:08:04  -6.99  -5.39  -227.673628            -0.7,-0.0,-0.2
iter: 372  15:09:00  -7.60  -5.42  -227.673819            -0.7,-0.0,-0.2
iter: 373  15:09:57  -6.82  -5.68  -227.673681            -0.7,-0.0,-0.2
iter: 374  15:10:53  -8.20  -5.30  -227.673449            -0.7,-0.0,-0.2
iter: 375  15:11:50  -7.49  -5.38  -227.673584            -0.7,-0.0,-0.2
iter: 376  15:12:46  -6.18  -5.39  -227.672754            -0.6,-0.0,-0.2
iter: 377  15:13:43  -7.69  -5.19  -227.673103            -0.6,-0.0,-0.2
iter: 378  15:14:39  -6.97  -5.28  -227.673871            -0.6,-0.0,-0.2
iter: 379  15:15:36  -6.88  -5.48  -227.673911            -0.6,-0.0,-0.2
iter: 380  15:16:32  -7.59  -5.17  -227.674017            -0.6,-0.0,-0.2
iter: 381  15:17:29  -7.54  -5.17  -227.673855            -0.6,-0.0,-0.2
iter: 382  15:18:25  -7.37  -5.41  -227.673482            -0.6,-0.0,-0.2
iter: 383  15:19:22  -7.71  -5.54  -227.672022            -0.6,-0.0,-0.2
iter: 384  15:20:18  -6.97  -5.66  -227.671868            -0.6,-0.0,-0.2
iter: 385  15:21:14  -6.95  -5.57  -227.673000            -0.6,-0.0,-0.2
iter: 386  15:22:11  -7.16  -5.30  -227.672870            -0.6,-0.0,-0.2
iter: 387  15:23:07  -7.07  -5.72  -227.673033            -0.6,-0.0,-0.2
iter: 388  15:24:04  -7.27  -5.56  -227.672930            -0.6,-0.0,-0.2
iter: 389  15:25:00  -6.76  -5.21  -227.672877            -0.6,-0.0,-0.2
iter: 390  15:25:57  -6.46  -5.55  -227.672800            -0.6,-0.0,-0.2
iter: 391  15:26:54  -6.96  -5.67  -227.672680            -0.5,+0.0,-0.2
iter: 392  15:27:50  -7.18  -5.26  -227.672736            -0.5,+0.0,-0.2
iter: 393  15:28:47  -7.06  -5.66  -227.672774            -0.5,+0.0,-0.2
iter: 394  15:29:43  -7.38  -5.52  -227.672662            -0.5,-0.0,-0.2
iter: 395  15:30:40  -6.87  -5.21  -227.672695            -0.5,+0.0,-0.2
iter: 396  15:31:36  -6.64  -5.62  -227.672655            -0.5,+0.0,-0.2
iter: 397  15:32:33  -7.15  -5.69  -227.672501            -0.5,+0.0,-0.2
iter: 398  15:33:29  -7.19  -5.32  -227.672169            -0.5,+0.0,-0.2
iter: 399  15:34:26  -7.08  -5.98  -227.672209            -0.5,+0.0,-0.2
iter: 400  15:35:22  -7.49  -5.44  -227.672177            -0.5,+0.0,-0.2
iter: 401  15:36:19  -6.96  -5.19  -227.671877            -0.5,+0.0,-0.2
iter: 402  15:37:15  -6.80  -5.57  -227.671800            -0.5,+0.0,-0.2
iter: 403  15:38:12  -7.33  -5.90  -227.671830            -0.5,+0.0,-0.2
iter: 404  15:39:08  -7.18  -5.43  -227.672168            -0.5,+0.0,-0.2
iter: 405  15:40:05  -7.09  -5.85  -227.671983            -0.5,+0.0,-0.1
iter: 406  15:41:02  -7.54  -5.38  -227.671887            -0.5,+0.0,-0.1
iter: 407  15:41:58  -6.91  -5.17  -227.672155            -0.5,+0.0,-0.1
iter: 408  15:42:55  -6.71  -5.57  -227.672274            -0.4,+0.0,-0.1
iter: 409  15:43:51  -7.40  -5.83  -227.672137            -0.4,+0.0,-0.1
iter: 410  15:44:48  -7.17  -5.44  -227.672444            -0.4,+0.0,-0.1
iter: 411  15:45:44  -7.11  -5.84  -227.672795            -0.4,+0.0,-0.1
iter: 412  15:46:41  -7.57  -5.41  -227.672331            -0.4,+0.0,-0.1
iter: 413  15:47:37  -6.89  -5.18  -227.672775            -0.4,+0.0,-0.1
iter: 414  15:48:34  -6.80  -5.62  -227.673267            -0.4,+0.0,-0.1
iter: 415  15:49:31  -7.42  -5.78  -227.673159            -0.4,+0.0,-0.1
iter: 416  15:50:27  -7.13  -5.45  -227.672631            -0.4,+0.0,-0.1
iter: 417  15:51:24  -7.16  -5.86  -227.672704            -0.4,+0.0,-0.1
iter: 418  15:52:20  -7.64  -5.40  -227.672976            -0.4,+0.0,-0.1
iter: 419  15:53:17  -6.90  -5.21  -227.672547            -0.4,+0.0,-0.1
iter: 420  15:54:13  -6.74  -5.62  -227.672198            -0.4,+0.0,-0.1
iter: 421  15:55:10  -7.55  -6.08  -227.672072            -0.4,+0.0,-0.1
iter: 422  15:56:07  -7.16  -5.57  -227.672565            -0.4,+0.0,-0.1
iter: 423  15:57:03  -7.16  -5.80  -227.672689            -0.4,+0.0,-0.1
iter: 424  15:57:59  -7.71  -5.37  -227.672354            -0.4,+0.0,-0.1
iter: 425  15:58:56  -7.08  -5.18  -227.672857            -0.4,+0.0,-0.1
iter: 426  15:59:52  -7.10  -5.65  -227.673130            -0.4,+0.0,-0.1
iter: 427  16:00:49  -7.68  -6.12  -227.673100            -0.4,+0.0,-0.1
iter: 428  16:01:45  -7.16  -5.56  -227.672955            -0.4,+0.0,-0.1
iter: 429  16:02:42  -7.21  -5.75  -227.672894            -0.4,+0.0,-0.1
iter: 430  16:03:38  -7.62  -5.37  -227.672817            -0.4,+0.0,-0.1
iter: 431  16:04:35  -6.74  -5.20  -227.673173            -0.3,+0.0,-0.1
iter: 432  16:05:31  -6.96  -5.64  -227.672709            -0.3,+0.0,-0.1
iter: 433  16:06:28  -7.68  -6.16  -227.672801            -0.3,+0.0,-0.1
iter: 434  16:07:24  -7.08  -5.60  -227.672950            -0.3,+0.0,-0.1
iter: 435  16:08:21  -7.21  -5.67  -227.672827            -0.3,+0.0,-0.1
iter: 436  16:09:17  -7.51  -5.34  -227.672812            -0.3,-0.0,-0.1
iter: 437  16:10:14  -6.60  -5.18  -227.672946            -0.3,+0.0,-0.1
iter: 438  16:11:10  -7.05  -5.70  -227.672853            -0.3,+0.0,-0.1
iter: 439  16:12:07  -7.76  -6.17  -227.672691            -0.3,+0.0,-0.1
iter: 440  16:13:03  -7.16  -5.63  -227.672482            -0.3,+0.0,-0.1
iter: 441  16:14:00  -7.27  -5.68  -227.672011            -0.3,+0.0,-0.1
iter: 442  16:14:56  -7.84  -5.37  -227.672147            -0.3,+0.0,-0.1
iter: 443  16:15:53  -7.09  -5.21  -227.671875            -0.3,+0.0,-0.1
iter: 444  16:16:49  -7.18  -5.70  -227.671509            -0.3,+0.0,-0.1
iter: 445  16:17:46  -7.76  -5.98  -227.671735            -0.3,+0.0,-0.1
iter: 446  16:18:43  -7.13  -5.57  -227.671941            -0.3,+0.0,-0.1
iter: 447  16:19:39  -7.25  -5.74  -227.671708            -0.3,+0.0,-0.1
iter: 448  16:20:35  -7.50  -5.38  -227.671717            -0.3,+0.0,-0.1
iter: 449  16:21:32  -6.59  -5.21  -227.671918            -0.3,+0.0,-0.1
iter: 450  16:22:28  -7.10  -5.78  -227.671852            -0.3,+0.0,-0.1
iter: 451  16:23:25  -7.78  -6.05  -227.671804            -0.3,+0.0,-0.1
iter: 452  16:24:21  -7.20  -5.58  -227.671772            -0.3,+0.0,-0.1
iter: 453  16:25:18  -7.31  -5.78  -227.671790            -0.3,+0.0,-0.1
iter: 454  16:26:14  -7.82  -5.41  -227.671803            -0.3,+0.0,-0.1
iter: 455  16:27:11  -7.08  -5.24  -227.671839            -0.3,+0.0,-0.1
iter: 456  16:28:07  -7.15  -5.71  -227.671850            -0.3,+0.0,-0.1
iter: 457  16:29:04  -7.69  -6.08  -227.671869            -0.3,+0.0,-0.1
iter: 458  16:30:00  -7.15  -5.60  -227.671967            -0.3,+0.0,-0.1
iter: 459  16:30:57  -7.24  -5.74  -227.672038            -0.3,+0.0,-0.1
iter: 460  16:31:53  -7.04  -5.38  -227.672005            -0.3,+0.0,-0.1
iter: 461  16:32:50  -6.25  -5.22  -227.671995            -0.3,+0.0,-0.1
iter: 462  16:33:46  -7.02  -5.70  -227.671972            -0.2,+0.0,-0.1
iter: 463  16:34:43  -7.73  -6.28  -227.671901            -0.2,+0.0,-0.1
iter: 464  16:35:39  -7.35  -5.64  -227.671903            -0.2,+0.0,-0.1
iter: 465  16:36:35  -7.31  -5.84  -227.672048            -0.2,+0.0,-0.1
iter: 466  16:37:32  -7.84  -5.42  -227.671872            -0.2,+0.0,-0.1
iter: 467  16:38:28  -7.38  -5.24  -227.672132            -0.2,+0.0,-0.1
iter: 468  16:39:25  -7.31  -5.64  -227.672529            -0.2,+0.0,-0.1
iter: 469  16:40:22  -7.90  -6.58  -227.672377            -0.2,+0.0,-0.1
iter: 470  16:41:18  -7.35  -5.66  -227.672357            -0.2,+0.0,-0.1
iter: 471  16:42:14  -7.31  -5.85  -227.672361            -0.2,+0.0,-0.1
iter: 472  16:43:11  -7.87  -5.42  -227.672302            -0.2,+0.0,-0.1
iter: 473  16:44:07  -7.34  -5.24  -227.672428            -0.2,+0.0,-0.1
iter: 474  16:45:04  -7.28  -5.64  -227.672386            -0.2,+0.0,-0.1
iter: 475  16:46:00  -7.64  -6.42  -227.672348            -0.2,+0.0,-0.1
iter: 476  16:46:57  -7.18  -5.66  -227.672411            -0.2,+0.0,-0.1
iter: 477  16:47:53  -7.18  -5.81  -227.672315            -0.2,+0.0,-0.1
iter: 478  16:48:49  -6.89  -5.41  -227.672461            -0.2,+0.0,-0.1
iter: 479  16:49:46  -6.74  -5.23  -227.672171            -0.2,+0.0,-0.1
iter: 480  16:50:42  -7.31  -5.67  -227.671896            -0.2,+0.0,-0.1
iter: 481  16:51:39  -7.92  -6.35  -227.671608            -0.2,+0.0,-0.1
iter: 482  16:52:35  -7.35  -5.64  -227.671593            -0.2,+0.0,-0.1
iter: 483  16:53:32  -7.32  -5.87  -227.672210            -0.2,+0.0,-0.1
iter: 484  16:54:29  -7.92  -5.41  -227.672204            -0.2,+0.0,-0.1
iter: 485  16:55:25  -7.40  -5.24  -227.672228            -0.2,+0.0,-0.1
iter: 486  16:56:22  -7.42  -5.64  -227.672261            -0.2,+0.0,-0.1
iter: 487  16:57:18  -8.03  -6.33  -227.672258            -0.2,+0.0,-0.1
iter: 488  16:58:15  -7.35  -5.70  -227.672146            -0.2,+0.0,-0.1
iter: 489  16:59:11  -7.35  -5.77  -227.672015            -0.2,+0.0,-0.1
iter: 490  17:00:07  -7.95  -5.40  -227.672138            -0.2,+0.0,-0.1
iter: 491  17:01:04  -7.36  -5.24  -227.672042            -0.2,+0.0,-0.1
iter: 492  17:02:00  -7.39  -5.64  -227.671886            -0.2,+0.0,-0.1
iter: 493  17:02:57  -7.83  -6.26  -227.671895            -0.2,+0.0,-0.1
iter: 494  17:03:53  -7.26  -5.71  -227.672166            -0.2,+0.0,-0.1
iter: 495  17:04:50  -7.30  -5.73  -227.672118            -0.2,+0.0,-0.1
iter: 496  17:05:46  -7.24  -5.39  -227.672104            -0.2,+0.0,-0.1
iter: 497  17:06:43  -6.91  -5.24  -227.672160            -0.2,+0.0,-0.1
iter: 498  17:07:39  -7.40  -5.63  -227.672167            -0.2,+0.0,-0.1
iter: 499  17:08:36  -8.05  -6.30  -227.672136            -0.2,+0.0,-0.1
iter: 500  17:09:32  -7.38  -5.73  -227.672108            -0.2,+0.0,-0.1
iter: 501  17:10:29  -7.37  -5.76  -227.672171            -0.2,+0.0,-0.1
iter: 502  17:11:25  -8.02  -5.39  -227.672220            -0.2,+0.0,-0.1
iter: 503  17:12:22  -7.47  -5.25  -227.672251            -0.2,+0.0,-0.1
iter: 504  17:13:18  -7.49  -5.65  -227.672485            -0.2,+0.0,-0.1
iter: 505  17:14:14  -8.14  -6.59  -227.672516            -0.2,+0.0,-0.1
iter: 506  17:15:11  -7.39  -5.79  -227.672509            -0.2,+0.0,-0.1
iter: 507  17:16:07  -7.39  -5.74  -227.672424            -0.2,+0.0,-0.1
iter: 508  17:17:04  -8.10  -5.39  -227.672494            -0.2,+0.0,-0.1
iter: 509  17:18:00  -7.49  -5.25  -227.672432            -0.2,+0.0,-0.1
iter: 510  17:18:57  -7.50  -5.66  -227.672325            -0.2,+0.0,-0.1
iter: 511  17:19:53  -8.13  -6.50  -227.672478            -0.2,+0.0,-0.1
iter: 512  17:20:50  -7.38  -5.80  -227.672486            -0.2,+0.0,-0.0
iter: 513  17:21:46  -7.40  -5.73  -227.672470            -0.2,+0.0,-0.0
iter: 514  17:22:42  -7.84  -5.39  -227.672513            -0.2,+0.0,-0.0
iter: 515  17:23:39  -7.26  -5.25  -227.672364            -0.1,+0.0,-0.0
iter: 516  17:24:36  -7.48  -5.67  -227.672318            -0.1,+0.0,-0.0
iter: 517  17:25:32  -8.19  -6.46  -227.672292            -0.1,+0.0,-0.0
iter: 518  17:26:28  -7.37  -5.78  -227.672356            -0.1,+0.0,-0.0
iter: 519  17:27:25  -7.42  -5.74  -227.672330            -0.1,+0.0,-0.0
iter: 520  17:28:21  -8.09  -5.39  -227.672341            -0.1,+0.0,-0.0
iter: 521  17:29:18  -7.41  -5.26  -227.672534            -0.1,+0.0,-0.0
iter: 522  17:30:14  -7.52  -5.67  -227.672627            -0.1,+0.0,-0.0
iter: 523  17:31:11  -8.01  -6.62  -227.672512            -0.1,+0.0,-0.0
iter: 524  17:32:07  -7.30  -5.82  -227.672533            -0.1,+0.0,-0.0
iter: 525  17:33:03  -7.37  -5.71  -227.672601            -0.1,+0.0,-0.0
iter: 526  17:34:00  -7.23  -5.38  -227.672570            -0.1,+0.0,-0.0
iter: 527  17:34:56  -7.12  -5.26  -227.672515            -0.1,+0.0,-0.0
iter: 528  17:35:52  -7.45  -5.67  -227.672617            -0.1,+0.0,-0.0
iter: 529  17:36:49  -8.17  -6.50  -227.672679            -0.1,+0.0,-0.0
iter: 530  17:37:46  -7.34  -5.87  -227.672731            -0.1,+0.0,-0.0
iter: 531  17:38:42  -7.43  -5.67  -227.672630            -0.1,+0.0,-0.0
iter: 532  17:39:38  -7.60  -5.38  -227.672622            -0.1,+0.0,-0.0
iter: 533  17:40:35  -7.37  -5.26  -227.672582            -0.1,+0.0,-0.0
iter: 534  17:41:31  -7.54  -5.66  -227.672609            -0.1,+0.0,-0.0
iter: 535  17:42:28  -8.28  -6.50  -227.672557            -0.1,+0.0,-0.0
iter: 536  17:43:24  -7.42  -5.88  -227.672657            -0.1,+0.0,-0.0
iter: 537  17:44:20  -7.45  -5.66  -227.672488            -0.1,+0.0,-0.0
iter: 538  17:45:17  -8.11  -5.39  -227.672510            -0.1,+0.0,-0.0
iter: 539  17:46:13  -7.49  -5.27  -227.672529            -0.1,+0.0,-0.0
iter: 540  17:47:10  -7.57  -5.65  -227.672432            -0.1,+0.0,-0.0
iter: 541  17:48:06  -8.29  -6.32  -227.672596            -0.1,+0.0,-0.0
iter: 542  17:49:03  -7.42  -5.87  -227.672519            -0.1,+0.0,-0.0
iter: 543  17:49:59  -7.47  -5.72  -227.672536            -0.1,+0.0,-0.0
iter: 544  17:50:56  -8.07  -5.38  -227.672708            -0.1,+0.0,-0.0
iter: 545  17:51:52  -7.34  -5.25  -227.672232            -0.1,+0.0,-0.0
iter: 546  17:52:49  -7.51  -5.73  -227.672036            -0.1,+0.0,-0.0
iter: 547  17:53:45  -7.87  -6.04  -227.672007            -0.1,+0.0,-0.0
iter: 548  17:54:41  -7.29  -5.74  -227.672203            -0.1,+0.0,-0.0
iter: 549  17:55:38  -7.35  -5.72  -227.672145            -0.1,+0.0,-0.0
iter: 550  17:56:34  -7.04  -5.41  -227.672396            -0.1,+0.0,-0.0
iter: 551  17:57:30  -6.99  -5.26  -227.672492            -0.1,+0.0,-0.0
iter: 552  17:58:27  -7.44  -5.63  -227.672544            -0.1,+0.0,-0.0
iter: 553  17:59:23  -8.21  -6.26  -227.672565            -0.1,+0.0,-0.0
iter: 554  18:00:19  -7.43  -5.96  -227.672473            -0.1,+0.0,-0.0
iter: 555  18:01:16  -7.44  -5.69  -227.672654            -0.1,+0.0,-0.0
iter: 556  18:02:12  -7.69  -5.35  -227.672541            -0.1,+0.0,-0.0
iter: 557  18:03:08  -7.38  -5.25  -227.672544            -0.1,+0.0,-0.0
iter: 558  18:04:05  -7.58  -5.60  -227.672656            -0.1,+0.0,-0.0
iter: 559  18:05:01  -8.33  -6.33  -227.672558            -0.1,+0.0,-0.0
iter: 560  18:05:57  -7.54  -5.96  -227.672455            -0.1,+0.0,-0.0
iter: 561  18:06:54  -7.47  -5.77  -227.672592            -0.1,+0.0,-0.0
iter: 562  18:07:50  -8.26  -5.39  -227.672564            -0.1,+0.0,-0.0
iter: 563  18:08:46  -7.64  -5.28  -227.672506            -0.1,+0.0,-0.0
iter: 564  18:09:43  -7.60  -5.63  -227.672623            -0.1,+0.0,-0.0
iter: 565  18:10:39  -8.32  -6.72  -227.672589            -0.1,+0.0,-0.0
iter: 566  18:11:35  -7.50  -5.93  -227.672487            -0.1,+0.0,-0.0
iter: 567  18:12:32  -7.46  -5.77  -227.672563            -0.1,+0.0,-0.0
iter: 568  18:13:28  -7.58  -5.40  -227.672543            -0.1,+0.0,-0.0
iter: 569  18:14:24  -7.03  -5.29  -227.672527            -0.1,+0.0,-0.0
iter: 570  18:15:21  -7.51  -5.64  -227.672630            -0.1,+0.0,-0.0
iter: 571  18:16:17  -8.26  -6.58  -227.672704            -0.1,+0.0,-0.0
iter: 572  18:17:13  -7.68  -5.95  -227.672785            -0.1,+0.0,-0.0
iter: 573  18:18:10  -7.47  -5.80  -227.672720            -0.1,+0.0,-0.0
iter: 574  18:19:06  -8.12  -5.41  -227.672733            -0.1,+0.0,-0.0
iter: 575  18:20:02  -7.69  -5.29  -227.672647            -0.1,+0.0,-0.0
iter: 576  18:20:58  -7.56  -5.60  -227.672622            -0.1,+0.0,-0.0
iter: 577  18:21:55  -8.31  -6.46  -227.672618            -0.1,+0.0,-0.0
iter: 578  18:22:51  -7.61  -5.96  -227.672678            -0.1,+0.0,-0.0
iter: 579  18:23:47  -7.46  -5.81  -227.672687            -0.1,+0.0,-0.0
iter: 580  18:24:43  -7.62  -5.42  -227.672693            -0.1,+0.0,-0.0
iter: 581  18:25:39  -6.98  -5.30  -227.672692            -0.1,+0.0,-0.0
iter: 582  18:26:36  -7.47  -5.61  -227.672670            -0.1,+0.0,-0.0
iter: 583  18:27:32  -8.19  -6.41  -227.672661            -0.1,+0.0,-0.0
iter: 584  18:28:28  -7.82  -5.92  -227.672681            -0.1,+0.0,-0.0
iter: 585  18:29:24  -7.47  -5.99  -227.672683            -0.1,+0.0,-0.0
iter: 586  18:30:20  -8.04  -5.46  -227.672668            -0.1,+0.0,-0.0
iter: 587  18:31:17  -7.74  -5.32  -227.672703            -0.1,+0.0,-0.0
iter: 588  18:32:13  -7.52  -5.55  -227.672733            -0.1,+0.0,-0.0
iter: 589  18:33:10  -8.25  -6.43  -227.672692            -0.1,+0.0,-0.0
iter: 590  18:34:06  -7.72  -5.98  -227.672615            -0.1,+0.0,-0.0
iter: 591  18:35:03  -7.45  -5.88  -227.672596            -0.1,+0.0,-0.0
iter: 592  18:35:59  -7.52  -5.44  -227.672625            -0.1,+0.0,-0.0
iter: 593  18:36:55  -6.85  -5.31  -227.672605            -0.1,+0.0,-0.0
iter: 594  18:37:52  -7.39  -5.58  -227.672574            -0.1,+0.0,-0.0
iter: 595  18:38:48  -8.09  -6.25  -227.672595            -0.1,+0.0,-0.0
iter: 596  18:39:44  -8.00  -5.91  -227.672637            -0.1,+0.0,-0.0
iter: 597  18:40:41  -7.49  -6.10  -227.672646            -0.1,+0.0,-0.0
iter: 598  18:41:37  -8.02  -5.49  -227.672636            -0.1,+0.0,-0.0
iter: 599  18:42:34  -8.05  -5.32  -227.672639            -0.1,+0.0,-0.0
iter: 600  18:43:30  -7.54  -5.52  -227.672641            -0.1,+0.0,-0.0
iter: 601  18:44:26  -8.21  -6.28  -227.672612            -0.1,+0.0,-0.0
iter: 602  18:45:23  -7.99  -5.96  -227.672594            -0.1,+0.0,-0.0
iter: 603  18:46:19  -7.49  -6.05  -227.672605            -0.1,+0.0,-0.0
iter: 604  18:47:15  -8.04  -5.48  -227.672607            -0.1,+0.0,-0.0
iter: 605  18:48:12  -7.78  -5.32  -227.672596            -0.1,+0.0,-0.0
iter: 606  18:49:08  -7.55  -5.54  -227.672585            -0.1,+0.0,-0.0
iter: 607  18:50:05  -8.13  -6.33  -227.672533            -0.1,+0.0,-0.0
iter: 608  18:51:01  -7.97  -5.95  -227.672526            -0.1,+0.0,-0.0
iter: 609  18:51:57  -7.48  -6.19  -227.672498            -0.1,+0.0,-0.0
iter: 610  18:52:53  -7.81  -5.50  -227.672509            -0.1,+0.0,-0.0
iter: 611  18:53:50  -7.41  -5.34  -227.672522            -0.1,+0.0,-0.0
iter: 612  18:54:46  -7.47  -5.52  -227.672543            -0.1,+0.0,-0.0
iter: 613  18:55:42  -8.38  -6.40  -227.672559            -0.1,+0.0,-0.0
iter: 614  18:56:38  -7.79  -6.06  -227.672582            -0.1,+0.0,-0.0
iter: 615  18:57:35  -7.50  -5.88  -227.672622            -0.1,+0.0,-0.0
iter: 616  18:58:31  -8.19  -5.43  -227.672580            -0.1,+0.0,-0.0
iter: 617  18:59:27  -7.53  -5.34  -227.672640            -0.1,+0.0,-0.0
iter: 618  19:00:24  -7.59  -5.60  -227.672690            -0.1,+0.0,-0.0
iter: 619  19:01:20  -8.40  -6.39  -227.672666            -0.1,+0.0,-0.0
iter: 620  19:02:16  -7.84  -6.11  -227.672571            -0.1,+0.0,-0.0
iter: 621  19:03:13  -7.46  -5.94  -227.672591            -0.1,+0.0,-0.0
iter: 622  19:04:09  -7.87  -5.42  -227.672628            -0.1,+0.0,-0.0
iter: 623  19:05:05  -7.41  -5.34  -227.672677            -0.1,+0.0,-0.0
iter: 624  19:06:02  -7.43  -5.57  -227.672694            -0.1,+0.0,-0.0
iter: 625  19:06:58  -7.70  -6.60  -227.672716            -0.1,+0.0,-0.0
iter: 626  19:07:54  -7.14  -6.30  -227.672721            -0.1,+0.0,-0.0
iter: 627  19:08:51  -6.87  -5.76  -227.672734            -0.1,+0.0,-0.0
iter: 628  19:09:47  -6.27  -5.40  -227.672725            -0.1,+0.0,-0.0
iter: 629  19:10:44  -5.97  -5.30  -227.672732            -0.1,+0.0,-0.0
iter: 630  19:11:40  -7.31  -5.50  -227.672752            -0.1,+0.0,-0.0
iter: 631  19:12:36  -7.55  -5.85  -227.672740            -0.1,+0.0,-0.0
iter: 632  19:13:33  -7.88  -5.86  -227.672717            -0.1,+0.0,-0.0
iter: 633  19:14:29  -7.75  -6.26  -227.672718            -0.1,+0.0,-0.0
iter: 634  19:15:26  -8.06  -5.75  -227.672724            -0.1,+0.0,-0.0
iter: 635  19:16:22  -7.93  -5.50  -227.672736            -0.1,+0.0,-0.0
iter: 636  19:17:19  -6.63  -5.44  -227.672743            -0.1,+0.0,-0.0
iter: 637  19:18:15  -6.79  -5.50  -227.672725            -0.1,+0.0,-0.0
iter: 638  19:19:11  -7.54  -5.86  -227.672763            -0.1,+0.0,-0.0
iter: 639  19:20:07  -8.12  -5.92  -227.672936            -0.1,+0.0,-0.0
iter: 640  19:21:04  -7.68  -6.17  -227.673034            -0.1,+0.0,-0.0
iter: 641  19:22:00  -8.02  -5.86  -227.672906            -0.1,+0.0,-0.0
iter: 642  19:22:56  -7.12  -5.52  -227.672882            -0.1,+0.0,-0.0
iter: 643  19:23:53  -6.94  -5.48  -227.673020            -0.1,+0.0,-0.0
iter: 644  19:24:49  -7.78  -5.42  -227.673026            -0.1,+0.0,-0.0
iter: 645  19:25:45  -8.12  -5.44  -227.674149            -0.1,+0.0,-0.0
iter: 646  19:26:41  -7.34  -5.29  -227.672496            -0.1,+0.0,-0.0
iter: 647  19:27:38  -8.32  -5.93  -227.673820            -0.1,+0.0,-0.0
iter: 648  19:28:34  -8.35  -6.01  -227.673787            -0.1,+0.0,-0.0
iter: 649  19:29:30  -8.64  -6.21  -227.673905            -0.1,+0.0,-0.0
iter: 650  19:30:26  -8.19  -6.08  -227.674033            -0.1,+0.0,-0.0
iter: 651  19:31:22  -8.54  -5.68  -227.673854            -0.1,+0.0,-0.0
iter: 652  19:32:19  -7.89  -5.57  -227.673889            -0.1,+0.0,-0.0
iter: 653  19:33:15  -7.81  -5.48  -227.673032            -0.1,+0.0,-0.0
iter: 654  19:34:11  -7.43  -5.40  -227.672842            -0.1,+0.0,-0.0
iter: 655  19:35:08  -7.25  -5.56  -227.674006            -0.1,+0.0,-0.0
iter: 656  19:36:04  -7.51  -5.93  -227.674108            -0.1,+0.0,-0.0
iter: 657  19:37:01  -7.36  -5.95  -227.673595            -0.1,+0.0,-0.0
iter: 658  19:37:57  -7.35  -6.47  -227.673533            -0.1,+0.0,-0.0
iter: 659  19:38:53  -7.35  -5.57  -227.673624            -0.1,+0.0,-0.0
iter: 660  19:39:50  -7.07  -5.40  -227.673112            -0.1,+0.0,-0.0
iter: 661  19:40:46  -7.19  -5.51  -227.673272            -0.1,+0.0,-0.0
iter: 662  19:41:43  -7.47  -6.19  -227.673266            -0.1,+0.0,-0.0
iter: 663  19:42:39  -8.05  -6.05  -227.673211            -0.1,-0.0,-0.0
iter: 664  19:43:36  -7.35  -6.35  -227.673221            -0.1,+0.0,-0.0
iter: 665  19:44:32  -7.60  -5.47  -227.673201            -0.1,-0.0,-0.0
iter: 666  19:45:29  -7.57  -5.44  -227.673166            -0.1,+0.0,-0.0
iter: 667  19:46:26  -7.69  -5.59  -227.673317            -0.1,+0.0,-0.0
iter: 668  19:47:22  -8.15  -5.90  -227.673396            -0.1,+0.0,-0.0
iter: 669  19:48:19  -7.36  -6.24  -227.673340            -0.1,-0.0,-0.0
iter: 670  19:49:15  -7.82  -5.81  -227.673381            -0.1,-0.0,-0.0
iter: 671  19:50:12  -8.31  -5.87  -227.673368            -0.1,-0.0,-0.0
iter: 672  19:51:08  -7.88  -6.22  -227.673344            -0.1,-0.0,-0.0
iter: 673  19:52:05  -8.09  -5.76  -227.673390            -0.1,-0.0,-0.0
iter: 674  19:53:01  -7.42  -5.73  -227.673255            -0.1,-0.0,-0.0
iter: 675  19:53:58  -7.58  -5.89  -227.672811            -0.1,-0.0,-0.0
iter: 676  19:54:54  -8.12  -5.60  -227.673022            -0.1,-0.0,-0.0
iter: 677  19:55:51  -7.93  -6.29  -227.673002            -0.1,-0.0,-0.0
iter: 678  19:56:47  -7.26  -6.01  -227.673172            -0.1,-0.0,-0.0
iter: 679  19:57:44  -8.05  -5.35  -227.673103            -0.1,-0.0,-0.0
iter: 680  19:58:40  -7.79  -5.57  -227.672954            -0.1,-0.0,-0.0
iter: 681  19:59:36  -7.04  -5.79  -227.672931            -0.1,-0.0,-0.0
iter: 682  20:00:32  -8.06  -5.57  -227.672810            -0.1,-0.0,-0.0
iter: 683  20:01:29  -7.95  -6.09  -227.672821            -0.1,-0.0,-0.0
iter: 684  20:02:25  -7.32  -6.14  -227.672929            -0.1,-0.0,-0.0
iter: 685  20:03:21  -8.26  -5.33  -227.673218            -0.1,-0.0,-0.0
iter: 686  20:04:18  -7.88  -5.53  -227.673062            -0.0,-0.0,-0.0
iter: 687  20:05:14  -7.32  -5.75  -227.672949            -0.0,-0.0,-0.0
iter: 688  20:06:10  -8.39  -5.67  -227.672872            -0.0,-0.0,-0.0
iter: 689  20:07:07  -7.95  -6.10  -227.673011            -0.0,-0.0,-0.0
iter: 690  20:08:03  -7.44  -6.14  -227.673042            -0.0,-0.0,-0.0
iter: 691  20:08:59  -8.46  -5.38  -227.672998            -0.0,-0.0,-0.0
iter: 692  20:09:56  -8.04  -5.55  -227.672923            -0.0,-0.0,-0.0
iter: 693  20:10:52  -7.54  -5.83  -227.672915            -0.0,-0.0,-0.0
iter: 694  20:11:48  -8.47  -5.67  -227.673072            -0.0,-0.0,-0.0
iter: 695  20:12:45  -7.96  -6.11  -227.673144            -0.0,-0.0,-0.0
iter: 696  20:13:41  -7.41  -6.18  -227.673091            -0.0,-0.0,-0.0
iter: 697  20:14:38  -8.40  -5.37  -227.673173            -0.0,-0.0,-0.0
iter: 698  20:15:34  -8.00  -5.54  -227.673188            -0.0,-0.0,-0.0
iter: 699  20:16:31  -7.32  -5.80  -227.673179            -0.0,-0.0,-0.0
iter: 700  20:17:27  -8.19  -5.66  -227.673118            -0.0,-0.0,-0.0
iter: 701  20:18:23  -7.94  -6.10  -227.673099            -0.0,-0.0,-0.0
iter: 702  20:19:20  -7.35  -6.19  -227.673133            -0.0,-0.0,-0.0
iter: 703  20:20:16  -7.61  -5.39  -227.673034            -0.0,-0.0,-0.0
iter: 704  20:21:13  -7.98  -5.54  -227.673027            -0.0,-0.0,-0.0
iter: 705  20:22:09  -7.53  -5.82  -227.672951            -0.0,-0.0,-0.0
iter: 706  20:23:06  -8.52  -5.74  -227.672960            -0.0,-0.0,-0.0
iter: 707  20:24:02  -7.90  -6.12  -227.672973            -0.0,-0.0,-0.0
iter: 708  20:24:59  -7.51  -6.04  -227.672974            -0.0,-0.0,-0.0
iter: 709  20:25:55  -7.98  -5.41  -227.673004            -0.0,-0.0,-0.0
iter: 710  20:26:52  -7.69  -5.54  -227.673028            -0.0,-0.0,-0.0
iter: 711  20:27:48  -7.67  -5.87  -227.673060            -0.0,-0.0,-0.0
iter: 712  20:28:45  -8.63  -5.75  -227.673060            -0.0,-0.0,-0.0
iter: 713  20:29:41  -7.92  -6.12  -227.673083            -0.0,-0.0,-0.0
iter: 714  20:30:38  -7.56  -6.07  -227.673082            -0.0,-0.0,-0.0
iter: 715  20:31:34  -8.64  -5.41  -227.673092            -0.0,-0.0,-0.0
iter: 716  20:32:31  -7.83  -5.55  -227.673093            -0.0,-0.0,-0.0
iter: 717  20:33:27  -7.47  -5.88  -227.673103            -0.0,-0.0,-0.0
iter: 718  20:34:23  -8.43  -5.77  -227.673124            -0.0,-0.0,-0.0
iter: 719  20:35:20  -7.88  -6.14  -227.673145            -0.0,-0.0,-0.0
iter: 720  20:36:16  -7.57  -6.05  -227.673142            -0.0,-0.0,-0.0
iter: 721  20:37:13  -8.13  -5.43  -227.673160            -0.0,-0.0,-0.0
iter: 722  20:38:09  -7.68  -5.54  -227.673187            -0.0,-0.0,-0.0
iter: 723  20:39:06  -7.71  -5.91  -227.673221            -0.0,-0.0,-0.0
iter: 724  20:40:02  -8.80  -5.78  -227.673204            -0.0,-0.0,-0.0
iter: 725  20:40:59  -7.95  -6.14  -227.673201            -0.0,-0.0,-0.0
iter: 726  20:41:55  -7.59  -6.09  -227.673202            -0.0,-0.0,-0.0
iter: 727  20:42:52  -8.76  -5.43  -227.673201            -0.0,-0.0,-0.0
iter: 728  20:43:48  -7.94  -5.55  -227.673210            -0.0,-0.0,-0.0
iter: 729  20:44:45  -7.61  -5.89  -227.673219            -0.0,-0.0,-0.0
iter: 730  20:45:41  -8.61  -5.80  -227.673216            -0.0,-0.0,-0.0
iter: 731  20:46:38  -7.90  -6.16  -227.673220            -0.0,-0.0,-0.0
iter: 732  20:47:35  -7.59  -6.04  -227.673222            -0.0,-0.0,-0.0
iter: 733  20:48:31  -8.28  -5.43  -227.673221            -0.0,-0.0,-0.0
iter: 734  20:49:28  -7.45  -5.54  -227.673227            -0.0,-0.0,-0.0
iter: 735  20:50:24  -7.35  -5.89  -227.673232            -0.0,-0.0,-0.0
iter: 736  20:51:21  -8.05  -5.76  -227.673231            -0.0,-0.0,-0.0
iter: 737  20:52:17  -8.02  -6.11  -227.673236            -0.0,-0.0,-0.0
iter: 738  20:53:14  -7.52  -6.26  -227.673238            -0.0,-0.0,-0.0
iter: 739  20:54:10  -7.92  -5.44  -227.673237            -0.0,-0.0,-0.0
iter: 740  20:55:07  -7.12  -5.55  -227.673243            -0.0,+0.0,-0.0
iter: 741  20:56:03  -7.17  -5.81  -227.673247            -0.0,+0.0,-0.0
iter: 742  20:57:00  -8.38  -5.83  -227.673245            -0.0,+0.0,-0.0
iter: 743  20:57:56  -7.85  -6.11  -227.673249            -0.0,+0.0,-0.0
iter: 744  20:58:52  -7.53  -6.06  -227.673249            -0.0,+0.0,-0.0
iter: 745  20:59:49  -8.17  -5.42  -227.673253            -0.0,+0.0,-0.0
iter: 746  21:00:45  -7.34  -5.53  -227.673256            -0.0,+0.0,-0.0
iter: 747  21:01:42  -7.58  -5.81  -227.673253            -0.0,+0.0,-0.0
iter: 748  21:02:39  -8.88  -5.85  -227.673255            -0.0,+0.0,-0.0
iter: 749  21:03:35  -7.87  -6.09  -227.673260            -0.0,+0.0,-0.0
iter: 750  21:04:31  -7.69  -5.99  -227.673262            -0.0,+0.0,-0.0
iter: 751  21:05:28  -8.98  -5.46  -227.673261            -0.0,+0.0,-0.0
iter: 752  21:06:25  -7.81  -5.53  -227.673267            -0.0,+0.0,-0.0
iter: 753  21:07:21  -7.58  -5.92  -227.673264            -0.0,+0.0,-0.0
iter: 754  21:08:17  -8.62  -5.88  -227.673248            -0.0,+0.0,-0.0
iter: 755  21:09:14  -7.84  -6.09  -227.673237            -0.0,+0.0,-0.0
iter: 756  21:10:10  -7.74  -5.97  -227.673244            -0.0,+0.0,-0.0
iter: 757  21:11:07  -8.23  -5.48  -227.673247            -0.0,+0.0,-0.0
iter: 758  21:12:04  -7.32  -5.55  -227.673246            -0.0,+0.0,-0.0
iter: 759  21:13:01  -7.77  -6.09  -227.673244            -0.0,+0.0,-0.0
iter: 760  21:13:57  -8.46  -5.88  -227.673254            -0.0,+0.0,-0.0
iter: 761  21:14:53  -7.84  -6.10  -227.673264            -0.0,+0.0,-0.0
iter: 762  21:15:50  -7.63  -6.01  -227.673268            -0.0,+0.0,-0.0
iter: 763  21:16:46  -7.45  -5.50  -227.673273            -0.0,+0.0,-0.0
iter: 764  21:17:43  -7.03  -5.56  -227.673273            -0.0,+0.0,-0.0
iter: 765  21:18:39  -7.65  -6.44  -227.673279            -0.0,+0.0,-0.0
iter: 766  21:19:36  -7.79  -5.97  -227.673291            -0.0,+0.0,-0.0
iter: 767  21:20:32  -7.39  -6.28  -227.673302            -0.0,+0.0,-0.0
iter: 768  21:21:29  -7.13  -5.70  -227.673305            -0.0,+0.0,-0.0
iter: 769  21:22:26  -6.64  -5.52  -227.673300            -0.0,-0.0,-0.0
iter: 770  21:23:22  -6.65  -5.56  -227.673301            -0.0,+0.0,-0.0
iter: 771  21:24:19  -7.60  -5.48  -227.673277            -0.0,+0.0,-0.0
iter: 772  21:25:15  -8.80  -6.02  -227.673250            -0.0,+0.0,-0.0
iter: 773  21:26:12  -6.98  -6.02  -227.673185            -0.0,+0.0,+0.0
iter: 774  21:27:08  -6.90  -5.25  -227.673308            -0.0,+0.0,-0.0
iter: 775  21:28:05  -8.27  -5.82  -227.673278            -0.0,+0.0,-0.0
iter: 776  21:29:02  -7.42  -5.81  -227.673318            -0.0,+0.0,-0.0
iter: 777  21:29:58  -8.03  -5.34  -227.673283            -0.0,+0.0,-0.0
iter: 778  21:30:54  -8.35  -5.68  -227.673249            -0.0,+0.0,-0.0
iter: 779  21:31:51  -7.32  -5.80  -227.673257            -0.0,+0.0,-0.0
iter: 780  21:32:47  -7.89  -5.50  -227.673287            -0.0,+0.0,-0.0
iter: 781  21:33:43  -8.32  -6.32  -227.673291            -0.0,+0.0,-0.0
iter: 782  21:34:40  -6.92  -6.42  -227.673285            -0.0,+0.0,-0.0
iter: 783  21:35:37  -7.49  -5.19  -227.673293            -0.0,+0.0,-0.0
iter: 784  21:36:33  -8.50  -5.53  -227.673303            -0.0,+0.0,-0.0
iter: 785  21:37:29  -7.07  -5.60  -227.673318            -0.0,+0.0,-0.0
iter: 786  21:38:26  -7.85  -5.46  -227.673337            -0.0,+0.0,-0.0
iter: 787  21:39:22  -8.58  -6.11  -227.673339            -0.0,+0.0,-0.0
iter: 788  21:40:18  -7.29  -6.58  -227.673342            -0.0,+0.0,-0.0
iter: 789  21:41:14  -8.04  -5.40  -227.673348            -0.0,+0.0,-0.0
iter: 790  21:42:11  -8.01  -5.53  -227.673347            -0.0,+0.0,-0.0
iter: 791  21:43:07  -7.59  -5.64  -227.673366            -0.0,+0.0,-0.0
iter: 792  21:44:03  -8.98  -5.92  -227.673422            -0.0,+0.0,-0.0
iter: 793  21:45:00  -8.32  -6.27  -227.673437            -0.0,+0.0,-0.0
iter: 794  21:45:56  -7.53  -6.27  -227.673399            -0.0,+0.0,+0.0
iter: 795  21:46:52  -8.75  -5.44  -227.673503            -0.0,+0.0,-0.0
iter: 796  21:47:49  -8.29  -5.58  -227.673536            -0.0,+0.0,-0.0
iter: 797  21:48:45  -7.54  -5.78  -227.673525            -0.0,+0.0,-0.0
iter: 798  21:49:41  -8.73  -5.77  -227.673487            -0.0,+0.0,-0.0
iter: 799  21:50:38  -8.31  -6.11  -227.673503            -0.0,+0.0,-0.0
iter: 800  21:51:34  -7.41  -6.60  -227.673488            -0.0,+0.0,-0.0
iter: 801  21:52:30  -8.71  -5.42  -227.673472            -0.0,+0.0,-0.0
iter: 802  21:53:26  -8.34  -5.54  -227.673481            -0.0,+0.0,-0.0
iter: 803  21:54:22  -7.30  -5.69  -227.673476            -0.0,+0.0,-0.0
iter: 804  21:55:19  -8.14  -5.81  -227.673463            -0.0,+0.0,-0.0
iter: 805  21:56:15  -7.86  -6.10  -227.673466            -0.0,+0.0,-0.0
iter: 806  21:57:11  -7.18  -6.68  -227.673464            -0.0,+0.0,-0.0
iter: 807  21:58:07  -7.18  -5.44  -227.673469            -0.0,+0.0,-0.0
iter: 808  21:59:03  -8.12  -5.57  -227.673468            -0.0,+0.0,-0.0
iter: 809  22:00:00  -7.75  -5.68  -227.673473            -0.0,+0.0,-0.0
iter: 810  22:00:56  -8.75  -6.12  -227.673472            -0.0,+0.0,-0.0
iter: 811  22:01:52  -7.75  -6.23  -227.673472            -0.0,+0.0,-0.0
iter: 812  22:02:48  -8.14  -5.78  -227.673475            -0.0,+0.0,-0.0
iter: 813  22:03:44  -8.01  -5.55  -227.673481            -0.0,+0.0,-0.0
iter: 814  22:04:41  -7.59  -5.62  -227.673479            -0.0,+0.0,-0.0
iter: 815  22:05:37  -8.78  -6.07  -227.673496            -0.0,+0.0,-0.0
iter: 816  22:06:33  -8.43  -6.13  -227.673521            -0.0,+0.0,-0.0
iter: 817  22:07:29  -8.08  -6.10  -227.673537            -0.0,+0.0,+0.0
iter: 818  22:08:26  -8.31  -5.68  -227.673519            -0.0,+0.0,+0.0
iter: 819  22:09:22  -7.94  -5.64  -227.673501            -0.0,+0.0,-0.0
iter: 820  22:10:18  -7.98  -5.77  -227.673398            -0.0,+0.0,+0.0
iter: 821  22:11:14  -8.67  -5.79  -227.673440            -0.0,+0.0,-0.0
iter: 822  22:12:10  -8.10  -6.19  -227.673427            -0.0,+0.0,-0.0
iter: 823  22:13:06  -7.61  -5.99  -227.673549            -0.0,+0.0,-0.0
iter: 824  22:14:03  -8.41  -5.41  -227.673354            -0.0,+0.0,+0.0
iter: 825  22:14:59  -8.24  -5.62  -227.673352            -0.0,+0.0,+0.0
iter: 826  22:15:55  -7.58  -5.86  -227.673406            -0.0,+0.0,+0.0
iter: 827  22:16:51  -8.41  -5.63  -227.673452            -0.0,+0.0,+0.0
iter: 828  22:17:48  -8.18  -6.10  -227.673461            -0.0,+0.0,+0.0
iter: 829  22:18:44  -7.47  -6.28  -227.673419            -0.0,+0.0,+0.0
iter: 830  22:19:40  -8.29  -5.41  -227.673458            -0.0,+0.0,+0.0
iter: 831  22:20:36  -7.89  -5.60  -227.673451            -0.0,+0.0,+0.0
iter: 832  22:21:32  -7.43  -5.81  -227.673368            -0.0,+0.0,+0.0
iter: 833  22:22:28  -8.29  -5.65  -227.673392            -0.0,+0.0,+0.0
iter: 834  22:23:24  -8.31  -6.13  -227.673413            -0.0,+0.0,+0.0
iter: 835  22:24:20  -7.49  -6.44  -227.673396            -0.0,+0.0,+0.0
iter: 836  22:25:16  -8.31  -5.43  -227.673465            -0.0,+0.0,+0.0
iter: 837  22:26:13  -8.30  -5.61  -227.673484            -0.0,+0.0,+0.0
iter: 838  22:27:09  -7.58  -5.80  -227.673530            -0.0,+0.0,+0.0
iter: 839  22:28:05  -8.54  -5.70  -227.673489            -0.0,+0.0,+0.0
iter: 840  22:29:01  -8.31  -6.14  -227.673459            -0.0,+0.0,+0.0
iter: 841  22:29:57  -7.45  -6.52  -227.673467            -0.0,+0.0,+0.0
iter: 842  22:30:53  -8.30  -5.41  -227.673455            -0.0,+0.0,+0.0
iter: 843  22:31:50  -7.76  -5.60  -227.673465            -0.0,+0.0,+0.0
iter: 844  22:32:46  -7.18  -5.79  -227.673467            -0.0,+0.0,+0.0
iter: 845  22:33:42  -8.47  -5.73  -227.673449            -0.0,+0.0,+0.0
iter: 846  22:34:38  -8.21  -6.16  -227.673441            -0.0,+0.0,+0.0
iter: 847  22:35:34  -7.51  -6.38  -227.673455            -0.0,+0.0,+0.0
iter: 848  22:36:30  -8.30  -5.43  -227.673430            -0.0,+0.0,+0.0
iter: 849  22:37:26  -7.63  -5.60  -227.673433            -0.0,-0.0,+0.0
iter: 850  22:38:22  -7.42  -5.80  -227.673426            -0.0,-0.0,+0.0
iter: 851  22:39:18  -8.65  -5.78  -227.673434            -0.0,-0.0,+0.0
iter: 852  22:40:15  -8.17  -6.16  -227.673439            -0.0,-0.0,+0.0
iter: 853  22:41:11  -7.57  -6.29  -227.673441            -0.0,-0.0,+0.0
iter: 854  22:42:07  -8.43  -5.45  -227.673446            -0.0,-0.0,+0.0
iter: 855  22:43:03  -7.70  -5.59  -227.673451            -0.0,-0.0,+0.0
iter: 856  22:43:59  -7.59  -5.82  -227.673458            -0.0,-0.0,+0.0
iter: 857  22:44:55  -8.83  -5.83  -227.673458            -0.0,-0.0,+0.0
iter: 858  22:45:52  -8.14  -6.17  -227.673464            -0.0,-0.0,+0.0
iter: 859  22:46:48  -7.68  -6.18  -227.673465            -0.0,-0.0,+0.0
iter: 860  22:47:44  -8.79  -5.47  -227.673478            -0.0,-0.0,+0.0
iter: 861  22:48:40  -7.91  -5.60  -227.673481            -0.0,-0.0,+0.0
iter: 862  22:49:37  -7.62  -5.87  -227.673488            -0.0,-0.0,+0.0
iter: 863  22:50:33  -8.88  -5.86  -227.673501            -0.0,-0.0,+0.0
iter: 864  22:51:29  -8.12  -6.20  -227.673520            -0.0,-0.0,+0.0
iter: 865  22:52:25  -7.73  -6.16  -227.673515            -0.0,-0.0,+0.0
iter: 866  22:53:21  -8.77  -5.49  -227.673481            -0.0,-0.0,+0.0
iter: 867  22:54:18  -7.84  -5.59  -227.673476            -0.0,-0.0,+0.0
iter: 868  22:55:14  -7.73  -5.89  -227.673447            -0.0,-0.0,+0.0
iter: 869  22:56:10  -9.02  -5.90  -227.673434            -0.0,-0.0,+0.0
iter: 870  22:57:06  -8.07  -6.23  -227.673445            -0.0,-0.0,+0.0
iter: 871  22:58:03  -7.79  -6.07  -227.673443            -0.0,-0.0,+0.0
iter: 872  22:58:59  -8.99  -5.49  -227.673454            -0.0,-0.0,+0.0
iter: 873  22:59:55  -8.00  -5.59  -227.673442            -0.0,-0.0,+0.0
iter: 874  23:00:51  -7.64  -5.93  -227.673533            -0.0,-0.0,+0.0
iter: 875  23:01:47  -8.75  -5.90  -227.673489            -0.0,-0.0,+0.0
iter: 876  23:02:44  -8.11  -6.22  -227.673490            -0.0,-0.0,+0.0
iter: 877  23:03:40  -7.72  -6.09  -227.673481            -0.0,-0.0,+0.0
iter: 878  23:04:36  -8.85  -5.47  -227.673493            -0.0,-0.0,+0.0
iter: 879  23:05:32  -7.78  -5.58  -227.673513            -0.0,-0.0,+0.0
iter: 880  23:06:28  -7.41  -5.82  -227.673540            -0.0,-0.0,+0.0
iter: 881  23:07:25  -8.66  -5.84  -227.673530            -0.0,-0.0,+0.0
iter: 882  23:08:21  -8.42  -6.18  -227.673538            -0.0,-0.0,+0.0
iter: 883  23:09:17  -7.65  -6.42  -227.673533            -0.0,-0.0,+0.0
iter: 884  23:10:13  -9.10  -5.50  -227.673504            -0.0,-0.0,+0.0
iter: 885  23:11:10  -8.25  -5.60  -227.673507            -0.0,-0.0,+0.0
iter: 886  23:12:06  -7.66  -5.81  -227.673502            -0.0,-0.0,+0.0
iter: 887  23:13:02  -9.04  -5.85  -227.673505            -0.0,-0.0,+0.0
iter: 888  23:13:58  -8.45  -6.16  -227.673510            -0.0,-0.0,+0.0
iter: 889  23:14:55  -7.56  -6.56  -227.673515            -0.0,-0.0,+0.0
iter: 890  23:15:51  -8.78  -5.48  -227.673511            -0.0,-0.0,+0.0
iter: 891  23:16:47  -8.22  -5.59  -227.673515            -0.0,-0.0,+0.0
iter: 892  23:17:43  -7.63  -5.75  -227.673519            -0.0,-0.0,+0.0
iter: 893  23:18:39  -8.99  -5.84  -227.673521            -0.0,-0.0,+0.0
iter: 894  23:19:35  -8.46  -6.12  -227.673525            -0.0,-0.0,+0.0
iter: 895  23:20:32  -7.54  -6.62  -227.673528            -0.0,-0.0,+0.0
iter: 896  23:21:28  -8.95  -5.48  -227.673529            -0.0,-0.0,+0.0
iter: 897  23:22:24  -8.48  -5.58  -227.673533            -0.0,-0.0,+0.0
iter: 898  23:23:20  -7.56  -5.73  -227.673539            -0.0,-0.0,+0.0
iter: 899  23:24:17  -8.33  -5.90  -227.673539            -0.0,-0.0,+0.0
iter: 900  23:25:13  -8.32  -6.11  -227.673541            -0.0,-0.0,+0.0
iter: 901  23:26:09  -7.65  -6.60  -227.673547            -0.0,-0.0,+0.0
iter: 902  23:27:05  -8.57  -5.53  -227.673546            -0.0,-0.0,+0.0
iter: 903  23:28:01  -7.48  -5.59  -227.673547            -0.0,+0.0,+0.0
iter: 904  23:28:57  -7.74  -5.77  -227.673547            -0.0,+0.0,+0.0
iter: 905  23:29:53  -9.07  -6.02  -227.673551            -0.0,+0.0,+0.0
iter: 906  23:30:49  -8.33  -6.18  -227.673559            -0.0,+0.0,+0.0
iter: 907  23:31:45  -7.92  -6.20  -227.673566            -0.0,-0.0,+0.0
iter: 908  23:32:41  -9.06  -5.59  -227.673570            -0.0,+0.0,+0.0
iter: 909  23:33:38  -8.25  -5.62  -227.673571            -0.0,+0.0,+0.0
iter: 910  23:34:34  -8.27  -5.96  -227.673573            -0.0,+0.0,+0.0
iter: 911  23:35:30  -9.12  -6.16  -227.673569            -0.0,+0.0,+0.0
iter: 912  23:36:26  -9.04  -6.26  -227.673564            -0.0,+0.0,+0.0
iter: 913  23:37:22  -8.23  -6.27  -227.673587            -0.0,+0.0,+0.0
iter: 914  23:38:18  -8.95  -5.76  -227.673569            -0.0,+0.0,+0.0
iter: 915  23:39:14  -8.49  -5.87  -227.673550            -0.0,+0.0,+0.0
iter: 916  23:40:10  -7.96  -6.04  -227.673509            -0.0,+0.0,+0.0
iter: 917  23:41:06  -8.55  -5.79  -227.673499            -0.0,+0.0,+0.0
iter: 918  23:42:03  -8.18  -6.27  -227.673471            -0.0,+0.0,+0.0
iter: 919  23:42:59  -7.58  -6.16  -227.673457            -0.0,+0.0,+0.0
iter: 920  23:43:55  -8.48  -5.43  -227.673451            -0.0,+0.0,+0.0
iter: 921  23:44:51  -8.32  -5.61  -227.673493            -0.0,+0.0,+0.0
iter: 922  23:45:47  -7.68  -5.83  -227.673523            -0.0,+0.0,+0.0
iter: 923  23:46:43  -8.71  -5.74  -227.673488            -0.0,+0.0,+0.0
iter: 924  23:47:39  -8.36  -6.10  -227.673513            -0.0,+0.0,+0.0
iter: 925  23:48:35  -7.75  -6.30  -227.673568            -0.0,+0.0,+0.0
iter: 926  23:49:31  -8.95  -5.52  -227.673507            -0.0,+0.0,+0.0
iter: 927  23:50:27  -7.93  -5.63  -227.673572            -0.0,+0.0,+0.0
iter: 928  23:51:23  -7.88  -5.88  -227.673629            -0.0,+0.0,+0.0
iter: 929  23:52:20  -9.04  -5.92  -227.673616            -0.0,+0.0,+0.0
iter: 930  23:53:16  -8.27  -6.24  -227.673612            -0.0,+0.0,+0.0
iter: 931  23:54:12  -7.79  -6.11  -227.673620            -0.0,+0.0,+0.0
iter: 932  23:55:08  -9.01  -5.50  -227.673599            -0.0,+0.0,+0.0
iter: 933  23:56:04  -8.31  -5.62  -227.673591            -0.0,+0.0,+0.0
iter: 934  23:57:01  -7.81  -5.88  -227.673581            -0.0,+0.0,+0.0
iter: 935  23:57:57  -8.96  -5.86  -227.673597            -0.0,+0.0,+0.0
iter: 936  23:58:53  -8.28  -6.20  -227.673604            -0.0,+0.0,+0.0
iter: 937  23:59:49  -7.73  -6.22  -227.673600            -0.0,+0.0,+0.0
iter: 938  00:00:45  -8.98  -5.50  -227.673605            -0.0,+0.0,+0.0
iter: 939  00:01:41  -8.31  -5.61  -227.673612            -0.0,+0.0,+0.0
iter: 940  00:02:37  -7.69  -5.84  -227.673621            -0.0,+0.0,+0.0
iter: 941  00:03:34  -8.73  -5.89  -227.673604            -0.0,+0.0,+0.0
iter: 942  00:04:30  -8.19  -6.21  -227.673611            -0.0,+0.0,+0.0
iter: 943  00:05:26  -7.50  -6.32  -227.673614            -0.0,+0.0,+0.0
iter: 944  00:06:22  -7.32  -5.50  -227.673599            -0.0,+0.0,+0.0
iter: 945  00:07:18  -7.11  -5.64  -227.673626            -0.0,-0.0,+0.0
iter: 946  00:08:14  -7.68  -5.83  -227.673632            -0.0,-0.0,+0.0
iter: 947  00:09:10  -8.63  -5.90  -227.673609            -0.0,-0.0,+0.0
iter: 948  00:10:07  -8.10  -6.24  -227.673624            -0.0,-0.0,+0.0
iter: 949  00:11:03  -7.86  -6.08  -227.673622            -0.0,-0.0,+0.0
iter: 950  00:11:59  -8.96  -5.51  -227.673622            -0.0,-0.0,+0.0
iter: 951  00:12:55  -8.06  -5.63  -227.673630            -0.0,-0.0,+0.0
iter: 952  00:13:51  -7.82  -5.96  -227.673640            -0.0,-0.0,+0.0
iter: 953  00:14:48  -9.04  -5.94  -227.673641            -0.0,-0.0,+0.0
iter: 954  00:15:44  -8.13  -6.25  -227.673651            -0.0,-0.0,+0.0
iter: 955  00:16:40  -7.96  -6.06  -227.673648            -0.0,-0.0,+0.0
iter: 956  00:17:36  -9.17  -5.54  -227.673673            -0.0,-0.0,+0.0
iter: 957  00:18:32  -8.14  -5.65  -227.673677            -0.0,-0.0,+0.0
iter: 958  00:19:28  -8.04  -6.07  -227.673681            -0.0,-0.0,+0.0
iter: 959  00:20:25  -9.16  -5.97  -227.673686            -0.0,-0.0,+0.0
iter: 960  00:21:21  -8.09  -6.29  -227.673690            -0.0,-0.0,+0.0
iter: 961  00:22:17  -8.00  -6.03  -227.673690            -0.0,-0.0,+0.0
iter: 962  00:23:13  -9.18  -5.55  -227.673690            -0.0,-0.0,+0.0
iter: 963  00:24:09  -8.15  -5.65  -227.673693            -0.0,-0.0,+0.0
iter: 964  00:25:05  -8.08  -6.09  -227.673692            -0.0,-0.0,+0.0
[...]
iter: 2802  05:03:55 -10.27  -6.17  -227.674560            -0.0,-0.0,+0.0
iter: 2803  05:04:51  -9.90  -6.33  -227.674560            -0.0,-0.0,+0.0
iter: 2804  05:05:47  -9.16  -6.54  -227.674560            -0.0,-0.0,+0.0
iter: 2805  05:06:43 -10.30  -6.47  -227.674560            -0.0,-0.0,+0.0
iter: 2806  05:07:38  -9.87  -6.87  -227.674560            -0.0,-0.0,+0.0
iter: 2807  05:08:34  -9.10  -7.34  -227.674561            -0.0,-0.0,+0.0
iter: 2808  05:09:30 -10.27  -6.17  -227.674561            -0.0,-0.0,+0.0
iter: 2809  05:10:26  -9.93  -6.33  -227.674561            -0.0,-0.0,+0.0
iter: 2810  05:11:22  -9.15  -6.53  -227.674561            -0.0,-0.0,+0.0
iter: 2811  05:12:18 -10.30  -6.47  -227.674561            -0.0,-0.0,+0.0
iter: 2812  05:13:14  -9.91  -6.86  -227.674561            -0.0,-0.0,+0.0
iter: 2813  05:14:10  -9.09  -7.43  -227.674561            -0.0,-0.0,+0.0
iter: 2814  05:15:06 -10.27  -6.17  -227.674561            -0.0,-0.0,+0.0
iter: 2815  05:16:02  -9.97  -6.33  -227.674561            -0.0,-0.0,+0.0
iter: 2816  05:16:58  -9.13  -6.51  -227.674561            -0.0,-0.0,+0.0
iter: 2817  05:17:54 -10.30  -6.47  -227.674561            -0.0,-0.0,+0.0
iter: 2818  05:18:50  -9.95  -6.86  -227.674562            -0.0,-0.0,+0.0
iter: 2819  05:19:45  -9.07  -7.55  -227.674562            -0.0,-0.0,+0.0
iter: 2820  05:20:42 -10.26  -6.17  -227.674562            -0.0,-0.0,+0.0
iter: 2821  05:21:38 -10.01  -6.33  -227.674562            -0.0,-0.0,+0.0
iter: 2822  05:22:33  -9.12  -6.50  -227.674562            -0.0,-0.0,+0.0
iter: 2823  05:23:29 -10.30  -6.47  -227.674562            -0.0,-0.0,+0.0
iter: 2824  05:24:25 -10.00  -6.85  -227.674562            -0.0,-0.0,+0.0
iter: 2825  05:25:21  -9.05  -7.70  -227.674562            -0.0,-0.0,+0.0
iter: 2826  05:26:17 -10.25  -6.17  -227.674562            -0.0,-0.0,+0.0
iter: 2827  05:27:13 -10.06  -6.32  -227.674562            -0.0,-0.0,+0.0
iter: 2828  05:28:10  -9.09  -6.48  -227.674562            -0.0,-0.0,+0.0
iter: 2829  05:29:06 -10.29  -6.47  -227.674562            -0.0,-0.0,+0.0
iter: 2830  05:30:02 -10.05  -6.85  -227.674562            -0.0,-0.0,+0.0
iter: 2831  05:30:58  -9.03  -7.78  -227.674563            -0.0,-0.0,+0.0
iter: 2832  05:31:54 -10.24  -6.17  -227.674563            -0.0,-0.0,+0.0
iter: 2833  05:32:50 -10.12  -6.32  -227.674563            -0.0,-0.0,+0.0
iter: 2834  05:33:46  -9.07  -6.47  -227.674563            -0.0,-0.0,+0.0
iter: 2835  05:34:42 -10.28  -6.47  -227.674563            -0.0,-0.0,+0.0
iter: 2836  05:35:38 -10.12  -6.84  -227.674563            -0.0,-0.0,+0.0
iter: 2837  05:36:34  -9.01  -7.64  -227.674563            -0.0,-0.0,+0.0
iter: 2838  05:37:30 -10.23  -6.17  -227.674563            -0.0,-0.0,+0.0
iter: 2839  05:38:26 -10.19  -6.32  -227.674563            -0.0,-0.0,+0.0
iter: 2840  05:39:22  -9.04  -6.45  -227.674563            -0.0,-0.0,+0.0
iter: 2841  05:40:18 -10.26  -6.47  -227.674563            -0.0,-0.0,+0.0
iter: 2842  05:41:14 -10.20  -6.83  -227.674563            -0.0,-0.0,+0.0
iter: 2843  05:42:10  -8.98  -7.46  -227.674564            -0.0,-0.0,+0.0
iter: 2844  05:43:06 -10.20  -6.17  -227.674564            -0.0,-0.0,+0.0
iter: 2845  05:44:01 -10.28  -6.32  -227.674564            -0.0,-0.0,+0.0
iter: 2846  05:44:57  -9.01  -6.43  -227.674564            -0.0,-0.0,+0.0
iter: 2847  05:45:53 -10.24  -6.46  -227.674564            -0.0,-0.0,+0.0
iter: 2848  05:46:49 -10.29  -6.82  -227.674564            -0.0,-0.0,+0.0
iter: 2849  05:47:45  -8.95  -7.30  -227.674564            -0.0,-0.0,+0.0
iter: 2850  05:48:41 -10.18  -6.17  -227.674564            -0.0,-0.0,+0.0
iter: 2851  05:49:37 -10.38  -6.31  -227.674564            -0.0,-0.0,+0.0
iter: 2852  05:50:33  -8.98  -6.41  -227.674564            -0.0,-0.0,+0.0
iter: 2853  05:51:29 -10.22  -6.46  -227.674564            -0.0,-0.0,+0.0
iter: 2854  05:52:24 -10.41  -6.81  -227.674564            -0.0,-0.0,+0.0
iter: 2855  05:53:20  -8.92  -7.16  -227.674564            -0.0,-0.0,+0.0
iter: 2856  05:54:16 -10.16  -6.16  -227.674565            -0.0,-0.0,+0.0
iter: 2857  05:55:13 -10.51  -6.31  -227.674565            -0.0,-0.0,+0.0
iter: 2858  05:56:08  -8.94  -6.39  -227.674565            -0.0,-0.0,+0.0
iter: 2859  05:57:04 -10.21  -6.46  -227.674565            -0.0,-0.0,+0.0
iter: 2860  05:58:00 -10.57  -6.80  -227.674565            -0.0,-0.0,+0.0
iter: 2861  05:58:56  -8.89  -7.05  -227.674565            -0.0,-0.0,+0.0
iter: 2862  05:59:52 -10.17  -6.17  -227.674565            -0.0,-0.0,+0.0
iter: 2863  06:00:48 -10.68  -6.30  -227.674565            -0.0,-0.0,+0.0
iter: 2864  06:01:44  -8.91  -6.36  -227.674565            -0.0,-0.0,+0.0
iter: 2865  06:02:40 -10.24  -6.48  -227.674565            -0.0,-0.0,+0.0
iter: 2866  06:03:36 -10.78  -6.78  -227.674565            -0.0,-0.0,+0.0
iter: 2867  06:04:32  -8.88  -6.96  -227.674565            -0.0,-0.0,+0.0
iter: 2868  06:05:28 -10.27  -6.18  -227.674565            -0.0,-0.0,+0.0
iter: 2869  06:06:24 -10.90  -6.30  -227.674565            -0.0,-0.0,+0.0
iter: 2870  06:07:20  -8.89  -6.34  -227.674566            -0.0,-0.0,+0.0
iter: 2871  06:08:16 -10.49  -6.59  -227.674566            -0.0,-0.0,+0.0
iter: 2872  06:09:12 -10.81  -6.77  -227.674566            -0.0,-0.0,+0.0
iter: 2873  06:10:08  -9.16  -6.94  -227.674566            -0.0,-0.0,+0.0
iter: 2874  06:11:04 -10.32  -6.41  -227.674566            -0.0,-0.0,+0.0
iter: 2875  06:12:00  -9.78  -6.38  -227.674566            -0.0,-0.0,+0.0
iter: 2876  06:12:56  -9.72  -6.58  -227.674566            -0.0,-0.0,+0.0
iter: 2877  06:13:52 -10.01  -7.22  -227.674566            -0.0,-0.0,+0.0
iter: 2878  06:14:48 -10.13  -6.74  -227.674566            -0.0,-0.0,+0.0
iter: 2879  06:15:44  -9.73  -6.93  -227.674566            -0.0,-0.0,+0.0
iter: 2880  06:16:40  -9.55  -6.70  -227.674566            -0.0,-0.0,+0.0
iter: 2881  06:17:36 -10.39  -6.25  -227.674566            -0.0,-0.0,+0.0
iter: 2882  06:18:32  -9.55  -6.38  -227.674566            -0.0,-0.0,+0.0
iter: 2883  06:19:28  -9.77  -7.06  -227.674566            -0.0,-0.0,+0.0
iter: 2884  06:20:24 -10.66  -6.70  -227.674566            -0.0,-0.0,+0.0
iter: 2885  06:21:20  -9.40  -6.97  -227.674566            -0.0,-0.0,+0.0
iter: 2886  06:22:16  -9.78  -6.56  -227.674566            -0.0,-0.0,+0.0
iter: 2887  06:23:12 -10.66  -6.28  -227.674566            -0.0,-0.0,+0.0
iter: 2888  06:24:08  -9.44  -6.38  -227.674566            -0.0,-0.0,+0.0
iter: 2889  06:25:04  -9.88  -7.40  -227.674567            -0.0,-0.0,+0.0
iter: 2890  06:26:00 -10.65  -6.70  -227.674567            -0.0,-0.0,+0.0
iter: 2891  06:26:56  -9.37  -6.99  -227.674567            -0.0,-0.0,+0.0
iter: 2892  06:27:51  -9.85  -6.53  -227.674567            -0.0,-0.0,+0.0
iter: 2893  06:28:47 -10.66  -6.29  -227.674567            -0.0,-0.0,+0.0
iter: 2894  06:29:43  -9.41  -6.38  -227.674568            -0.0,-0.0,+0.0
iter: 2895  06:30:39  -9.95  -7.71  -227.674568            -0.0,-0.0,+0.0
iter: 2896  06:31:35 -10.64  -6.72  -227.674568            -0.0,-0.0,+0.0
iter: 2897  06:32:31  -9.35  -7.01  -227.674568            -0.0,-0.0,+0.0
iter: 2898  06:33:27  -9.92  -6.51  -227.674568            -0.0,-0.0,+0.0
iter: 2899  06:34:23 -10.66  -6.30  -227.674568            -0.0,-0.0,+0.0
iter: 2900  06:35:19  -9.38  -6.38  -227.674568            -0.0,-0.0,+0.0
iter: 2901  06:36:15 -10.03  -7.73  -227.674568            -0.0,-0.0,+0.0
iter: 2902  06:37:11 -10.64  -6.73  -227.674568            -0.0,-0.0,+0.0
iter: 2903  06:38:07  -9.33  -7.02  -227.674568            -0.0,-0.0,+0.0
iter: 2904  06:39:03 -10.00  -6.49  -227.674568            -0.0,-0.0,+0.0
iter: 2905  06:39:59 -10.65  -6.31  -227.674568            -0.0,-0.0,+0.0
iter: 2906  06:40:55  -9.35  -6.39  -227.674568            -0.0,-0.0,+0.0
iter: 2907  06:41:51 -10.11  -7.33  -227.674568            -0.0,-0.0,+0.0
iter: 2908  06:42:47 -10.66  -6.76  -227.674568            -0.0,-0.0,+0.0
iter: 2909  06:43:43  -9.41  -7.00  -227.674568            -0.0,-0.0,+0.0
iter: 2910  06:44:39 -10.03  -6.54  -227.674567            -0.0,-0.0,+0.0
iter: 2911  06:45:35 -10.60  -6.35  -227.674568            -0.0,-0.0,+0.0
iter: 2912  06:46:31  -9.68  -6.38  -227.674568            -0.0,-0.0,+0.0
iter: 2913  06:47:26  -9.71  -6.86  -227.674568            -0.0,-0.0,+0.0
iter: 2914  06:48:23 -10.86  -6.80  -227.674568            -0.0,-0.0,+0.0
iter: 2915  06:49:18  -9.53  -6.89  -227.674568            -0.0,-0.0,+0.0
iter: 2916  06:50:15  -9.70  -6.70  -227.674569            -0.0,-0.0,+0.0
iter: 2917  06:51:10 -10.86  -6.33  -227.674569            -0.0,-0.0,+0.0
iter: 2918  06:52:07  -9.49  -6.35  -227.674568            -0.0,-0.0,+0.0
iter: 2919  06:53:03  -9.81  -7.13  -227.674568            -0.0,-0.0,+0.0
iter: 2920  06:53:59 -10.99  -6.78  -227.674568            -0.0,-0.0,+0.0
iter: 2921  06:54:54  -9.30  -6.86  -227.674569            -0.0,-0.0,+0.0
iter: 2922  06:55:50  -9.89  -6.51  -227.674568            -0.0,-0.0,+0.0
iter: 2923  06:56:46 -11.00  -6.31  -227.674568            -0.0,-0.0,+0.0
iter: 2924  06:57:42  -9.42  -6.34  -227.674569            -0.0,-0.0,+0.0
iter: 2925  06:58:38  -9.94  -7.31  -227.674569            -0.0,-0.0,+0.0
iter: 2926  06:59:34 -10.95  -6.81  -227.674569            -0.0,-0.0,+0.0
iter: 2927  07:00:30  -9.35  -6.88  -227.674568            -0.0,-0.0,+0.0
iter: 2928  07:01:26  -9.88  -6.55  -227.674569            -0.0,-0.0,+0.0
iter: 2929  07:02:22 -10.90  -6.33  -227.674569            -0.0,-0.0,+0.0
iter: 2930  07:03:18  -9.81  -6.34  -227.674568            -0.0,-0.0,+0.0
iter: 2931  07:04:14  -9.63  -6.68  -227.674567            -0.0,-0.0,+0.0
iter: 2932  07:05:10 -10.72  -6.91  -227.674568            -0.0,-0.0,+0.0
iter: 2933  07:06:06 -10.33  -6.88  -227.674570            -0.0,-0.0,+0.0
iter: 2934  07:07:02  -9.16  -7.23  -227.674570            -0.0,-0.0,+0.0
iter: 2935  07:07:58 -10.71  -6.30  -227.674570            -0.0,-0.0,+0.0
iter: 2936  07:08:54 -10.09  -6.38  -227.674570            -0.0,-0.0,+0.0
iter: 2937  07:09:49  -9.30  -6.57  -227.674569            -0.0,-0.0,+0.0
iter: 2938  07:10:45 -10.56  -6.62  -227.674570            -0.0,-0.0,+0.0
iter: 2939  07:11:41 -10.02  -6.84  -227.674571            -0.0,-0.0,+0.0
iter: 2940  07:12:37  -9.28  -7.34  -227.674570            -0.0,-0.0,+0.0
iter: 2941  07:13:33 -10.75  -6.29  -227.674572            -0.0,-0.0,+0.0
iter: 2942  07:14:29 -10.11  -6.33  -227.674572            -0.0,-0.0,+0.0
iter: 2943  07:15:25  -9.53  -6.55  -227.674564            -0.0,-0.0,+0.0
iter: 2944  07:16:21 -10.45  -6.89  -227.674552            -0.0,-0.0,+0.0
iter: 2945  07:17:17 -10.23  -6.72  -227.674529            -0.0,-0.0,+0.0
iter: 2946  07:18:13  -9.48  -6.95  -227.674502            -0.0,-0.0,+0.0
iter: 2947  07:19:09 -10.04  -6.65  -227.674496            -0.0,-0.0,+0.0
iter: 2948  07:20:05 -10.58  -6.42  -227.674513            -0.0,-0.0,+0.0
iter: 2949  07:21:01  -9.72  -6.44  -227.674508            -0.0,-0.0,+0.0
iter: 2950  07:21:57  -9.75  -6.63  -227.674434            -0.0,-0.0,+0.0
iter: 2951  07:22:53 -10.26  -6.42  -227.674727            -0.0,-0.0,+0.0
iter: 2952  07:23:49  -9.87  -6.64  -227.674611            -0.0,-0.0,+0.0
iter: 2953  07:24:45  -9.32  -7.18  -227.674590            -0.0,-0.0,+0.0
iter: 2954  07:25:41 -10.74  -6.30  -227.674569            -0.0,-0.0,+0.0
iter: 2955  07:26:37  -9.90  -6.40  -227.674563            -0.0,-0.0,+0.0
iter: 2956  07:27:33  -9.42  -6.72  -227.674542            -0.0,-0.0,+0.0
iter: 2957  07:28:29 -10.67  -6.57  -227.674555            -0.0,-0.0,+0.0
iter: 2958  07:29:25  -9.90  -6.79  -227.674561            -0.0,-0.0,+0.0
iter: 2959  07:30:21  -9.33  -7.34  -227.674559            -0.0,-0.0,+0.0
iter: 2960  07:31:17 -10.83  -6.30  -227.674565            -0.0,-0.0,+0.0
iter: 2961  07:32:13  -9.99  -6.37  -227.674564            -0.0,-0.0,+0.0
iter: 2962  07:33:09  -9.42  -6.65  -227.674585            -0.0,-0.0,+0.0
iter: 2963  07:34:05 -10.86  -6.71  -227.674581            -0.0,-0.0,+0.0
iter: 2964  07:35:01  -9.86  -6.85  -227.674573            -0.0,-0.0,+0.0
iter: 2965  07:35:57  -9.42  -7.13  -227.674574            -0.0,-0.0,+0.0
iter: 2966  07:36:53 -10.82  -6.32  -227.674582            -0.0,-0.0,+0.0
iter: 2967  07:37:49  -9.85  -6.36  -227.674579            -0.0,-0.0,+0.0
iter: 2968  07:38:44  -9.51  -6.71  -227.674577            -0.0,-0.0,+0.0
iter: 2969  07:39:40 -10.92  -6.71  -227.674580            -0.0,-0.0,+0.0
iter: 2970  07:40:36  -9.78  -6.85  -227.674578            -0.0,-0.0,+0.0
iter: 2971  07:41:32  -9.44  -6.98  -227.674574            -0.0,-0.0,+0.0
iter: 2972  07:42:28 -10.89  -6.31  -227.674577            -0.0,-0.0,+0.0
iter: 2973  07:43:24  -9.88  -6.36  -227.674584            -0.0,-0.0,+0.0
iter: 2974  07:44:20  -9.49  -6.67  -227.674594            -0.0,-0.0,+0.0
iter: 2975  07:45:16 -10.91  -6.76  -227.674582            -0.0,-0.0,+0.0
iter: 2976  07:46:12  -9.82  -6.85  -227.674577            -0.0,-0.0,+0.0
iter: 2977  07:47:08  -9.45  -7.06  -227.674579            -0.0,-0.0,+0.0
iter: 2978  07:48:04 -10.86  -6.33  -227.674578            -0.0,-0.0,+0.0
iter: 2979  07:49:00  -9.83  -6.36  -227.674575            -0.0,-0.0,+0.0
iter: 2980  07:49:56  -9.54  -6.74  -227.674573            -0.0,-0.0,+0.0
iter: 2981  07:50:51 -10.92  -6.72  -227.674577            -0.0,-0.0,+0.0
iter: 2982  07:51:47  -9.78  -6.83  -227.674578            -0.0,-0.0,+0.0
iter: 2983  07:52:43  -9.46  -6.99  -227.674578            -0.0,-0.0,+0.0
iter: 2984  07:53:39 -10.89  -6.32  -227.674577            -0.0,-0.0,+0.0
iter: 2985  07:54:35  -9.88  -6.36  -227.674578            -0.0,-0.0,+0.0
iter: 2986  07:55:31  -9.51  -6.69  -227.674579            -0.0,-0.0,+0.0
iter: 2987  07:56:27 -10.92  -6.74  -227.674578            -0.0,-0.0,+0.0
iter: 2988  07:57:22  -9.82  -6.83  -227.674577            -0.0,-0.0,+0.0
iter: 2989  07:58:18  -9.45  -7.04  -227.674577            -0.0,-0.0,+0.0
iter: 2990  07:59:14 -10.88  -6.33  -227.674577            -0.0,-0.0,+0.0
iter: 2991  08:00:10  -9.91  -6.36  -227.674577            -0.0,-0.0,+0.0
iter: 2992  08:01:06  -9.48  -6.68  -227.674576            -0.0,-0.0,+0.0
iter: 2993  08:02:02 -10.93  -6.73  -227.674576            -0.0,-0.0,+0.0
iter: 2994  08:02:58  -9.93  -6.82  -227.674576            -0.0,-0.0,+0.0
iter: 2995  08:03:54  -9.39  -7.23  -227.674576            -0.0,-0.0,+0.0
iter: 2996  08:04:50 -10.86  -6.33  -227.674576            -0.0,-0.0,+0.0
iter: 2997  08:05:46 -10.03  -6.36  -227.674576            -0.0,-0.0,+0.0
iter: 2998  08:06:41  -9.44  -6.62  -227.674577            -0.0,-0.0,+0.0
iter: 2999  08:07:37 -10.89  -6.74  -227.674576            -0.0,-0.0,+0.0
iter: 3000  08:08:33  -9.98  -6.83  -227.674575            -0.0,-0.0,+0.0
iter: 3001  08:09:30  -9.37  -7.32  -227.674575            -0.0,-0.0,+0.0
iter: 3002  08:10:25 -10.86  -6.33  -227.674576            -0.0,-0.0,+0.0
iter: 3003  08:11:21 -10.11  -6.36  -227.674576            -0.0,-0.0,+0.0
iter: 3004  08:12:17  -9.38  -6.59  -227.674575            -0.0,-0.0,+0.0
iter: 3005  08:13:13 -10.91  -6.72  -227.674575            -0.0,-0.0,+0.0
iter: 3006  08:14:09 -10.19  -6.82  -227.674575            -0.0,-0.0,+0.0
iter: 3007  08:15:05  -9.27  -7.87  -227.674576            -0.0,-0.0,+0.0
iter: 3008  08:16:01 -10.82  -6.32  -227.674575            -0.0,-0.0,+0.0
iter: 3009  08:16:57 -10.39  -6.35  -227.674575            -0.0,-0.0,+0.0
iter: 3010  08:17:53  -9.31  -6.50  -227.674575            -0.0,-0.0,+0.0
iter: 3011  08:18:49 -10.77  -6.77  -227.674574            -0.0,-0.0,+0.0
iter: 3012  08:19:45 -10.32  -6.81  -227.674575            -0.0,-0.0,+0.0
iter: 3013  08:20:40  -9.28  -7.58  -227.674575            -0.0,-0.0,+0.0
iter: 3014  08:21:37 -10.58  -6.36  -227.674575            -0.0,-0.0,+0.0
iter: 3015  08:22:32  -9.98  -6.35  -227.674575            -0.0,-0.0,+0.0
iter: 3016  08:23:29  -9.58  -6.61  -227.674574            -0.0,-0.0,+0.0
iter: 3017  08:24:25 -10.62  -7.04  -227.674572            -0.0,-0.0,+0.0
iter: 3018  08:25:21 -10.31  -6.84  -227.674578            -0.0,-0.0,+0.0
iter: 3019  08:26:17 -10.11  -6.88  -227.674578            -0.0,-0.0,+0.0
iter: 3020  08:27:13  -9.57  -7.21  -227.674575            -0.0,-0.0,+0.0
iter: 3021  08:28:08 -10.63  -6.45  -227.674582            -0.0,-0.0,+0.0
iter: 3022  08:29:04 -10.25  -6.39  -227.674567            -0.0,-0.0,+0.0
iter: 3023  08:30:00  -9.25  -6.50  -227.674526            -0.0,-0.0,+0.0
iter: 3024  08:30:56 -10.72  -6.69  -227.674551            -0.0,-0.0,+0.0
iter: 3025  08:31:52 -10.21  -6.92  -227.674628            -0.0,-0.0,+0.0
iter: 3026  08:32:48  -9.17  -7.22  -227.674615            -0.0,-0.0,+0.0
iter: 3027  08:33:44 -10.49  -6.29  -227.674632            -0.0,-0.0,+0.0
iter: 3028  08:34:40 -10.20  -6.38  -227.674638            -0.0,-0.0,+0.0
iter: 3029  08:35:36  -9.42  -6.57  -227.674656            -0.0,-0.0,+0.0
iter: 3030  08:36:32 -10.66  -6.69  -227.674649            -0.0,-0.0,+0.0
iter: 3031  08:37:28 -10.05  -6.76  -227.674637            -0.0,-0.0,+0.0
iter: 3032  08:38:24  -9.54  -7.19  -227.674635            -0.0,-0.0,+0.0
iter: 3033  08:39:19 -10.44  -6.47  -227.674631            -0.0,-0.0,+0.0
iter: 3034  08:40:16 -10.44  -6.37  -227.674625            -0.0,-0.0,+0.0
iter: 3035  08:41:11  -9.65  -6.47  -227.674656            -0.0,-0.0,+0.0
iter: 3036  08:42:08 -10.09  -6.72  -227.674699            -0.0,-0.0,+0.0
iter: 3037  08:43:03 -10.53  -6.67  -227.674693            -0.0,-0.0,+0.0
iter: 3038  08:44:00  -9.66  -6.78  -227.674662            -0.0,-0.0,+0.0
iter: 3039  08:44:55  -9.86  -6.86  -227.674674            -0.0,-0.0,+0.0
iter: 3040  08:45:51 -10.80  -6.44  -227.674670            -0.0,-0.0,+0.0
iter: 3041  08:46:47  -9.59  -6.47  -227.674654            -0.0,-0.0,+0.0
iter: 3042  08:47:43  -9.95  -7.43  -227.674654            -0.0,-0.0,+0.0
iter: 3043  08:48:39 -10.96  -6.73  -227.674655            -0.0,-0.0,+0.0
iter: 3044  08:49:35  -9.32  -6.82  -227.674651            -0.0,-0.0,+0.0
iter: 3045  08:50:31 -10.13  -6.54  -227.674651            -0.0,-0.0,+0.0
iter: 3046  08:51:27 -10.91  -6.39  -227.674665            -0.0,-0.0,+0.0
iter: 3047  08:52:23  -9.44  -6.47  -227.674663            -0.0,-0.0,+0.0
iter: 3048  08:53:19 -10.18  -7.16  -227.674616            -0.0,-0.0,+0.0
iter: 3049  08:54:15 -10.95  -6.78  -227.674603            -0.0,-0.0,+0.0
iter: 3050  08:55:11  -9.28  -6.93  -227.674624            -0.0,-0.0,+0.0
iter: 3051  08:56:07 -10.33  -6.48  -227.674616            -0.0,-0.0,+0.0
iter: 3052  08:57:03 -10.89  -6.40  -227.674603            -0.0,-0.0,+0.0
iter: 3053  08:57:59  -9.43  -6.43  -227.674627            -0.0,-0.0,+0.0
iter: 3054  08:58:55 -10.39  -6.99  -227.674693            -0.0,-0.0,+0.0
iter: 3055  08:59:51 -10.31  -6.76  -227.674750            -0.0,-0.0,+0.0
iter: 3056  09:00:47 -10.38  -6.59  -227.674614            -0.0,-0.0,+0.0
iter: 3057  09:01:42  -9.81  -7.23  -227.674600            -0.0,-0.0,+0.0
iter: 3058  09:02:38  -9.96  -6.70  -227.674574            -0.0,-0.0,+0.0
iter: 3059  09:03:34 -10.41  -6.37  -227.674604            -0.0,-0.0,+0.0
iter: 3060  09:04:30  -9.62  -6.53  -227.674634            -0.0,-0.0,+0.0
iter: 3061  09:05:26 -10.03  -7.31  -227.674627            -0.0,-0.0,+0.0
iter: 3062  09:06:22 -10.60  -6.72  -227.674603            -0.0,-0.0,+0.0
iter: 3063  09:07:18  -9.57  -7.09  -227.674608            -0.0,-0.0,+0.0
iter: 3064  09:08:14  -9.96  -6.66  -227.674603            -0.0,-0.0,+0.0
iter: 3065  09:09:10 -10.64  -6.36  -227.674602            -0.0,-0.0,+0.0
iter: 3066  09:10:06  -9.56  -6.47  -227.674608            -0.0,-0.0,+0.0
iter: 3067  09:11:02 -10.06  -7.30  -227.674609            -0.0,-0.0,+0.0
iter: 3068  09:11:58 -10.67  -6.73  -227.674600            -0.0,-0.0,+0.0
iter: 3069  09:12:54  -9.55  -7.09  -227.674596            -0.0,-0.0,+0.0
iter: 3070  09:13:50 -10.00  -6.62  -227.674599            -0.0,-0.0,+0.0
iter: 3071  09:14:46 -10.72  -6.37  -227.674600            -0.0,-0.0,+0.0
