
  ___ ___ ___ _ _ _  
 |   |   |_  | | | | 
 | | | | | . | | | | 
 |__ |  _|___|_____|  21.6.1b1
 |___|_|             

User:   madkru@a104.nifl.fysik.dtu.dk
Date:   Sat Jun 25 23:26:34 2022
Arch:   x86_64
Pid:    4971
Python: 3.8.6
gpaw:   /home/niflheim/madkru/new_venv/gpaw/gpaw (1f0dfc9eae)
_gpaw:  /home/niflheim/madkru/new_venv/gpaw/build/lib.linux-x86_64-skylake-3.8/
        _gpaw.cpython-38-x86_64-linux-gnu.so (c1e45bfab3)
ase:    /home/niflheim/madkru/new_venv/ase/ase (version 3.23.0b1-ca38c75a67)
numpy:  /home/modules/software/SciPy-bundle/2020.11-foss-2020b/lib/python3.8/site-packages/numpy (version 1.19.4)
scipy:  /home/modules/software/SciPy-bundle/2020.11-foss-2020b/lib/python3.8/site-packages/scipy (version 1.5.4)
libxc:  4.3.4
units:  Angstrom and eV
cores: 40
OpenMP: False
OMP_NUM_THREADS: 1

Input parameters:
  convergence: {density: 1e-09}
  experimental: {magmoms: [[0. 0. 0.]
 [0. 0. 0.]
 [0. 0. 0.]
 ...
 [0. 0. 0.]
 [0. 0. 0.]
 [0. 0. 0.]],
                 soc: True}
  kpts: [4 4 6]
  maxiter: 5000
  mixer: {backend: pulay,
          beta: 0.05,
          method: difference,
          nmaxold: 3,
          weight: 100}
  mode: {ecut: 600.0,
         gammacentered: False,
         name: pw}
  occupations: {fixmagmom: False,
                name: fermi-dirac,
                width: 0.001}
  symmetry: off

System changes: positions, numbers, cell, pbc, initial_charges, initial_magmoms 

Initialize ...

O-setup:
  name: Oxygen
  id: 9b9d51c344dea68c822856295a461509
  Z: 8.0
  valence: 6
  core: 2
  charge: 0.0
  file: /home/modules/software/GPAW-setups/0.9.20000/O.LDA.gz
  compensation charges: gauss, rc=0.21, lmax=2
  cutoffs: 1.17(filt), 0.83(core),
  valence states:
                energy  radius
    2s(2.00)   -23.752   0.688
    2p(4.00)    -9.195   0.598
    *s           3.459   0.688
    *p          18.016   0.598
    *d           0.000   0.619

  Using partial waves for O as LCAO basis

Mn-setup:
  name: Manganese
  id: 0d715a8018be061a6e9ea6f2d364ac92
  Z: 25.0
  valence: 15
  core: 10
  charge: 0.0
  file: /home/modules/software/GPAW-setups/0.9.20000/Mn.LDA.gz
  compensation charges: gauss, rc=0.38, lmax=2
  cutoffs: 2.14(filt), 0.86(core),
  valence states:
                energy  radius
    3s(2.00)   -85.387   1.275
    4s(2.00)    -5.282   1.275
    3p(6.00)   -54.493   1.281
    4p(0.00)    -1.471   1.281
    3d(5.00)    -7.009   1.138
    *d          20.203   1.138

  Using partial waves for Mn as LCAO basis

P-setup:
  name: Phosphorus
  id: a5561c299094968922a179ab894d2e2d
  Z: 15.0
  valence: 5
  core: 10
  charge: 0.0
  file: /home/modules/software/GPAW-setups/0.9.20000/P.LDA.gz
  compensation charges: gauss, rc=0.30, lmax=2
  cutoffs: 1.69(filt), 1.81(core),
  valence states:
                energy  radius
    3s(2.00)   -14.015   0.953
    3p(3.00)    -5.596   0.953
    *s          13.197   0.953
    *p          21.615   0.953
    *d           0.000   0.953

  Using partial waves for P as LCAO basis

Li-setup:
  name: Lithium
  id: b73562207f97a71b6967473b66fe8b65
  Z: 3.0
  valence: 1
  core: 2
  charge: 0.0
  file: /home/modules/software/GPAW-setups/0.9.20000/Li.LDA.gz
  compensation charges: gauss, rc=0.33, lmax=2
  cutoffs: 1.91(filt), 2.55(core),
  valence states:
                energy  radius
    2s(1.00)    -2.874   1.058
    2p(0.00)    -1.126   1.058
    *s          24.338   1.058

  Using partial waves for Li as LCAO basis

Reference energy: -196157.275402

Non-collinear calculation.
Magnetic moment: (0.000000, 0.000000, 0.000000)

Convergence criteria:
  Maximum total energy change: 0.0005 eV / electron
  Maximum integral of absolute density change: 1e-09 electrons
  Maximum integral of absolute eigenstate change: 4e-08 eV^2
  Maximum number of iterations: 5000

Symmetries present (total): 1

  ( 1  0  0)
  ( 0  1  0)
  ( 0  0  1)

96 k-points: 4 x 4 x 6 Monkhorst-Pack grid
96 k-points in the irreducible part of the Brillouin zone
       k-points in crystal coordinates                weights
   0:    -0.37500000   -0.37500000   -0.41666667          1/96
   1:    -0.37500000   -0.37500000   -0.25000000          1/96
   2:    -0.37500000   -0.37500000   -0.08333333          1/96
   3:    -0.37500000   -0.37500000    0.08333333          1/96
   4:    -0.37500000   -0.37500000    0.25000000          1/96
   5:    -0.37500000   -0.37500000    0.41666667          1/96
   6:    -0.37500000   -0.12500000   -0.41666667          1/96
   7:    -0.37500000   -0.12500000   -0.25000000          1/96
   8:    -0.37500000   -0.12500000   -0.08333333          1/96
   9:    -0.37500000   -0.12500000    0.08333333          1/96
          ...
  95:     0.37500000    0.37500000    0.41666667          1/96

Wave functions: Plane wave expansion
  Cutoff energy: 600.000 eV
  Number of coefficients (min, max): 10065, 10119
  Pulay-stress correction: 0.000000 eV/Ang^3 (de/decut=0.000000)
  Using FFTW library
  ScaLapack parameters: grid=1x1, blocksize=None
  Wavefunction extrapolation:
    Improved wavefunction reuse through dual PAW basis 

Occupation numbers: Fermi-Dirac: width=0.0010 eV
 

Eigensolver
   Davidson(niter=2) 

Densities:
  Coarse grid: 60*35*27 grid
  Fine grid: 120*70*54 grid
  Total Charge: 0.000000 

Density mixing:
  Method: difference
  Backend: pulay
  Linear mixing parameter: 0.05
  Mixing with 3 old densities
  Damping of long wave oscillations: 100 

Hamiltonian:
  XC and Coulomb potentials evaluated on a 120*70*54 grid
  Using the LDA Exchange-Correlation functional
  External potential:
    <gpaw.external.NoExternalPotential object at 0x2ad0930aa5b0>
 

Memory estimate:
  Process memory now: 1199.43 MiB
  Calculator: 167.16 MiB
    Density: 37.88 MiB
      Arrays: 11.25 MiB
      Localized functions: 18.84 MiB
      Mixer: 7.79 MiB
    Hamiltonian: 7.90 MiB
      Arrays: 7.35 MiB
      XC: 0.00 MiB
      Poisson: 0.00 MiB
      vbar: 0.54 MiB
    Wavefunctions: 121.39 MiB
      Arrays psit_nG: 69.17 MiB
      Eigensolver: 43.02 MiB
      Projections: 2.41 MiB
      Projectors: 4.31 MiB
      PW-descriptor: 2.47 MiB

Total number of cores used: 40
Parallelization over k-points: 40

Number of atoms: 28
Number of atomic orbitals: 148
Number of bands in calculation: 224
Number of valence electrons: 180
Bands to converge: occupied

... initialized

Initializing position-dependent things.

Density initialized from atomic densities
Creating initial wave functions:
  148 bands from LCAO basis set
  76 bands from random numbers

     .-------------------------.  
    /|             P  O        |  
   / |   O      O              |  
  /  |              OMn      O |  
 *   |P O   O           Mn     |  
 |   | O        Li       O     |  
 |   Li-Mn----------O----OP----.  
 | O/      On Li              /   
 | /i           O      O     /    
 |/       O  P              /     
 *-------------------------*      

Positions:
   0 O      3.487516    0.291629    0.977452    ( 0.0000,  0.0000,  0.0000)
   1 O      1.740735    5.808108    3.346936    ( 0.0000,  0.0000,  0.0000)
   2 O      6.961574    3.339374    3.721507    ( 0.0000,  0.0000,  0.0000)
   3 O      8.731776    2.760147    1.351139    ( 0.0000,  0.0000,  0.0000)
   4 O      6.961798    5.810012    3.721617    ( 0.0000,  0.0000, -3.0000)
   5 O      8.731554    0.290470    1.351242    ( 0.0000,  0.0000,  3.0000)
   6 O      3.487881    2.759266    0.977511    ( 0.0000,  0.0000,  3.0000)
   7 O      1.740362    3.341001    3.346995    ( 0.0000,  0.0000, -3.0000)
   8 O      0.445140    1.525112    1.391572    ( 0.0000,  0.0000,  0.0000)
   9 O      4.788375    4.574888    3.763548    ( 0.0000,  0.0000,  0.0000)
  10 O     10.019590    4.574821    3.319248    ( 0.0000,  0.0000,  0.0000)
  11 O      5.668569    1.525186    0.949207    ( 0.0000,  0.0000,  0.0000)
  12 Mn     2.283457    1.524768    2.471591    ( 0.0000,  0.0000,  0.0000)
  13 Mn     2.945304    4.575234    0.100351    ( 5.0000,  0.0000,  0.0000)
  14 Mn     8.175212    4.575088    2.315161    (-5.0000,  0.0000,  0.0000)
  15 Mn     7.515284    1.524915    4.687425    (-5.0000,  0.0000,  0.0000)
  16 P      4.231142    1.525376    0.366090    ( 5.0000,  0.0000,  0.0000)
  17 P      0.996831    4.574629    2.735507    ( 0.0000,  0.0000,  0.0000)
  18 P      6.226691    4.574718    4.362464    ( 0.0000,  0.0000,  0.0000)
  19 P      9.468257    1.525283    1.992045    ( 0.0000,  0.0000,  0.0000)
  20 O      4.212750    1.525298    3.560600    ( 0.0000,  0.0000,  0.0000)
  21 O      1.014652    4.574709    1.190149    ( 0.0000,  0.0000,  0.0000)
  22 O      6.257760    4.574694    1.150653    ( 0.0000,  0.0000,  0.0000)
  23 O      9.435894    1.525305    3.520105    ( 0.0000,  0.0000,  0.0000)
  24 Li     0.000197   -0.016362    0.051809    ( 0.0000,  0.0000,  0.0000)
  25 Li     5.225735    0.015888    2.423365    ( 0.0000,  0.0000,  0.0000)
  26 Li     0.000308    3.066077    0.051521    ( 0.0000,  0.0000,  0.0000)
  27 Li     5.225656    3.034367    2.423106    ( 0.0000,  0.0000,  0.0000)

Unit cell:
           periodic     x           y           z      points  spacing
  1. axis:    yes   10.460000    0.000000    0.000000    60     0.1743
  2. axis:    yes    0.000000    6.100000    0.000000    35     0.1743
  3. axis:    yes    0.000000    0.000000    4.740000    27     0.1756

  Lengths:  10.460000   6.100000   4.740000
  Angles:   90.000000  90.000000  90.000000

Effective grid spacing dv^(1/3) = 0.1747

                     log10-error:    total        iterations:
           time      wfs    density  energy       poisson
iter:   1  23:28:24                -258.501953            -1.0,+0.0,+0.0
iter:   2  23:28:59  -0.42  -0.89  -266.789991            +0.8,-0.0,+0.2
iter:   3  23:29:33  -0.87  -0.94  -254.466088            +0.0,-0.0,+0.0
iter:   4  23:30:08  -0.61  -0.97  -236.179313            -0.0,+0.0,+0.0
iter:   5  23:30:43  -0.42  -1.09  -232.294246            -0.0,+0.0,+0.0
iter:   6  23:31:17  -1.60  -1.25  -222.207523            -0.0,+0.0,+0.0
iter:   7  23:31:52  -2.52  -1.35  -222.150774            -0.1,+0.0,+0.0
iter:   8  23:32:27  -2.38  -1.35  -221.946841            -0.1,-0.0,+0.0
iter:   9  23:33:01  -2.51  -1.38  -224.770339            -0.0,-0.0,-0.0
iter:  10  23:33:36  -1.97  -1.33  -223.398961            -0.1,-0.0,-0.0
iter:  11  23:34:11  -2.90  -1.37  -221.673259            +0.1,-0.0,-0.0
iter:  12  23:34:45  -2.96  -1.48  -221.953539            +0.7,-0.0,-0.1
iter:  13  23:35:20  -2.54  -1.49  -222.219982            +1.2,-0.0,-0.1
iter:  14  23:35:54  -2.62  -1.51  -222.479229            +1.5,-0.1,-0.1
iter:  15  23:36:29  -2.47  -1.58  -223.129338            +2.1,-0.1,-0.2
iter:  16  23:37:04  -2.93  -1.70  -223.598191            +2.7,-0.1,-0.2
iter:  17  23:37:38  -2.51  -1.76  -224.112631            +2.9,-0.1,-0.2
iter:  18  23:38:13  -3.23  -1.94  -224.234166            +2.8,-0.2,-0.2
iter:  19  23:38:47  -2.87  -2.04  -225.352230            +2.1,-0.2,-0.2
iter:  20  23:39:22  -4.17  -2.06  -225.079373            +2.3,-0.3,-0.3
iter:  21  23:39:57  -2.53  -2.06  -226.543095            -0.2,-0.1,-0.2
iter:  22  23:40:31  -3.10  -2.04  -226.575151            +0.0,-0.2,-0.3
iter:  23  23:41:06  -2.35  -2.08  -226.776571            +0.0,-0.2,-0.3
iter:  24  23:41:40  -3.32  -2.14  -226.601057            +0.0,-0.2,-0.3
iter:  25  23:42:15  -1.79  -2.17  -226.410361            -0.0,-0.2,-0.3
iter:  26  23:42:50  -2.71  -2.28  -226.293381            -0.0,-0.2,-0.3
iter:  27  23:43:24  -3.97  -2.39  -226.290554            -0.0,-0.2,-0.3
iter:  28  23:43:59  -3.57  -2.41  -226.269550            -0.0,-0.2,-0.3
iter:  29  23:44:34  -3.12  -2.58  -226.261625            -0.0,-0.2,-0.3
iter:  30  23:45:08  -4.34  -2.65  -226.256513            -0.0,-0.2,-0.3
iter:  31  23:45:43  -4.20  -2.70  -226.254237            -0.0,-0.2,-0.3
iter:  32  23:46:18  -4.49  -2.82  -226.254704            -0.0,-0.2,-0.2
iter:  33  23:46:52  -4.95  -2.88  -226.254608            -0.0,-0.2,-0.2
iter:  34  23:47:27  -3.97  -2.94  -226.249974            -0.0,-0.2,-0.2
iter:  35  23:48:01  -5.06  -3.22  -226.249668            -0.0,-0.2,-0.2
iter:  36  23:48:36  -5.26  -3.31  -226.249012            -0.0,-0.2,-0.2
iter:  37  23:49:11  -5.03  -3.43  -226.248766            -0.0,-0.2,-0.2
iter:  38  23:49:45  -5.85  -3.56  -226.248730            -0.0,-0.2,-0.2
iter:  39  23:50:20  -6.15  -3.61  -226.248644            -0.0,-0.2,-0.2
iter:  40  23:50:55  -5.74  -3.61  -226.248568            -0.0,-0.2,-0.2
iter:  41  23:51:29  -5.90  -3.62  -226.248561            -0.0,-0.2,-0.2
iter:  42  23:52:04  -6.31  -3.66  -226.248469            -0.0,-0.2,-0.2
iter:  43  23:52:39  -6.12  -3.78  -226.248421            -0.0,-0.2,-0.2
iter:  44  23:53:14  -5.91  -3.87  -226.248407            -0.0,-0.2,-0.2
iter:  45  23:53:48  -6.30  -4.03  -226.248413            -0.0,-0.1,-0.2
iter:  46  23:54:23  -5.69  -4.08  -226.248374            -0.0,-0.1,-0.2
iter:  47  23:54:57  -6.80  -4.24  -226.248371            -0.0,-0.1,-0.2
iter:  48  23:55:32  -7.11  -4.27  -226.248362            -0.0,-0.1,-0.2
iter:  49  23:56:07  -7.08  -4.36  -226.248361            -0.0,-0.1,-0.2
iter:  50  23:56:41  -7.43  -4.47  -226.248359            -0.0,-0.1,-0.2
iter:  51  23:57:16  -7.46  -4.59  -226.248362            -0.0,-0.1,-0.2
iter:  52  23:57:51  -7.35  -4.63  -226.248362            -0.0,-0.1,-0.2
iter:  53  23:58:25  -7.36  -4.62  -226.248360            -0.0,-0.1,-0.2
iter:  54  23:59:00  -7.70  -4.62  -226.248362            -0.0,-0.1,-0.2
iter:  55  23:59:34  -7.97  -4.68  -226.248362            -0.0,-0.1,-0.2
iter:  56  00:00:09  -7.19  -4.74  -226.248362            -0.0,-0.1,-0.2
iter:  57  00:00:43  -7.01  -4.88  -226.248365            -0.0,-0.1,-0.2
iter:  58  00:01:17  -6.52  -4.98  -226.248366            -0.0,-0.0,-0.2
iter:  59  00:01:52  -6.85  -5.06  -226.248365            -0.0,-0.0,-0.1
iter:  60  00:02:26  -7.87  -5.08  -226.248367            -0.0,-0.0,-0.2
iter:  61  00:03:01  -8.11  -5.12  -226.248368            -0.0,-0.0,-0.2
iter:  62  00:03:35  -7.89  -5.14  -226.248367            -0.0,-0.0,-0.2
iter:  63  00:04:10  -7.89  -5.24  -226.248368            -0.0,-0.0,-0.1
iter:  64  00:04:44  -7.80  -5.32  -226.248368            -0.0,-0.0,-0.1
iter:  65  00:05:18  -8.01  -5.58  -226.248368            -0.0,-0.0,-0.1
iter:  66  00:05:53  -8.14  -5.64  -226.248369            -0.0,-0.0,-0.1
iter:  67  00:06:27  -8.56  -5.70  -226.248369            -0.0,-0.0,-0.1
iter:  68  00:07:01  -8.37  -5.76  -226.248368            -0.0,-0.0,-0.1
iter:  69  00:07:36  -7.99  -5.89  -226.248370            -0.0,-0.0,-0.1
iter:  70  00:08:10  -8.12  -5.97  -226.248370            -0.0,-0.0,-0.1
iter:  71  00:08:44  -8.45  -6.14  -226.248369            -0.0,-0.0,-0.1
iter:  72  00:09:19  -8.79  -6.29  -226.248370            -0.0,-0.0,-0.1
iter:  73  00:09:53  -9.13  -6.47  -226.248371            -0.0,-0.0,-0.1
iter:  74  00:10:27  -8.72  -6.50  -226.248370            -0.0,-0.0,-0.1
iter:  75  00:11:02  -8.01  -6.56  -226.248371            -0.0,-0.0,-0.1
iter:  76  00:11:36  -8.26  -6.73  -226.248371            -0.0,-0.0,-0.1
iter:  77  00:12:10  -8.71  -6.82  -226.248371            -0.0,-0.0,-0.1
iter:  78  00:12:45  -8.90  -6.77  -226.248372            -0.0,-0.0,-0.1
iter:  79  00:13:19  -9.24  -6.84  -226.248372            -0.0,-0.0,-0.1
iter:  80  00:13:53  -8.78  -6.94  -226.248372            -0.0,-0.0,-0.1
iter:  81  00:14:27  -7.96  -6.89  -226.248372            -0.0,-0.0,-0.1
iter:  82  00:15:02  -8.39  -6.99  -226.248372            -0.0,-0.0,-0.1
iter:  83  00:15:36  -8.87  -7.00  -226.248372            -0.0,-0.0,-0.1
iter:  84  00:16:10  -7.66  -7.09  -226.248373            -0.0,+0.0,-0.1
iter:  85  00:16:45  -7.56  -7.18  -226.248373            -0.0,+0.0,-0.1
iter:  86  00:17:19  -8.23  -7.17  -226.248373            -0.0,+0.0,-0.1
iter:  87  00:17:53  -7.93  -6.96  -226.248374            -0.0,+0.0,-0.1
iter:  88  00:18:28  -8.07  -7.28  -226.248374            -0.0,+0.0,-0.1
iter:  89  00:19:02  -8.65  -7.29  -226.248373            -0.0,+0.0,-0.1
iter:  90  00:19:36  -8.95  -6.88  -226.248374            -0.0,+0.0,-0.1
iter:  91  00:20:10  -9.60  -7.25  -226.248374            -0.0,+0.0,-0.1
iter:  92  00:20:44  -8.91  -7.26  -226.248374            -0.0,+0.0,-0.1
iter:  93  00:21:19  -8.00  -7.24  -226.248374            -0.0,+0.0,-0.1
iter:  94  00:21:53  -8.70  -7.44  -226.248374            -0.0,+0.0,-0.1
iter:  95  00:22:27  -9.36  -7.50  -226.248374            -0.0,+0.0,-0.1
iter:  96  00:23:02  -9.00  -7.28  -226.248375            -0.0,+0.0,-0.1
iter:  97  00:23:36  -9.20  -7.53  -226.248375            -0.0,+0.0,-0.1
iter:  98  00:24:10  -8.44  -7.53  -226.248375            -0.0,+0.0,-0.1
iter:  99  00:24:44  -7.34  -7.37  -226.248375            -0.0,+0.0,-0.1
iter: 100  00:25:19  -7.57  -7.35  -226.248375            -0.0,+0.0,-0.1
iter: 101  00:25:53  -8.88  -7.21  -226.248375            -0.0,+0.0,-0.1
iter: 102  00:26:27  -8.88  -7.03  -226.248376            -0.0,+0.0,-0.1
iter: 103  00:27:01  -9.35  -7.64  -226.248376            -0.0,+0.0,-0.1
iter: 104  00:27:36  -9.05  -7.49  -226.248375            -0.0,+0.0,-0.1
iter: 105  00:28:10  -7.95  -7.37  -226.248376            -0.0,+0.0,-0.1
iter: 106  00:28:44  -8.87  -7.51  -226.248376            -0.0,+0.0,-0.1
iter: 107  00:29:19  -9.01  -7.48  -226.248376            -0.0,+0.0,-0.1
iter: 108  00:29:53  -8.76  -7.19  -226.248376            -0.0,+0.0,-0.1
iter: 109  00:30:27  -9.31  -7.46  -226.248376            -0.0,+0.0,-0.1
iter: 110  00:31:02  -7.77  -7.56  -226.248376            -0.0,-0.0,-0.1
iter: 111  00:31:36  -8.25  -7.50  -226.248376            -0.0,-0.0,-0.1
iter: 112  00:32:10  -9.07  -7.65  -226.248376            -0.0,-0.0,-0.1
iter: 113  00:32:44  -8.60  -7.69  -226.248376            -0.0,-0.0,-0.1
iter: 114  00:33:19  -8.74  -7.83  -226.248376            -0.0,-0.0,-0.1
iter: 115  00:33:53  -9.48  -7.59  -226.248376            -0.0,-0.0,-0.1
iter: 116  00:34:27  -8.78  -7.65  -226.248376            -0.0,-0.0,-0.1
iter: 117  00:35:02  -9.41  -7.65  -226.248377            -0.0,-0.0,-0.1
iter: 118  00:35:36  -9.09  -7.70  -226.248377            -0.0,-0.0,-0.0
iter: 119  00:36:10  -8.96  -7.81  -226.248377            -0.0,-0.0,-0.0
iter: 120  00:36:44  -9.13  -8.02  -226.248377            -0.0,-0.0,-0.0
iter: 121  00:37:19  -8.40  -7.99  -226.248376            -0.0,-0.0,-0.0
iter: 122  00:37:53  -8.43  -7.11  -226.248377            -0.0,-0.0,-0.0
iter: 123  00:38:28  -9.11  -7.70  -226.248377            -0.0,-0.0,-0.0
iter: 124  00:39:02  -8.96  -7.66  -226.248377            -0.0,-0.0,-0.0
iter: 125  00:39:36  -7.94  -7.52  -226.248377            -0.0,-0.0,-0.0
iter: 126  00:40:10  -8.90  -7.56  -226.248377            -0.0,-0.0,-0.0
iter: 127  00:40:45  -8.82  -7.75  -226.248377            -0.0,-0.0,-0.0
iter: 128  00:41:19  -8.20  -7.79  -226.248377            -0.0,-0.0,-0.0
iter: 129  00:41:53  -8.49  -7.92  -226.248377            -0.0,-0.0,-0.0
iter: 130  00:42:27  -8.70  -7.73  -226.248377            -0.0,-0.0,-0.0
iter: 131  00:43:01  -7.95  -7.56  -226.248377            -0.0,-0.0,-0.0
iter: 132  00:43:36  -9.44  -7.84  -226.248377            -0.0,-0.0,-0.0
iter: 133  00:44:10  -9.72  -7.96  -226.248377            -0.0,-0.0,-0.0
iter: 134  00:44:44  -8.95  -7.99  -226.248377            -0.0,-0.0,-0.0
iter: 135  00:45:19  -9.39  -7.87  -226.248377            -0.0,-0.0,-0.0
iter: 136  00:45:53  -8.72  -8.01  -226.248377            -0.0,-0.0,-0.0
iter: 137  00:46:27  -8.03  -7.49  -226.248377            -0.0,-0.0,-0.0
iter: 138  00:47:01  -9.73  -7.81  -226.248377            -0.0,-0.0,-0.0
iter: 139  00:47:36  -8.70  -7.87  -226.248376            -0.0,-0.0,-0.0
iter: 140  00:48:10  -8.52  -7.67  -226.248377            -0.0,-0.0,-0.0
iter: 141  00:48:44  -9.84  -7.82  -226.248377            -0.0,-0.0,-0.0
iter: 142  00:49:18  -8.42  -7.77  -226.248377            -0.0,-0.0,-0.0
iter: 143  00:49:53  -8.73  -7.61  -226.248377            -0.0,-0.0,-0.0
iter: 144  00:50:27 -10.11  -7.74  -226.248377            -0.0,-0.0,-0.0
iter: 145  00:51:01  -9.46  -7.74  -226.248377            -0.0,-0.0,-0.0
iter: 146  00:51:35  -8.34  -7.63  -226.248377            -0.0,-0.0,-0.0
iter: 147  00:52:10  -8.38  -7.73  -226.248377            -0.0,-0.0,-0.0
iter: 148  00:52:44  -8.94  -8.14  -226.248377            -0.0,-0.0,-0.0
iter: 149  00:53:18  -9.30  -8.07  -226.248377            -0.0,-0.0,-0.0
iter: 150  00:53:53  -9.58  -8.04  -226.248377            -0.0,-0.0,-0.0
iter: 151  00:54:27  -9.04  -7.74  -226.248377            -0.0,-0.0,-0.0
iter: 152  00:55:01  -8.74  -7.87  -226.248377            -0.0,-0.0,-0.0
iter: 153  00:55:35  -8.41  -8.04  -226.248377            -0.0,-0.0,-0.0
iter: 154  00:56:10  -9.31  -7.69  -226.248377            -0.0,-0.0,-0.0
iter: 155  00:56:44 -10.20  -7.92  -226.248377            -0.0,-0.0,-0.0
iter: 156  00:57:18  -8.33  -7.99  -226.248377            -0.0,-0.0,-0.0
iter: 157  00:57:52  -9.48  -7.85  -226.248377            -0.0,-0.0,-0.0
iter: 158  00:58:27  -9.75  -7.80  -226.248377            -0.0,-0.0,-0.0
iter: 159  00:59:01  -9.16  -7.89  -226.248377            -0.0,-0.0,-0.0
iter: 160  00:59:35  -9.36  -7.69  -226.248377            -0.0,-0.0,-0.0
iter: 161  01:00:09  -9.15  -7.57  -226.248377            -0.0,-0.0,-0.0
iter: 162  01:00:43  -8.57  -7.76  -226.248377            -0.0,-0.0,-0.0
iter: 163  01:01:18  -9.68  -8.02  -226.248377            -0.0,-0.0,-0.0
iter: 164  01:01:52  -9.96  -8.12  -226.248377            -0.0,-0.0,-0.0
iter: 165  01:02:26 -10.13  -8.02  -226.248377            -0.0,-0.0,-0.0
iter: 166  01:03:00  -8.70  -7.91  -226.248377            -0.0,-0.0,-0.0
iter: 167  01:03:34  -9.66  -7.83  -226.248377            -0.0,-0.0,-0.0
iter: 168  01:04:09  -9.97  -7.87  -226.248377            -0.0,-0.0,-0.0
iter: 169  01:04:43  -9.28  -7.91  -226.248377            -0.0,-0.0,-0.0
iter: 170  01:05:17  -9.07  -7.87  -226.248377            -0.0,-0.0,-0.0
iter: 171  01:05:51  -9.99  -7.91  -226.248377            -0.0,-0.0,-0.0
iter: 172  01:06:26 -10.13  -7.96  -226.248377            -0.0,-0.0,-0.0
iter: 173  01:07:00  -9.03  -8.12  -226.248377            -0.0,-0.0,-0.0
iter: 174  01:07:34  -8.59  -7.94  -226.248377            -0.0,-0.0,-0.0
iter: 175  01:08:08  -9.01  -7.84  -226.248377            -0.0,-0.0,-0.0
iter: 176  01:08:43  -9.23  -7.87  -226.248377            -0.0,-0.0,-0.0
iter: 177  01:09:17  -9.55  -7.97  -226.248377            -0.0,-0.0,-0.0
iter: 178  01:09:51 -10.68  -8.00  -226.248377            -0.0,-0.0,-0.0
iter: 179  01:10:25 -10.28  -8.27  -226.248377            -0.0,-0.0,-0.0
iter: 180  01:11:00 -11.01  -8.02  -226.248377            -0.0,-0.0,-0.0
iter: 181  01:11:34 -10.25  -7.86  -226.248377            -0.0,-0.0,-0.0
iter: 182  01:12:08  -9.42  -7.93  -226.248377            -0.0,-0.0,-0.0
iter: 183  01:12:42 -10.10  -8.23  -226.248377            -0.0,-0.0,-0.0
iter: 184  01:13:16 -10.93  -8.52  -226.248377            -0.0,-0.0,-0.0
iter: 185  01:13:51 -10.27  -8.30  -226.248377            -0.0,-0.0,-0.0
iter: 186  01:14:25 -11.39  -7.93  -226.248377            -0.0,-0.0,-0.0
iter: 187  01:14:59 -10.43  -7.90  -226.248377            -0.0,-0.0,-0.0
iter: 188  01:15:33  -9.93  -7.91  -226.248377            -0.0,-0.0,-0.0
iter: 189  01:16:07 -10.10  -7.95  -226.248377            -0.0,-0.0,-0.0
iter: 190  01:16:42  -9.60  -8.07  -226.248377            -0.0,-0.0,-0.0
iter: 191  01:17:16  -9.20  -8.20  -226.248377            -0.0,-0.0,-0.0
iter: 192  01:17:50  -9.74  -8.00  -226.248377            -0.0,-0.0,-0.0
iter: 193  01:18:24 -11.06  -8.47  -226.248377            -0.0,-0.0,-0.0
iter: 194  01:18:59 -10.14  -8.31  -226.248377            -0.0,-0.0,-0.0
iter: 195  01:19:33 -10.60  -7.86  -226.248377            -0.0,-0.0,-0.0
iter: 196  01:20:07  -9.97  -7.98  -226.248377            -0.0,-0.0,-0.0
iter: 197  01:20:41  -9.08  -8.09  -226.248377            -0.0,-0.0,-0.0
iter: 198  01:21:15 -10.13  -8.24  -226.248377            -0.0,-0.0,-0.0
iter: 199  01:21:49 -10.90  -8.49  -226.248377            -0.0,-0.0,-0.0
iter: 200  01:22:24 -10.16  -8.33  -226.248377            -0.0,-0.0,-0.0
iter: 201  01:22:58 -10.63  -7.80  -226.248377            -0.0,-0.0,-0.0
iter: 202  01:23:32  -9.96  -7.97  -226.248377            -0.0,-0.0,-0.0
iter: 203  01:24:06  -9.17  -8.08  -226.248377            -0.0,-0.0,-0.0
iter: 204  01:24:40 -10.35  -8.52  -226.248377            -0.0,-0.0,-0.0
iter: 205  01:25:14 -10.84  -8.54  -226.248377            -0.0,-0.0,-0.0
iter: 206  01:25:49 -10.28  -8.25  -226.248377            -0.0,-0.0,-0.0
iter: 207  01:26:23 -10.64  -7.82  -226.248377            -0.0,-0.0,-0.0
iter: 208  01:26:57  -9.87  -7.96  -226.248377            -0.0,-0.0,-0.0
iter: 209  01:27:31  -9.30  -8.11  -226.248377            -0.0,-0.0,-0.0
iter: 210  01:28:06 -10.48  -8.63  -226.248377            -0.0,-0.0,-0.0
iter: 211  01:28:40 -10.80  -8.53  -226.248377            -0.0,-0.0,-0.0
iter: 212  01:29:14 -10.35  -8.22  -226.248377            -0.0,-0.0,-0.0
iter: 213  01:29:48 -10.62  -7.84  -226.248377            -0.0,-0.0,-0.0
iter: 214  01:30:23  -9.79  -7.96  -226.248377            -0.0,-0.0,-0.0
iter: 215  01:30:57  -9.30  -8.13  -226.248377            -0.0,-0.0,-0.0
iter: 216  01:31:31 -10.10  -8.67  -226.248377            -0.0,-0.0,-0.0
iter: 217  01:32:05 -10.21  -8.47  -226.248377            -0.0,-0.0,-0.0
iter: 218  01:32:40 -10.21  -8.16  -226.248377            -0.0,+0.0,-0.0
iter: 219  01:33:14 -10.50  -7.84  -226.248377            -0.0,+0.0,-0.0
iter: 220  01:33:48  -9.59  -7.96  -226.248377            -0.0,-0.0,-0.0
iter: 221  01:34:22  -9.42  -8.11  -226.248377            -0.0,+0.0,-0.0
iter: 222  01:34:57 -10.53  -8.82  -226.248377            -0.0,-0.0,-0.0
iter: 223  01:35:31 -10.30  -8.43  -226.248377            -0.0,+0.0,-0.0
iter: 224  01:36:05  -9.70  -8.15  -226.248377            -0.0,+0.0,-0.0
iter: 225  01:36:39 -10.23  -7.87  -226.248377            -0.0,+0.0,-0.0
iter: 226  01:37:13  -9.34  -7.97  -226.248377            -0.0,+0.0,-0.0
iter: 227  01:37:48  -9.26  -8.16  -226.248377            -0.0,+0.0,-0.0
iter: 228  01:38:22 -10.64  -8.87  -226.248377            -0.0,+0.0,-0.0
iter: 229  01:38:56 -10.47  -8.45  -226.248377            -0.0,+0.0,-0.0
iter: 230  01:39:30 -10.39  -8.15  -226.248377            -0.0,+0.0,-0.0
iter: 231  01:40:04 -10.37  -7.88  -226.248377            -0.0,+0.0,-0.0
iter: 232  01:40:38  -9.44  -7.98  -226.248377            -0.0,+0.0,-0.0
iter: 233  01:41:13  -9.48  -8.20  -226.248377            -0.0,+0.0,-0.0
iter: 234  01:41:47 -10.88  -8.85  -226.248377            -0.0,+0.0,-0.0
iter: 235  01:42:21 -10.63  -8.42  -226.248377            -0.0,+0.0,-0.0
iter: 236  01:42:55 -10.46  -8.12  -226.248377            -0.0,+0.0,-0.0
iter: 237  01:43:29 -10.06  -7.88  -226.248377            -0.0,+0.0,-0.0
iter: 238  01:44:04  -9.61  -7.99  -226.248377            -0.0,+0.0,-0.0
iter: 239  01:44:38  -9.82  -8.23  -226.248377            -0.0,+0.0,-0.0
iter: 240  01:45:12 -10.37  -8.76  -226.248377            -0.0,+0.0,-0.0
iter: 241  01:45:46 -10.37  -8.39  -226.248377            -0.0,+0.0,-0.0
iter: 242  01:46:21 -10.74  -8.07  -226.248377            -0.0,+0.0,-0.0
iter: 243  01:46:55 -10.44  -7.90  -226.248377            -0.0,+0.0,-0.0
iter: 244  01:47:29  -9.31  -8.01  -226.248377            -0.0,+0.0,-0.0
iter: 245  01:48:03  -9.83  -8.29  -226.248377            -0.0,+0.0,-0.0
iter: 246  01:48:37 -10.72  -8.78  -226.248377            -0.0,+0.0,-0.0
iter: 247  01:49:11 -10.37  -8.37  -226.248377            -0.0,+0.0,-0.0
iter: 248  01:49:45 -10.19  -8.06  -226.248377            -0.0,+0.0,-0.0
iter: 249  01:50:19  -9.56  -7.90  -226.248377            -0.0,+0.0,-0.0
iter: 250  01:50:54  -9.28  -8.01  -226.248377            -0.0,+0.0,-0.0
iter: 251  01:51:28  -9.89  -8.28  -226.248377            -0.0,+0.0,-0.0
iter: 252  01:52:02 -10.58  -8.62  -226.248377            -0.0,+0.0,-0.0
iter: 253  01:52:36  -9.93  -8.37  -226.248377            -0.0,+0.0,-0.0
iter: 254  01:53:10  -9.74  -8.06  -226.248377            -0.0,+0.0,-0.0
iter: 255  01:53:44 -10.10  -7.92  -226.248378            -0.0,+0.0,-0.0
iter: 256  01:54:18  -9.60  -8.04  -226.248378            -0.0,+0.0,-0.0
iter: 257  01:54:52 -10.02  -8.35  -226.248378            -0.0,+0.0,-0.0
iter: 258  01:55:26 -10.51  -8.70  -226.248378            -0.0,+0.0,-0.0
iter: 259  01:56:00 -10.55  -8.35  -226.248378            -0.0,+0.0,-0.0
iter: 260  01:56:35 -11.06  -8.06  -226.248378            -0.0,+0.0,-0.0
iter: 261  01:57:09 -10.29  -7.93  -226.248378            -0.0,+0.0,-0.0
iter: 262  01:57:43  -9.60  -8.06  -226.248378            -0.0,+0.0,-0.0
iter: 263  01:58:17 -10.26  -8.40  -226.248378            -0.0,+0.0,-0.0
iter: 264  01:58:52 -10.92  -8.76  -226.248378            -0.0,+0.0,-0.0
iter: 265  01:59:26 -10.57  -8.35  -226.248378            -0.0,+0.0,-0.0
iter: 266  02:00:00 -11.11  -8.05  -226.248378            -0.0,+0.0,-0.0
iter: 267  02:00:34 -10.27  -7.96  -226.248378            -0.0,+0.0,-0.0
iter: 268  02:01:08  -9.52  -8.08  -226.248378            -0.0,+0.0,-0.0
iter: 269  02:01:42 -10.23  -8.42  -226.248378            -0.0,+0.0,-0.0
iter: 270  02:02:16 -10.57  -8.62  -226.248378            -0.0,+0.0,-0.0
iter: 271  02:02:50 -10.56  -8.33  -226.248378            -0.0,+0.0,-0.0
iter: 272  02:03:24 -11.17  -8.02  -226.248378            -0.0,+0.0,-0.0
iter: 273  02:03:58 -10.01  -7.95  -226.248378            -0.0,+0.0,-0.0
iter: 274  02:04:32  -9.61  -8.08  -226.248378            -0.0,+0.0,-0.0
iter: 275  02:05:06 -10.40  -8.49  -226.248378            -0.0,+0.0,-0.0
iter: 276  02:05:40 -10.33  -8.71  -226.248378            -0.0,+0.0,-0.0
iter: 277  02:06:15 -10.11  -8.39  -226.248378            -0.0,-0.0,-0.0
iter: 278  02:06:49 -11.32  -8.05  -226.248378            -0.0,-0.0,-0.0
iter: 279  02:07:23 -10.42  -8.00  -226.248378            -0.0,-0.0,-0.0
iter: 280  02:07:57  -9.73  -8.10  -226.248378            -0.0,-0.0,-0.0
iter: 281  02:08:31 -10.46  -8.34  -226.248378            -0.0,-0.0,-0.0
iter: 282  02:09:05 -10.65  -8.48  -226.248378            -0.0,-0.0,-0.0
iter: 283  02:09:39 -10.37  -8.42  -226.248379            -0.0,-0.0,-0.0
iter: 284  02:10:13 -11.61  -8.05  -226.248378            -0.0,-0.0,-0.0
iter: 285  02:10:47 -10.41  -8.02  -226.248379            -0.0,-0.0,-0.0
iter: 286  02:11:21  -9.58  -8.09  -226.248381            -0.0,-0.0,-0.0
iter: 287  02:11:55 -10.28  -8.36  -226.248380            -0.0,-0.0,-0.0
iter: 288  02:12:29 -10.96  -8.45  -226.248378            -0.0,-0.0,-0.0
iter: 289  02:13:03 -10.18  -8.59  -226.248377            -0.0,-0.0,-0.0
iter: 290  02:13:37 -11.04  -8.16  -226.248377            -0.0,-0.0,-0.0
iter: 291  02:14:11 -10.38  -8.02  -226.248376            -0.0,-0.0,-0.0
iter: 292  02:14:45  -9.31  -7.94  -226.248376            -0.0,-0.0,-0.0
iter: 293  02:15:19 -10.15  -8.36  -226.248376            -0.0,-0.0,-0.0
iter: 294  02:15:53 -10.83  -8.49  -226.248377            -0.0,-0.0,-0.0
iter: 295  02:16:27 -10.45  -8.72  -226.248379            -0.0,-0.0,-0.0
iter: 296  02:17:01 -10.99  -8.29  -226.248379            -0.0,-0.0,-0.0
iter: 297  02:17:35 -10.74  -8.11  -226.248378            -0.0,-0.0,-0.0
iter: 298  02:18:08  -9.42  -8.01  -226.248377            -0.0,-0.0,-0.0
iter: 299  02:18:42  -9.90  -8.49  -226.248378            -0.0,-0.0,-0.0
iter: 300  02:19:16 -10.90  -8.79  -226.248378            -0.0,-0.0,-0.0
iter: 301  02:19:50 -10.24  -8.74  -226.248377            -0.0,-0.0,-0.0
iter: 302  02:20:24 -10.80  -8.20  -226.248378            -0.0,-0.0,-0.0
iter: 303  02:20:58 -10.80  -8.12  -226.248378            -0.0,-0.0,-0.0
iter: 304  02:21:32  -9.41  -8.03  -226.248377            -0.0,-0.0,-0.0
iter: 305  02:22:05 -10.13  -8.59  -226.248376            -0.0,-0.0,-0.0
iter: 306  02:22:39 -11.00  -8.93  -226.248376            -0.0,-0.0,-0.0
iter: 307  02:23:13 -10.50  -8.99  -226.248376            -0.0,-0.0,-0.0
iter: 308  02:23:47 -11.05  -8.28  -226.248375            -0.0,-0.0,-0.0
iter: 309  02:24:21 -11.10  -8.14  -226.248376            -0.0,-0.0,-0.0
iter: 310  02:24:55  -9.48  -8.07  -226.248376            -0.0,-0.0,-0.0
iter: 311  02:25:29  -9.94  -8.59  -226.248375            -0.0,-0.0,-0.0
iter: 312  02:26:02 -11.07  -8.81  -226.248374            -0.0,-0.0,-0.0
iter: 313  02:26:36 -10.31  -8.71  -226.248375            -0.0,-0.0,-0.0
iter: 314  02:27:10 -11.28  -8.22  -226.248374            -0.0,-0.0,-0.0
iter: 315  02:27:44 -11.19  -8.17  -226.248375            -0.0,-0.0,-0.0
iter: 316  02:28:18  -9.52  -8.10  -226.248374            -0.0,-0.0,-0.0
iter: 317  02:28:52 -10.25  -8.58  -226.248373            -0.0,-0.0,-0.0
iter: 318  02:29:26 -11.00  -8.59  -226.248374            -0.0,-0.0,-0.0
iter: 319  02:30:00 -11.02  -8.65  -226.248375            -0.0,-0.0,-0.0
iter: 320  02:30:34 -10.79  -8.49  -226.248375            -0.0,-0.0,-0.0
iter: 321  02:31:08 -11.74  -8.16  -226.248376            -0.0,-0.0,-0.0
iter: 322  02:31:42 -10.17  -8.13  -226.248376            -0.0,-0.0,-0.0
iter: 323  02:32:16  -9.81  -8.30  -226.248376            -0.0,-0.0,-0.0
iter: 324  02:32:49 -10.76  -8.67  -226.248375            -0.0,-0.0,-0.0
iter: 325  02:33:23 -11.29  -8.76  -226.248374            -0.0,-0.0,-0.0
iter: 326  02:33:57 -10.60  -8.67  -226.248374            -0.0,-0.0,-0.0
iter: 327  02:34:31 -11.81  -8.16  -226.248374            -0.0,-0.0,-0.0
iter: 328  02:35:05 -11.56  -8.15  -226.248374            -0.0,-0.0,-0.0
iter: 329  02:35:39 -11.13  -8.17  -226.248374            -0.0,-0.0,-0.0
iter: 330  02:36:12 -10.57  -8.24  -226.248375            -0.0,-0.0,-0.0
iter: 331  02:36:46 -10.34  -8.37  -226.248378            -0.0,-0.0,-0.0
iter: 332  02:37:20 -10.11  -8.80  -226.248378            -0.0,-0.0,-0.0
iter: 333  02:37:54 -11.06  -8.61  -226.248375            -0.0,-0.0,-0.0
iter: 334  02:38:28 -11.21  -8.74  -226.248374            -0.0,-0.0,-0.0
iter: 335  02:39:02 -10.64  -8.70  -226.248374            -0.0,-0.0,-0.0
iter: 336  02:39:36 -11.21  -8.35  -226.248375            -0.0,-0.0,-0.0
iter: 337  02:40:10 -11.20  -8.27  -226.248375            -0.0,-0.0,-0.0
iter: 338  02:40:44 -10.74  -8.28  -226.248370            -0.0,-0.0,-0.0
iter: 339  02:41:18 -10.65  -8.38  -226.248377            -0.0,-0.0,-0.0
iter: 340  02:41:52 -10.62  -8.42  -226.248380            -0.0,+0.0,-0.0
iter: 341  02:42:25  -9.86  -8.43  -226.248376            -0.0,-0.0,-0.0
iter: 342  02:42:59 -10.64  -8.43  -226.248373            -0.0,+0.0,-0.0
iter: 343  02:43:33 -10.98  -8.92  -226.248373            -0.0,-0.0,-0.0
iter: 344  02:44:07 -10.42  -9.01  -226.248375            -0.0,-0.0,-0.0

Converged after 344 iterations.

Dipole moment: (0.161186, 0.007085, -1.635378) |e|*Ang

Total magnetic moment: (-0.000130, -0.000002, -0.003214)
Local magnetic moments:
   0 O  ( 0.002520, -0.000094,  0.000223)
   1 O  (-0.002567,  0.000088,  0.000146)
   2 O  ( 0.001554, -0.000065, -0.000225)
   3 O  (-0.001525,  0.000069, -0.000236)
   4 O  ( 0.001567,  0.000068, -0.000225)
   5 O  (-0.001539, -0.000072, -0.000236)
   6 O  ( 0.002546,  0.000100,  0.000224)
   7 O  (-0.002592, -0.000094,  0.000147)
   8 O  (-0.028709, -0.000028,  0.000114)
   9 O  ( 0.028619,  0.000028,  0.000095)
  10 O  ( 0.028779,  0.000019, -0.000625)
  11 O  (-0.028793, -0.000019,  0.000366)
  12 Mn (-4.445663, -0.004401,  0.012367)
  13 Mn ( 4.446212,  0.004402,  0.016963)
  14 Mn ( 4.444748,  0.002889, -0.094501)
  15 Mn (-4.445281, -0.002891,  0.062344)
  16 P  (-0.000832,  0.000001,  0.000256)
  17 P  ( 0.000806, -0.000001,  0.000041)
  18 P  ( 0.002195,  0.000003, -0.000088)
  19 P  (-0.002206, -0.000003, -0.000195)
  20 O  (-0.025900, -0.000026, -0.000064)
  21 O  ( 0.025917,  0.000026, -0.000053)
  22 O  ( 0.024764,  0.000016, -0.000345)
  23 O  (-0.024656, -0.000016,  0.000513)
  24 Li (-0.000053,  0.000002, -0.000004)
  25 Li ( 0.000057, -0.000002,  0.000003)
  26 Li (-0.000053, -0.000002, -0.000004)
  27 Li ( 0.000057,  0.000002,  0.000003)

Energy contributions relative to reference atoms: (reference = -196157.275402)

Kinetic:       +217.640409
Potential:     -195.482646
External:        +0.000000
XC:            -250.446011
Entropy (-ST):   -0.000000
Local:           +2.039874
--------------------------
Free energy:   -226.248375
Extrapolated:  -226.248375

Showing only first 2 kpts
 Kpt  Band  Eigenvalues  Occupancy
  0    88     -2.04238    1.00000
  0    89     -2.02980    1.00000
  0    90     -1.94813    1.00000
  0    91     -1.93730    1.00000

  1    88     -2.16797    1.00000
  1    89     -2.15739    1.00000
  1    90     -2.11351    1.00000
  1    91     -2.09009    1.00000


Fermi level: 6.27545

Gap: 1.962 eV
Transition (v -> c):
  (s=0, k=45, n=179, [-0.12, 0.38, 0.08]) -> (s=0, k=33, n=180, [-0.12, -0.12, 0.08])

Forces in eV/Ang:
  0 O    -0.02314   -0.00271    0.11351
  1 O     0.02758    0.00323    0.11541
  2 O    -0.02421    0.00505    0.12586
  3 O     0.02743   -0.00523    0.12638
  4 O    -0.02424   -0.00512    0.12592
  5 O     0.02746    0.00530    0.12648
  6 O    -0.02309    0.00269    0.11353
  7 O     0.02751   -0.00322    0.11543
  8 O    -0.00223    0.00001    0.11883
  9 O     0.00709   -0.00000    0.11742
 10 O    -0.00071    0.00001    0.10822
 11 O     0.00549   -0.00000    0.10538
 12 Mn   -0.00330   -0.00003   -0.17201
 13 Mn    0.00576    0.00004   -0.17102
 14 Mn    0.00269    0.00002   -0.17827
 15 Mn   -0.00005   -0.00002   -0.17905
 16 P     0.02167    0.00003   -0.25352
 17 P    -0.01776   -0.00003   -0.25467
 18 P    -0.03733    0.00002   -0.28038
 19 P    -0.01615   -0.00002   -0.27955
 20 O     0.01444    0.00003    0.19518
 21 O    -0.01035   -0.00004    0.19600
 22 O     0.02301   -0.00002    0.19623
 23 O    -0.01717    0.00002    0.19689
 24 Li    0.00326   -0.00488   -0.10750
 25 Li    0.00152    0.00469   -0.10651
 26 Li    0.00325    0.00487   -0.10748
 27 Li    0.00151   -0.00466   -0.10652

Timing:                              incl.     excl.
-----------------------------------------------------------
Forces:                              4.459     4.459   0.0% |
Hamiltonian:                         0.665     0.003   0.0% |
 Atomic:                             0.108     0.108   0.0% |
  XC Correction:                     0.000     0.000   0.0% |
 Calculate atomic Hamiltonians:      0.254     0.254   0.0% |
 Communicate:                        0.000     0.000   0.0% |
 Initialize Hamiltonian:             0.001     0.001   0.0% |
 Poisson:                            0.002     0.002   0.0% |
 XC 3D grid:                         0.297     0.297   0.0% |
LCAO initialization:                59.913     0.365   0.0% |
 LCAO eigensolver:                  10.362     0.002   0.0% |
  DenseAtomicCorrection:             0.017     0.017   0.0% |
  Distribute overlap matrix:         0.001     0.001   0.0% |
  Orbital Layouts:                   0.063     0.063   0.0% |
  Potential matrix:                 10.241    10.241   0.1% |
  Sum over cells:                    0.039     0.039   0.0% |
 LCAO to grid:                      48.213    48.213   0.4% |
 Set positions (LCAO WFS):           0.973     0.206   0.0% |
  Basic WFS set positions:           0.001     0.001   0.0% |
  Basis functions set positions:     0.000     0.000   0.0% |
  P tci:                             0.378     0.378   0.0% |
  ST tci:                            0.297     0.297   0.0% |
  mktci:                             0.091     0.091   0.0% |
PWDescriptor:                        0.010     0.010   0.0% |
SCF-cycle:                       11789.723  3352.655  28.3% |----------|
 Davidson:                        6902.225   787.976   6.6% |--|
  Apply H:                        1080.103  1080.103   9.1% |---|
  Subspace diag:                  1446.218     0.143   0.0% |
   calc_h_matrix:                 1229.268   134.408   1.1% |
    Apply H:                      1094.860  1094.860   9.2% |---|
   diagonalize:                     11.935    11.935   0.1% |
   rotate_psi:                     204.872   204.872   1.7% ||
  calc. matrices:                 2940.258   776.684   6.6% |--|
   Apply H:                       2163.574  2163.574  18.2% |------|
  diagonalize:                     256.958   256.958   2.2% ||
  rotate_psi:                      390.710   390.710   3.3% ||
 Density:                         1309.249     0.010   0.0% |
  Atomic density matrices:          39.691    39.691   0.3% |
  Mix:                             121.974   121.974   1.0% |
  Multipole moments:                 0.188     0.188   0.0% |
  Pseudo density:                 1147.386  1147.362   9.7% |---|
   Symmetrize density:               0.024     0.024   0.0% |
 Hamiltonian:                      224.646     1.325   0.0% |
  Atomic:                           21.549    21.548   0.2% |
   XC Correction:                    0.001     0.001   0.0% |
  Calculate atomic Hamiltonians:    95.929    95.929   0.8% |
  Communicate:                       0.080     0.080   0.0% |
  Poisson:                           1.152     1.152   0.0% |
  XC 3D grid:                      104.610   104.610   0.9% |
 Orthonormalize:                     0.948     0.001   0.0% |
  calc_s_matrix:                     0.195     0.195   0.0% |
  inverse-cholesky:                  0.008     0.008   0.0% |
  projections:                       0.446     0.446   0.0% |
  rotate_psi_s:                      0.299     0.299   0.0% |
Set symmetry:                        0.000     0.000   0.0% |
Other:                               2.662     2.662   0.0% |
-----------------------------------------------------------
Total:                                     11857.433 100.0%

Memory usage: 1.23 GiB
Date: Sun Jun 26 02:44:11 2022
