
  ___ ___ ___ _ _ _  
 |   |   |_  | | | | 
 | | | | | . | | | | 
 |__ |  _|___|_____|  21.6.1b1
 |___|_|             

User:   madkru@a104.nifl.fysik.dtu.dk
Date:   Fri Jun 24 19:39:07 2022
Arch:   x86_64
Pid:    4971
Python: 3.8.6
gpaw:   /home/niflheim/madkru/new_venv/gpaw/gpaw (1f0dfc9eae)
_gpaw:  /home/niflheim/madkru/new_venv/gpaw/build/lib.linux-x86_64-skylake-3.8/
        _gpaw.cpython-38-x86_64-linux-gnu.so (c1e45bfab3)
ase:    /home/niflheim/madkru/new_venv/ase/ase (version 3.23.0b1-ca38c75a67)
numpy:  /home/modules/software/SciPy-bundle/2020.11-foss-2020b/lib/python3.8/site-packages/numpy (version 1.19.4)
scipy:  /home/modules/software/SciPy-bundle/2020.11-foss-2020b/lib/python3.8/site-packages/scipy (version 1.5.4)
libxc:  4.3.4
units:  Angstrom and eV
cores: 40
OpenMP: False
OMP_NUM_THREADS: 1

Input parameters:
  convergence: {density: 1e-09}
  experimental: {magmoms: [[0. 0. 0.]
 [0. 0. 0.]
 [0. 0. 0.]
 ...
 [0. 0. 0.]
 [0. 0. 0.]
 [0. 0. 0.]],
                 soc: True}
  kpts: [4 4 6]
  maxiter: 5000
  mixer: {backend: pulay,
          beta: 0.05,
          method: difference,
          nmaxold: 3,
          weight: 100}
  mode: {ecut: 600.0,
         gammacentered: False,
         name: pw}
  occupations: {fixmagmom: False,
                name: fermi-dirac,
                width: 0.001}
  symmetry: off

System changes: positions, numbers, cell, pbc, initial_charges, initial_magmoms 

Initialize ...

O-setup:
  name: Oxygen
  id: 9b9d51c344dea68c822856295a461509
  Z: 8.0
  valence: 6
  core: 2
  charge: 0.0
  file: /home/modules/software/GPAW-setups/0.9.20000/O.LDA.gz
  compensation charges: gauss, rc=0.21, lmax=2
  cutoffs: 1.17(filt), 0.83(core),
  valence states:
                energy  radius
    2s(2.00)   -23.752   0.688
    2p(4.00)    -9.195   0.598
    *s           3.459   0.688
    *p          18.016   0.598
    *d           0.000   0.619

  Using partial waves for O as LCAO basis

Mn-setup:
  name: Manganese
  id: 0d715a8018be061a6e9ea6f2d364ac92
  Z: 25.0
  valence: 15
  core: 10
  charge: 0.0
  file: /home/modules/software/GPAW-setups/0.9.20000/Mn.LDA.gz
  compensation charges: gauss, rc=0.38, lmax=2
  cutoffs: 2.14(filt), 0.86(core),
  valence states:
                energy  radius
    3s(2.00)   -85.387   1.275
    4s(2.00)    -5.282   1.275
    3p(6.00)   -54.493   1.281
    4p(0.00)    -1.471   1.281
    3d(5.00)    -7.009   1.138
    *d          20.203   1.138

  Using partial waves for Mn as LCAO basis

P-setup:
  name: Phosphorus
  id: a5561c299094968922a179ab894d2e2d
  Z: 15.0
  valence: 5
  core: 10
  charge: 0.0
  file: /home/modules/software/GPAW-setups/0.9.20000/P.LDA.gz
  compensation charges: gauss, rc=0.30, lmax=2
  cutoffs: 1.69(filt), 1.81(core),
  valence states:
                energy  radius
    3s(2.00)   -14.015   0.953
    3p(3.00)    -5.596   0.953
    *s          13.197   0.953
    *p          21.615   0.953
    *d           0.000   0.953

  Using partial waves for P as LCAO basis

Li-setup:
  name: Lithium
  id: b73562207f97a71b6967473b66fe8b65
  Z: 3.0
  valence: 1
  core: 2
  charge: 0.0
  file: /home/modules/software/GPAW-setups/0.9.20000/Li.LDA.gz
  compensation charges: gauss, rc=0.33, lmax=2
  cutoffs: 1.91(filt), 2.55(core),
  valence states:
                energy  radius
    2s(1.00)    -2.874   1.058
    2p(0.00)    -1.126   1.058
    *s          24.338   1.058

  Using partial waves for Li as LCAO basis

Reference energy: -196157.275402

Non-collinear calculation.
Magnetic moment: (0.000000, 0.000000, 0.000000)

Convergence criteria:
  Maximum total energy change: 0.0005 eV / electron
  Maximum integral of absolute density change: 1e-09 electrons
  Maximum integral of absolute eigenstate change: 4e-08 eV^2
  Maximum number of iterations: 5000

Symmetries present (total): 1

  ( 1  0  0)
  ( 0  1  0)
  ( 0  0  1)

96 k-points: 4 x 4 x 6 Monkhorst-Pack grid
96 k-points in the irreducible part of the Brillouin zone
       k-points in crystal coordinates                weights
   0:    -0.37500000   -0.37500000   -0.41666667          1/96
   1:    -0.37500000   -0.37500000   -0.25000000          1/96
   2:    -0.37500000   -0.37500000   -0.08333333          1/96
   3:    -0.37500000   -0.37500000    0.08333333          1/96
   4:    -0.37500000   -0.37500000    0.25000000          1/96
   5:    -0.37500000   -0.37500000    0.41666667          1/96
   6:    -0.37500000   -0.12500000   -0.41666667          1/96
   7:    -0.37500000   -0.12500000   -0.25000000          1/96
   8:    -0.37500000   -0.12500000   -0.08333333          1/96
   9:    -0.37500000   -0.12500000    0.08333333          1/96
          ...
  95:     0.37500000    0.37500000    0.41666667          1/96

Wave functions: Plane wave expansion
  Cutoff energy: 600.000 eV
  Number of coefficients (min, max): 10065, 10119
  Pulay-stress correction: 0.000000 eV/Ang^3 (de/decut=0.000000)
  Using FFTW library
  ScaLapack parameters: grid=1x1, blocksize=None
  Wavefunction extrapolation:
    Improved wavefunction reuse through dual PAW basis 

Occupation numbers: Fermi-Dirac: width=0.0010 eV
 

Eigensolver
   Davidson(niter=2) 

Densities:
  Coarse grid: 60*35*27 grid
  Fine grid: 120*70*54 grid
  Total Charge: 0.000000 

Density mixing:
  Method: difference
  Backend: pulay
  Linear mixing parameter: 0.05
  Mixing with 3 old densities
  Damping of long wave oscillations: 100 

Hamiltonian:
  XC and Coulomb potentials evaluated on a 120*70*54 grid
  Using the LDA Exchange-Correlation functional
  External potential:
    <gpaw.external.NoExternalPotential object at 0x2ad06db4ef40>
 

Memory estimate:
  Process memory now: 944.59 MiB
  Calculator: 167.16 MiB
    Density: 37.88 MiB
      Arrays: 11.25 MiB
      Localized functions: 18.84 MiB
      Mixer: 7.79 MiB
    Hamiltonian: 7.90 MiB
      Arrays: 7.35 MiB
      XC: 0.00 MiB
      Poisson: 0.00 MiB
      vbar: 0.54 MiB
    Wavefunctions: 121.39 MiB
      Arrays psit_nG: 69.17 MiB
      Eigensolver: 43.02 MiB
      Projections: 2.41 MiB
      Projectors: 4.31 MiB
      PW-descriptor: 2.47 MiB

Total number of cores used: 40
Parallelization over k-points: 40

Number of atoms: 28
Number of atomic orbitals: 148
Number of bands in calculation: 224
Number of valence electrons: 180
Bands to converge: occupied

... initialized

Initializing position-dependent things.

Density initialized from atomic densities
Creating initial wave functions:
  148 bands from LCAO basis set
  76 bands from random numbers

     .-------------------------.  
    /|             P  O        |  
   / |   O      O            Li|  
  /  |            Li Mn      O |  
 *   |PO    O           Mn Li  |  
 |   | O        Li       O     |  
 |   .--Mn----------O---O-P----.  
 | O/      MO                 /   
 | /            O      O     /    
 |/       O  P              /     
 *-------------------------*      

Positions:
   0 O      3.499868    0.290658    1.009014    ( 0.0000,  0.0000,  0.0000)
   1 O      1.731364    5.809443    3.378466    ( 0.0000,  0.0000,  0.0000)
   2 O      6.965155    3.340662    3.751386    ( 0.0000,  0.0000,  0.0000)
   3 O      8.722814    2.759549    1.382377    ( 0.0000,  0.0000,  0.0000)
   4 O      6.965475    5.808521    3.751451    ( 0.0000,  0.0000, -3.0000)
   5 O      8.722492    0.291267    1.382444    ( 0.0000,  0.0000,  3.0000)
   6 O      3.500118    2.760018    1.009104    ( 0.0000,  0.0000,  3.0000)
   7 O      1.731117    3.339877    3.378556    ( 0.0000,  0.0000, -3.0000)
   8 O      0.441881    1.525170    1.413909    ( 0.0000,  0.0000,  0.0000)
   9 O      4.786078    4.574830    3.782791    ( 0.0000,  0.0000,  0.0000)
  10 O     10.015753    4.574864    3.340681    ( 0.0000,  0.0000,  0.0000)
  11 O      5.675450    1.525133    0.970831    ( 0.0000,  0.0000,  0.0000)
  12 Mn     2.286701    1.524877    2.436017    ( 0.0000,  0.0000,  0.0000)
  13 Mn     2.943959    4.575122    0.066537    ( 5.0000,  0.0000,  0.0000)
  14 Mn     8.173965    4.575195    2.280607    (-5.0000,  0.0000,  0.0000)
  15 Mn     7.515747    1.524804    4.649575    (-5.0000,  0.0000,  0.0000)
  16 P      4.238076    1.525302    0.375329    ( 5.0000,  0.0000,  0.0000)
  17 P      0.993082    4.574695    2.745175    ( 0.0000,  0.0000,  0.0000)
  18 P      6.223007    4.574651    4.370394    ( 0.0000,  0.0000,  0.0000)
  19 P      9.464374    1.525349    2.001049    ( 0.0000,  0.0000,  0.0000)
  20 O      4.208612    1.525298    3.582897    ( 0.0000,  0.0000,  0.0000)
  21 O      1.022561    4.574699    1.212650    ( 0.0000,  0.0000,  0.0000)
  22 O      6.246133    4.574706    1.171476    ( 0.0000,  0.0000,  0.0000)
  23 O      9.442167    1.525294    3.542223    ( 0.0000,  0.0000,  0.0000)
  24 Li    -0.000099    0.008181   -0.025904    ( 0.0000,  0.0000,  0.0000)
  25 Li     5.232132   -0.007944    2.343317    ( 0.0000,  0.0000,  0.0000)
  26 Li    -0.000154    3.041961   -0.025760    ( 0.0000,  0.0000,  0.0000)
  27 Li     5.232172    3.057817    2.343447    ( 0.0000,  0.0000,  0.0000)

Unit cell:
           periodic     x           y           z      points  spacing
  1. axis:    yes   10.460000    0.000000    0.000000    60     0.1743
  2. axis:    yes    0.000000    6.100000    0.000000    35     0.1743
  3. axis:    yes    0.000000    0.000000    4.740000    27     0.1756

  Lengths:  10.460000   6.100000   4.740000
  Angles:   90.000000  90.000000  90.000000

Effective grid spacing dv^(1/3) = 0.1747

                     log10-error:    total        iterations:
           time      wfs    density  energy       poisson
iter:   1  19:41:05                -258.462685            -1.0,+0.0,-0.0
iter:   2  19:41:40  -0.42  -0.89  -266.675219            +0.8,-0.0,+0.2
iter:   3  19:42:14  -0.87  -0.94  -254.679923            +0.0,-0.0,-0.0
iter:   4  19:42:49  -0.62  -0.97  -236.052515            -0.0,+0.0,-0.0
iter:   5  19:43:23  -0.42  -1.09  -232.805966            -0.0,+0.0,-0.0
iter:   6  19:43:58  -1.59  -1.25  -222.149062            -0.0,+0.0,-0.0
iter:   7  19:44:33  -2.43  -1.35  -222.229788            -0.0,+0.0,-0.0
iter:   8  19:45:07  -3.01  -1.35  -222.091445            -0.2,-0.0,-0.0
iter:   9  19:45:42  -2.25  -1.38  -222.399893            -0.7,-0.0,-0.1
iter:  10  19:46:17  -2.26  -1.42  -222.973595            -0.3,-0.0,-0.1
iter:  11  19:46:51  -2.79  -1.47  -222.524338            -0.5,-0.0,-0.1
iter:  12  19:47:26  -2.71  -1.53  -222.894693            -0.4,-0.1,-0.1
iter:  13  19:48:01  -2.70  -1.65  -223.676989            -1.6,-0.1,-0.2
iter:  14  19:48:35  -2.28  -1.70  -225.756050            -2.1,-0.2,-0.3
iter:  15  19:49:10  -2.57  -1.74  -226.577905            -0.7,-0.2,-0.4
iter:  16  19:49:45  -2.06  -1.77  -226.564590            +0.1,-0.2,-0.4
iter:  17  19:50:19  -3.07  -1.93  -226.469562            +0.0,-0.2,-0.4
iter:  18  19:50:54  -2.49  -1.97  -226.295446            +0.0,-0.2,-0.4
iter:  19  19:51:29  -3.07  -2.03  -226.298197            +0.0,-0.2,-0.4
iter:  20  19:52:04  -2.43  -2.07  -226.333374            -0.0,-0.2,-0.4
iter:  21  19:52:38  -3.39  -2.44  -226.301128            +0.0,-0.2,-0.4
iter:  22  19:53:13  -3.51  -2.41  -226.298861            +0.0,-0.2,-0.4
iter:  23  19:53:48  -3.24  -2.44  -226.308795            +0.0,-0.2,-0.4
iter:  24  19:54:22  -3.78  -2.63  -226.293424            +0.0,-0.2,-0.4
iter:  25  19:54:57  -4.13  -2.71  -226.290272            +0.0,-0.2,-0.3
iter:  26  19:55:31  -3.68  -2.76  -226.283597            +0.0,-0.2,-0.3
iter:  27  19:56:06  -4.16  -2.93  -226.276428            +0.0,-0.2,-0.3
iter:  28  19:56:41  -4.67  -3.04  -226.275384            +0.0,-0.2,-0.3
iter:  29  19:57:15  -4.27  -3.09  -226.274748            +0.0,-0.2,-0.3
iter:  30  19:57:50  -4.52  -3.31  -226.274526            +0.0,-0.2,-0.3
iter:  31  19:58:24  -5.31  -3.46  -226.274429            +0.0,-0.2,-0.3
iter:  32  19:58:59  -5.71  -3.52  -226.274229            +0.0,-0.2,-0.3
iter:  33  19:59:33  -5.72  -3.57  -226.274132            +0.0,-0.2,-0.4
iter:  34  20:00:08  -6.56  -3.62  -226.274119            +0.0,-0.2,-0.3
iter:  35  20:00:43  -6.06  -3.88  -226.274096            +0.0,-0.2,-0.3
iter:  36  20:01:17  -6.57  -4.43  -226.274100            +0.0,-0.1,-0.3
iter:  37  20:01:52  -7.27  -4.52  -226.274101            +0.0,-0.1,-0.3
iter:  38  20:02:27  -6.56  -4.59  -226.274108            +0.0,-0.1,-0.3
iter:  39  20:03:01  -6.12  -4.72  -226.274127            +0.0,-0.1,-0.3
iter:  40  20:03:36  -6.11  -4.74  -226.274141            +0.0,-0.1,-0.2
iter:  41  20:04:10  -5.74  -4.95  -226.274154            +0.0,-0.1,-0.1
iter:  42  20:04:45  -6.64  -5.18  -226.274153            +0.0,-0.1,-0.1
iter:  43  20:05:19  -7.69  -5.27  -226.274158            +0.0,-0.1,-0.1
iter:  44  20:05:54  -7.72  -5.35  -226.274159            +0.0,-0.1,-0.1
iter:  45  20:06:28  -7.61  -5.39  -226.274159            +0.0,-0.1,-0.1
iter:  46  20:07:03  -6.99  -5.52  -226.274161            +0.0,-0.1,-0.1
iter:  47  20:07:38  -7.68  -5.55  -226.274161            +0.0,-0.1,-0.1
iter:  48  20:08:12  -8.26  -5.76  -226.274161            +0.0,-0.1,-0.1
iter:  49  20:08:47  -9.01  -5.87  -226.274161            +0.0,-0.1,-0.1
iter:  50  20:09:21  -7.77  -5.92  -226.274162            +0.0,-0.1,-0.0
iter:  51  20:09:56  -8.06  -5.94  -226.274162            +0.0,-0.1,-0.0
iter:  52  20:10:30  -8.70  -5.99  -226.274162            +0.0,-0.1,-0.0
iter:  53  20:11:05  -8.57  -6.01  -226.274162            +0.0,-0.1,-0.0
iter:  54  20:11:40  -8.70  -6.20  -226.274162            +0.0,-0.1,-0.0
iter:  55  20:12:14  -7.59  -6.31  -226.274162            +0.0,-0.1,-0.0
iter:  56  20:12:49  -6.63  -6.45  -226.274163            +0.0,-0.0,-0.0
iter:  57  20:13:23  -7.21  -6.44  -226.274163            +0.0,-0.0,-0.0
iter:  58  20:13:58  -8.22  -6.43  -226.274163            +0.0,-0.0,-0.0
iter:  59  20:14:32  -8.99  -6.43  -226.274163            -0.0,-0.0,-0.0
iter:  60  20:15:07  -8.04  -6.59  -226.274163            -0.0,-0.0,-0.0
iter:  61  20:15:41  -8.14  -6.58  -226.274163            -0.0,-0.0,-0.0
iter:  62  20:16:16  -8.12  -6.68  -226.274162            -0.0,-0.0,-0.0
iter:  63  20:16:51  -8.72  -6.85  -226.274162            -0.0,-0.0,-0.0
iter:  64  20:17:25  -9.12  -6.97  -226.274162            -0.0,-0.0,-0.0
iter:  65  20:18:00  -8.29  -7.00  -226.274162            -0.0,-0.0,-0.0
iter:  66  20:18:34  -9.09  -6.95  -226.274162            -0.0,-0.0,-0.0
iter:  67  20:19:09  -8.54  -6.93  -226.274162            -0.0,-0.0,-0.0
iter:  68  20:19:43  -8.61  -7.02  -226.274162            -0.0,-0.0,-0.0
iter:  69  20:20:18  -8.21  -7.08  -226.274162            -0.0,-0.0,+0.0
iter:  70  20:20:52  -8.57  -7.12  -226.274162            -0.0,-0.0,+0.0
iter:  71  20:21:27  -8.81  -7.38  -226.274162            -0.0,-0.0,+0.0
iter:  72  20:22:02  -8.44  -6.85  -226.274162            -0.0,-0.0,+0.0
iter:  73  20:22:36  -9.05  -7.19  -226.274162            -0.0,-0.0,+0.0
iter:  74  20:23:11  -7.21  -7.19  -226.274162            -0.0,-0.0,-0.0
iter:  75  20:23:45  -7.46  -6.80  -226.274162            -0.0,-0.0,+0.0
iter:  76  20:24:20  -8.52  -7.15  -226.274162            -0.0,-0.0,+0.0
iter:  77  20:24:55  -9.29  -7.05  -226.274162            -0.0,-0.0,+0.0
iter:  78  20:25:29  -9.02  -7.08  -226.274162            -0.0,-0.0,+0.0
iter:  79  20:26:04  -7.57  -6.94  -226.274162            -0.0,-0.0,+0.0
iter:  80  20:26:38  -8.84  -7.52  -226.274162            -0.0,-0.0,+0.0
iter:  81  20:27:13  -9.17  -7.49  -226.274162            -0.0,-0.0,+0.0
iter:  82  20:27:47  -9.37  -7.13  -226.274162            -0.0,-0.0,+0.0
iter:  83  20:28:22  -8.33  -7.31  -226.274162            -0.0,-0.0,+0.0
iter:  84  20:28:57  -8.47  -7.40  -226.274162            -0.0,-0.0,+0.0
iter:  85  20:29:31  -7.47  -7.43  -226.274162            -0.0,-0.0,+0.0
iter:  86  20:30:06  -8.73  -7.37  -226.274162            -0.0,-0.0,+0.0
iter:  87  20:30:40  -8.33  -7.45  -226.274162            -0.0,-0.0,+0.0
iter:  88  20:31:15  -8.35  -6.99  -226.274162            -0.0,-0.0,+0.0
iter:  89  20:31:50  -7.90  -7.45  -226.274162            -0.0,-0.0,+0.0
iter:  90  20:32:24  -8.42  -7.52  -226.274162            -0.0,-0.0,+0.0
iter:  91  20:32:58  -8.02  -7.33  -226.274162            -0.0,-0.0,+0.0
iter:  92  20:33:33  -8.26  -7.30  -226.274162            -0.0,-0.0,+0.0
iter:  93  20:34:08  -8.11  -7.59  -226.274162            -0.0,-0.0,+0.0
iter:  94  20:34:42  -7.51  -7.28  -226.274163            -0.0,-0.0,+0.0
iter:  95  20:35:17  -8.46  -7.86  -226.274163            -0.0,-0.0,+0.0
iter:  96  20:35:51  -8.58  -7.85  -226.274163            -0.0,-0.0,+0.0
iter:  97  20:36:26  -9.87  -7.51  -226.274163            -0.0,-0.0,+0.0
iter:  98  20:37:00  -9.94  -7.31  -226.274163            -0.0,-0.0,+0.0
iter:  99  20:37:35  -8.67  -7.23  -226.274163            -0.0,-0.0,+0.0
iter: 100  20:38:09  -7.74  -7.19  -226.274163            -0.0,-0.0,+0.0
iter: 101  20:38:44  -7.71  -7.74  -226.274163            -0.0,-0.0,+0.0
iter: 102  20:39:18  -9.26  -7.47  -226.274163            -0.0,-0.0,+0.0
iter: 103  20:39:53  -8.89  -7.58  -226.274163            -0.0,-0.0,+0.0
iter: 104  20:40:27  -9.42  -7.77  -226.274163            -0.0,-0.0,+0.0
iter: 105  20:41:02  -9.73  -7.16  -226.274163            -0.0,-0.0,+0.0
iter: 106  20:41:37  -8.53  -7.30  -226.274163            -0.0,-0.0,+0.0
iter: 107  20:42:11  -7.74  -7.45  -226.274163            -0.0,-0.0,+0.0
iter: 108  20:42:46  -7.86  -7.12  -226.274163            -0.0,-0.0,+0.0
iter: 109  20:43:20  -9.24  -7.44  -226.274163            -0.0,-0.0,+0.0
iter: 110  20:43:55 -10.64  -7.37  -226.274163            -0.0,-0.0,+0.0
iter: 111  20:44:29  -9.19  -7.40  -226.274163            -0.0,-0.0,+0.0
iter: 112  20:45:04  -7.65  -7.27  -226.274164            -0.0,-0.0,+0.0
iter: 113  20:45:38  -7.04  -7.59  -226.274165            -0.0,-0.0,+0.0
iter: 114  20:46:13  -7.57  -6.94  -226.274165            -0.0,-0.0,+0.0
iter: 115  20:46:48  -8.74  -6.82  -226.274165            -0.0,-0.0,+0.0
iter: 116  20:47:22  -8.84  -6.83  -226.274165            -0.0,-0.0,+0.0
iter: 117  20:47:57  -9.55  -7.10  -226.274165            -0.0,-0.0,+0.0
iter: 118  20:48:31  -9.48  -7.23  -226.274165            -0.0,-0.0,+0.0
iter: 119  20:49:06  -7.67  -7.29  -226.274165            -0.0,-0.0,+0.0
iter: 120  20:49:41  -8.17  -7.61  -226.274166            -0.0,-0.0,+0.0
iter: 121  20:50:15  -7.88  -7.45  -226.274165            -0.0,-0.0,+0.0
iter: 122  20:50:50  -7.57  -7.65  -226.274166            -0.0,-0.0,+0.0
iter: 123  20:51:24  -9.05  -7.52  -226.274166            -0.0,-0.0,+0.0
iter: 124  20:51:59  -9.24  -7.44  -226.274166            -0.0,-0.0,+0.0
iter: 125  20:52:33  -9.70  -7.29  -226.274166            -0.0,-0.0,+0.0
iter: 126  20:53:08  -9.80  -7.35  -226.274166            -0.0,-0.0,+0.0
iter: 127  20:53:42  -7.97  -7.37  -226.274166            -0.0,-0.0,-0.0
iter: 128  20:54:17  -8.58  -7.60  -226.274166            -0.0,-0.0,-0.0
iter: 129  20:54:52  -8.37  -7.40  -226.274166            -0.0,-0.0,-0.0
iter: 130  20:55:26  -7.91  -7.66  -226.274166            -0.0,-0.0,-0.0
iter: 131  20:56:01  -8.88  -7.96  -226.274167            -0.0,-0.0,-0.0
iter: 132  20:56:35  -8.73  -7.66  -226.274166            -0.0,-0.0,-0.0
iter: 133  20:57:10  -9.19  -7.44  -226.274166            -0.0,-0.0,-0.0
iter: 134  20:57:45  -9.42  -7.44  -226.274166            -0.0,-0.0,-0.0
iter: 135  20:58:19  -7.79  -7.54  -226.274167            -0.0,-0.0,-0.0
iter: 136  20:58:54  -8.62  -7.54  -226.274167            -0.0,-0.0,-0.0
iter: 137  20:59:28  -8.27  -7.33  -226.274167            -0.0,-0.0,-0.0
iter: 138  21:00:03  -8.55  -7.42  -226.274167            -0.0,-0.0,-0.0
iter: 139  21:00:37  -9.16  -7.54  -226.274167            -0.0,-0.0,-0.0
iter: 140  21:01:12  -8.52  -7.47  -226.274167            -0.0,-0.0,-0.0
iter: 141  21:01:46  -7.98  -7.44  -226.274167            -0.0,-0.0,-0.0
iter: 142  21:02:21  -8.80  -7.72  -226.274167            -0.0,-0.0,-0.0
iter: 143  21:02:55  -8.00  -7.93  -226.274167            -0.0,-0.0,-0.0
iter: 144  21:03:30  -7.69  -7.51  -226.274167            -0.0,-0.0,-0.0
iter: 145  21:04:04  -7.97  -7.73  -226.274167            -0.0,-0.0,-0.0
iter: 146  21:04:39  -8.04  -7.57  -226.274167            +0.0,-0.0,-0.0
iter: 147  21:05:13  -7.81  -7.53  -226.274167            +0.0,-0.0,-0.0
iter: 148  21:05:48  -7.92  -7.17  -226.274168            +0.0,-0.0,-0.0
iter: 149  21:06:22  -9.39  -7.48  -226.274168            +0.0,-0.0,-0.0
iter: 150  21:06:57  -9.77  -7.41  -226.274168            +0.0,-0.0,-0.0
iter: 151  21:07:31  -8.62  -7.33  -226.274168            +0.0,-0.0,-0.0
iter: 152  21:08:05  -7.85  -7.29  -226.274168            +0.0,-0.0,-0.0
iter: 153  21:08:40  -8.09  -7.51  -226.274168            +0.0,-0.0,-0.0
iter: 154  21:09:14  -8.98  -7.50  -226.274168            +0.0,-0.0,-0.0
iter: 155  21:09:49  -8.73  -7.57  -226.274168            +0.0,-0.0,-0.0
iter: 156  21:10:23  -8.34  -7.14  -226.274168            +0.0,-0.0,-0.0
iter: 157  21:10:58  -8.72  -7.47  -226.274168            +0.0,-0.0,-0.0
iter: 158  21:11:32  -9.70  -7.47  -226.274168            +0.0,-0.0,-0.0
iter: 159  21:12:06  -9.70  -7.50  -226.274168            +0.0,-0.0,-0.0
iter: 160  21:12:40 -10.13  -7.24  -226.274168            +0.0,-0.0,-0.0
iter: 161  21:13:14  -9.01  -7.31  -226.274168            +0.0,-0.0,-0.0
iter: 162  21:13:48  -8.00  -7.35  -226.274168            +0.0,-0.0,-0.0
iter: 163  21:14:22  -8.52  -7.53  -226.274168            +0.0,-0.0,-0.0
iter: 164  21:14:57  -8.94  -7.58  -226.274168            +0.0,-0.0,-0.0
iter: 165  21:15:31  -8.23  -7.67  -226.274168            +0.0,-0.0,-0.0
iter: 166  21:16:05  -9.27  -7.78  -226.274168            +0.0,-0.0,-0.0
iter: 167  21:16:39 -10.33  -7.81  -226.274168            +0.0,-0.0,-0.0
iter: 168  21:17:13  -9.71  -7.56  -226.274168            +0.0,-0.0,-0.0
iter: 169  21:17:47  -8.68  -7.59  -226.274168            +0.0,-0.0,-0.0
iter: 170  21:18:21  -8.67  -7.68  -226.274168            +0.0,-0.0,-0.0
iter: 171  21:18:55  -8.08  -7.80  -226.274168            +0.0,-0.0,+0.0
iter: 172  21:19:29  -8.92  -7.68  -226.274168            +0.0,-0.0,+0.0
iter: 173  21:20:03  -9.95  -7.49  -226.274168            +0.0,-0.0,+0.0
iter: 174  21:20:37  -9.10  -7.88  -226.274168            +0.0,-0.0,+0.0
iter: 175  21:21:11  -9.24  -7.86  -226.274168            +0.0,-0.0,+0.0
iter: 176  21:21:45  -9.38  -7.73  -226.274168            +0.0,-0.0,+0.0
iter: 177  21:22:19  -8.89  -7.82  -226.274168            +0.0,-0.0,+0.0
iter: 178  21:22:53  -8.77  -7.92  -226.274168            +0.0,-0.0,+0.0
iter: 179  21:23:27  -8.87  -7.92  -226.274168            +0.0,-0.0,+0.0
iter: 180  21:24:01  -9.41  -7.97  -226.274168            +0.0,-0.0,+0.0
iter: 181  21:24:35  -7.80  -8.11  -226.274168            +0.0,-0.0,+0.0
iter: 182  21:25:10  -9.55  -7.83  -226.274168            +0.0,-0.0,+0.0
iter: 183  21:25:44  -9.47  -7.78  -226.274168            +0.0,-0.0,+0.0
iter: 184  21:26:18  -9.20  -7.84  -226.274168            +0.0,-0.0,+0.0
iter: 185  21:26:52  -9.42  -8.04  -226.274168            +0.0,-0.0,+0.0
iter: 186  21:27:26  -8.51  -8.26  -226.274168            +0.0,-0.0,+0.0
iter: 187  21:28:00  -9.17  -8.28  -226.274168            +0.0,-0.0,+0.0
iter: 188  21:28:34  -9.25  -8.19  -226.274168            +0.0,-0.0,+0.0
iter: 189  21:29:08  -9.31  -8.21  -226.274168            +0.0,-0.0,+0.0
iter: 190  21:29:42  -9.68  -8.30  -226.274168            +0.0,-0.0,+0.0
iter: 191  21:30:16  -8.57  -8.38  -226.274168            +0.0,-0.0,+0.0
iter: 192  21:30:50  -9.75  -8.44  -226.274168            +0.0,-0.0,+0.0
iter: 193  21:31:24 -10.56  -8.44  -226.274168            +0.0,-0.0,+0.0
iter: 194  21:31:58  -9.81  -8.53  -226.274168            +0.0,-0.0,+0.0
iter: 195  21:32:32  -9.68  -8.64  -226.274168            +0.0,-0.0,+0.0
iter: 196  21:33:06  -9.62  -8.53  -226.274168            +0.0,-0.0,+0.0
iter: 197  21:33:40  -8.61  -8.39  -226.274168            +0.0,+0.0,+0.0
iter: 198  21:34:14  -8.43  -8.47  -226.274168            +0.0,+0.0,+0.0
iter: 199  21:34:48  -9.77  -7.96  -226.274168            +0.0,+0.0,+0.0
iter: 200  21:35:22  -9.62  -8.03  -226.274168            +0.0,+0.0,+0.0
iter: 201  21:35:56 -10.35  -7.96  -226.274168            +0.0,+0.0,+0.0
iter: 202  21:36:30 -10.26  -8.29  -226.274168            +0.0,+0.0,+0.0
iter: 203  21:37:05  -8.84  -8.43  -226.274168            +0.0,+0.0,+0.0
iter: 204  21:37:39  -8.74  -8.42  -226.274168            +0.0,+0.0,+0.0
iter: 205  21:38:13  -8.77  -8.06  -226.274168            +0.0,+0.0,+0.0
iter: 206  21:38:47  -8.46  -7.83  -226.274168            +0.0,+0.0,-0.0
iter: 207  21:39:21  -9.40  -7.55  -226.274168            +0.0,+0.0,-0.0
iter: 208  21:39:55  -9.09  -7.62  -226.274168            +0.0,+0.0,-0.0
iter: 209  21:40:29  -8.71  -7.96  -226.274168            +0.0,+0.0,-0.0
iter: 210  21:41:03 -10.03  -8.29  -226.274168            +0.0,+0.0,-0.0
iter: 211  21:41:37 -10.40  -8.37  -226.274168            +0.0,+0.0,-0.0
iter: 212  21:42:11 -10.53  -8.46  -226.274168            +0.0,+0.0,-0.0
iter: 213  21:42:46 -10.44  -8.42  -226.274168            +0.0,+0.0,-0.0
iter: 214  21:43:19  -8.96  -8.47  -226.274168            +0.0,+0.0,-0.0
iter: 215  21:43:53  -9.69  -8.58  -226.274168            +0.0,+0.0,-0.0
iter: 216  21:44:27 -10.58  -8.41  -226.274168            +0.0,+0.0,-0.0
iter: 217  21:45:01 -10.16  -8.42  -226.274168            +0.0,+0.0,-0.0
iter: 218  21:45:35 -10.10  -8.44  -226.274168            +0.0,+0.0,-0.0
iter: 219  21:46:09  -9.28  -8.27  -226.274168            +0.0,+0.0,-0.0
iter: 220  21:46:43  -9.42  -8.49  -226.274168            +0.0,+0.0,-0.0
iter: 221  21:47:17  -9.11  -8.56  -226.274168            +0.0,+0.0,-0.0
iter: 222  21:47:51  -9.60  -8.48  -226.274168            +0.0,+0.0,-0.0
iter: 223  21:48:25  -9.53  -8.52  -226.274168            +0.0,+0.0,-0.0
iter: 224  21:49:00  -8.98  -8.39  -226.274168            +0.0,+0.0,-0.0
iter: 225  21:49:33  -9.78  -8.31  -226.274168            +0.0,+0.0,-0.0
iter: 226  21:50:08 -10.85  -8.43  -226.274168            +0.0,+0.0,-0.0
iter: 227  21:50:42 -10.98  -8.36  -226.274168            +0.0,+0.0,-0.0
iter: 228  21:51:16 -10.29  -8.50  -226.274168            +0.0,+0.0,-0.0
iter: 229  21:51:50  -9.29  -8.48  -226.274168            +0.0,+0.0,-0.0
iter: 230  21:52:24 -10.11  -8.31  -226.274168            +0.0,+0.0,-0.0
iter: 231  21:52:58 -10.07  -8.37  -226.274168            +0.0,+0.0,-0.0
iter: 232  21:53:32  -9.33  -8.25  -226.274168            +0.0,+0.0,-0.0
iter: 233  21:54:06  -9.37  -8.90  -226.274168            +0.0,+0.0,-0.0
iter: 234  21:54:40  -9.70  -8.58  -226.274168            +0.0,+0.0,-0.0
iter: 235  21:55:14  -9.76  -8.48  -226.274168            +0.0,+0.0,-0.0
iter: 236  21:55:48  -9.31  -8.23  -226.274168            +0.0,+0.0,-0.0
iter: 237  21:56:22  -9.15  -8.84  -226.274168            +0.0,+0.0,-0.0
iter: 238  21:56:56 -10.21  -8.70  -226.274168            +0.0,+0.0,-0.0
iter: 239  21:57:30 -10.32  -8.68  -226.274168            +0.0,+0.0,-0.0
iter: 240  21:58:04 -10.32  -8.76  -226.274168            +0.0,+0.0,-0.0
iter: 241  21:58:38  -8.65  -8.81  -226.274168            +0.0,+0.0,-0.0
iter: 242  21:59:12 -10.23  -8.05  -226.274168            +0.0,+0.0,-0.0
iter: 243  21:59:46 -10.50  -8.10  -226.274168            +0.0,+0.0,-0.0
iter: 244  22:00:20  -9.69  -8.26  -226.274168            +0.0,+0.0,-0.0
iter: 245  22:00:54  -9.51  -8.27  -226.274168            +0.0,+0.0,-0.0
iter: 246  22:01:28  -8.25  -8.18  -226.274168            +0.0,+0.0,+0.0
iter: 247  22:02:01  -8.38  -7.84  -226.274168            +0.0,+0.0,+0.0
iter: 248  22:02:35  -9.30  -7.73  -226.274168            +0.0,+0.0,+0.0
iter: 249  22:03:09  -9.00  -7.33  -226.274168            +0.0,+0.0,+0.0
iter: 250  22:03:43  -9.12  -8.41  -226.274168            +0.0,+0.0,+0.0
iter: 251  22:04:17  -9.85  -8.17  -226.274168            +0.0,+0.0,+0.0
iter: 252  22:04:51  -8.60  -8.39  -226.274168            +0.0,+0.0,+0.0
iter: 253  22:05:25  -9.69  -8.00  -226.274168            +0.0,+0.0,+0.0
iter: 254  22:05:59 -10.09  -7.95  -226.274168            +0.0,+0.0,+0.0
iter: 255  22:06:33 -10.16  -8.16  -226.274168            +0.0,+0.0,+0.0
iter: 256  22:07:07 -10.32  -8.26  -226.274168            +0.0,+0.0,+0.0
iter: 257  22:07:41  -8.48  -8.31  -226.274168            +0.0,+0.0,+0.0
iter: 258  22:08:15 -10.20  -7.94  -226.274171            +0.0,+0.0,+0.0
iter: 259  22:08:49 -10.05  -8.20  -226.274172            +0.0,+0.0,+0.0
iter: 260  22:09:23 -10.69  -8.36  -226.274174            +0.0,+0.0,+0.0
iter: 261  22:09:57 -10.49  -8.21  -226.274172            +0.0,+0.0,+0.0
iter: 262  22:10:31  -9.22  -8.35  -226.274172            +0.0,+0.0,+0.0
iter: 263  22:11:05  -9.78  -8.38  -226.274172            +0.0,+0.0,+0.0
iter: 264  22:11:39 -10.33  -8.33  -226.274172            +0.0,+0.0,+0.0
iter: 265  22:12:13 -10.85  -8.38  -226.274172            +0.0,-0.0,+0.0
iter: 266  22:12:47 -12.22  -8.37  -226.274172            +0.0,-0.0,+0.0
iter: 267  22:13:21 -10.60  -8.37  -226.274172            +0.0,-0.0,+0.0
iter: 268  22:13:55 -10.36  -8.54  -226.274171            +0.0,-0.0,+0.0
iter: 269  22:14:29 -10.01  -8.56  -226.274170            +0.0,-0.0,+0.0
iter: 270  22:15:03  -9.78  -8.60  -226.274169            +0.0,-0.0,+0.0
iter: 271  22:15:37  -9.90  -8.42  -226.274169            +0.0,-0.0,+0.0
iter: 272  22:16:11  -8.40  -8.30  -226.274169            +0.0,-0.0,+0.0
iter: 273  22:16:45  -8.77  -8.31  -226.274169            +0.0,-0.0,+0.0
iter: 274  22:17:19  -9.28  -8.53  -226.274168            +0.0,-0.0,+0.0
iter: 275  22:17:53  -9.00  -8.58  -226.274167            +0.0,-0.0,+0.0
iter: 276  22:18:27  -8.47  -8.37  -226.274166            +0.0,-0.0,+0.0
iter: 277  22:19:01  -9.91  -7.90  -226.274166            +0.0,-0.0,+0.0
iter: 278  22:19:35  -9.64  -7.96  -226.274167            +0.0,-0.0,+0.0
iter: 279  22:20:09 -10.27  -7.88  -226.274164            +0.0,-0.0,+0.0
iter: 280  22:20:43 -10.32  -7.93  -226.274166            +0.0,-0.0,+0.0
iter: 281  22:21:17  -9.22  -8.00  -226.274162            +0.0,-0.0,+0.0
iter: 282  22:21:51 -10.04  -8.43  -226.274163            +0.0,-0.0,+0.0
iter: 283  22:22:25  -9.56  -8.67  -226.274167            +0.0,-0.0,+0.0
iter: 284  22:22:59 -10.18  -8.26  -226.274166            +0.0,-0.0,+0.0
iter: 285  22:23:33  -9.88  -8.23  -226.274166            +0.0,-0.0,+0.0
iter: 286  22:24:07 -10.70  -8.30  -226.274166            +0.0,-0.0,+0.0
iter: 287  22:24:41 -10.79  -8.30  -226.274167            +0.0,-0.0,+0.0
iter: 288  22:25:15 -11.65  -8.54  -226.274166            +0.0,-0.0,+0.0
iter: 289  22:25:49 -10.59  -8.42  -226.274166            +0.0,-0.0,+0.0
iter: 290  22:26:23  -8.84  -8.65  -226.274165            +0.0,-0.0,+0.0
iter: 291  22:26:57  -8.31  -8.06  -226.274166            +0.0,-0.0,+0.0
iter: 292  22:27:30  -8.81  -7.69  -226.274165            +0.0,-0.0,+0.0
iter: 293  22:28:04 -10.01  -7.59  -226.274165            +0.0,-0.0,+0.0
iter: 294  22:28:38 -10.69  -7.60  -226.274171            +0.0,-0.0,+0.0
iter: 295  22:29:12 -11.45  -8.09  -226.274170            +0.0,-0.0,+0.0
iter: 296  22:29:46 -11.82  -8.24  -226.274167            +0.0,-0.0,+0.0
iter: 297  22:30:20 -10.24  -8.41  -226.274166            +0.0,-0.0,+0.0
iter: 298  22:30:54 -10.23  -8.38  -226.274163            +0.0,-0.0,+0.0
iter: 299  22:31:28 -10.97  -8.37  -226.274164            +0.0,-0.0,+0.0
iter: 300  22:32:02 -10.13  -8.36  -226.274164            +0.0,-0.0,+0.0
iter: 301  22:32:36  -8.91  -8.49  -226.274164            +0.0,-0.0,+0.0
iter: 302  22:33:10  -8.92  -8.15  -226.274164            +0.0,-0.0,+0.0
iter: 303  22:33:44  -9.36  -7.92  -226.274165            +0.0,+0.0,+0.0
iter: 304  22:34:18 -10.75  -7.84  -226.274167            +0.0,-0.0,+0.0
iter: 305  22:34:52 -10.03  -7.89  -226.274169            +0.0,-0.0,+0.0
iter: 306  22:35:26 -11.21  -8.06  -226.274170            +0.0,-0.0,+0.0
iter: 307  22:36:00 -10.44  -8.17  -226.274170            +0.0,+0.0,+0.0
iter: 308  22:36:34  -9.45  -8.46  -226.274170            +0.0,+0.0,+0.0
iter: 309  22:37:08  -9.66  -8.55  -226.274171            +0.0,+0.0,+0.0
iter: 310  22:37:42  -8.76  -8.44  -226.274172            +0.0,+0.0,+0.0
iter: 311  22:38:16  -8.85  -7.96  -226.274173            +0.0,+0.0,+0.0
iter: 312  22:38:50  -9.44  -8.26  -226.274172            +0.0,+0.0,+0.0
iter: 313  22:39:24 -10.50  -8.07  -226.274172            +0.0,+0.0,+0.0
iter: 314  22:39:58  -9.36  -8.16  -226.274173            +0.0,+0.0,+0.0
iter: 315  22:40:32 -10.07  -8.10  -226.274171            +0.0,+0.0,+0.0
iter: 316  22:41:06 -10.22  -7.78  -226.274174            +0.0,+0.0,+0.0
iter: 317  22:41:40  -9.03  -8.53  -226.274176            +0.0,+0.0,+0.0
iter: 318  22:42:14  -9.92  -8.27  -226.274174            +0.0,+0.0,+0.0
iter: 319  22:42:48 -10.87  -8.10  -226.274176            +0.0,+0.0,+0.0
iter: 320  22:43:22  -9.96  -8.38  -226.274181            +0.0,+0.0,+0.0
iter: 321  22:43:56 -10.57  -8.40  -226.274180            +0.0,+0.0,+0.0
iter: 322  22:44:30 -10.82  -8.27  -226.274180            +0.0,+0.0,+0.0
iter: 323  22:45:04 -11.34  -8.44  -226.274179            +0.0,+0.0,+0.0
iter: 324  22:45:38 -11.29  -8.51  -226.274177            +0.0,+0.0,+0.0
iter: 325  22:46:12 -10.65  -8.58  -226.274175            +0.0,+0.0,+0.0
iter: 326  22:46:46 -10.16  -8.38  -226.274176            +0.0,+0.0,+0.0
iter: 327  22:47:20 -10.14  -8.52  -226.274179            +0.0,+0.0,+0.0
iter: 328  22:47:54  -8.96  -8.33  -226.274173            +0.0,+0.0,+0.0
iter: 329  22:48:28 -10.39  -8.73  -226.274177            +0.0,+0.0,+0.0
iter: 330  22:49:02 -10.43  -8.56  -226.274175            +0.0,+0.0,+0.0
iter: 331  22:49:36 -10.16  -8.53  -226.274168            +0.0,+0.0,+0.0
iter: 332  22:50:10 -10.33  -8.50  -226.274168            +0.0,+0.0,+0.0
iter: 333  22:50:44  -9.82  -8.17  -226.274172            +0.0,-0.0,+0.0
iter: 334  22:51:18 -10.17  -8.42  -226.274173            +0.0,-0.0,+0.0
iter: 335  22:51:52 -10.01  -8.50  -226.274173            +0.0,-0.0,+0.0
iter: 336  22:52:26  -9.21  -8.44  -226.274173            +0.0,-0.0,+0.0
iter: 337  22:53:00  -9.63  -8.25  -226.274171            +0.0,-0.0,+0.0
iter: 338  22:53:34  -9.58  -8.27  -226.274173            +0.0,-0.0,+0.0
iter: 339  22:54:08  -9.09  -8.06  -226.274172            +0.0,-0.0,+0.0
iter: 340  22:54:42  -9.91  -8.40  -226.274172            +0.0,-0.0,+0.0
iter: 341  22:55:16 -10.46  -8.47  -226.274171            +0.0,-0.0,+0.0
iter: 342  22:55:50 -10.01  -8.54  -226.274170            +0.0,-0.0,+0.0
iter: 343  22:56:24  -9.65  -8.79  -226.274169            +0.0,-0.0,+0.0
iter: 344  22:56:58  -9.43  -8.53  -226.274170            +0.0,-0.0,+0.0
iter: 345  22:57:32 -10.24  -8.42  -226.274170            +0.0,-0.0,+0.0
iter: 346  22:58:06 -10.12  -7.77  -226.274170            +0.0,-0.0,+0.0
iter: 347  22:58:40 -10.38  -8.33  -226.274170            +0.0,-0.0,+0.0
iter: 348  22:59:14 -11.61  -8.36  -226.274170            +0.0,-0.0,+0.0
iter: 349  22:59:48 -10.76  -8.32  -226.274170            +0.0,-0.0,+0.0
iter: 350  23:00:22 -11.57  -8.33  -226.274171            +0.0,-0.0,+0.0
iter: 351  23:00:56 -11.67  -8.42  -226.274172            +0.0,-0.0,+0.0
iter: 352  23:01:30 -10.19  -8.27  -226.274171            +0.0,-0.0,+0.0
iter: 353  23:02:05 -10.61  -8.48  -226.274171            +0.0,-0.0,+0.0
iter: 354  23:02:39 -10.29  -8.49  -226.274171            +0.0,-0.0,+0.0
iter: 355  23:03:13 -10.97  -8.43  -226.274171            +0.0,-0.0,+0.0
iter: 356  23:03:47 -10.71  -8.33  -226.274170            +0.0,-0.0,+0.0
iter: 357  23:04:21 -10.24  -8.43  -226.274171            +0.0,-0.0,+0.0
iter: 358  23:04:55 -10.42  -8.53  -226.274171            +0.0,-0.0,+0.0
iter: 359  23:05:29 -10.52  -8.60  -226.274171            +0.0,-0.0,+0.0
iter: 360  23:06:03  -9.86  -8.55  -226.274171            +0.0,-0.0,+0.0
iter: 361  23:06:37  -9.82  -8.72  -226.274171            +0.0,-0.0,+0.0
iter: 362  23:07:11 -10.31  -8.74  -226.274172            +0.0,-0.0,+0.0
iter: 363  23:07:45  -9.83  -8.70  -226.274172            +0.0,-0.0,+0.0
iter: 364  23:08:19 -10.35  -8.83  -226.274171            +0.0,-0.0,+0.0
iter: 365  23:08:53 -10.05  -8.81  -226.274171            +0.0,-0.0,+0.0
iter: 366  23:09:26  -9.64  -8.13  -226.274171            +0.0,-0.0,+0.0
iter: 367  23:10:00 -10.32  -8.62  -226.274171            +0.0,-0.0,+0.0
iter: 368  23:10:35 -10.25  -8.60  -226.274171            +0.0,-0.0,+0.0
iter: 369  23:11:09  -9.84  -8.04  -226.274171            +0.0,-0.0,+0.0
iter: 370  23:11:42 -10.27  -8.52  -226.274171            +0.0,-0.0,+0.0
iter: 371  23:12:16 -10.43  -8.47  -226.274171            +0.0,-0.0,+0.0
iter: 372  23:12:50 -10.25  -8.14  -226.274171            +0.0,-0.0,+0.0
iter: 373  23:13:24 -10.31  -8.38  -226.274171            +0.0,-0.0,+0.0
iter: 374  23:13:58 -10.30  -8.41  -226.274171            +0.0,-0.0,+0.0
iter: 375  23:14:32 -11.09  -8.66  -226.274171            +0.0,-0.0,+0.0
iter: 376  23:15:06 -11.25  -8.55  -226.274170            +0.0,-0.0,+0.0
iter: 377  23:15:40 -10.98  -8.22  -226.274171            +0.0,-0.0,+0.0
iter: 378  23:16:14 -12.24  -8.35  -226.274171            +0.0,-0.0,+0.0
iter: 379  23:16:48 -12.12  -8.38  -226.274170            +0.0,-0.0,+0.0
iter: 380  23:17:23 -12.18  -8.28  -226.274172            +0.0,-0.0,+0.0
iter: 381  23:17:56 -11.63  -8.40  -226.274172            +0.0,-0.0,+0.0
iter: 382  23:18:30 -10.04  -8.35  -226.274171            +0.0,-0.0,+0.0
iter: 383  23:19:04 -10.90  -8.41  -226.274169            +0.0,-0.0,+0.0
iter: 384  23:19:38 -11.05  -8.44  -226.274170            +0.0,-0.0,+0.0
iter: 385  23:20:12 -10.41  -8.42  -226.274171            +0.0,-0.0,+0.0
iter: 386  23:20:46 -10.14  -8.52  -226.274171            +0.0,-0.0,+0.0
iter: 387  23:21:20 -11.24  -8.58  -226.274170            +0.0,-0.0,+0.0
iter: 388  23:21:54 -11.67  -8.61  -226.274169            +0.0,-0.0,+0.0
iter: 389  23:22:28 -11.33  -8.50  -226.274170            +0.0,-0.0,+0.0
iter: 390  23:23:02 -12.81  -8.58  -226.274170            +0.0,-0.0,+0.0
iter: 391  23:23:36 -12.05  -8.51  -226.274169            +0.0,-0.0,+0.0
iter: 392  23:24:11 -12.94  -8.89  -226.274169            +0.0,-0.0,+0.0
iter: 393  23:24:44 -12.41  -8.93  -226.274169            +0.0,-0.0,+0.0
iter: 394  23:25:19 -11.21  -8.98  -226.274169            +0.0,-0.0,+0.0
iter: 395  23:25:53 -10.96  -8.97  -226.274169            +0.0,-0.0,+0.0
iter: 396  23:26:27 -11.10  -8.88  -226.274168            +0.0,-0.0,+0.0
iter: 397  23:27:01 -10.89  -8.77  -226.274168            +0.0,-0.0,+0.0
iter: 398  23:27:35 -10.73  -8.87  -226.274168            +0.0,-0.0,+0.0
iter: 399  23:28:09 -11.68  -8.76  -226.274168            +0.0,-0.0,+0.0
iter: 400  23:28:43 -11.43  -8.65  -226.274168            +0.0,-0.0,+0.0
iter: 401  23:29:17 -11.19  -8.86  -226.274168            +0.0,-0.0,+0.0
iter: 402  23:29:51 -12.03  -8.89  -226.274168            +0.0,-0.0,+0.0
iter: 403  23:30:25 -11.42  -8.96  -226.274168            +0.0,-0.0,+0.0
iter: 404  23:30:59 -12.53  -8.96  -226.274168            +0.0,-0.0,+0.0
iter: 405  23:31:33 -13.06  -8.95  -226.274168            +0.0,-0.0,+0.0
iter: 406  23:32:07 -12.09  -9.09  -226.274168            +0.0,-0.0,+0.0

Converged after 406 iterations.

Dipole moment: (-0.080601, -0.003591, 0.819470) |e|*Ang

Total magnetic moment: (0.000449, -0.000049, 0.001438)
Local magnetic moments:
   0 O  (-0.000512, -0.000079,  0.000219)
   1 O  ( 0.000515,  0.000072,  0.000218)
   2 O  (-0.001553, -0.000084, -0.000200)
   3 O  ( 0.001566,  0.000092, -0.000195)
   4 O  (-0.001531,  0.000084, -0.000200)
   5 O  ( 0.001543, -0.000093, -0.000195)
   6 O  (-0.000495,  0.000079,  0.000220)
   7 O  ( 0.000499, -0.000073,  0.000218)
   8 O  (-0.028680, -0.000027, -0.000054)
   9 O  ( 0.028744,  0.000027,  0.000304)
  10 O  ( 0.028647,  0.000015,  0.000024)
  11 O  (-0.028644, -0.000015, -0.000250)
  12 Mn (-4.446425, -0.004289, -0.012501)
  13 Mn ( 4.446405,  0.004249,  0.044108)
  14 Mn ( 4.446756,  0.002219,  0.005393)
  15 Mn (-4.446403, -0.002223, -0.035737)
  16 P  (-0.001901,  0.000001,  0.000142)
  17 P  ( 0.001896, -0.000001,  0.000146)
  18 P  ( 0.001227,  0.000003, -0.000131)
  19 P  (-0.001194, -0.000003, -0.000165)
  20 O  (-0.024999, -0.000024, -0.000242)
  21 O  ( 0.024979,  0.000024,  0.000084)
  22 O  ( 0.025564,  0.000013,  0.000180)
  23 O  (-0.025602, -0.000013, -0.000050)
  24 Li ( 0.000026, -0.000001,  0.000000)
  25 Li (-0.000029,  0.000001,  0.000000)
  26 Li ( 0.000026,  0.000001,  0.000000)
  27 Li (-0.000028, -0.000001,  0.000000)

Energy contributions relative to reference atoms: (reference = -196157.275402)

Kinetic:       +217.173108
Potential:     -195.120647
External:        +0.000000
XC:            -250.367983
Entropy (-ST):   -0.000000
Local:           +2.041353
--------------------------
Free energy:   -226.274168
Extrapolated:  -226.274168

Showing only first 2 kpts
 Kpt  Band  Eigenvalues  Occupancy
  0    88     -2.03803    1.00000
  0    89     -2.03139    1.00000
  0    90     -1.94343    1.00000
  0    91     -1.93735    1.00000

  1    88     -2.16108    1.00000
  1    89     -2.15499    1.00000
  1    90     -2.10674    1.00000
  1    91     -2.09363    1.00000


Fermi level: 6.23567

Gap: 1.972 eV
Transition (v -> c):
  (s=0, k=51, n=179, [0.12, -0.38, 0.08]) -> (s=0, k=63, n=180, [0.12, 0.12, 0.08])

Forces in eV/Ang:
  0 O     0.01154    0.00268   -0.06157
  1 O    -0.01384   -0.00270   -0.06183
  2 O     0.01154   -0.00175   -0.05815
  3 O    -0.01368    0.00183   -0.05893
  4 O     0.01156    0.00177   -0.05811
  5 O    -0.01371   -0.00185   -0.05889
  6 O     0.01151   -0.00266   -0.06151
  7 O    -0.01382    0.00268   -0.06176
  8 O     0.00099   -0.00000   -0.05530
  9 O    -0.00323    0.00000   -0.05420
 10 O     0.00101   -0.00000   -0.05786
 11 O    -0.00290    0.00000   -0.05764
 12 Mn   -0.00096   -0.00000    0.08837
 13 Mn   -0.00125    0.00000    0.08880
 14 Mn    0.00071    0.00001    0.08621
 15 Mn   -0.00341   -0.00001    0.08630
 16 P    -0.01072   -0.00001    0.13612
 17 P     0.00836    0.00001    0.13620
 18 P     0.01953   -0.00002    0.13014
 19 P     0.00880    0.00002    0.12979
 20 O    -0.01025   -0.00001   -0.09778
 21 O     0.00813    0.00001   -0.09795
 22 O    -0.00825    0.00001   -0.09729
 23 O     0.00647   -0.00001   -0.09739
 24 Li   -0.00172    0.00267    0.05339
 25 Li   -0.00034   -0.00266    0.05365
 26 Li   -0.00171   -0.00266    0.05338
 27 Li   -0.00034    0.00264    0.05366

Timing:                              incl.     excl.
-----------------------------------------------------------
Forces:                              4.431     4.431   0.0% |
Hamiltonian:                         0.751     0.003   0.0% |
 Atomic:                             0.262     0.262   0.0% |
  XC Correction:                     0.000     0.000   0.0% |
 Calculate atomic Hamiltonians:      0.229     0.229   0.0% |
 Communicate:                        0.000     0.000   0.0% |
 Initialize Hamiltonian:             0.001     0.001   0.0% |
 Poisson:                            0.003     0.003   0.0% |
 XC 3D grid:                         0.254     0.254   0.0% |
LCAO initialization:                61.043     0.367   0.0% |
 LCAO eigensolver:                  10.379     0.002   0.0% |
  DenseAtomicCorrection:             0.017     0.017   0.0% |
  Distribute overlap matrix:         0.001     0.001   0.0% |
  Orbital Layouts:                   0.056     0.056   0.0% |
  Potential matrix:                 10.264    10.264   0.1% |
  Sum over cells:                    0.039     0.039   0.0% |
 LCAO to grid:                      49.283    49.283   0.4% |
 Set positions (LCAO WFS):           1.014     0.205   0.0% |
  Basic WFS set positions:           0.001     0.001   0.0% |
  Basis functions set positions:     0.000     0.000   0.0% |
  P tci:                             0.419     0.419   0.0% |
  ST tci:                            0.298     0.298   0.0% |
  mktci:                             0.091     0.091   0.0% |
PWDescriptor:                        0.010     0.010   0.0% |
SCF-cycle:                       13916.008  3864.984  27.6% |----------|
 Davidson:                        8240.631   897.218   6.4% |--|
  Apply H:                        1314.339  1314.339   9.4% |---|
  Subspace diag:                  1752.117     0.181   0.0% |
   calc_h_matrix:                 1493.822   162.864   1.2% |
    Apply H:                      1330.958  1330.958   9.5% |---|
   diagonalize:                     14.860    14.860   0.1% |
   rotate_psi:                     243.253   243.253   1.7% ||
  calc. matrices:                 3530.736   922.590   6.6% |--|
   Apply H:                       2608.146  2608.146  18.6% |------|
  diagonalize:                     296.748   296.748   2.1% ||
  rotate_psi:                      449.473   449.473   3.2% ||
 Density:                         1540.945     0.012   0.0% |
  Atomic density matrices:          48.594    48.594   0.3% |
  Mix:                             141.486   141.486   1.0% |
  Multipole moments:                 0.225     0.225   0.0% |
  Pseudo density:                 1350.629  1350.607   9.7% |---|
   Symmetrize density:               0.022     0.022   0.0% |
 Hamiltonian:                      268.504     1.451   0.0% |
  Atomic:                           28.754    28.752   0.2% |
   XC Correction:                    0.002     0.002   0.0% |
  Calculate atomic Hamiltonians:   113.859   113.859   0.8% |
  Communicate:                       0.098     0.098   0.0% |
  Poisson:                           1.201     1.201   0.0% |
  XC 3D grid:                      123.141   123.141   0.9% |
 Orthonormalize:                     0.942     0.001   0.0% |
  calc_s_matrix:                     0.200     0.200   0.0% |
  inverse-cholesky:                  0.009     0.009   0.0% |
  projections:                       0.428     0.428   0.0% |
  rotate_psi_s:                      0.305     0.305   0.0% |
Set symmetry:                        0.000     0.000   0.0% |
Other:                               2.543     2.543   0.0% |
-----------------------------------------------------------
Total:                                     13984.785 100.0%

Memory usage: 974.51 MiB
Date: Fri Jun 24 23:32:12 2022
