
  ___ ___ ___ _ _ _  
 |   |   |_  | | | | 
 | | | | | . | | | | 
 |__ |  _|___|_____|  21.6.1b1
 |___|_|             

User:   madkru@a104.nifl.fysik.dtu.dk
Date:   Sat Jun 25 08:03:27 2022
Arch:   x86_64
Pid:    4971
Python: 3.8.6
gpaw:   /home/niflheim/madkru/new_venv/gpaw/gpaw (1f0dfc9eae)
_gpaw:  /home/niflheim/madkru/new_venv/gpaw/build/lib.linux-x86_64-skylake-3.8/
        _gpaw.cpython-38-x86_64-linux-gnu.so (c1e45bfab3)
ase:    /home/niflheim/madkru/new_venv/ase/ase (version 3.23.0b1-ca38c75a67)
numpy:  /home/modules/software/SciPy-bundle/2020.11-foss-2020b/lib/python3.8/site-packages/numpy (version 1.19.4)
scipy:  /home/modules/software/SciPy-bundle/2020.11-foss-2020b/lib/python3.8/site-packages/scipy (version 1.5.4)
libxc:  4.3.4
units:  Angstrom and eV
cores: 40
OpenMP: False
OMP_NUM_THREADS: 1

Input parameters:
  convergence: {density: 1e-09}
  experimental: {magmoms: [[0. 0. 0.]
 [0. 0. 0.]
 [0. 0. 0.]
 ...
 [0. 0. 0.]
 [0. 0. 0.]
 [0. 0. 0.]],
                 soc: True}
  kpts: [4 4 6]
  maxiter: 5000
  mixer: {backend: pulay,
          beta: 0.05,
          method: difference,
          nmaxold: 3,
          weight: 100}
  mode: {ecut: 600.0,
         gammacentered: False,
         name: pw}
  occupations: {fixmagmom: False,
                name: fermi-dirac,
                width: 0.001}
  symmetry: off

System changes: positions, numbers, cell, pbc, initial_charges, initial_magmoms 

Initialize ...

O-setup:
  name: Oxygen
  id: 9b9d51c344dea68c822856295a461509
  Z: 8.0
  valence: 6
  core: 2
  charge: 0.0
  file: /home/modules/software/GPAW-setups/0.9.20000/O.LDA.gz
  compensation charges: gauss, rc=0.21, lmax=2
  cutoffs: 1.17(filt), 0.83(core),
  valence states:
                energy  radius
    2s(2.00)   -23.752   0.688
    2p(4.00)    -9.195   0.598
    *s           3.459   0.688
    *p          18.016   0.598
    *d           0.000   0.619

  Using partial waves for O as LCAO basis

Mn-setup:
  name: Manganese
  id: 0d715a8018be061a6e9ea6f2d364ac92
  Z: 25.0
  valence: 15
  core: 10
  charge: 0.0
  file: /home/modules/software/GPAW-setups/0.9.20000/Mn.LDA.gz
  compensation charges: gauss, rc=0.38, lmax=2
  cutoffs: 2.14(filt), 0.86(core),
  valence states:
                energy  radius
    3s(2.00)   -85.387   1.275
    4s(2.00)    -5.282   1.275
    3p(6.00)   -54.493   1.281
    4p(0.00)    -1.471   1.281
    3d(5.00)    -7.009   1.138
    *d          20.203   1.138

  Using partial waves for Mn as LCAO basis

P-setup:
  name: Phosphorus
  id: a5561c299094968922a179ab894d2e2d
  Z: 15.0
  valence: 5
  core: 10
  charge: 0.0
  file: /home/modules/software/GPAW-setups/0.9.20000/P.LDA.gz
  compensation charges: gauss, rc=0.30, lmax=2
  cutoffs: 1.69(filt), 1.81(core),
  valence states:
                energy  radius
    3s(2.00)   -14.015   0.953
    3p(3.00)    -5.596   0.953
    *s          13.197   0.953
    *p          21.615   0.953
    *d           0.000   0.953

  Using partial waves for P as LCAO basis

Li-setup:
  name: Lithium
  id: b73562207f97a71b6967473b66fe8b65
  Z: 3.0
  valence: 1
  core: 2
  charge: 0.0
  file: /home/modules/software/GPAW-setups/0.9.20000/Li.LDA.gz
  compensation charges: gauss, rc=0.33, lmax=2
  cutoffs: 1.91(filt), 2.55(core),
  valence states:
                energy  radius
    2s(1.00)    -2.874   1.058
    2p(0.00)    -1.126   1.058
    *s          24.338   1.058

  Using partial waves for Li as LCAO basis

Reference energy: -196157.275402

Non-collinear calculation.
Magnetic moment: (0.000000, 0.000000, 0.000000)

Convergence criteria:
  Maximum total energy change: 0.0005 eV / electron
  Maximum integral of absolute density change: 1e-09 electrons
  Maximum integral of absolute eigenstate change: 4e-08 eV^2
  Maximum number of iterations: 5000

Symmetries present (total): 1

  ( 1  0  0)
  ( 0  1  0)
  ( 0  0  1)

96 k-points: 4 x 4 x 6 Monkhorst-Pack grid
96 k-points in the irreducible part of the Brillouin zone
       k-points in crystal coordinates                weights
   0:    -0.37500000   -0.37500000   -0.41666667          1/96
   1:    -0.37500000   -0.37500000   -0.25000000          1/96
   2:    -0.37500000   -0.37500000   -0.08333333          1/96
   3:    -0.37500000   -0.37500000    0.08333333          1/96
   4:    -0.37500000   -0.37500000    0.25000000          1/96
   5:    -0.37500000   -0.37500000    0.41666667          1/96
   6:    -0.37500000   -0.12500000   -0.41666667          1/96
   7:    -0.37500000   -0.12500000   -0.25000000          1/96
   8:    -0.37500000   -0.12500000   -0.08333333          1/96
   9:    -0.37500000   -0.12500000    0.08333333          1/96
          ...
  95:     0.37500000    0.37500000    0.41666667          1/96

Wave functions: Plane wave expansion
  Cutoff energy: 600.000 eV
  Number of coefficients (min, max): 10065, 10119
  Pulay-stress correction: 0.000000 eV/Ang^3 (de/decut=0.000000)
  Using FFTW library
  ScaLapack parameters: grid=1x1, blocksize=None
  Wavefunction extrapolation:
    Improved wavefunction reuse through dual PAW basis 

Occupation numbers: Fermi-Dirac: width=0.0010 eV
 

Eigensolver
   Davidson(niter=2) 

Densities:
  Coarse grid: 60*35*27 grid
  Fine grid: 120*70*54 grid
  Total Charge: 0.000000 

Density mixing:
  Method: difference
  Backend: pulay
  Linear mixing parameter: 0.05
  Mixing with 3 old densities
  Damping of long wave oscillations: 100 

Hamiltonian:
  XC and Coulomb potentials evaluated on a 120*70*54 grid
  Using the LDA Exchange-Correlation functional
  External potential:
    <gpaw.external.NoExternalPotential object at 0x2ad07343b160>
 

Memory estimate:
  Process memory now: 1083.51 MiB
  Calculator: 167.16 MiB
    Density: 37.88 MiB
      Arrays: 11.25 MiB
      Localized functions: 18.84 MiB
      Mixer: 7.79 MiB
    Hamiltonian: 7.90 MiB
      Arrays: 7.35 MiB
      XC: 0.00 MiB
      Poisson: 0.00 MiB
      vbar: 0.54 MiB
    Wavefunctions: 121.39 MiB
      Arrays psit_nG: 69.17 MiB
      Eigensolver: 43.02 MiB
      Projections: 2.41 MiB
      Projectors: 4.31 MiB
      PW-descriptor: 2.47 MiB

Total number of cores used: 40
Parallelization over k-points: 40

Number of atoms: 28
Number of atomic orbitals: 148
Number of bands in calculation: 224
Number of valence electrons: 180
Bands to converge: occupied

... initialized

Initializing position-dependent things.

Density initialized from atomic densities
Creating initial wave functions:
  148 bands from LCAO basis set
  76 bands from random numbers

     .-------------------------.  
    /|             P  O        |  
   / |   O      O              |  
  /  |              OMn      O |  
 *   |P O   O           Mn     |  
 |   | O        Li       O     |  
 |   Li-Mn----------O----OP----.  
 | O/      On Li              /   
 | /i           O      O     /    
 |/       O  P              /     
 *-------------------------*      

Positions:
   0 O      3.489575    0.291468    0.982712    ( 0.0000,  0.0000,  0.0000)
   1 O      1.739173    5.808330    3.352191    ( 0.0000,  0.0000,  0.0000)
   2 O      6.962171    3.339588    3.726487    ( 0.0000,  0.0000,  0.0000)
   3 O      8.730282    2.760047    1.356345    ( 0.0000,  0.0000,  0.0000)
   4 O      6.962411    5.809764    3.726589    ( 0.0000,  0.0000, -3.0000)
   5 O      8.730044    0.290603    1.356443    ( 0.0000,  0.0000,  3.0000)
   6 O      3.489920    2.759391    0.982777    ( 0.0000,  0.0000,  3.0000)
   7 O      1.738821    3.340814    3.352255    ( 0.0000,  0.0000, -3.0000)
   8 O      0.444597    1.525122    1.395295    ( 0.0000,  0.0000,  0.0000)
   9 O      4.787992    4.574879    3.766755    ( 0.0000,  0.0000,  0.0000)
  10 O     10.018950    4.574828    3.322820    ( 0.0000,  0.0000,  0.0000)
  11 O      5.669716    1.525177    0.952811    ( 0.0000,  0.0000,  0.0000)
  12 Mn     2.283997    1.524786    2.465662    ( 0.0000,  0.0000,  0.0000)
  13 Mn     2.945080    4.575215    0.094715    ( 5.0000,  0.0000,  0.0000)
  14 Mn     8.175004    4.575106    2.309402    (-5.0000,  0.0000,  0.0000)
  15 Mn     7.515361    1.524896    4.681117    (-5.0000,  0.0000,  0.0000)
  16 P      4.232298    1.525364    0.367630    ( 5.0000,  0.0000,  0.0000)
  17 P      0.996206    4.574640    2.737118    ( 0.0000,  0.0000,  0.0000)
  18 P      6.226077    4.574707    4.363786    ( 0.0000,  0.0000,  0.0000)
  19 P      9.467610    1.525294    1.993546    ( 0.0000,  0.0000,  0.0000)
  20 O      4.212060    1.525298    3.564316    ( 0.0000,  0.0000,  0.0000)
  21 O      1.015970    4.574707    1.193899    ( 0.0000,  0.0000,  0.0000)
  22 O      6.255822    4.574696    1.154123    ( 0.0000,  0.0000,  0.0000)
  23 O      9.436939    1.525303    3.523792    ( 0.0000,  0.0000,  0.0000)
  24 Li     0.000148   -0.012272    0.038857    ( 0.0000,  0.0000,  0.0000)
  25 Li     5.226801    0.011916    2.410024    ( 0.0000,  0.0000,  0.0000)
  26 Li     0.000231    3.062058    0.038641    ( 0.0000,  0.0000,  0.0000)
  27 Li     5.226742    3.038275    2.409830    ( 0.0000,  0.0000,  0.0000)

Unit cell:
           periodic     x           y           z      points  spacing
  1. axis:    yes   10.460000    0.000000    0.000000    60     0.1743
  2. axis:    yes    0.000000    6.100000    0.000000    35     0.1743
  3. axis:    yes    0.000000    0.000000    4.740000    27     0.1756

  Lengths:  10.460000   6.100000   4.740000
  Angles:   90.000000  90.000000  90.000000

Effective grid spacing dv^(1/3) = 0.1747

                     log10-error:    total        iterations:
           time      wfs    density  energy       poisson
iter:   1  08:05:29                -258.498709            -1.0,+0.0,+0.0
iter:   2  08:06:03  -0.42  -0.89  -266.780351            +0.8,-0.0,+0.2
iter:   3  08:06:38  -0.87  -0.94  -254.505978            +0.0,-0.0,+0.0
iter:   4  08:07:12  -0.61  -0.97  -236.171715            -0.0,+0.0,+0.0
iter:   5  08:07:47  -0.42  -1.09  -232.386767            -0.0,+0.0,+0.0
iter:   6  08:08:22  -1.60  -1.25  -222.205666            -0.0,+0.0,+0.0
iter:   7  08:08:56  -2.52  -1.35  -222.157372            -0.1,+0.0,+0.0
iter:   8  08:09:31  -2.40  -1.35  -221.956485            -0.0,-0.0,+0.0
iter:   9  08:10:06  -2.53  -1.38  -224.529816            -0.1,-0.0,-0.0
iter:  10  08:10:40  -2.10  -1.33  -222.908304            -0.1,-0.0,-0.0
iter:  11  08:11:15  -3.06  -1.40  -221.813099            +0.1,-0.0,-0.1
iter:  12  08:11:49  -3.08  -1.49  -222.042158            +0.1,-0.0,-0.1
iter:  13  08:12:24  -2.19  -1.51  -222.542750            +0.0,-0.1,-0.1
iter:  14  08:12:59  -2.51  -1.61  -222.373788            -0.3,-0.1,-0.2
iter:  15  08:13:33  -2.62  -1.73  -223.596489            -0.7,-0.1,-0.2
iter:  16  08:14:08  -2.48  -1.78  -222.545607            +1.1,-0.2,-0.4
iter:  17  08:14:42  -2.23  -1.77  -222.165736            +3.6,-0.2,-0.5
iter:  18  08:15:17  -2.65  -1.94  -223.388074            +2.9,-0.3,-0.6
iter:  19  08:15:52  -2.95  -1.95  -224.007475            +3.5,-0.4,-0.8
iter:  20  08:16:26  -2.82  -2.02  -224.450457            +3.0,-0.4,-1.0
iter:  21  08:17:01  -3.02  -2.15  -224.129891            +3.8,-0.5,-1.4
iter:  22  08:17:35  -2.92  -2.27  -223.947939            +4.8,-0.6,-1.5
iter:  23  08:18:10  -3.48  -2.39  -224.250349            +4.7,-0.6,-1.9
iter:  24  08:18:45  -3.29  -2.45  -224.130868            +4.5,-0.9,-1.4
iter:  25  08:19:19  -3.17  -2.47  -223.969013            +4.2,-0.5,-1.0
iter:  26  08:19:54  -3.55  -2.49  -224.141601            +4.5,-0.4,-1.5
iter:  27  08:20:28  -4.34  -2.50  -224.161952            +4.4,-0.4,-1.5
iter:  28  08:21:03  -3.36  -2.52  -224.511733            +4.1,-0.3,-2.2
iter:  29  08:21:38  -3.03  -2.56  -223.983435            +4.0,-0.4,-0.9
iter:  30  08:22:12  -3.07  -2.66  -223.690508            +4.0,-0.5,+0.2
iter:  31  08:22:47  -2.94  -2.61  -224.298081            +3.7,-0.4,-1.4
iter:  32  08:23:21  -3.22  -2.68  -224.770123            +3.0,-0.5,-1.8
iter:  33  08:23:56  -3.10  -2.55  -224.135994            +4.0,-0.4,-1.3
iter:  34  08:24:31  -3.15  -2.72  -223.629395            +4.1,-0.5,-0.5
iter:  35  08:25:05  -2.90  -2.82  -224.544926            +3.7,-0.5,-2.0
iter:  36  08:25:40  -3.48  -2.73  -224.743532            +3.4,-0.7,-2.4
iter:  37  08:26:14  -3.41  -2.53  -224.969935            +3.0,-0.4,-2.0
iter:  38  08:26:49  -3.45  -2.57  -224.457159            +3.1,-0.4,-1.5
iter:  39  08:27:23  -3.26  -2.64  -225.206369            +2.3,-0.4,-1.6
iter:  40  08:27:58  -4.02  -2.51  -225.305899            +2.2,-0.5,-1.9
iter:  41  08:28:33  -2.62  -2.50  -225.406331            +1.3,-0.5,+0.7
iter:  42  08:29:07  -2.28  -2.47  -226.137379            +0.5,-0.5,-3.0
iter:  43  08:29:42  -2.25  -2.41  -224.640864            +0.7,-0.5,-6.9
iter:  44  08:30:16  -2.29  -2.36  -226.310557            +0.6,-0.5,-3.0
iter:  45  08:30:51  -3.12  -2.42  -226.315065            +0.6,-0.5,-2.8
iter:  46  08:31:26  -3.93  -2.43  -226.329515            +0.6,-0.5,-2.7
iter:  47  08:32:00  -4.12  -2.43  -226.332919            +0.6,-0.5,-2.6
iter:  48  08:32:35  -4.30  -2.45  -226.319960            +0.6,-0.5,-2.6
iter:  49  08:33:09  -3.58  -2.51  -226.279598            +0.6,-0.5,-2.6
iter:  50  08:33:44  -4.68  -2.73  -226.275903            +0.6,-0.5,-2.6
iter:  51  08:34:18  -3.43  -2.77  -226.260097            +0.6,-0.5,-2.6
iter:  52  08:34:53  -4.87  -3.18  -226.259505            +0.6,-0.5,-2.6
iter:  53  08:35:27  -5.20  -3.23  -226.259408            +0.6,-0.5,-2.5
iter:  54  08:36:02  -5.32  -3.27  -226.258761            +0.6,-0.5,-2.5
iter:  55  08:36:36  -5.23  -3.32  -226.258926            +0.6,-0.5,-2.4
iter:  56  08:37:11  -5.88  -3.36  -226.258703            +0.6,-0.5,-2.4
iter:  57  08:37:46  -5.15  -3.39  -226.258067            +0.6,-0.4,-2.4
iter:  58  08:38:20  -5.92  -3.85  -226.258053            +0.6,-0.5,-2.4
iter:  59  08:38:55  -6.14  -4.00  -226.258176            +0.6,-0.5,-2.4
iter:  60  08:39:29  -5.37  -4.06  -226.258397            +0.6,-0.5,-2.2
iter:  61  08:40:04  -6.70  -4.17  -226.258423            +0.6,-0.4,-2.3
iter:  62  08:40:38  -6.45  -4.25  -226.258545            +0.5,-0.4,-2.2
iter:  63  08:41:13  -6.72  -4.36  -226.258589            +0.5,-0.4,-2.2
iter:  64  08:41:47  -7.03  -4.38  -226.258640            +0.5,-0.4,-2.2
iter:  65  08:42:22  -5.27  -4.43  -226.259074            +0.5,-0.4,-2.1
iter:  66  08:42:56  -5.06  -4.54  -226.259444            +0.5,-0.3,-1.9
iter:  67  08:43:31  -6.07  -4.72  -226.259493            +0.5,-0.3,-1.9
iter:  68  08:44:05  -6.14  -4.77  -226.259687            +0.5,-0.2,-1.9
iter:  69  08:44:40  -6.45  -4.96  -226.259681            +0.5,-0.3,-1.9
iter:  70  08:45:15  -5.90  -4.94  -226.259736            +0.5,-0.2,-1.9
iter:  71  08:45:49  -4.95  -5.03  -226.260189            +0.5,-0.1,-1.7
iter:  72  08:46:23  -5.68  -4.95  -226.260269            +0.5,-0.1,-1.6
iter:  73  08:46:58  -6.38  -4.89  -226.260332            +0.5,-0.1,-1.6
iter:  74  08:47:32  -6.34  -4.88  -226.260567            +0.5,-0.1,-1.5
iter:  75  08:48:07  -6.78  -5.07  -226.260534            +0.4,-0.1,-1.6
iter:  76  08:48:41  -5.96  -5.10  -226.260685            +0.4,-0.1,-1.5
iter:  77  08:49:15  -4.96  -5.28  -226.260961            +0.4,-0.1,-1.3
iter:  78  08:49:50  -5.85  -4.98  -226.260945            +0.4,-0.1,-1.2
iter:  79  08:50:24  -6.80  -4.88  -226.261086            +0.4,-0.1,-1.2
iter:  80  08:50:58  -6.66  -5.03  -226.261241            +0.4,-0.1,-1.2
iter:  81  08:51:32  -7.42  -5.20  -226.261225            +0.4,-0.1,-1.2
iter:  82  08:52:07  -5.99  -5.14  -226.261336            +0.4,-0.1,-1.1
iter:  83  08:52:41  -5.45  -5.29  -226.261443            +0.4,-0.1,-1.0
iter:  84  08:53:16  -6.36  -5.07  -226.261433            +0.4,-0.1,-1.0
iter:  85  08:53:50  -7.02  -5.00  -226.261522            +0.4,-0.1,-1.0
iter:  86  08:54:24  -6.82  -5.08  -226.261619            +0.3,-0.1,-1.0
iter:  87  08:54:59  -7.78  -5.12  -226.261628            +0.4,-0.1,-1.0
iter:  88  08:55:33  -6.10  -5.17  -226.261711            +0.3,-0.1,-0.9
iter:  89  08:56:07  -5.46  -5.24  -226.261764            +0.4,-0.1,-0.8
iter:  90  08:56:42  -7.05  -5.01  -226.261777            +0.3,-0.1,-0.8
iter:  91  08:57:16  -7.40  -5.11  -226.261843            +0.3,-0.1,-0.8
iter:  92  08:57:50  -7.09  -5.40  -226.261897            +0.3,-0.1,-0.8
iter:  93  08:58:24  -8.18  -5.29  -226.261895            +0.3,-0.1,-0.8
iter:  94  08:58:59  -6.46  -5.23  -226.261941            +0.3,-0.1,-0.8
iter:  95  08:59:33  -6.07  -5.46  -226.261976            +0.3,-0.1,-0.7
iter:  96  09:00:07  -6.79  -5.31  -226.261975            +0.3,-0.1,-0.7
iter:  97  09:00:41  -7.65  -5.41  -226.261994            +0.3,-0.1,-0.7
iter:  98  09:01:15  -6.88  -5.45  -226.262048            +0.3,-0.1,-0.7
iter:  99  09:01:50  -7.97  -5.14  -226.262057            +0.3,-0.1,-0.7
iter: 100  09:02:24  -7.39  -5.28  -226.262074            +0.3,-0.1,-0.7
iter: 101  09:02:59  -5.63  -5.35  -226.262141            +0.3,-0.1,-0.6
iter: 102  09:03:33  -6.72  -5.40  -226.262147            +0.3,-0.1,-0.6
iter: 103  09:04:07  -7.24  -5.38  -226.262050            +0.3,-0.1,-0.6
iter: 104  09:04:41  -6.62  -5.10  -226.262226            +0.3,-0.1,-0.6
iter: 105  09:05:15  -7.87  -5.38  -226.262228            +0.3,-0.1,-0.6
iter: 106  09:05:50  -7.48  -5.36  -226.262242            +0.2,-0.1,-0.6
iter: 107  09:06:24  -6.36  -5.44  -226.262284            +0.2,-0.1,-0.6
iter: 108  09:06:58  -6.85  -5.47  -226.262295            +0.2,-0.1,-0.6
iter: 109  09:07:32  -7.00  -5.39  -226.262300            +0.3,-0.1,-0.5
iter: 110  09:08:07  -7.68  -5.35  -226.262315            +0.2,-0.1,-0.5
iter: 111  09:08:41  -7.12  -5.35  -226.262350            +0.2,-0.1,-0.5
iter: 112  09:09:15  -7.81  -5.42  -226.262354            +0.2,-0.1,-0.5
iter: 113  09:09:50  -6.42  -5.50  -226.262378            +0.2,-0.1,-0.5
iter: 114  09:10:24  -5.27  -5.65  -226.262443            +0.2,-0.0,-0.5
iter: 115  09:10:58  -6.91  -5.35  -226.262446            +0.2,-0.0,-0.5
iter: 116  09:11:33  -7.73  -5.41  -226.262460            +0.2,-0.0,-0.5
iter: 117  09:12:07  -7.35  -5.47  -226.262492            +0.2,-0.0,-0.5
iter: 118  09:12:41  -8.02  -5.58  -226.262498            +0.2,-0.0,-0.5
iter: 119  09:13:15  -7.99  -5.50  -226.262505            +0.2,-0.0,-0.5
iter: 120  09:13:50  -6.72  -5.56  -226.262532            +0.2,-0.0,-0.5
iter: 121  09:14:24  -6.88  -5.84  -226.262540            +0.2,-0.0,-0.5
iter: 122  09:14:58  -7.58  -5.61  -226.262546            +0.2,-0.0,-0.5
iter: 123  09:15:32  -6.99  -5.58  -226.262383            +0.2,-0.0,-0.5
iter: 124  09:16:07  -6.65  -5.01  -226.262576            +0.2,-0.0,-0.5
iter: 125  09:16:41  -7.88  -5.67  -226.262579            +0.2,-0.0,-0.5
iter: 126  09:17:15  -6.29  -5.64  -226.262524            +0.2,-0.0,-0.5
iter: 127  09:17:49  -5.44  -5.32  -226.262626            +0.2,-0.0,-0.4
iter: 128  09:18:24  -6.58  -5.57  -226.262632            +0.2,-0.0,-0.4
iter: 129  09:18:58  -7.26  -5.54  -226.262591            +0.2,-0.0,-0.4
iter: 130  09:19:32  -6.97  -5.25  -226.262662            +0.2,-0.0,-0.4
iter: 131  09:20:06  -8.06  -5.71  -226.262663            +0.2,-0.0,-0.4
iter: 132  09:20:41  -6.45  -5.69  -226.262638            +0.2,-0.0,-0.4
iter: 133  09:21:15  -5.41  -5.51  -226.262710            +0.2,-0.0,-0.4
iter: 134  09:21:49  -5.86  -5.96  -226.262731            +0.2,-0.0,-0.4
iter: 135  09:22:23  -6.47  -5.55  -226.262737            +0.2,-0.0,-0.4
iter: 136  09:22:57  -7.57  -5.39  -226.262749            +0.2,-0.0,-0.4
iter: 137  09:23:32  -7.45  -5.55  -226.262768            +0.1,-0.0,-0.4
iter: 138  09:24:06  -8.36  -5.74  -226.262767            +0.1,-0.0,-0.4
iter: 139  09:24:40  -6.75  -5.65  -226.262782            +0.1,-0.0,-0.4
iter: 140  09:25:14  -5.97  -5.88  -226.262810            +0.1,-0.0,-0.4
iter: 141  09:25:48  -6.66  -5.76  -226.262815            +0.1,-0.0,-0.4
iter: 142  09:26:23  -7.63  -5.55  -226.262820            +0.1,-0.0,-0.4
iter: 143  09:26:57  -7.54  -5.61  -226.262836            +0.1,-0.0,-0.4
iter: 144  09:27:31  -8.66  -5.75  -226.262836            +0.1,-0.0,-0.4
iter: 145  09:28:05  -7.88  -5.69  -226.262841            +0.1,-0.0,-0.4
iter: 146  09:28:39  -7.26  -5.75  -226.262849            +0.1,-0.0,-0.4
iter: 147  09:29:14  -6.91  -5.98  -226.262856            +0.1,-0.0,-0.4
iter: 148  09:29:48  -7.86  -5.75  -226.262858            +0.1,-0.0,-0.4
iter: 149  09:30:22  -7.89  -5.71  -226.262840            +0.1,-0.0,-0.4
iter: 150  09:30:56  -7.21  -5.48  -226.262871            +0.1,-0.0,-0.4
iter: 151  09:31:30  -8.56  -5.61  -226.262870            +0.1,-0.0,-0.4
iter: 152  09:32:04  -7.08  -5.69  -226.262855            +0.1,-0.0,-0.4
iter: 153  09:32:39  -5.99  -5.51  -226.262888            +0.1,-0.0,-0.4
iter: 154  09:33:13  -7.38  -5.69  -226.262887            +0.1,-0.0,-0.4
iter: 155  09:33:47  -7.58  -5.66  -226.262902            +0.1,-0.0,-0.4
iter: 156  09:34:21  -8.31  -6.01  -226.262903            +0.1,-0.0,-0.4
iter: 157  09:34:56  -7.68  -5.84  -226.262901            +0.1,-0.0,-0.4
iter: 158  09:35:30  -7.16  -5.74  -226.262898            +0.1,-0.0,-0.4
iter: 159  09:36:04  -6.15  -5.76  -226.262887            +0.1,-0.0,-0.4
iter: 160  09:36:38  -6.60  -5.68  -226.262880            +0.1,-0.0,-0.4
iter: 161  09:37:12  -7.10  -5.57  -226.262875            +0.1,-0.0,-0.4
iter: 162  09:37:47  -7.19  -5.51  -226.262873            +0.1,-0.0,-0.4
iter: 163  09:38:21  -6.34  -5.46  -226.262794            +0.1,-0.0,-0.4
iter: 164  09:38:55  -6.29  -5.04  -226.262887            +0.1,-0.0,-0.4
iter: 165  09:39:29  -7.40  -6.08  -226.262888            +0.1,-0.0,-0.4
iter: 166  09:40:04  -6.03  -6.32  -226.262881            +0.1,-0.0,-0.4
iter: 167  09:40:38  -5.64  -5.36  -226.262881            +0.1,-0.0,-0.4
iter: 168  09:41:12  -6.49  -5.95  -226.262879            +0.1,-0.0,-0.4
iter: 169  09:41:46  -7.43  -5.82  -226.262853            +0.1,-0.0,-0.4
iter: 170  09:42:21  -7.33  -5.34  -226.262886            +0.1,-0.0,-0.4
iter: 171  09:42:55  -8.56  -6.06  -226.262887            +0.1,-0.0,-0.4
iter: 172  09:43:29  -8.35  -6.00  -226.262885            +0.1,-0.0,-0.4
iter: 173  09:44:03  -6.84  -5.95  -226.262897            +0.1,-0.0,-0.4
iter: 174  09:44:37  -6.11  -6.13  -226.262921            +0.1,-0.0,-0.3
iter: 175  09:45:11  -6.27  -5.79  -226.262933            +0.1,-0.0,-0.3
iter: 176  09:45:46  -7.66  -5.54  -226.262933            +0.1,-0.0,-0.3
iter: 177  09:46:20  -7.55  -5.56  -226.262945            +0.1,-0.0,-0.3
iter: 178  09:46:54  -7.81  -5.88  -226.262945            +0.1,-0.0,-0.3
iter: 179  09:47:28  -7.34  -6.03  -226.262950            +0.1,-0.0,-0.3
iter: 180  09:48:03  -6.31  -6.28  -226.262964            +0.1,-0.0,-0.2
iter: 181  09:48:37  -6.39  -6.01  -226.262970            +0.1,-0.0,-0.2
iter: 182  09:49:11  -7.63  -5.63  -226.262972            +0.1,-0.0,-0.2
iter: 183  09:49:45  -7.86  -5.69  -226.262980            +0.1,-0.0,-0.2
iter: 184  09:50:19  -8.80  -6.27  -226.262980            +0.1,-0.0,-0.2
iter: 185  09:50:54  -7.58  -6.14  -226.262981            +0.1,-0.0,-0.2
iter: 186  09:51:28  -7.19  -6.32  -226.262983            +0.1,-0.0,-0.2
iter: 187  09:52:02  -6.76  -6.17  -226.262983            +0.1,-0.0,-0.1
iter: 188  09:52:36  -7.75  -5.73  -226.262983            +0.1,-0.0,-0.1
iter: 189  09:53:10  -7.81  -5.70  -226.262976            +0.1,-0.0,-0.1
iter: 190  09:53:45  -7.81  -5.50  -226.262990            +0.1,-0.0,-0.1
iter: 191  09:54:19  -8.35  -6.25  -226.262992            +0.1,-0.0,-0.1
iter: 192  09:54:53  -7.41  -6.29  -226.262987            +0.1,-0.0,-0.1
iter: 193  09:55:28  -6.35  -5.88  -226.262999            +0.1,-0.0,-0.1
iter: 194  09:56:02  -7.13  -5.81  -226.263001            +0.1,-0.0,-0.1
iter: 195  09:56:36  -8.03  -5.73  -226.262996            +0.1,-0.0,-0.1
iter: 196  09:57:10  -7.86  -5.56  -226.263007            +0.1,-0.0,-0.1
iter: 197  09:57:44  -8.74  -6.42  -226.263008            +0.1,-0.0,-0.1
iter: 198  09:58:19  -7.40  -6.27  -226.263002            +0.1,-0.0,-0.1
iter: 199  09:58:53  -5.95  -5.95  -226.263028            +0.1,-0.0,-0.1
iter: 200  09:59:27  -6.86  -5.67  -226.263032            +0.1,-0.0,-0.1
iter: 201  10:00:01  -7.78  -5.60  -226.263030            +0.1,-0.0,-0.1
iter: 202  10:00:36  -7.85  -5.52  -226.263039            +0.0,-0.0,-0.1
iter: 203  10:01:10  -8.29  -6.03  -226.263041            +0.0,-0.0,-0.1
iter: 204  10:01:44  -7.16  -6.04  -226.263033            +0.0,-0.0,-0.1
iter: 205  10:02:18  -5.64  -5.97  -226.263069            +0.0,-0.0,-0.1
iter: 206  10:02:52  -6.06  -5.60  -226.263080            +0.0,-0.0,-0.1
iter: 207  10:03:27  -7.12  -5.42  -226.263079            +0.0,-0.0,-0.1
iter: 208  10:04:01  -7.41  -5.37  -226.263091            +0.0,-0.0,-0.1
iter: 209  10:04:35  -7.31  -5.74  -226.263095            +0.0,-0.0,-0.1
iter: 210  10:05:09  -7.36  -6.07  -226.263091            +0.0,+0.0,-0.1
iter: 211  10:05:43  -5.99  -6.10  -226.263111            +0.0,+0.0,-0.1
iter: 212  10:06:18  -5.93  -5.76  -226.263122            +0.0,+0.0,-0.1
iter: 213  10:06:52  -7.04  -5.41  -226.263121            +0.0,+0.0,-0.1
iter: 214  10:07:26  -7.59  -5.37  -226.263134            +0.0,+0.0,-0.1
iter: 215  10:08:00  -8.08  -5.78  -226.263137            +0.0,+0.0,-0.1
iter: 216  10:08:34  -7.98  -6.16  -226.263138            +0.0,+0.0,-0.1
iter: 217  10:09:09  -7.83  -6.31  -226.263141            +0.0,+0.0,-0.1
iter: 218  10:09:43  -6.48  -6.42  -226.263150            +0.0,+0.0,-0.1
iter: 219  10:10:17  -7.31  -5.70  -226.263152            +0.0,+0.0,-0.1
iter: 220  10:10:51  -7.25  -5.66  -226.263134            +0.0,+0.0,-0.1
iter: 221  10:11:26  -7.29  -5.23  -226.263158            +0.0,+0.0,-0.1
iter: 222  10:12:00  -8.04  -6.34  -226.263160            +0.0,+0.0,-0.1
iter: 223  10:12:34  -6.45  -6.36  -226.263143            +0.0,+0.0,-0.1
iter: 224  10:13:08  -5.77  -5.55  -226.263170            +0.0,+0.0,-0.1
iter: 225  10:13:43  -6.73  -5.66  -226.263174            +0.0,+0.0,-0.1
iter: 226  10:14:17  -7.54  -5.59  -226.263161            +0.0,+0.0,-0.1
iter: 227  10:14:51  -7.46  -5.30  -226.263180            +0.0,+0.0,-0.1
iter: 228  10:15:25  -8.53  -6.30  -226.263181            +0.0,+0.0,-0.1
iter: 229  10:16:00  -7.42  -6.21  -226.263177            +0.0,+0.0,-0.1
iter: 230  10:16:34  -6.26  -5.90  -226.263189            +0.0,+0.0,-0.1
iter: 231  10:17:08  -6.30  -5.86  -226.263195            +0.0,+0.0,-0.1
iter: 232  10:17:42  -7.01  -5.50  -226.263194            +0.0,+0.0,-0.1
iter: 233  10:18:16  -7.51  -5.40  -226.263199            +0.0,+0.0,-0.1
iter: 234  10:18:50  -7.79  -5.53  -226.263207            +0.0,+0.0,-0.1
iter: 235  10:19:25  -8.43  -6.53  -226.263206            +0.0,+0.0,-0.1
iter: 236  10:19:59  -7.22  -6.13  -226.263210            +0.0,+0.0,-0.1
iter: 237  10:20:33  -6.45  -6.63  -226.263217            +0.0,+0.0,-0.1
iter: 238  10:21:07  -7.04  -5.68  -226.263217            +0.0,+0.0,-0.1
iter: 239  10:21:41  -7.90  -5.52  -226.263220            +0.0,+0.0,-0.1
iter: 240  10:22:16  -7.82  -5.59  -226.263225            +0.0,+0.0,-0.1
iter: 241  10:22:50  -8.57  -5.88  -226.263226            +0.0,+0.0,-0.1
iter: 242  10:23:24  -7.46  -6.32  -226.263229            +0.0,+0.0,-0.1
iter: 243  10:23:58  -6.43  -6.77  -226.263234            +0.0,+0.0,-0.1
iter: 244  10:24:33  -6.79  -5.64  -226.263235            +0.0,+0.0,-0.1
iter: 245  10:25:07  -7.96  -5.48  -226.263233            +0.0,+0.0,-0.1
iter: 246  10:25:41  -7.74  -5.41  -226.263245            +0.0,+0.0,-0.1
iter: 247  10:26:16  -8.92  -6.39  -226.263245            +0.0,+0.0,-0.1
iter: 248  10:26:50  -8.35  -6.26  -226.263244            +0.0,+0.0,-0.1
iter: 249  10:27:24  -7.31  -6.06  -226.263247            +0.0,+0.0,-0.1
iter: 250  10:27:59  -6.98  -6.54  -226.263250            +0.0,+0.0,-0.1
iter: 251  10:28:33  -7.01  -5.87  -226.263252            +0.0,+0.0,-0.1
iter: 252  10:29:07  -8.21  -5.59  -226.263252            +0.0,+0.0,-0.1
iter: 253  10:29:41  -7.93  -5.60  -226.263258            +0.0,+0.0,-0.1
iter: 254  10:30:16  -8.97  -6.16  -226.263258            +0.0,+0.0,-0.1
iter: 255  10:30:50  -8.80  -6.20  -226.263257            +0.0,+0.0,-0.1
iter: 256  10:31:24  -7.55  -6.16  -226.263259            +0.0,+0.0,-0.1
iter: 257  10:31:59  -7.60  -6.42  -226.263261            +0.0,+0.0,-0.1
iter: 258  10:32:33  -7.76  -6.13  -226.263262            +0.0,+0.0,-0.1
iter: 259  10:33:07  -7.21  -5.92  -226.263262            +0.0,+0.0,-0.1
iter: 260  10:33:41  -7.41  -5.70  -226.263264            +0.0,+0.0,-0.1
iter: 261  10:34:15  -8.02  -5.92  -226.263266            +0.0,-0.0,-0.1
iter: 262  10:34:49  -8.88  -6.41  -226.263266            +0.0,-0.0,-0.1
iter: 263  10:35:24  -8.22  -6.27  -226.263267            +0.0,-0.0,-0.1
iter: 264  10:35:58  -7.04  -6.41  -226.263271            +0.0,-0.0,-0.1
iter: 265  10:36:32  -7.46  -6.04  -226.263271            +0.0,-0.0,-0.1
iter: 266  10:37:06  -7.82  -5.79  -226.263272            +0.0,-0.0,-0.1
iter: 267  10:37:40  -8.04  -5.76  -226.263273            +0.0,-0.0,-0.1
iter: 268  10:38:15  -7.85  -5.89  -226.263275            +0.0,-0.0,-0.1
iter: 269  10:38:49  -8.24  -6.10  -226.263276            +0.0,-0.0,-0.1
iter: 270  10:39:23  -7.72  -6.29  -226.263274            +0.0,-0.0,-0.1
iter: 271  10:39:57  -6.38  -6.04  -226.263281            +0.0,-0.0,-0.1
iter: 272  10:40:32  -7.16  -5.75  -226.263281            +0.0,-0.0,-0.1
iter: 273  10:41:06  -7.27  -5.62  -226.263281            +0.0,-0.0,-0.1
iter: 274  10:41:40  -7.88  -5.52  -226.263285            +0.0,-0.0,-0.1
iter: 275  10:42:14  -8.18  -5.79  -226.263287            +0.0,-0.0,-0.1
iter: 276  10:42:48  -8.50  -5.99  -226.263288            +0.0,-0.0,-0.0
iter: 277  10:43:22  -7.09  -6.41  -226.263291            +0.0,-0.0,-0.0
iter: 278  10:43:56  -6.69  -6.12  -226.263292            +0.0,-0.0,-0.0
iter: 279  10:44:31  -8.21  -5.59  -226.263293            +0.0,-0.0,-0.0
iter: 280  10:45:05  -8.24  -5.65  -226.263296            +0.0,-0.0,-0.0
iter: 281  10:45:39  -7.82  -5.95  -226.263298            +0.0,-0.0,-0.0
iter: 282  10:46:13  -8.28  -6.20  -226.263298            +0.0,-0.0,-0.0
iter: 283  10:46:47  -7.05  -6.47  -226.263301            +0.0,-0.0,-0.0
iter: 284  10:47:22  -6.90  -6.02  -226.263302            +0.0,-0.0,-0.0
iter: 285  10:47:56  -7.68  -5.62  -226.263303            +0.0,-0.0,-0.0
iter: 286  10:48:30  -7.06  -5.67  -226.263306            +0.0,-0.0,-0.0
iter: 287  10:49:05  -8.03  -6.30  -226.263307            +0.0,-0.0,-0.0
iter: 288  10:49:39  -8.46  -6.28  -226.263307            +0.0,-0.0,-0.0
iter: 289  10:50:13  -7.08  -6.43  -226.263310            +0.0,-0.0,-0.0
iter: 290  10:50:47  -7.24  -6.07  -226.263311            +0.0,-0.0,-0.0
iter: 291  10:51:21  -7.78  -5.76  -226.263311            +0.0,-0.0,-0.0
iter: 292  10:51:55  -7.47  -5.72  -226.263303            +0.0,-0.0,-0.0
iter: 293  10:52:30  -7.56  -5.36  -226.263314            +0.0,-0.0,-0.0
iter: 294  10:53:04  -8.35  -6.50  -226.263315            +0.0,-0.0,-0.0
iter: 295  10:53:38  -7.11  -6.74  -226.263311            +0.0,-0.0,-0.0
iter: 296  10:54:13  -6.39  -5.73  -226.263318            +0.0,-0.0,-0.0
iter: 297  10:54:47  -7.31  -5.82  -226.263319            +0.0,-0.0,-0.0
iter: 298  10:55:21  -7.94  -5.74  -226.263312            +0.0,-0.0,-0.0
iter: 299  10:55:55  -7.82  -5.40  -226.263322            +0.0,-0.0,-0.0
iter: 300  10:56:29  -8.99  -6.54  -226.263322            +0.0,-0.0,-0.0
iter: 301  10:57:04  -7.96  -6.41  -226.263321            +0.0,-0.0,-0.0
iter: 302  10:57:38  -6.66  -6.01  -226.263325            +0.0,-0.0,-0.0
iter: 303  10:58:12  -7.29  -5.84  -226.263326            +0.0,-0.0,-0.0
iter: 304  10:58:46  -8.45  -5.68  -226.263325            +0.0,-0.0,-0.0
iter: 305  10:59:21  -8.19  -5.62  -226.263329            +0.0,-0.0,-0.0
iter: 306  10:59:55  -9.21  -6.65  -226.263329            +0.0,-0.0,-0.0
iter: 307  11:00:29  -8.74  -6.36  -226.263328            +0.0,-0.0,-0.0
iter: 308  11:01:03  -6.94  -6.17  -226.263332            +0.0,-0.0,-0.0
iter: 309  11:01:37  -7.21  -6.01  -226.263332            +0.0,-0.0,-0.0
iter: 310  11:02:12  -8.43  -5.71  -226.263332            +0.0,-0.0,-0.0
iter: 311  11:02:46  -8.28  -5.70  -226.263335            +0.0,-0.0,-0.0
iter: 312  11:03:20  -9.11  -6.81  -226.263335            +0.0,-0.0,-0.0
iter: 313  11:03:54 -10.08  -6.37  -226.263335            +0.0,-0.0,-0.0
iter: 314  11:04:28  -8.21  -6.29  -226.263336            +0.0,-0.0,-0.0
iter: 315  11:05:03  -7.64  -6.52  -226.263337            +0.0,-0.0,-0.0
iter: 316  11:05:37  -8.47  -6.07  -226.263337            +0.0,-0.0,-0.0
iter: 317  11:06:11  -8.56  -5.97  -226.263338            +0.0,-0.0,-0.0
iter: 318  11:06:45  -8.34  -5.91  -226.263338            +0.0,-0.0,-0.0
iter: 319  11:07:20  -8.30  -5.88  -226.263333            +0.0,-0.0,-0.0
iter: 320  11:07:54  -7.91  -5.44  -226.263340            +0.0,-0.0,-0.0
iter: 321  11:08:28  -9.08  -6.34  -226.263340            +0.0,-0.0,-0.0
iter: 322  11:09:02  -8.28  -6.26  -226.263339            +0.0,-0.0,-0.0
iter: 323  11:09:37  -6.96  -6.03  -226.263342            +0.0,-0.0,-0.0
iter: 324  11:10:11  -7.54  -5.92  -226.263343            +0.0,-0.0,-0.0
iter: 325  11:10:45  -8.42  -5.83  -226.263342            +0.0,-0.0,-0.0
iter: 326  11:11:19  -8.45  -5.75  -226.263345            +0.0,-0.0,-0.0
iter: 327  11:11:54  -8.98  -6.06  -226.263345            +0.0,-0.0,-0.0
iter: 328  11:12:28  -8.90  -6.00  -226.263345            +0.0,-0.0,-0.0
iter: 329  11:13:02  -7.14  -5.97  -226.263347            +0.0,-0.0,-0.0
iter: 330  11:13:36  -7.53  -6.05  -226.263347            +0.0,-0.0,-0.0
iter: 331  11:14:11  -8.45  -5.87  -226.263347            +0.0,-0.0,-0.0
iter: 332  11:14:45  -8.66  -5.81  -226.263349            +0.0,-0.0,-0.0
iter: 333  11:15:19  -8.92  -6.02  -226.263349            +0.0,-0.0,-0.0
iter: 334  11:15:53  -9.23  -6.05  -226.263349            +0.0,-0.0,-0.0
iter: 335  11:16:28  -7.36  -6.11  -226.263351            +0.0,-0.0,-0.0
iter: 336  11:17:02  -7.39  -5.91  -226.263352            +0.0,-0.0,-0.0
iter: 337  11:17:36  -8.49  -5.67  -226.263352            +0.0,-0.0,-0.0
iter: 338  11:18:10  -8.75  -5.69  -226.263353            +0.0,-0.0,-0.0
iter: 339  11:18:44  -9.06  -6.09  -226.263354            +0.0,-0.0,-0.0
iter: 340  11:19:19 -10.18  -6.40  -226.263354            +0.0,-0.0,-0.0
iter: 341  11:19:53  -8.48  -6.45  -226.263354            +0.0,-0.0,-0.0
iter: 342  11:20:27  -7.90  -6.27  -226.263355            +0.0,-0.0,-0.0
iter: 343  11:21:01  -7.88  -5.98  -226.263356            +0.0,-0.0,-0.0
iter: 344  11:21:36  -8.59  -5.77  -226.263356            +0.0,-0.0,-0.0
iter: 345  11:22:10  -9.29  -5.70  -226.263355            +0.0,-0.0,-0.0
iter: 346  11:22:44  -8.27  -5.69  -226.263357            -0.0,-0.0,-0.0
iter: 347  11:23:18  -9.52  -6.27  -226.263357            +0.0,-0.0,-0.0
iter: 348  11:23:53  -9.75  -6.53  -226.263357            +0.0,-0.0,-0.0
iter: 349  11:24:27  -7.46  -6.58  -226.263359            -0.0,-0.0,-0.0
iter: 350  11:25:01  -8.13  -5.97  -226.263359            +0.0,-0.0,-0.0
iter: 351  11:25:35  -8.83  -5.85  -226.263359            -0.0,-0.0,-0.0
iter: 352  11:26:10  -9.04  -5.81  -226.263359            +0.0,-0.0,-0.0
iter: 353  11:26:44  -8.35  -5.72  -226.263359            -0.0,-0.0,-0.0
iter: 354  11:27:18  -9.74  -6.62  -226.263359            -0.0,-0.0,-0.0
iter: 355  11:27:52  -8.62  -7.02  -226.263359            -0.0,-0.0,-0.0
iter: 356  11:28:27  -7.13  -6.65  -226.263361            -0.0,-0.0,-0.0
iter: 357  11:29:01  -8.37  -5.87  -226.263361            -0.0,-0.0,-0.0
iter: 358  11:29:35  -9.12  -5.84  -226.263362            -0.0,-0.0,-0.0
iter: 359  11:30:09  -9.13  -6.04  -226.263362            -0.0,-0.0,-0.0
iter: 360  11:30:43  -9.53  -6.46  -226.263362            -0.0,-0.0,-0.0
iter: 361  11:31:18  -8.05  -6.65  -226.263363            -0.0,-0.0,-0.0
iter: 362  11:31:52  -7.45  -6.21  -226.263364            -0.0,-0.0,-0.0
iter: 363  11:32:26  -8.39  -5.80  -226.263364            -0.0,-0.0,-0.0
iter: 364  11:33:00  -9.20  -5.75  -226.263364            -0.0,-0.0,-0.0
iter: 365  11:33:35  -8.75  -5.92  -226.263365            -0.0,-0.0,-0.0
iter: 366  11:34:09  -9.17  -6.64  -226.263365            -0.0,-0.0,-0.0
iter: 367  11:34:43  -8.06  -6.79  -226.263366            -0.0,-0.0,-0.0
iter: 368  11:35:17  -7.69  -6.27  -226.263367            -0.0,-0.0,-0.0
iter: 369  11:35:51  -8.36  -5.89  -226.263367            -0.0,-0.0,-0.0
iter: 370  11:36:26  -8.98  -5.80  -226.263368            -0.0,-0.0,-0.0
iter: 371  11:37:00  -7.63  -5.91  -226.263368            -0.0,-0.0,-0.0
iter: 372  11:37:35  -9.24  -6.71  -226.263368            -0.0,-0.0,-0.0
iter: 373  11:38:09  -8.56  -6.88  -226.263369            -0.0,-0.0,-0.0
iter: 374  11:38:43  -8.08  -6.53  -226.263369            -0.0,-0.0,-0.0
iter: 375  11:39:17  -8.33  -6.10  -226.263369            -0.0,-0.0,-0.0
iter: 376  11:39:52  -9.18  -5.93  -226.263370            -0.0,-0.0,-0.0
iter: 377  11:40:26  -8.59  -5.93  -226.263371            -0.0,-0.0,-0.0
iter: 378  11:41:00  -9.34  -6.27  -226.263371            -0.0,-0.0,-0.0
iter: 379  11:41:34  -8.78  -6.86  -226.263372            -0.0,-0.0,-0.0
iter: 380  11:42:08  -7.15  -6.60  -226.263373            -0.0,-0.0,-0.0
iter: 381  11:42:43  -8.03  -5.76  -226.263373            -0.0,-0.0,-0.0
iter: 382  11:43:17  -8.97  -5.71  -226.263372            -0.0,-0.0,-0.0
iter: 383  11:43:51  -8.30  -5.60  -226.263374            -0.0,-0.0,-0.0
iter: 384  11:44:25  -9.65  -6.87  -226.263374            -0.0,-0.0,-0.0
iter: 385  11:44:59 -10.17  -7.02  -226.263374            -0.0,-0.0,-0.0
iter: 386  11:45:34  -9.73  -7.06  -226.263374            -0.0,-0.0,-0.0
iter: 387  11:46:08  -8.30  -6.92  -226.263374            -0.0,-0.0,-0.0
iter: 388  11:46:42  -8.61  -6.29  -226.263374            -0.0,-0.0,-0.0
iter: 389  11:47:16  -9.03  -6.11  -226.263375            -0.0,-0.0,-0.0
iter: 390  11:47:50  -8.06  -6.03  -226.263376            -0.0,-0.0,-0.0
iter: 391  11:48:25  -8.75  -5.87  -226.263372            -0.0,-0.0,-0.0
iter: 392  11:48:59  -8.64  -5.69  -226.263375            -0.0,-0.0,-0.0
iter: 393  11:49:33  -9.26  -6.34  -226.263376            -0.0,-0.0,-0.0
iter: 394  11:50:07  -8.73  -6.84  -226.263377            -0.0,-0.0,-0.0
iter: 395  11:50:41  -7.44  -6.58  -226.263378            -0.0,-0.0,-0.0
iter: 396  11:51:16  -7.95  -6.02  -226.263378            -0.0,-0.0,-0.0
iter: 397  11:51:50  -8.73  -5.87  -226.263378            -0.0,-0.0,-0.0
iter: 398  11:52:24  -8.94  -5.76  -226.263379            -0.0,-0.0,-0.0
iter: 399  11:52:58  -9.18  -6.19  -226.263380            -0.0,-0.0,-0.0
iter: 400  11:53:32  -8.95  -6.81  -226.263379            -0.0,-0.0,-0.0
iter: 401  11:54:07  -7.49  -6.69  -226.263380            -0.0,-0.0,-0.0
iter: 402  11:54:41  -7.86  -6.03  -226.263381            -0.0,-0.0,-0.0
iter: 403  11:55:15  -8.77  -5.85  -226.263380            -0.0,-0.0,-0.0
iter: 404  11:55:49  -8.91  -5.76  -226.263381            -0.0,-0.0,-0.0
iter: 405  11:56:23  -9.23  -6.22  -226.263381            -0.0,-0.0,-0.0
iter: 406  11:56:57  -9.01  -6.90  -226.263381            -0.0,-0.0,-0.0
iter: 407  11:57:31  -7.46  -6.74  -226.263383            -0.0,-0.0,-0.0
iter: 408  11:58:05  -7.86  -6.02  -226.263383            -0.0,-0.0,-0.0
iter: 409  11:58:40  -8.79  -5.85  -226.263383            -0.0,-0.0,-0.0
iter: 410  11:59:14  -8.78  -5.77  -226.263384            -0.0,-0.0,-0.0
iter: 411  11:59:48  -9.13  -6.26  -226.263384            -0.0,-0.0,-0.0
iter: 412  12:00:22  -8.76  -6.98  -226.263383            -0.0,-0.0,-0.0
iter: 413  12:00:56  -7.20  -6.81  -226.263385            -0.0,-0.0,-0.0
iter: 414  12:01:30  -7.83  -5.99  -226.263385            -0.0,+0.0,-0.0
iter: 415  12:02:05  -8.87  -5.84  -226.263385            -0.0,+0.0,-0.0
iter: 416  12:02:39  -8.63  -5.78  -226.263387            -0.0,+0.0,-0.0
iter: 417  12:03:13  -9.35  -6.36  -226.263387            -0.0,+0.0,-0.0
iter: 418  12:03:47  -9.19  -7.09  -226.263386            -0.0,+0.0,-0.0
iter: 419  12:04:21  -7.32  -6.91  -226.263387            -0.0,+0.0,-0.0
iter: 420  12:04:55  -8.00  -5.94  -226.263387            -0.0,+0.0,-0.0
iter: 421  12:05:30  -8.52  -5.83  -226.263387            -0.0,+0.0,-0.0
iter: 422  12:06:04  -8.61  -5.79  -226.263388            -0.0,+0.0,-0.0
iter: 423  12:06:38  -9.87  -7.00  -226.263388            -0.0,+0.0,-0.0
iter: 424  12:07:12 -10.05  -7.28  -226.263387            -0.0,+0.0,-0.0
iter: 425  12:07:46  -8.87  -7.39  -226.263388            -0.0,+0.0,-0.0
iter: 426  12:08:20  -7.91  -7.05  -226.263388            -0.0,+0.0,-0.0
iter: 427  12:08:55  -8.08  -6.15  -226.263389            -0.0,+0.0,-0.0
iter: 428  12:09:29  -8.45  -5.93  -226.263389            -0.0,+0.0,-0.0
iter: 429  12:10:03  -9.28  -5.84  -226.263389            -0.0,+0.0,-0.0
iter: 430  12:10:37  -8.41  -5.85  -226.263389            -0.0,+0.0,-0.0
iter: 431  12:11:12  -9.34  -6.16  -226.263390            -0.0,+0.0,-0.0
iter: 432  12:11:46 -10.25  -7.32  -226.263390            -0.0,+0.0,-0.0
iter: 433  12:12:20  -8.75  -7.51  -226.263389            -0.0,+0.0,-0.0
iter: 434  12:12:54  -8.33  -6.63  -226.263390            -0.0,+0.0,-0.0
iter: 435  12:13:28  -8.31  -6.75  -226.263391            -0.0,+0.0,-0.0
iter: 436  12:14:02  -7.91  -6.29  -226.263391            -0.0,+0.0,-0.0
iter: 437  12:14:36  -8.70  -5.94  -226.263391            -0.0,+0.0,-0.0
iter: 438  12:15:11  -8.75  -5.89  -226.263391            -0.0,+0.0,-0.0
iter: 439  12:15:45  -8.46  -5.80  -226.263392            -0.0,+0.0,-0.0
iter: 440  12:16:19  -8.94  -6.14  -226.263393            -0.0,+0.0,-0.0
iter: 441  12:16:53  -9.35  -7.06  -226.263393            -0.0,+0.0,-0.0
iter: 442  12:17:27  -8.32  -7.29  -226.263393            -0.0,+0.0,-0.0
iter: 443  12:18:02  -7.90  -6.94  -226.263394            -0.0,+0.0,-0.0
iter: 444  12:18:36  -8.78  -6.20  -226.263394            -0.0,+0.0,-0.0
iter: 445  12:19:10  -8.51  -6.11  -226.263394            -0.0,+0.0,-0.0
iter: 446  12:19:45  -8.01  -6.00  -226.263394            -0.0,+0.0,-0.0
iter: 447  12:20:19  -8.45  -5.81  -226.263393            -0.0,+0.0,-0.0
iter: 448  12:20:53  -8.67  -5.87  -226.263393            -0.0,+0.0,-0.0
iter: 449  12:21:27  -9.02  -5.97  -226.263403            +0.0,+0.0,-0.0
iter: 450  12:22:01  -8.39  -6.24  -226.263402            +0.0,+0.0,-0.0
iter: 451  12:22:35  -8.14  -6.09  -226.263398            -0.0,+0.0,-0.0
iter: 452  12:23:10  -8.10  -6.48  -226.263398            -0.0,+0.0,-0.0
iter: 453  12:23:44  -7.86  -6.22  -226.263398            -0.0,+0.0,-0.0
iter: 454  12:24:18  -8.51  -5.78  -226.263398            +0.0,+0.0,-0.0
iter: 455  12:24:52  -8.67  -6.10  -226.263399            +0.0,+0.0,-0.0
iter: 456  12:25:26  -8.51  -6.40  -226.263398            +0.0,+0.0,-0.0
iter: 457  12:26:01  -8.06  -6.30  -226.263399            +0.0,+0.0,-0.0
iter: 458  12:26:35  -8.01  -6.42  -226.263399            +0.0,+0.0,-0.0
iter: 459  12:27:09  -8.03  -6.12  -226.263399            +0.0,+0.0,-0.0
iter: 460  12:27:43  -8.52  -5.80  -226.263399            +0.0,+0.0,-0.0
iter: 461  12:28:17  -8.99  -6.12  -226.263399            +0.0,+0.0,-0.0
iter: 462  12:28:52  -8.64  -6.46  -226.263399            +0.0,+0.0,-0.0
iter: 463  12:29:26  -8.00  -6.37  -226.263400            +0.0,+0.0,-0.0
iter: 464  12:30:00  -7.97  -6.37  -226.263400            +0.0,+0.0,-0.0
iter: 465  12:30:34  -8.21  -6.08  -226.263400            +0.0,+0.0,-0.0
iter: 466  12:31:09  -8.80  -5.81  -226.263400            +0.0,+0.0,-0.0
iter: 467  12:31:43  -9.04  -6.14  -226.263401            +0.0,+0.0,-0.0
iter: 468  12:32:17  -8.70  -6.55  -226.263400            +0.0,+0.0,-0.0
iter: 469  12:32:51  -7.94  -6.43  -226.263401            +0.0,+0.0,-0.0
iter: 470  12:33:25  -7.88  -6.33  -226.263401            +0.0,+0.0,-0.0
iter: 471  12:34:00  -8.28  -6.05  -226.263401            +0.0,+0.0,-0.0
iter: 472  12:34:34  -8.91  -5.83  -226.263402            +0.0,+0.0,-0.0
iter: 473  12:35:08  -9.07  -6.18  -226.263402            +0.0,+0.0,-0.0
iter: 474  12:35:42  -8.76  -6.65  -226.263402            +0.0,+0.0,-0.0
iter: 475  12:36:16  -7.89  -6.49  -226.263402            +0.0,+0.0,-0.0
iter: 476  12:36:50  -7.99  -6.29  -226.263403            +0.0,+0.0,-0.0
iter: 477  12:37:25  -8.50  -6.03  -226.263402            +0.0,+0.0,-0.0
iter: 478  12:37:59  -8.91  -5.84  -226.263403            +0.0,+0.0,-0.0
iter: 479  12:38:33  -9.13  -6.21  -226.263403            +0.0,+0.0,-0.0
iter: 480  12:39:07  -8.84  -6.74  -226.263403            +0.0,+0.0,-0.0
iter: 481  12:39:41  -7.87  -6.54  -226.263404            +0.0,+0.0,-0.0
iter: 482  12:40:15  -8.02  -6.26  -226.263404            +0.0,+0.0,-0.0
iter: 483  12:40:49  -8.64  -6.02  -226.263404            +0.0,+0.0,-0.0
iter: 484  12:41:23  -9.06  -5.86  -226.263404            +0.0,+0.0,-0.0
iter: 485  12:41:58  -9.23  -6.25  -226.263404            -0.0,+0.0,-0.0
iter: 486  12:42:32  -8.92  -6.83  -226.263404            -0.0,+0.0,-0.0
iter: 487  12:43:06  -7.85  -6.59  -226.263405            -0.0,+0.0,-0.0
iter: 488  12:43:40  -8.05  -6.24  -226.263405            -0.0,+0.0,-0.0
iter: 489  12:44:14  -8.76  -6.02  -226.263405            -0.0,+0.0,-0.0
iter: 490  12:44:48  -9.12  -5.87  -226.263405            -0.0,+0.0,-0.0
iter: 491  12:45:22  -9.30  -6.28  -226.263405            -0.0,+0.0,-0.0
iter: 492  12:45:57  -9.01  -6.91  -226.263405            -0.0,+0.0,-0.0
iter: 493  12:46:31  -7.84  -6.64  -226.263406            -0.0,+0.0,-0.0
iter: 494  12:47:05  -8.09  -6.23  -226.263406            -0.0,+0.0,-0.0
iter: 495  12:47:39  -8.87  -6.02  -226.263406            -0.0,+0.0,-0.0
iter: 496  12:48:13  -9.16  -5.89  -226.263406            -0.0,+0.0,-0.0
iter: 497  12:48:47  -9.38  -6.32  -226.263406            -0.0,+0.0,-0.0
iter: 498  12:49:21  -9.11  -7.00  -226.263406            -0.0,+0.0,-0.0
iter: 499  12:49:56  -7.83  -6.69  -226.263407            -0.0,+0.0,-0.0
iter: 500  12:50:30  -8.13  -6.22  -226.263407            -0.0,+0.0,-0.0
iter: 501  12:51:04  -8.98  -6.02  -226.263407            -0.0,+0.0,-0.0
iter: 502  12:51:38  -9.19  -5.90  -226.263407            -0.0,+0.0,-0.0
iter: 503  12:52:12  -9.45  -6.35  -226.263407            -0.0,+0.0,-0.0
iter: 504  12:52:47  -9.23  -7.09  -226.263407            -0.0,+0.0,-0.0
iter: 505  12:53:21  -7.83  -6.75  -226.263408            -0.0,+0.0,-0.0
iter: 506  12:53:55  -8.17  -6.21  -226.263408            -0.0,+0.0,-0.0
iter: 507  12:54:29  -9.08  -6.02  -226.263408            -0.0,+0.0,-0.0
iter: 508  12:55:03  -9.22  -5.92  -226.263408            -0.0,+0.0,-0.0
iter: 509  12:55:37  -9.53  -6.39  -226.263408            -0.0,+0.0,-0.0
iter: 510  12:56:11  -9.37  -7.20  -226.263408            -0.0,+0.0,-0.0
iter: 511  12:56:45  -7.83  -6.82  -226.263409            -0.0,+0.0,-0.0
iter: 512  12:57:20  -8.22  -6.20  -226.263409            -0.0,+0.0,-0.0
iter: 513  12:57:54  -9.19  -6.02  -226.263409            -0.0,+0.0,-0.0
iter: 514  12:58:28  -9.24  -5.94  -226.263409            -0.0,+0.0,-0.0
iter: 515  12:59:02  -9.61  -6.43  -226.263409            -0.0,+0.0,-0.0
iter: 516  12:59:36  -9.54  -7.31  -226.263409            -0.0,+0.0,-0.0
iter: 517  13:00:10  -7.83  -6.91  -226.263410            -0.0,+0.0,-0.0
iter: 518  13:00:44  -8.26  -6.19  -226.263410            -0.0,+0.0,-0.0
iter: 519  13:01:19  -9.29  -6.02  -226.263410            -0.0,+0.0,-0.0
iter: 520  13:01:53  -9.25  -5.95  -226.263410            -0.0,+0.0,-0.0
iter: 521  13:02:27  -9.70  -6.48  -226.263410            -0.0,+0.0,-0.0
iter: 522  13:03:01  -9.76  -7.45  -226.263410            -0.0,+0.0,-0.0
iter: 523  13:03:35  -7.83  -7.01  -226.263411            -0.0,+0.0,-0.0
iter: 524  13:04:09  -8.31  -6.18  -226.263411            -0.0,+0.0,-0.0
iter: 525  13:04:44  -9.40  -6.02  -226.263411            -0.0,+0.0,-0.0
iter: 526  13:05:18  -9.21  -5.97  -226.263411            -0.0,+0.0,-0.0
iter: 527  13:05:52  -9.84  -6.58  -226.263411            -0.0,+0.0,-0.0
iter: 528  13:06:26 -10.04  -7.62  -226.263411            -0.0,+0.0,-0.0
iter: 529  13:07:01  -7.76  -7.13  -226.263412            -0.0,+0.0,-0.0
iter: 530  13:07:35  -8.39  -6.13  -226.263412            -0.0,+0.0,-0.0
iter: 531  13:08:09  -9.67  -6.00  -226.263412            -0.0,+0.0,-0.0
iter: 532  13:08:43  -8.77  -5.98  -226.263412            -0.0,+0.0,-0.0
iter: 533  13:09:17 -10.04  -6.51  -226.263412            -0.0,+0.0,-0.0
iter: 534  13:09:51  -9.79  -7.42  -226.263412            -0.0,+0.0,-0.0
iter: 535  13:10:26  -8.17  -7.05  -226.263413            -0.0,+0.0,-0.0
iter: 536  13:11:00  -8.61  -6.42  -226.263413            -0.0,+0.0,-0.0
iter: 537  13:11:34  -8.68  -6.20  -226.263413            -0.0,+0.0,-0.0
iter: 538  13:12:08  -9.02  -6.07  -226.263413            -0.0,+0.0,-0.0
iter: 539  13:12:42  -9.27  -5.93  -226.263413            -0.0,+0.0,-0.0
iter: 540  13:13:16  -9.23  -6.27  -226.263414            -0.0,+0.0,-0.0
iter: 541  13:13:51  -9.10  -6.80  -226.263414            -0.0,+0.0,-0.0
iter: 542  13:14:25  -8.11  -6.70  -226.263414            -0.0,+0.0,-0.0
iter: 543  13:14:59  -8.21  -6.35  -226.263414            -0.0,+0.0,-0.0
iter: 544  13:15:33  -8.92  -6.10  -226.263414            -0.0,+0.0,-0.0
iter: 545  13:16:07  -9.28  -5.96  -226.263414            -0.0,+0.0,-0.0
iter: 546  13:16:41  -9.47  -6.36  -226.263414            -0.0,+0.0,-0.0
iter: 547  13:17:15  -9.21  -6.97  -226.263414            -0.0,+0.0,-0.0
iter: 548  13:17:49  -8.06  -6.75  -226.263415            -0.0,+0.0,-0.0
iter: 549  13:18:24  -8.29  -6.32  -226.263415            -0.0,+0.0,-0.0
iter: 550  13:18:58  -9.04  -6.11  -226.263415            -0.0,+0.0,-0.0
iter: 551  13:19:32  -9.36  -5.98  -226.263415            -0.0,+0.0,-0.0
iter: 552  13:20:06  -9.54  -6.39  -226.263415            -0.0,+0.0,-0.0
iter: 553  13:20:41  -9.33  -7.05  -226.263415            -0.0,+0.0,-0.0
iter: 554  13:21:15  -8.06  -6.81  -226.263415            -0.0,+0.0,-0.0
iter: 555  13:21:49  -8.32  -6.31  -226.263416            -0.0,+0.0,+0.0
iter: 556  13:22:23  -9.14  -6.11  -226.263415            -0.0,+0.0,+0.0
iter: 557  13:22:57  -9.40  -5.99  -226.263416            -0.0,+0.0,+0.0
iter: 558  13:23:32  -9.61  -6.41  -226.263416            -0.0,+0.0,+0.0
iter: 559  13:24:06  -9.45  -7.13  -226.263416            -0.0,+0.0,+0.0
iter: 560  13:24:40  -8.07  -6.88  -226.263416            -0.0,+0.0,+0.0
iter: 561  13:25:14  -8.35  -6.31  -226.263416            -0.0,+0.0,+0.0
iter: 562  13:25:48  -9.23  -6.11  -226.263416            -0.0,+0.0,+0.0
iter: 563  13:26:22  -9.44  -6.01  -226.263416            -0.0,+0.0,+0.0
iter: 564  13:26:57  -9.67  -6.43  -226.263417            -0.0,+0.0,+0.0
iter: 565  13:27:31  -9.59  -7.20  -226.263417            -0.0,+0.0,+0.0
iter: 566  13:28:05  -8.09  -6.95  -226.263417            -0.0,+0.0,+0.0
iter: 567  13:28:39  -8.38  -6.31  -226.263417            -0.0,+0.0,+0.0
iter: 568  13:29:13  -9.31  -6.11  -226.263417            -0.0,+0.0,+0.0
iter: 569  13:29:47  -9.48  -6.02  -226.263417            -0.0,+0.0,+0.0
iter: 570  13:30:21  -9.71  -6.44  -226.263417            -0.0,+0.0,+0.0
iter: 571  13:30:56  -9.75  -7.27  -226.263417            -0.0,+0.0,+0.0
iter: 572  13:31:30  -8.12  -7.04  -226.263418            -0.0,+0.0,+0.0
iter: 573  13:32:04  -8.41  -6.32  -226.263418            -0.0,+0.0,+0.0
iter: 574  13:32:38  -9.36  -6.12  -226.263418            -0.0,+0.0,+0.0
iter: 575  13:33:12  -9.54  -6.04  -226.263418            -0.0,+0.0,+0.0
iter: 576  13:33:46  -9.73  -6.43  -226.263418            -0.0,+0.0,+0.0
iter: 577  13:34:21  -9.95  -7.33  -226.263418            -0.0,+0.0,+0.0
iter: 578  13:34:55  -8.20  -7.14  -226.263418            -0.0,+0.0,+0.0
iter: 579  13:35:29  -8.42  -6.35  -226.263418            -0.0,+0.0,+0.0
iter: 580  13:36:03  -9.37  -6.13  -226.263418            -0.0,+0.0,+0.0
iter: 581  13:36:37  -9.66  -6.06  -226.263418            -0.0,+0.0,+0.0
iter: 582  13:37:11  -9.70  -6.38  -226.263419            -0.0,+0.0,+0.0
iter: 583  13:37:45 -10.25  -7.37  -226.263419            -0.0,+0.0,+0.0
iter: 584  13:38:20  -8.38  -7.30  -226.263419            -0.0,+0.0,+0.0
iter: 585  13:38:54  -8.40  -6.43  -226.263419            -0.0,+0.0,+0.0
iter: 586  13:39:28  -9.27  -6.16  -226.263419            -0.0,+0.0,+0.0
iter: 587  13:40:02  -9.91  -6.09  -226.263419            -0.0,+0.0,+0.0
iter: 588  13:40:36  -9.56  -6.26  -226.263419            -0.0,+0.0,+0.0
iter: 589  13:41:10 -10.85  -7.58  -226.263419            -0.0,+0.0,+0.0
iter: 590  13:41:45  -9.12  -7.77  -226.263420            -0.0,+0.0,+0.0
iter: 591  13:42:19  -8.76  -6.81  -226.263420            -0.0,+0.0,+0.0
iter: 592  13:42:53  -8.66  -6.41  -226.263420            -0.0,+0.0,+0.0
iter: 593  13:43:27  -9.31  -6.17  -226.263420            -0.0,+0.0,+0.0
iter: 594  13:44:01  -9.46  -6.11  -226.263420            -0.0,+0.0,+0.0
iter: 595  13:44:36  -9.28  -5.98  -226.263420            -0.0,+0.0,+0.0
iter: 596  13:45:10  -9.64  -6.51  -226.263420            -0.0,+0.0,+0.0
iter: 597  13:45:44  -8.97  -7.00  -226.263420            -0.0,+0.0,+0.0
iter: 598  13:46:18  -7.96  -6.63  -226.263420            -0.0,+0.0,+0.0
iter: 599  13:46:52  -8.52  -6.29  -226.263420            -0.0,+0.0,+0.0
iter: 600  13:47:26  -9.33  -6.16  -226.263420            -0.0,+0.0,+0.0
iter: 601  13:48:00  -9.24  -6.00  -226.263421            -0.0,+0.0,+0.0
iter: 602  13:48:35  -9.86  -6.70  -226.263421            -0.0,+0.0,+0.0
iter: 603  13:49:09  -9.02  -7.23  -226.263421            -0.0,+0.0,+0.0
iter: 604  13:49:43  -7.87  -6.68  -226.263421            -0.0,+0.0,+0.0
iter: 605  13:50:17  -8.66  -6.24  -226.263421            -0.0,+0.0,+0.0
iter: 606  13:50:51  -9.57  -6.15  -226.263421            -0.0,+0.0,+0.0
iter: 607  13:51:26  -9.19  -6.01  -226.263421            -0.0,+0.0,+0.0
iter: 608  13:52:00 -10.17  -6.97  -226.263421            -0.0,+0.0,+0.0
iter: 609  13:52:34  -9.25  -7.50  -226.263421            -0.0,+0.0,+0.0
iter: 610  13:53:08  -7.72  -6.80  -226.263422            -0.0,+0.0,+0.0
iter: 611  13:53:42  -8.82  -6.13  -226.263422            -0.0,+0.0,+0.0
iter: 612  13:54:17  -9.39  -6.10  -226.263421            -0.0,+0.0,+0.0
iter: 613  13:54:51  -8.93  -5.95  -226.263422            -0.0,+0.0,+0.0
iter: 614  13:55:25 -10.26  -7.44  -226.263422            -0.0,+0.0,+0.0
iter: 615  13:55:59  -8.72  -7.65  -226.263422            -0.0,+0.0,+0.0
iter: 616  13:56:34  -8.11  -6.73  -226.263422            -0.0,+0.0,+0.0
iter: 617  13:57:08  -8.82  -6.47  -226.263422            -0.0,+0.0,+0.0
iter: 618  13:57:42  -9.05  -6.30  -226.263422            -0.0,+0.0,+0.0
iter: 619  13:58:16  -9.26  -6.20  -226.263422            -0.0,+0.0,+0.0
iter: 620  13:58:50  -9.44  -6.04  -226.263422            -0.0,+0.0,+0.0
iter: 621  13:59:24  -9.63  -6.43  -226.263423            -0.0,+0.0,+0.0
iter: 622  13:59:58  -9.22  -6.92  -226.263422            -0.0,+0.0,+0.0
iter: 623  14:00:33  -8.25  -6.79  -226.263423            -0.0,+0.0,+0.0
iter: 624  14:01:07  -8.51  -6.41  -226.263423            -0.0,+0.0,+0.0
iter: 625  14:01:41  -9.21  -6.21  -226.263423            -0.0,+0.0,+0.0
iter: 626  14:02:15  -9.43  -6.06  -226.263423            -0.0,+0.0,+0.0
iter: 627  14:02:49  -9.76  -6.54  -226.263423            -0.0,+0.0,+0.0
iter: 628  14:03:23  -9.31  -7.08  -226.263423            -0.0,+0.0,+0.0
iter: 629  14:03:57  -8.17  -6.83  -226.263423            -0.0,+0.0,+0.0
iter: 630  14:04:32  -8.55  -6.38  -226.263423            -0.0,+0.0,+0.0
iter: 631  14:05:06  -9.09  -6.21  -226.263423            -0.0,-0.0,+0.0
iter: 632  14:05:40  -9.42  -6.08  -226.263424            -0.0,+0.0,+0.0
iter: 633  14:06:14  -9.63  -6.59  -226.263424            -0.0,-0.0,+0.0
iter: 634  14:06:48  -9.34  -7.18  -226.263423            -0.0,+0.0,+0.0
iter: 635  14:07:22  -8.14  -6.89  -226.263424            -0.0,-0.0,+0.0
iter: 636  14:07:56  -8.59  -6.35  -226.263424            -0.0,-0.0,+0.0
iter: 637  14:08:31  -9.25  -6.20  -226.263424            -0.0,-0.0,+0.0
iter: 638  14:09:05  -9.37  -6.09  -226.263424            -0.0,-0.0,+0.0
iter: 639  14:09:39  -9.38  -6.68  -226.263424            -0.0,-0.0,+0.0
iter: 640  14:10:13  -9.31  -7.31  -226.263424            -0.0,-0.0,+0.0
iter: 641  14:10:47  -8.09  -6.95  -226.263424            -0.0,-0.0,+0.0
iter: 642  14:11:22  -8.71  -6.31  -226.263424            -0.0,-0.0,+0.0
iter: 643  14:11:56  -9.21  -6.20  -226.263424            -0.0,-0.0,+0.0
iter: 644  14:12:30  -9.26  -6.11  -226.263424            -0.0,-0.0,+0.0
iter: 645  14:13:04  -9.55  -6.86  -226.263424            -0.0,-0.0,+0.0
iter: 646  14:13:38  -9.51  -7.52  -226.263424            -0.0,-0.0,+0.0
iter: 647  14:14:12  -7.96  -7.04  -226.263425            -0.0,-0.0,+0.0
iter: 648  14:14:46  -8.89  -6.23  -226.263425            -0.0,-0.0,+0.0
iter: 649  14:15:20 -10.02  -6.17  -226.263425            -0.0,-0.0,+0.0
iter: 650  14:15:55  -9.18  -6.10  -226.263425            -0.0,-0.0,+0.0
iter: 651  14:16:29 -10.67  -7.34  -226.263425            -0.0,-0.0,+0.0
iter: 652  14:17:03  -8.99  -7.87  -226.263425            -0.0,-0.0,+0.0
iter: 653  14:17:37  -8.17  -6.73  -226.263425            -0.0,-0.0,+0.0
iter: 654  14:18:11  -8.91  -6.50  -226.263425            -0.0,-0.0,+0.0
iter: 655  14:18:45  -9.15  -6.34  -226.263425            -0.0,-0.0,+0.0
iter: 656  14:19:19  -9.39  -6.25  -226.263425            -0.0,-0.0,-0.0
iter: 657  14:19:53  -9.59  -6.09  -226.263425            -0.0,-0.0,-0.0
iter: 658  14:20:27  -9.76  -6.48  -226.263425            -0.0,-0.0,-0.0
iter: 659  14:21:01  -9.41  -6.97  -226.263425            -0.0,-0.0,+0.0
iter: 660  14:21:36  -8.37  -6.90  -226.263425            -0.0,-0.0,-0.0
iter: 661  14:22:10  -8.63  -6.45  -226.263426            -0.0,-0.0,-0.0
iter: 662  14:22:44  -9.41  -6.26  -226.263425            -0.0,-0.0,-0.0
iter: 663  14:23:18  -9.60  -6.12  -226.263426            -0.0,-0.0,-0.0
iter: 664  14:23:52  -9.92  -6.59  -226.263426            -0.0,-0.0,-0.0
iter: 665  14:24:26  -9.50  -7.14  -226.263426            -0.0,-0.0,-0.0
iter: 666  14:25:00  -8.31  -6.94  -226.263426            -0.0,-0.0,-0.0
iter: 667  14:25:34  -8.73  -6.42  -226.263426            -0.0,-0.0,-0.0
iter: 668  14:26:08  -9.57  -6.26  -226.263426            -0.0,-0.0,-0.0
iter: 669  14:26:42  -9.64  -6.14  -226.263426            -0.0,-0.0,-0.0
iter: 670  14:27:16 -10.02  -6.65  -226.263426            -0.0,-0.0,-0.0
iter: 671  14:27:50  -9.60  -7.23  -226.263426            -0.0,-0.0,-0.0
iter: 672  14:28:24  -8.28  -7.00  -226.263426            -0.0,-0.0,-0.0
iter: 673  14:28:58  -8.79  -6.40  -226.263426            -0.0,-0.0,-0.0
iter: 674  14:29:33  -9.71  -6.25  -226.263426            -0.0,-0.0,-0.0
iter: 675  14:30:07  -9.62  -6.15  -226.263426            -0.0,-0.0,-0.0
iter: 676  14:30:41 -10.16  -6.74  -226.263426            -0.0,-0.0,-0.0
iter: 677  14:31:15  -9.69  -7.35  -226.263426            -0.0,-0.0,-0.0
iter: 678  14:31:49  -8.21  -7.07  -226.263427            -0.0,-0.0,-0.0
iter: 679  14:32:23  -8.88  -6.36  -226.263427            -0.0,-0.0,-0.0
iter: 680  14:32:57  -9.92  -6.24  -226.263427            -0.0,-0.0,-0.0
iter: 681  14:33:31  -9.53  -6.17  -226.263427            -0.0,-0.0,-0.0
iter: 682  14:34:05 -10.44  -6.98  -226.263427            -0.0,-0.0,-0.0
iter: 683  14:34:40  -9.88  -7.56  -226.263427            -0.0,-0.0,-0.0
iter: 684  14:35:14  -8.03  -7.18  -226.263427            -0.0,-0.0,-0.0
iter: 685  14:35:48  -9.06  -6.25  -226.263427            -0.0,-0.0,-0.0
iter: 686  14:36:22 -10.21  -6.20  -226.263427            -0.0,-0.0,-0.0
iter: 687  14:36:56  -9.22  -6.14  -226.263427            -0.0,-0.0,-0.0
iter: 688  14:37:30 -10.70  -7.10  -226.263427            -0.0,-0.0,-0.0
iter: 689  14:38:04  -9.27  -7.89  -226.263427            -0.0,-0.0,-0.0
iter: 690  14:38:39  -8.16  -6.88  -226.263427            -0.0,-0.0,-0.0
iter: 691  14:39:13  -9.09  -6.43  -226.263427            -0.0,-0.0,-0.0
iter: 692  14:39:47  -9.70  -6.32  -226.263427            -0.0,-0.0,-0.0
iter: 693  14:40:21  -8.30  -6.33  -226.263425            -0.0,-0.0,-0.0
iter: 694  14:40:55  -8.48  -5.69  -226.263427            -0.0,-0.0,-0.0
iter: 695  14:41:29  -9.97  -7.32  -226.263427            -0.0,-0.0,-0.0
iter: 696  14:42:03  -8.51  -7.65  -226.263427            -0.0,-0.0,-0.0
iter: 697  14:42:37  -7.61  -6.49  -226.263428            -0.0,-0.0,-0.0
iter: 698  14:43:12  -9.39  -6.17  -226.263428            -0.0,-0.0,-0.0
iter: 699  14:43:46 -10.24  -6.21  -226.263428            -0.0,-0.0,-0.0
iter: 700  14:44:20  -9.77  -6.19  -226.263428            -0.0,-0.0,-0.0
iter: 701  14:44:54 -10.20  -6.60  -226.263428            -0.0,-0.0,-0.0
iter: 702  14:45:28 -11.00  -7.36  -226.263428            -0.0,-0.0,-0.0
iter: 703  14:46:02  -9.01  -7.86  -226.263428            -0.0,-0.0,-0.0
iter: 704  14:46:37  -8.71  -6.69  -226.263428            -0.0,-0.0,-0.0
iter: 705  14:47:11  -9.59  -6.34  -226.263428            -0.0,-0.0,-0.0
iter: 706  14:47:45 -10.22  -6.28  -226.263428            -0.0,-0.0,-0.0
iter: 707  14:48:19  -9.57  -6.34  -226.263428            -0.0,-0.0,-0.0
iter: 708  14:48:53 -10.47  -6.92  -226.263428            -0.0,-0.0,-0.0
iter: 709  14:49:28  -9.61  -7.46  -226.263428            -0.0,-0.0,-0.0
iter: 710  14:50:02  -7.91  -6.95  -226.263428            -0.0,-0.0,-0.0
iter: 711  14:50:36  -8.86  -6.08  -226.263428            -0.0,-0.0,-0.0
iter: 712  14:51:10 -10.02  -6.23  -226.263428            -0.0,-0.0,-0.0
iter: 713  14:51:44  -9.82  -6.29  -226.263428            -0.0,-0.0,-0.0
iter: 714  14:52:18 -10.52  -6.88  -226.263428            -0.0,-0.0,-0.0
iter: 715  14:52:52 -10.00  -7.94  -226.263428            -0.0,-0.0,-0.0
iter: 716  14:53:26  -8.53  -7.15  -226.263429            -0.0,-0.0,-0.0
iter: 717  14:54:00  -9.20  -6.40  -226.263429            -0.0,-0.0,-0.0
iter: 718  14:54:34 -10.29  -6.28  -226.263429            -0.0,-0.0,-0.0
iter: 719  14:55:08  -9.73  -6.33  -226.263429            -0.0,-0.0,-0.0
iter: 720  14:55:43 -10.88  -7.56  -226.263429            -0.0,-0.0,-0.0
iter: 721  14:56:17 -10.27  -7.78  -226.263429            -0.0,-0.0,-0.0
iter: 722  14:56:51  -9.85  -7.29  -226.263429            -0.0,-0.0,-0.0
iter: 723  14:57:25  -8.64  -6.92  -226.263429            -0.0,-0.0,-0.0
iter: 724  14:57:59  -9.48  -6.37  -226.263429            -0.0,-0.0,-0.0
iter: 725  14:58:33 -10.10  -6.31  -226.263429            -0.0,-0.0,-0.0
iter: 726  14:59:08 -10.48  -6.27  -226.263429            -0.0,-0.0,-0.0
iter: 727  14:59:42  -9.91  -6.42  -226.263429            -0.0,-0.0,-0.0
iter: 728  15:00:16 -11.18  -7.54  -226.263429            -0.0,-0.0,-0.0
iter: 729  15:00:50 -11.25  -7.74  -226.263429            -0.0,-0.0,-0.0
iter: 730  15:01:24 -10.38  -7.94  -226.263429            -0.0,-0.0,-0.0
iter: 731  15:01:58 -10.23  -7.40  -226.263429            -0.0,-0.0,-0.0
iter: 732  15:02:32  -9.55  -7.08  -226.263429            -0.0,-0.0,-0.0
iter: 733  15:03:06 -10.17  -7.65  -226.263429            -0.0,-0.0,-0.0
iter: 734  15:03:40 -10.72  -7.50  -226.263429            -0.0,-0.0,-0.0
iter: 735  15:04:14  -9.03  -7.64  -226.263428            -0.0,-0.0,-0.0
iter: 736  15:04:48 -10.26  -6.75  -226.263429            -0.0,-0.0,-0.0
iter: 737  15:05:22  -9.51  -6.80  -226.263428            -0.0,-0.0,-0.0
iter: 738  15:05:56  -9.56  -7.10  -226.263428            -0.0,+0.0,-0.0
iter: 739  15:06:31  -9.07  -6.83  -226.263427            -0.0,+0.0,+0.0
iter: 740  15:07:05 -10.06  -7.08  -226.263427            -0.0,+0.0,-0.0
iter: 741  15:07:39  -9.77  -7.38  -226.263428            -0.0,+0.0,-0.0
iter: 742  15:08:13  -9.67  -7.39  -226.263427            -0.0,+0.0,-0.0
iter: 743  15:08:47  -9.27  -6.78  -226.263429            -0.0,+0.0,-0.0
iter: 744  15:09:21  -8.79  -6.60  -226.263433            -0.0,+0.0,-0.0
iter: 745  15:09:55  -9.19  -6.18  -226.263431            -0.0,+0.0,-0.0
iter: 746  15:10:29  -9.94  -6.57  -226.263427            -0.0,+0.0,-0.0
iter: 747  15:11:03  -9.33  -6.77  -226.263432            -0.0,+0.0,-0.0
iter: 748  15:11:38  -8.92  -6.64  -226.263431            -0.0,+0.0,-0.0
iter: 749  15:12:12  -9.00  -6.84  -226.263430            -0.0,+0.0,-0.0
iter: 750  15:12:46  -8.89  -6.59  -226.263431            -0.0,+0.0,-0.0
iter: 751  15:13:20  -9.42  -6.21  -226.263429            -0.0,+0.0,-0.0
iter: 752  15:13:54  -9.91  -6.57  -226.263429            -0.0,+0.0,-0.0
iter: 753  15:14:28  -9.41  -6.84  -226.263430            +0.0,+0.0,-0.0
iter: 754  15:15:02  -8.88  -6.74  -226.263430            -0.0,+0.0,-0.0
iter: 755  15:15:36  -8.95  -6.78  -226.263430            -0.0,+0.0,-0.0
iter: 756  15:16:10  -9.03  -6.54  -226.263430            -0.0,+0.0,-0.0
iter: 757  15:16:44  -9.57  -6.22  -226.263430            +0.0,+0.0,-0.0
iter: 758  15:17:19  -9.92  -6.58  -226.263430            +0.0,+0.0,-0.0
iter: 759  15:17:53  -9.45  -6.91  -226.263430            +0.0,+0.0,-0.0
iter: 760  15:18:27  -8.79  -6.80  -226.263430            +0.0,+0.0,-0.0
iter: 761  15:19:01  -8.86  -6.74  -226.263430            +0.0,+0.0,-0.0
iter: 762  15:19:35  -9.12  -6.50  -226.263430            +0.0,+0.0,-0.0
iter: 763  15:20:09  -9.67  -6.24  -226.263430            +0.0,+0.0,-0.0
iter: 764  15:20:43  -9.94  -6.61  -226.263430            +0.0,+0.0,-0.0
iter: 765  15:21:17  -9.51  -6.99  -226.263430            +0.0,+0.0,-0.0
iter: 766  15:21:51  -8.77  -6.86  -226.263430            +0.0,+0.0,-0.0
iter: 767  15:22:25  -8.93  -6.71  -226.263430            +0.0,+0.0,-0.0
iter: 768  15:22:59  -9.34  -6.47  -226.263430            +0.0,+0.0,-0.0
iter: 769  15:23:33  -9.79  -6.25  -226.263430            +0.0,+0.0,-0.0
iter: 770  15:24:08 -10.01  -6.64  -226.263430            +0.0,+0.0,-0.0
iter: 771  15:24:42  -9.61  -7.07  -226.263430            +0.0,+0.0,-0.0
iter: 772  15:25:16  -8.75  -6.91  -226.263430            +0.0,+0.0,-0.0
iter: 773  15:25:50  -8.95  -6.68  -226.263430            +0.0,+0.0,-0.0
iter: 774  15:26:24  -9.48  -6.46  -226.263430            +0.0,+0.0,-0.0
iter: 775  15:26:58  -9.85  -6.26  -226.263430            +0.0,+0.0,-0.0
iter: 776  15:27:32 -10.07  -6.67  -226.263430            +0.0,+0.0,-0.0
iter: 777  15:28:06  -9.67  -7.15  -226.263430            +0.0,+0.0,-0.0
iter: 778  15:28:40  -8.72  -6.96  -226.263430            +0.0,+0.0,-0.0
iter: 779  15:29:14  -8.97  -6.65  -226.263431            +0.0,+0.0,-0.0
iter: 780  15:29:48  -9.61  -6.45  -226.263430            +0.0,+0.0,-0.0
iter: 781  15:30:22  -9.91  -6.28  -226.263431            +0.0,+0.0,-0.0
iter: 782  15:30:56 -10.15  -6.71  -226.263431            +0.0,+0.0,-0.0
iter: 783  15:31:30  -9.74  -7.23  -226.263431            +0.0,+0.0,-0.0
iter: 784  15:32:04  -8.69  -7.02  -226.263431            +0.0,+0.0,-0.0
iter: 785  15:32:38  -9.01  -6.63  -226.263431            +0.0,+0.0,-0.0
iter: 786  15:33:12  -9.73  -6.44  -226.263431            +0.0,+0.0,-0.0
iter: 787  15:33:46  -9.94  -6.29  -226.263431            +0.0,+0.0,-0.0
iter: 788  15:34:20 -10.23  -6.75  -226.263431            +0.0,+0.0,-0.0
iter: 789  15:34:55  -9.81  -7.31  -226.263431            +0.0,+0.0,-0.0
iter: 790  15:35:28  -8.66  -7.07  -226.263431            +0.0,+0.0,-0.0
iter: 791  15:36:02  -9.05  -6.60  -226.263431            +0.0,+0.0,-0.0
iter: 792  15:36:36  -9.86  -6.43  -226.263431            +0.0,+0.0,-0.0
iter: 793  15:37:11  -9.96  -6.30  -226.263431            +0.0,+0.0,-0.0
iter: 794  15:37:45 -10.32  -6.81  -226.263431            +0.0,+0.0,-0.0
iter: 795  15:38:19  -9.90  -7.40  -226.263431            +0.0,+0.0,-0.0
iter: 796  15:38:53  -8.63  -7.13  -226.263431            +0.0,+0.0,-0.0
iter: 797  15:39:27  -9.11  -6.58  -226.263431            +0.0,+0.0,-0.0
iter: 798  15:40:01 -10.01  -6.43  -226.263431            +0.0,+0.0,-0.0
iter: 799  15:40:35  -9.96  -6.32  -226.263431            +0.0,+0.0,-0.0
iter: 800  15:41:09 -10.45  -6.89  -226.263431            +0.0,+0.0,-0.0
iter: 801  15:41:43  -9.99  -7.52  -226.263431            +0.0,+0.0,-0.0
iter: 802  15:42:17  -8.57  -7.19  -226.263431            +0.0,+0.0,-0.0
iter: 803  15:42:51  -9.19  -6.54  -226.263431            +0.0,+0.0,-0.0
iter: 804  15:43:26 -10.20  -6.42  -226.263431            +0.0,+0.0,-0.0
iter: 805  15:44:00  -9.89  -6.33  -226.263431            +0.0,+0.0,-0.0
iter: 806  15:44:34 -10.67  -7.06  -226.263431            +0.0,+0.0,-0.0
iter: 807  15:45:08 -10.13  -7.71  -226.263431            +0.0,+0.0,-0.0
iter: 808  15:45:42  -8.43  -7.27  -226.263431            +0.0,+0.0,-0.0
iter: 809  15:46:16  -9.35  -6.46  -226.263431            +0.0,+0.0,-0.0
iter: 810  15:46:50 -10.45  -6.39  -226.263431            +0.0,+0.0,-0.0
iter: 811  15:47:24  -9.63  -6.32  -226.263431            +0.0,+0.0,-0.0
iter: 812  15:47:58 -11.24  -7.54  -226.263431            +0.0,+0.0,-0.0
iter: 813  15:48:32  -9.46  -8.17  -226.263431            +0.0,+0.0,-0.0
iter: 814  15:49:06  -8.63  -6.96  -226.263431            +0.0,+0.0,-0.0
iter: 815  15:49:41  -9.36  -6.73  -226.263431            +0.0,+0.0,-0.0
iter: 816  15:50:15  -9.66  -6.56  -226.263431            +0.0,+0.0,-0.0
iter: 817  15:50:49  -9.78  -6.47  -226.263431            +0.0,+0.0,-0.0
iter: 818  15:51:23  -9.99  -6.31  -226.263431            -0.0,+0.0,-0.0
iter: 819  15:51:57 -10.17  -6.68  -226.263431            -0.0,+0.0,-0.0
iter: 820  15:52:31  -9.83  -7.14  -226.263431            -0.0,+0.0,-0.0
iter: 821  15:53:05  -8.84  -7.10  -226.263431            -0.0,+0.0,-0.0
iter: 822  15:53:39  -9.06  -6.68  -226.263431            -0.0,+0.0,-0.0
iter: 823  15:54:13  -9.79  -6.48  -226.263431            -0.0,+0.0,-0.0
iter: 824  15:54:47 -10.04  -6.33  -226.263432            -0.0,+0.0,-0.0
iter: 825  15:55:21 -10.32  -6.79  -226.263432            -0.0,+0.0,-0.0
iter: 826  15:55:55  -9.90  -7.31  -226.263432            -0.0,+0.0,-0.0
iter: 827  15:56:29  -8.78  -7.13  -226.263432            -0.0,+0.0,-0.0
iter: 828  15:57:03  -9.16  -6.65  -226.263432            -0.0,+0.0,-0.0
iter: 829  15:57:37  -9.94  -6.48  -226.263432            -0.0,+0.0,-0.0
iter: 830  15:58:11 -10.07  -6.35  -226.263432            -0.0,+0.0,-0.0
iter: 831  15:58:45 -10.41  -6.84  -226.263432            -0.0,+0.0,-0.0
iter: 832  15:59:19  -9.99  -7.39  -226.263432            -0.0,+0.0,-0.0
iter: 833  15:59:53  -8.75  -7.19  -226.263432            -0.0,+0.0,-0.0
iter: 834  16:00:27  -9.20  -6.63  -226.263432            -0.0,+0.0,-0.0
iter: 835  16:01:01 -10.08  -6.48  -226.263432            -0.0,+0.0,-0.0
iter: 836  16:01:35 -10.07  -6.37  -226.263432            -0.0,+0.0,-0.0
iter: 837  16:02:09 -10.52  -6.90  -226.263432            -0.0,+0.0,-0.0
iter: 838  16:02:44 -10.09  -7.49  -226.263432            -0.0,+0.0,-0.0
iter: 839  16:03:18  -8.71  -7.26  -226.263432            -0.0,+0.0,-0.0
iter: 840  16:03:52  -9.28  -6.60  -226.263432            -0.0,+0.0,-0.0
iter: 841  16:04:26 -10.25  -6.47  -226.263432            -0.0,+0.0,-0.0
iter: 842  16:05:00 -10.03  -6.38  -226.263432            -0.0,+0.0,-0.0
iter: 843  16:05:34 -10.70  -7.03  -226.263432            -0.0,+0.0,-0.0
iter: 844  16:06:08 -10.21  -7.63  -226.263432            -0.0,+0.0,-0.0
iter: 845  16:06:42  -8.60  -7.34  -226.263432            -0.0,+0.0,-0.0
iter: 846  16:07:16  -9.41  -6.54  -226.263432            -0.0,+0.0,-0.0
iter: 847  16:07:50 -10.46  -6.45  -226.263432            -0.0,+0.0,-0.0
iter: 848  16:08:24  -9.84  -6.38  -226.263432            -0.0,+0.0,-0.0
iter: 849  16:08:58 -11.17  -7.75  -226.263432            -0.0,+0.0,-0.0
iter: 850  16:09:32 -11.32  -8.00  -226.263432            -0.0,+0.0,-0.0
iter: 851  16:10:06 -10.75  -7.79  -226.263432            -0.0,+0.0,-0.0
iter: 852  16:10:41  -9.02  -7.40  -226.263432            -0.0,+0.0,-0.0
iter: 853  16:11:15  -9.48  -6.63  -226.263432            -0.0,+0.0,-0.0
iter: 854  16:11:49 -10.15  -6.48  -226.263432            -0.0,+0.0,-0.0
iter: 855  16:12:23 -11.23  -6.44  -226.263432            -0.0,+0.0,-0.0
iter: 856  16:12:57  -9.95  -6.45  -226.263432            +0.0,+0.0,-0.0
iter: 857  16:13:31 -11.40  -7.55  -226.263432            -0.0,+0.0,-0.0
iter: 858  16:14:06 -11.48  -7.80  -226.263432            -0.0,+0.0,-0.0
iter: 859  16:14:40 -10.97  -7.67  -226.263432            -0.0,+0.0,-0.0
iter: 860  16:15:14  -9.15  -7.42  -226.263432            -0.0,+0.0,-0.0
iter: 861  16:15:48  -9.62  -6.69  -226.263432            -0.0,+0.0,-0.0
iter: 862  16:16:22  -9.82  -6.56  -226.263432            -0.0,+0.0,-0.0
iter: 863  16:16:56 -10.90  -6.43  -226.263433            -0.0,+0.0,-0.0
iter: 864  16:17:30 -10.22  -6.54  -226.263433            -0.0,+0.0,-0.0
iter: 865  16:18:04 -11.19  -7.32  -226.263432            -0.0,+0.0,-0.0
iter: 866  16:18:38  -9.95  -8.09  -226.263432            -0.0,+0.0,-0.0
iter: 867  16:19:12  -9.00  -7.12  -226.263432            -0.0,+0.0,-0.0
iter: 868  16:19:47  -9.80  -6.58  -226.263432            -0.0,+0.0,-0.0
iter: 869  16:20:21 -10.53  -6.49  -226.263432            -0.0,+0.0,-0.0
iter: 870  16:20:55  -9.83  -6.53  -226.263432            -0.0,+0.0,-0.0
iter: 871  16:21:29 -10.68  -6.89  -226.263432            -0.0,+0.0,-0.0
iter: 872  16:22:03 -10.50  -7.65  -226.263432            -0.0,+0.0,-0.0
iter: 873  16:22:37  -8.34  -7.34  -226.263432            -0.0,+0.0,-0.0
iter: 874  16:23:11  -9.42  -6.31  -226.263432            -0.0,+0.0,-0.0
iter: 875  16:23:46 -10.50  -6.44  -226.263432            -0.0,+0.0,-0.0
iter: 876  16:24:20 -10.28  -6.50  -226.263432            -0.0,+0.0,-0.0
iter: 877  16:24:54 -10.89  -7.03  -226.263432            -0.0,+0.0,-0.0
iter: 878  16:25:28 -10.38  -8.13  -226.263432            -0.0,+0.0,-0.0
iter: 879  16:26:02  -9.00  -7.31  -226.263432            +0.0,+0.0,-0.0
iter: 880  16:26:36  -9.61  -6.62  -226.263432            -0.0,+0.0,-0.0
iter: 881  16:27:10 -10.51  -6.49  -226.263432            +0.0,+0.0,-0.0
iter: 882  16:27:44 -10.19  -6.55  -226.263432            +0.0,+0.0,-0.0
iter: 883  16:28:18 -11.36  -7.42  -226.263432            +0.0,+0.0,-0.0
iter: 884  16:28:52 -10.43  -8.01  -226.263433            +0.0,+0.0,-0.0
iter: 885  16:29:26  -9.43  -7.33  -226.263433            +0.0,+0.0,-0.0
iter: 886  16:30:01  -9.63  -6.79  -226.263433            +0.0,+0.0,-0.0
iter: 887  16:30:35 -10.12  -6.60  -226.263433            +0.0,+0.0,-0.0
iter: 888  16:31:09  -9.97  -6.54  -226.263433            +0.0,+0.0,-0.0
iter: 889  16:31:43  -9.98  -6.36  -226.263433            +0.0,+0.0,-0.0
iter: 890  16:32:17 -10.34  -6.84  -226.263433            +0.0,+0.0,-0.0
iter: 891  16:32:51  -9.61  -7.16  -226.263433            +0.0,+0.0,-0.0
iter: 892  16:33:25  -8.84  -6.97  -226.263433            +0.0,+0.0,-0.0
iter: 893  16:33:59  -9.33  -6.72  -226.263433            +0.0,+0.0,-0.0
iter: 894  16:34:33  -9.92  -6.58  -226.263433            +0.0,+0.0,-0.0
iter: 895  16:35:07 -10.01  -6.37  -226.263433            +0.0,+0.0,-0.0
iter: 896  16:35:41 -10.50  -6.96  -226.263433            +0.0,+0.0,-0.0
iter: 897  16:36:15  -9.66  -7.31  -226.263433            +0.0,+0.0,-0.0
iter: 898  16:36:49  -8.77  -7.03  -226.263433            +0.0,+0.0,-0.0
iter: 899  16:37:23  -9.42  -6.68  -226.263433            +0.0,+0.0,-0.0
iter: 900  16:37:57 -10.14  -6.57  -226.263433            +0.0,+0.0,-0.0
iter: 901  16:38:31 -10.05  -6.39  -226.263433            +0.0,+0.0,-0.0
iter: 902  16:39:05 -10.68  -7.05  -226.263433            +0.0,+0.0,-0.0
iter: 903  16:39:39  -9.77  -7.42  -226.263433            +0.0,+0.0,-0.0
iter: 904  16:40:13  -8.71  -7.12  -226.263433            +0.0,+0.0,-0.0
iter: 905  16:40:47  -9.51  -6.63  -226.263433            +0.0,+0.0,-0.0
iter: 906  16:41:21 -10.38  -6.55  -226.263433            +0.0,+0.0,-0.0
iter: 907  16:41:55 -10.01  -6.40  -226.263433            +0.0,+0.0,-0.0
iter: 908  16:42:29 -10.98  -7.26  -226.263433            +0.0,+0.0,-0.0
iter: 909  16:43:03  -9.99  -7.58  -226.263433            +0.0,+0.0,-0.0
iter: 910  16:43:37  -8.57  -7.27  -226.263433            +0.0,+0.0,-0.0
iter: 911  16:44:11  -9.72  -6.54  -226.263433            +0.0,+0.0,-0.0
iter: 912  16:44:45 -10.39  -6.51  -226.263433            +0.0,+0.0,-0.0
iter: 913  16:45:20  -9.73  -6.33  -226.263433            +0.0,+0.0,-0.0
iter: 914  16:45:54 -11.26  -7.83  -226.263433            +0.0,+0.0,-0.0
iter: 915  16:46:28 -10.04  -7.84  -226.263433            +0.0,+0.0,-0.0
iter: 916  16:47:02  -9.82  -7.14  -226.263433            +0.0,+0.0,-0.0
iter: 917  16:47:36  -9.43  -6.85  -226.263433            +0.0,+0.0,-0.0
iter: 918  16:48:10 -10.44  -6.57  -226.263433            +0.0,+0.0,-0.0
iter: 919  16:48:44  -7.79  -6.57  -226.263422            +0.0,+0.0,-0.0
iter: 920  16:49:18  -7.75  -5.33  -226.263433            +0.0,+0.0,-0.0
iter: 921  16:49:52  -9.25  -6.87  -226.263433            +0.0,+0.0,-0.0
iter: 922  16:50:26 -10.21  -7.35  -226.263433            +0.0,+0.0,-0.0
iter: 923  16:51:00  -9.92  -7.40  -226.263433            +0.0,+0.0,-0.0
iter: 924  16:51:34  -9.56  -7.03  -226.263433            +0.0,+0.0,-0.0
iter: 925  16:52:08  -9.81  -6.71  -226.263433            +0.0,+0.0,-0.0
iter: 926  16:52:42 -10.32  -6.59  -226.263433            +0.0,+0.0,-0.0
iter: 927  16:53:16 -10.85  -6.51  -226.263433            +0.0,+0.0,-0.0
iter: 928  16:53:50 -10.48  -6.67  -226.263433            +0.0,+0.0,-0.0
iter: 929  16:54:24 -10.84  -7.13  -226.263433            +0.0,+0.0,-0.0
iter: 930  16:54:58  -9.68  -7.66  -226.263433            +0.0,+0.0,-0.0
iter: 931  16:55:32  -9.22  -6.93  -226.263433            +0.0,+0.0,-0.0
iter: 932  16:56:06 -10.05  -6.59  -226.263433            +0.0,+0.0,-0.0
iter: 933  16:56:40 -10.83  -6.52  -226.263433            +0.0,+0.0,-0.0
iter: 934  16:57:14 -10.53  -6.69  -226.263433            +0.0,+0.0,-0.0
iter: 935  16:57:48 -11.19  -7.23  -226.263433            +0.0,+0.0,-0.0
iter: 936  16:58:22  -9.72  -7.79  -226.263433            +0.0,+0.0,-0.0
iter: 937  16:58:56  -9.33  -6.95  -226.263433            +0.0,+0.0,-0.0
iter: 938  16:59:30 -10.06  -6.63  -226.263433            +0.0,+0.0,-0.0
iter: 939  17:00:04 -10.90  -6.54  -226.263434            +0.0,+0.0,-0.0
iter: 940  17:00:38 -10.49  -6.66  -226.263434            +0.0,+0.0,-0.0
iter: 941  17:01:13 -11.68  -7.36  -226.263434            +0.0,+0.0,-0.0
iter: 942  17:01:47 -10.14  -7.56  -226.263434            +0.0,+0.0,-0.0
iter: 943  17:02:21  -9.57  -7.10  -226.263434            +0.0,+0.0,-0.0
iter: 944  17:02:55  -9.86  -6.76  -226.263434            +0.0,+0.0,-0.0
iter: 945  17:03:29 -10.42  -6.61  -226.263434            +0.0,+0.0,-0.0
iter: 946  17:04:03 -10.27  -6.58  -226.263435            +0.0,+0.0,-0.0
iter: 947  17:04:37  -9.75  -6.31  -226.263433            +0.0,+0.0,-0.0
iter: 948  17:05:11 -11.21  -7.43  -226.263433            +0.0,+0.0,-0.0
iter: 949  17:05:45 -10.00  -7.48  -226.263433            +0.0,+0.0,-0.0
iter: 950  17:06:19 -10.69  -7.11  -226.263434            +0.0,+0.0,-0.0
iter: 951  17:06:54 -11.63  -7.02  -226.263433            +0.0,+0.0,-0.0
iter: 952  17:07:28 -10.94  -7.00  -226.263433            +0.0,+0.0,-0.0
iter: 953  17:08:02  -9.32  -7.06  -226.263431            +0.0,+0.0,-0.0
iter: 954  17:08:36  -9.04  -6.80  -226.263432            +0.0,+0.0,-0.0
iter: 955  17:09:10  -9.72  -6.92  -226.263433            +0.0,+0.0,-0.0
iter: 956  17:09:44  -9.94  -6.85  -226.263434            +0.0,+0.0,-0.0
iter: 957  17:10:18 -10.25  -6.53  -226.263433            +0.0,+0.0,-0.0
iter: 958  17:10:52 -10.74  -7.02  -226.263434            +0.0,+0.0,-0.0
iter: 959  17:11:26  -9.91  -7.24  -226.263434            +0.0,+0.0,-0.0
iter: 960  17:12:00  -9.14  -7.23  -226.263434            +0.0,+0.0,-0.0
iter: 961  17:12:34  -9.69  -6.83  -226.263433            +0.0,+0.0,-0.0
iter: 962  17:13:08 -10.07  -6.72  -226.263434            +0.0,+0.0,-0.0
iter: 963  17:13:42 -10.28  -6.51  -226.263434            +0.0,+0.0,-0.0
iter: 964  17:14:16 -10.70  -6.95  -226.263433            +0.0,+0.0,-0.0
[...]
iter: 1451  21:49:18 -11.43  -7.67  -226.263429            +0.0,+0.0,-0.0
iter: 1452  21:49:53 -11.89  -7.45  -226.263429            +0.0,+0.0,-0.0
iter: 1453  21:50:26 -11.56  -7.56  -226.263429            +0.0,+0.0,-0.0
iter: 1454  21:51:00 -11.70  -7.61  -226.263430            +0.0,+0.0,-0.0
iter: 1455  21:51:34 -11.10  -8.82  -226.263430            +0.0,+0.0,-0.0
iter: 1456  21:52:08 -10.02  -7.92  -226.263430            +0.0,+0.0,-0.0
iter: 1457  21:52:42 -10.83  -7.13  -226.263430            +0.0,+0.0,-0.0
iter: 1458  21:53:16 -12.20  -7.35  -226.263430            +0.0,+0.0,-0.0
iter: 1459  21:53:49 -11.53  -7.46  -226.263430            +0.0,+0.0,-0.0
iter: 1460  21:54:23 -12.07  -7.67  -226.263430            +0.0,+0.0,-0.0
iter: 1461  21:54:57 -11.37  -8.68  -226.263430            +0.0,+0.0,-0.0
iter: 1462  21:55:31 -10.22  -8.16  -226.263430            +0.0,+0.0,-0.0
iter: 1463  21:56:04 -11.47  -7.26  -226.263430            +0.0,+0.0,-0.0
iter: 1464  21:56:38 -12.12  -7.39  -226.263430            +0.0,+0.0,-0.0
iter: 1465  21:57:12 -11.68  -7.53  -226.263430            +0.0,+0.0,-0.0
iter: 1466  21:57:46 -12.01  -7.74  -226.263430            +0.0,+0.0,-0.0
iter: 1467  21:58:19 -11.16  -8.81  -226.263430            +0.0,+0.0,-0.0
iter: 1468  21:58:53 -10.28  -7.98  -226.263430            +0.0,+0.0,-0.0
iter: 1469  21:59:27 -11.46  -7.26  -226.263430            +0.0,+0.0,-0.0
iter: 1470  22:00:00 -12.10  -7.40  -226.263430            +0.0,+0.0,-0.0
iter: 1471  22:00:34 -11.72  -7.55  -226.263431            +0.0,+0.0,-0.0
iter: 1472  22:01:08 -11.98  -7.76  -226.263431            +0.0,+0.0,-0.0
iter: 1473  22:01:42 -11.12  -8.84  -226.263431            +0.0,+0.0,-0.0
iter: 1474  22:02:16 -10.35  -7.95  -226.263430            +0.0,+0.0,-0.0
iter: 1475  22:02:49 -11.58  -7.28  -226.263430            +0.0,+0.0,-0.0
iter: 1476  22:03:23 -12.08  -7.41  -226.263431            +0.0,+0.0,-0.0
iter: 1477  22:03:57 -11.80  -7.60  -226.263432            +0.0,+0.0,-0.0
iter: 1478  22:04:31 -11.94  -7.80  -226.263430            +0.0,+0.0,-0.0
iter: 1479  22:05:04 -11.02  -8.93  -226.263430            +0.0,+0.0,-0.0
iter: 1480  22:05:38 -10.44  -7.86  -226.263430            +0.0,+0.0,-0.0
iter: 1481  22:06:12 -11.69  -7.29  -226.263429            +0.0,+0.0,-0.0
iter: 1482  22:06:46 -12.04  -7.42  -226.263430            +0.0,+0.0,-0.0
iter: 1483  22:07:19 -11.87  -7.65  -226.263430            +0.0,+0.0,-0.0
iter: 1484  22:07:53 -11.87  -7.86  -226.263430            +0.0,+0.0,-0.0
iter: 1485  22:08:27 -10.95  -8.90  -226.263430            +0.0,+0.0,-0.0
iter: 1486  22:09:00 -10.55  -7.80  -226.263430            +0.0,+0.0,-0.0
iter: 1487  22:09:34 -11.82  -7.31  -226.263429            +0.0,+0.0,-0.0
iter: 1488  22:10:08 -12.01  -7.44  -226.263430            +0.0,+0.0,-0.0
iter: 1489  22:10:42 -11.98  -7.73  -226.263429            +0.0,+0.0,-0.0
iter: 1490  22:11:15 -11.81  -7.92  -226.263428            +0.0,+0.0,-0.0
iter: 1491  22:11:49 -10.85  -8.68  -226.263429            +0.0,+0.0,-0.0
iter: 1492  22:12:22 -10.68  -7.72  -226.263429            +0.0,+0.0,-0.0
iter: 1493  22:12:56 -11.96  -7.33  -226.263429            +0.0,+0.0,-0.0
iter: 1494  22:13:30 -11.99  -7.45  -226.263429            +0.0,+0.0,-0.0
iter: 1495  22:14:04 -12.09  -7.82  -226.263429            +0.0,+0.0,-0.0
iter: 1496  22:14:38 -11.73  -7.99  -226.263428            +0.0,+0.0,-0.0
iter: 1497  22:15:11 -10.79  -8.57  -226.263428            +0.0,+0.0,-0.0
iter: 1498  22:15:45 -10.83  -7.66  -226.263428            +0.0,+0.0,-0.0
iter: 1499  22:16:19 -12.12  -7.35  -226.263428            +0.0,+0.0,-0.0
iter: 1500  22:16:52 -11.97  -7.47  -226.263428            +0.0,+0.0,-0.0
iter: 1501  22:17:26 -12.25  -7.96  -226.263429            +0.0,+0.0,-0.0
iter: 1502  22:18:00 -11.66  -8.05  -226.263429            +0.0,+0.0,-0.0
iter: 1503  22:18:33 -10.69  -8.46  -226.263428            +0.0,+0.0,-0.0
iter: 1504  22:19:07 -10.96  -7.61  -226.263428            +0.0,+0.0,-0.0
iter: 1505  22:19:41 -12.25  -7.36  -226.263428            +0.0,+0.0,-0.0
iter: 1506  22:20:14 -11.96  -7.49  -226.263429            +0.0,+0.0,-0.0
iter: 1507  22:20:48 -12.39  -8.14  -226.263429            +0.0,+0.0,-0.0
iter: 1508  22:21:22 -11.61  -8.13  -226.263429            +0.0,+0.0,-0.0
iter: 1509  22:21:56 -10.69  -8.39  -226.263428            +0.0,+0.0,-0.0
iter: 1510  22:22:29 -11.16  -7.57  -226.263428            +0.0,+0.0,-0.0
iter: 1511  22:23:03 -12.36  -7.39  -226.263429            +0.0,+0.0,-0.0
iter: 1512  22:23:37 -11.94  -7.50  -226.263429            +0.0,+0.0,-0.0
iter: 1513  22:24:11 -12.74  -8.53  -226.263429            +0.0,+0.0,-0.0
iter: 1514  22:24:45 -11.62  -8.23  -226.263428            +0.0,+0.0,-0.0
iter: 1515  22:25:18 -10.69  -8.38  -226.263428            +0.0,+0.0,-0.0
iter: 1516  22:25:52 -11.26  -7.56  -226.263428            +0.0,+0.0,-0.0
iter: 1517  22:26:26 -12.16  -7.42  -226.263428            +0.0,+0.0,-0.0
iter: 1518  22:26:59 -11.76  -7.49  -226.263428            +0.0,+0.0,-0.0
iter: 1519  22:27:33 -12.80  -8.08  -226.263428            +0.0,+0.0,-0.0
iter: 1520  22:28:07 -11.35  -8.46  -226.263428            +0.0,+0.0,-0.0
iter: 1521  22:28:41 -10.71  -8.32  -226.263429            +0.0,+0.0,-0.0
iter: 1522  22:29:15 -10.90  -7.52  -226.263429            +0.0,+0.0,-0.0
iter: 1523  22:29:48 -12.15  -7.32  -226.263428            +0.0,+0.0,-0.0
iter: 1524  22:30:22 -11.04  -7.31  -226.263427            +0.0,+0.0,-0.0
iter: 1525  22:30:56 -11.76  -7.34  -226.263427            +0.0,+0.0,-0.0
iter: 1526  22:31:30 -12.90  -8.32  -226.263427            +0.0,+0.0,-0.0
iter: 1527  22:32:03 -10.67  -8.31  -226.263428            +0.0,+0.0,-0.0
iter: 1528  22:32:37 -11.17  -7.63  -226.263428            +0.0,+0.0,-0.0
iter: 1529  22:33:11 -11.36  -7.45  -226.263426            +0.0,+0.0,-0.0
iter: 1530  22:33:44 -10.43  -7.34  -226.263423            +0.0,+0.0,-0.0
iter: 1531  22:34:18 -11.05  -7.24  -226.263432            +0.0,+0.0,-0.0
iter: 1532  22:34:52 -11.82  -7.58  -226.263434            +0.0,+0.0,-0.0
iter: 1533  22:35:26 -12.00  -8.17  -226.263429            +0.0,+0.0,-0.0
iter: 1534  22:35:59 -10.94  -7.94  -226.263427            +0.0,+0.0,-0.0
iter: 1535  22:36:33 -10.66  -7.92  -226.263427            +0.0,+0.0,-0.0
iter: 1536  22:37:06 -11.07  -7.47  -226.263428            +0.0,+0.0,-0.0
iter: 1537  22:37:40 -12.03  -7.32  -226.263426            +0.0,+0.0,-0.0
iter: 1538  22:38:14 -11.84  -7.59  -226.263424            +0.0,+0.0,-0.0
iter: 1539  22:38:47 -12.12  -8.46  -226.263424            +0.0,+0.0,-0.0
iter: 1540  22:39:21 -11.02  -8.06  -226.263426            +0.0,+0.0,-0.0
iter: 1541  22:39:55 -10.73  -7.90  -226.263425            +0.0,+0.0,-0.0
iter: 1542  22:40:28 -11.08  -7.47  -226.263426            +0.0,+0.0,-0.0
iter: 1543  22:41:02 -11.56  -7.34  -226.263428            +0.0,+0.0,-0.0
iter: 1544  22:41:36 -11.79  -7.58  -226.263426            +0.0,+0.0,-0.0
iter: 1545  22:42:09 -11.97  -8.72  -226.263425            +0.0,+0.0,-0.0
iter: 1546  22:42:43 -10.83  -8.15  -226.263426            +0.0,+0.0,-0.0
iter: 1547  22:43:17 -10.69  -7.95  -226.263426            +0.0,+0.0,-0.0
iter: 1548  22:43:50 -11.47  -7.47  -226.263426            +0.0,+0.0,-0.0
iter: 1549  22:44:24 -12.18  -7.36  -226.263426            +0.0,+0.0,-0.0
iter: 1550  22:44:58 -11.93  -7.54  -226.263426            +0.0,+0.0,-0.0
iter: 1551  22:45:31 -12.62  -8.94  -226.263426            +0.0,+0.0,-0.0
iter: 1552  22:46:05 -11.17  -8.27  -226.263426            +0.0,+0.0,-0.0
iter: 1553  22:46:39 -10.76  -8.08  -226.263426            +0.0,+0.0,-0.0
iter: 1554  22:47:13 -11.38  -7.51  -226.263426            +0.0,+0.0,-0.0
iter: 1555  22:47:47 -11.27  -7.39  -226.263426            +0.0,+0.0,-0.0
iter: 1556  22:48:20 -11.44  -7.44  -226.263426            +0.0,+0.0,-0.0
iter: 1557  22:48:54 -12.27  -7.62  -226.263426            +0.0,+0.0,-0.0
iter: 1558  22:49:28 -12.11  -8.55  -226.263426            +0.0,+0.0,-0.0
iter: 1559  22:50:01  -9.89  -8.87  -226.263426            +0.0,+0.0,-0.0
iter: 1560  22:50:35 -10.83  -7.16  -226.263426            +0.0,+0.0,-0.0
iter: 1561  22:51:09 -12.17  -7.36  -226.263426            +0.0,+0.0,-0.0
iter: 1562  22:51:43 -11.99  -7.42  -226.263426            +0.0,+0.0,-0.0
iter: 1563  22:52:16 -12.53  -8.04  -226.263426            +0.0,+0.0,-0.0
iter: 1564  22:52:50 -12.33  -8.28  -226.263426            +0.0,+0.0,-0.0
iter: 1565  22:53:24 -10.65  -8.98  -226.263426            +0.0,+0.0,-0.0
iter: 1566  22:53:57 -11.19  -7.58  -226.263426            +0.0,+0.0,-0.0
iter: 1567  22:54:31 -12.29  -7.41  -226.263426            +0.0,+0.0,-0.0
iter: 1568  22:55:05 -11.83  -7.46  -226.263426            +0.0,+0.0,-0.0
iter: 1569  22:55:39 -13.08  -8.71  -226.263426            +0.0,+0.0,-0.0
iter: 1570  22:56:12 -12.34  -8.46  -226.263427            +0.0,+0.0,-0.0
iter: 1571  22:56:46 -11.62  -8.83  -226.263426            +0.0,+0.0,-0.0
iter: 1572  22:57:19 -11.06  -8.08  -226.263426            +0.0,+0.0,-0.0
iter: 1573  22:57:53 -11.42  -7.60  -226.263426            +0.0,+0.0,-0.0
iter: 1574  22:58:27 -12.02  -7.46  -226.263426            +0.0,+0.0,-0.0
iter: 1575  22:59:00 -12.38  -7.42  -226.263426            +0.0,+0.0,-0.0
iter: 1576  22:59:34 -11.80  -7.52  -226.263429            +0.0,+0.0,-0.0
iter: 1577  23:00:08 -12.69  -8.06  -226.263432            +0.0,+0.0,-0.0
iter: 1578  23:00:41 -11.55  -8.58  -226.263425            +0.0,+0.0,-0.0
iter: 1579  23:01:15 -10.26  -8.06  -226.263425            +0.0,+0.0,-0.0
iter: 1580  23:01:49 -11.58  -7.27  -226.263425            +0.0,+0.0,-0.0
iter: 1581  23:02:23 -12.63  -7.37  -226.263425            +0.0,+0.0,-0.0
iter: 1582  23:02:56 -11.76  -7.44  -226.263429            +0.0,+0.0,-0.0
iter: 1583  23:03:30 -13.01  -8.13  -226.263428            +0.0,+0.0,-0.0
iter: 1584  23:04:04 -11.91  -8.52  -226.263427            +0.0,+0.0,-0.0
iter: 1585  23:04:37 -10.32  -8.33  -226.263424            +0.0,+0.0,-0.0
iter: 1586  23:05:11 -11.94  -7.34  -226.263427            +0.0,+0.0,-0.0
iter: 1587  23:05:45 -12.65  -7.38  -226.263428            +0.0,+0.0,-0.0
iter: 1588  23:06:18 -11.87  -7.47  -226.263427            +0.0,+0.0,-0.0
iter: 1589  23:06:52 -13.27  -8.35  -226.263427            +0.0,+0.0,-0.0
iter: 1590  23:07:25 -11.58  -8.42  -226.263426            +0.0,+0.0,-0.0
iter: 1591  23:07:59 -10.76  -8.19  -226.263424            +0.0,+0.0,-0.0
iter: 1592  23:08:33 -11.09  -7.50  -226.263426            +0.0,+0.0,-0.0
iter: 1593  23:09:06 -12.36  -7.35  -226.263428            +0.0,+0.0,-0.0
iter: 1594  23:09:40 -11.38  -7.35  -226.263426            +0.0,+0.0,-0.0
iter: 1595  23:10:13 -12.49  -7.67  -226.263428            +0.0,+0.0,-0.0
iter: 1596  23:10:47 -13.68  -8.28  -226.263428            +0.0,+0.0,-0.0
iter: 1597  23:11:21 -12.25  -8.34  -226.263428            +0.0,+0.0,-0.0
iter: 1598  23:11:54 -10.85  -8.71  -226.263429            +0.0,+0.0,-0.0
iter: 1599  23:12:28 -11.23  -7.65  -226.263427            +0.0,+0.0,-0.0
iter: 1600  23:13:01 -11.72  -7.46  -226.263424            +0.0,+0.0,-0.0
iter: 1601  23:13:35 -12.64  -7.37  -226.263422            +0.0,+0.0,-0.0
iter: 1602  23:14:08 -11.67  -7.42  -226.263426            +0.0,+0.0,-0.0
iter: 1603  23:14:42 -12.89  -7.79  -226.263432            +0.0,+0.0,-0.0
iter: 1604  23:15:16 -12.45  -8.31  -226.263428            +0.0,+0.0,-0.0
iter: 1605  23:15:49 -10.60  -8.71  -226.263421            +0.0,+0.0,-0.0
iter: 1606  23:16:23 -11.15  -7.55  -226.263428            +0.0,+0.0,-0.0
iter: 1607  23:16:57 -12.23  -7.41  -226.263427            +0.0,+0.0,-0.0
iter: 1608  23:17:30 -11.87  -7.38  -226.263413            +0.0,+0.0,-0.0
iter: 1609  23:18:04 -12.50  -8.13  -226.263417            +0.0,+0.0,-0.0
iter: 1610  23:18:38 -12.85  -8.16  -226.263427            +0.0,+0.0,-0.0
iter: 1611  23:19:11 -10.66  -8.12  -226.263428            +0.0,+0.0,-0.0
iter: 1612  23:19:45 -11.27  -7.66  -226.263426            +0.0,+0.0,-0.0
iter: 1613  23:20:19 -11.89  -7.52  -226.263429            +0.0,+0.0,-0.0
iter: 1614  23:20:53 -12.39  -7.43  -226.263422            +0.0,+0.0,-0.0
iter: 1615  23:21:26 -11.80  -7.57  -226.263418            +0.0,+0.0,-0.0
iter: 1616  23:22:00 -12.82  -7.94  -226.263432            +0.0,+0.0,-0.0
iter: 1617  23:22:34 -11.43  -8.40  -226.263431            +0.0,+0.0,-0.0
iter: 1618  23:23:07 -10.26  -8.12  -226.263429            +0.0,+0.0,-0.0
iter: 1619  23:23:41 -11.70  -7.28  -226.263432            +0.0,+0.0,-0.0
iter: 1620  23:24:15 -11.95  -7.34  -226.263431            +0.0,+0.0,-0.0
iter: 1621  23:24:49 -11.90  -7.43  -226.263426            +0.0,+0.0,-0.0
iter: 1622  23:25:22 -12.49  -8.11  -226.263426            +0.0,+0.0,-0.0
iter: 1623  23:25:56 -12.02  -8.13  -226.263428            +0.0,+0.0,-0.0
iter: 1624  23:26:29 -10.69  -9.06  -226.263428            +0.0,+0.0,-0.0

Converged after 1624 iterations.

Dipole moment: (0.120897, 0.005337, -1.229050) |e|*Ang

Total magnetic moment: (0.000895, 0.000005, -0.001367)
Local magnetic moments:
   0 O  ( 0.001920, -0.000050,  0.000675)
   1 O  (-0.002056,  0.000118, -0.000295)
   2 O  ( 0.001054, -0.000022,  0.000022)
   3 O  (-0.000912,  0.000117, -0.000461)
   4 O  ( 0.001069,  0.000025,  0.000026)
   5 O  (-0.000926, -0.000120, -0.000464)
   6 O  ( 0.001944,  0.000057,  0.000681)
   7 O  (-0.002079, -0.000125, -0.000301)
   8 O  (-0.027921, -0.000046, -0.006617)
   9 O  ( 0.027809,  0.000046,  0.006827)
  10 O  ( 0.027998,  0.000042,  0.006552)
  11 O  (-0.027951, -0.000042, -0.006809)
  12 Mn (-4.325166, -0.007105, -1.028636)
  13 Mn ( 4.318380,  0.007112,  1.059424)
  14 Mn ( 4.328216,  0.006425,  1.016597)
  15 Mn (-4.320534, -0.006428, -1.048547)
  16 P  (-0.001027, -0.000001, -0.000075)
  17 P  ( 0.000933,  0.000001,  0.000362)
  18 P  ( 0.002013,  0.000004,  0.000346)
  19 P  (-0.001948, -0.000004, -0.000626)
  20 O  (-0.025015, -0.000041, -0.006102)
  21 O  ( 0.025058,  0.000041,  0.005998)
  22 O  ( 0.024204,  0.000036,  0.005855)
  23 O  (-0.024165, -0.000036, -0.005685)
  24 Li (-0.000038,  0.000002, -0.000010)
  25 Li ( 0.000041, -0.000001,  0.000010)
  26 Li (-0.000038, -0.000002, -0.000010)
  27 Li ( 0.000041,  0.000001,  0.000010)

Energy contributions relative to reference atoms: (reference = -196157.275402)

Kinetic:       +217.435586
Potential:     -195.327058
External:        +0.000000
XC:            -250.412328
Entropy (-ST):   -0.000000
Local:           +2.040372
--------------------------
Free energy:   -226.263428
Extrapolated:  -226.263428

Showing only first 2 kpts
 Kpt  Band  Eigenvalues  Occupancy
  0    88     -2.03982    1.00000
  0    89     -2.03001    1.00000
  0    90     -1.94504    1.00000
  0    91     -1.93631    1.00000

  1    88     -2.16388    1.00000
  1    89     -2.15532    1.00000
  1    90     -2.11002    1.00000
  1    91     -2.09132    1.00000


Fermi level: 6.13924

Gap: 1.966 eV
Transition (v -> c):
  (s=0, k=45, n=179, [-0.12, 0.38, 0.08]) -> (s=0, k=33, n=180, [-0.12, -0.12, 0.08])

Forces in eV/Ang:
  0 O    -0.01749   -0.00241    0.08622
  1 O     0.02083    0.00281    0.08753
  2 O    -0.01793    0.00354    0.09327
  3 O     0.02051   -0.00367    0.09369
  4 O    -0.01797   -0.00358    0.09333
  5 O     0.02055    0.00371    0.09378
  6 O    -0.01746    0.00238    0.08624
  7 O     0.02079   -0.00279    0.08756
  8 O    -0.00128    0.00001    0.08816
  9 O     0.00505   -0.00001    0.08718
 10 O    -0.00100    0.00000    0.08212
 11 O     0.00440   -0.00000    0.08001
 12 Mn   -0.00182   -0.00002   -0.12955
 13 Mn    0.00398    0.00002   -0.12902
 14 Mn    0.00145    0.00001   -0.13314
 15 Mn    0.00081   -0.00001   -0.13366
 16 P     0.01609    0.00003   -0.19252
 17 P    -0.01323   -0.00003   -0.19323
 18 P    -0.02803    0.00001   -0.20755
 19 P    -0.01233   -0.00001   -0.20699
 20 O     0.01162    0.00001    0.14600
 21 O    -0.00872   -0.00001    0.14678
 22 O     0.01663   -0.00000    0.14697
 23 O    -0.01237    0.00000    0.14730
 24 Li    0.00248   -0.00385   -0.08036
 25 Li    0.00097    0.00375   -0.07980
 26 Li    0.00248    0.00384   -0.08035
 27 Li    0.00097   -0.00373   -0.07981

Timing:                              incl.     excl.
-----------------------------------------------------------
Forces:                              4.441     4.441   0.0% |
Hamiltonian:                         0.642     0.003   0.0% |
 Atomic:                             0.093     0.093   0.0% |
  XC Correction:                     0.000     0.000   0.0% |
 Calculate atomic Hamiltonians:      0.253     0.253   0.0% |
 Communicate:                        0.000     0.000   0.0% |
 Initialize Hamiltonian:             0.001     0.001   0.0% |
 Poisson:                            0.003     0.003   0.0% |
 XC 3D grid:                         0.289     0.289   0.0% |
LCAO initialization:                63.257     0.365   0.0% |
 LCAO eigensolver:                  10.360     0.002   0.0% |
  DenseAtomicCorrection:             0.017     0.017   0.0% |
  Distribute overlap matrix:         0.001     0.001   0.0% |
  Orbital Layouts:                   0.057     0.057   0.0% |
  Potential matrix:                 10.246    10.246   0.0% |
  Sum over cells:                    0.038     0.038   0.0% |
 LCAO to grid:                      51.557    51.557   0.1% |
 Set positions (LCAO WFS):           0.974     0.206   0.0% |
  Basic WFS set positions:           0.001     0.001   0.0% |
  Basis functions set positions:     0.000     0.000   0.0% |
  P tci:                             0.380     0.380   0.0% |
  ST tci:                            0.297     0.297   0.0% |
  mktci:                             0.091     0.091   0.0% |
PWDescriptor:                        0.010     0.010   0.0% |
SCF-cycle:                       55316.199 15839.652  28.6% |----------|
 Davidson:                       32255.168  3613.680   6.5% |--|
  Apply H:                        5079.286  5079.286   9.2% |---|
  Subspace diag:                  6779.343     0.727   0.0% |
   calc_h_matrix:                 5753.514   625.423   1.1% |
    Apply H:                      5128.090  5128.090   9.3% |---|
   diagonalize:                     56.342    56.342   0.1% |
   rotate_psi:                     968.761   968.761   1.7% ||
  calc. matrices:                13706.521  3626.946   6.5% |--|
   Apply H:                      10079.575 10079.575  18.2% |------|
  diagonalize:                    1172.048  1172.048   2.1% ||
  rotate_psi:                     1904.289  1904.289   3.4% ||
 Density:                         6151.573     0.046   0.0% |
  Atomic density matrices:         194.796   194.796   0.4% |
  Mix:                             573.241   573.241   1.0% |
  Multipole moments:                 0.892     0.892   0.0% |
  Pseudo density:                 5382.598  5382.487   9.7% |---|
   Symmetrize density:               0.111     0.111   0.0% |
 Hamiltonian:                     1068.861     6.276   0.0% |
  Atomic:                          104.215   104.209   0.2% |
   XC Correction:                    0.006     0.006   0.0% |
  Calculate atomic Hamiltonians:   454.447   454.447   0.8% |
  Communicate:                       0.381     0.381   0.0% |
  Poisson:                           5.639     5.639   0.0% |
  XC 3D grid:                      497.903   497.903   0.9% |
 Orthonormalize:                     0.945     0.001   0.0% |
  calc_s_matrix:                     0.199     0.199   0.0% |
  inverse-cholesky:                  0.009     0.009   0.0% |
  projections:                       0.428     0.428   0.0% |
  rotate_psi_s:                      0.308     0.308   0.0% |
Set symmetry:                        0.000     0.000   0.0% |
Other:                               2.856     2.856   0.0% |
-----------------------------------------------------------
Total:                                     55387.405 100.0%

Memory usage: 1.17 GiB
Date: Sat Jun 25 23:26:34 2022
