
  ___ ___ ___ _ _ _  
 |   |   |_  | | | | 
 | | | | | . | | | | 
 |__ |  _|___|_____|  21.6.1b1
 |___|_|             

User:   madkru@a104.nifl.fysik.dtu.dk
Date:   Fri Jun 24 10:04:21 2022
Arch:   x86_64
Pid:    4971
Python: 3.8.6
gpaw:   /home/niflheim/madkru/new_venv/gpaw/gpaw (1f0dfc9eae)
_gpaw:  /home/niflheim/madkru/new_venv/gpaw/build/lib.linux-x86_64-skylake-3.8/
        _gpaw.cpython-38-x86_64-linux-gnu.so (c1e45bfab3)
ase:    /home/niflheim/madkru/new_venv/ase/ase (version 3.23.0b1-ca38c75a67)
numpy:  /home/modules/software/SciPy-bundle/2020.11-foss-2020b/lib/python3.8/site-packages/numpy (version 1.19.4)
scipy:  /home/modules/software/SciPy-bundle/2020.11-foss-2020b/lib/python3.8/site-packages/scipy (version 1.5.4)
libxc:  4.3.4
units:  Angstrom and eV
cores: 40
OpenMP: False
OMP_NUM_THREADS: 1

Input parameters:
  convergence: {density: 1e-09}
  experimental: {magmoms: [[0. 0. 0.]
 [0. 0. 0.]
 [0. 0. 0.]
 ...
 [0. 0. 0.]
 [0. 0. 0.]
 [0. 0. 0.]],
                 soc: True}
  kpts: [4 4 6]
  maxiter: 5000
  mixer: {backend: pulay,
          beta: 0.05,
          method: difference,
          nmaxold: 3,
          weight: 100}
  mode: {ecut: 600.0,
         gammacentered: False,
         name: pw}
  occupations: {fixmagmom: False,
                name: fermi-dirac,
                width: 0.001}
  symmetry: off

System changes: positions, numbers, cell, pbc, initial_charges, initial_magmoms 

Initialize ...

O-setup:
  name: Oxygen
  id: 9b9d51c344dea68c822856295a461509
  Z: 8.0
  valence: 6
  core: 2
  charge: 0.0
  file: /home/modules/software/GPAW-setups/0.9.20000/O.LDA.gz
  compensation charges: gauss, rc=0.21, lmax=2
  cutoffs: 1.17(filt), 0.83(core),
  valence states:
                energy  radius
    2s(2.00)   -23.752   0.688
    2p(4.00)    -9.195   0.598
    *s           3.459   0.688
    *p          18.016   0.598
    *d           0.000   0.619

  Using partial waves for O as LCAO basis

Mn-setup:
  name: Manganese
  id: 0d715a8018be061a6e9ea6f2d364ac92
  Z: 25.0
  valence: 15
  core: 10
  charge: 0.0
  file: /home/modules/software/GPAW-setups/0.9.20000/Mn.LDA.gz
  compensation charges: gauss, rc=0.38, lmax=2
  cutoffs: 2.14(filt), 0.86(core),
  valence states:
                energy  radius
    3s(2.00)   -85.387   1.275
    4s(2.00)    -5.282   1.275
    3p(6.00)   -54.493   1.281
    4p(0.00)    -1.471   1.281
    3d(5.00)    -7.009   1.138
    *d          20.203   1.138

  Using partial waves for Mn as LCAO basis

P-setup:
  name: Phosphorus
  id: a5561c299094968922a179ab894d2e2d
  Z: 15.0
  valence: 5
  core: 10
  charge: 0.0
  file: /home/modules/software/GPAW-setups/0.9.20000/P.LDA.gz
  compensation charges: gauss, rc=0.30, lmax=2
  cutoffs: 1.69(filt), 1.81(core),
  valence states:
                energy  radius
    3s(2.00)   -14.015   0.953
    3p(3.00)    -5.596   0.953
    *s          13.197   0.953
    *p          21.615   0.953
    *d           0.000   0.953

  Using partial waves for P as LCAO basis

Li-setup:
  name: Lithium
  id: b73562207f97a71b6967473b66fe8b65
  Z: 3.0
  valence: 1
  core: 2
  charge: 0.0
  file: /home/modules/software/GPAW-setups/0.9.20000/Li.LDA.gz
  compensation charges: gauss, rc=0.33, lmax=2
  cutoffs: 1.91(filt), 2.55(core),
  valence states:
                energy  radius
    2s(1.00)    -2.874   1.058
    2p(0.00)    -1.126   1.058
    *s          24.338   1.058

  Using partial waves for Li as LCAO basis

Reference energy: -196157.275402

Non-collinear calculation.
Magnetic moment: (0.000000, 0.000000, 0.000000)

Convergence criteria:
  Maximum total energy change: 0.0005 eV / electron
  Maximum integral of absolute density change: 1e-09 electrons
  Maximum integral of absolute eigenstate change: 4e-08 eV^2
  Maximum number of iterations: 5000

Symmetries present (total): 1

  ( 1  0  0)
  ( 0  1  0)
  ( 0  0  1)

96 k-points: 4 x 4 x 6 Monkhorst-Pack grid
96 k-points in the irreducible part of the Brillouin zone
       k-points in crystal coordinates                weights
   0:    -0.37500000   -0.37500000   -0.41666667          1/96
   1:    -0.37500000   -0.37500000   -0.25000000          1/96
   2:    -0.37500000   -0.37500000   -0.08333333          1/96
   3:    -0.37500000   -0.37500000    0.08333333          1/96
   4:    -0.37500000   -0.37500000    0.25000000          1/96
   5:    -0.37500000   -0.37500000    0.41666667          1/96
   6:    -0.37500000   -0.12500000   -0.41666667          1/96
   7:    -0.37500000   -0.12500000   -0.25000000          1/96
   8:    -0.37500000   -0.12500000   -0.08333333          1/96
   9:    -0.37500000   -0.12500000    0.08333333          1/96
          ...
  95:     0.37500000    0.37500000    0.41666667          1/96

Wave functions: Plane wave expansion
  Cutoff energy: 600.000 eV
  Number of coefficients (min, max): 10065, 10119
  Pulay-stress correction: 0.000000 eV/Ang^3 (de/decut=0.000000)
  Using FFTW library
  ScaLapack parameters: grid=1x1, blocksize=None
  Wavefunction extrapolation:
    Improved wavefunction reuse through dual PAW basis 

Occupation numbers: Fermi-Dirac: width=0.0010 eV
 

Eigensolver
   Davidson(niter=2) 

Densities:
  Coarse grid: 60*35*27 grid
  Fine grid: 120*70*54 grid
  Total Charge: 0.000000 

Density mixing:
  Method: difference
  Backend: pulay
  Linear mixing parameter: 0.05
  Mixing with 3 old densities
  Damping of long wave oscillations: 100 

Hamiltonian:
  XC and Coulomb potentials evaluated on a 120*70*54 grid
  Using the LDA Exchange-Correlation functional
  External potential:
    <gpaw.external.NoExternalPotential object at 0x2ad067936d60>
 

Memory estimate:
  Process memory now: 184.58 MiB
  Calculator: 167.16 MiB
    Density: 37.88 MiB
      Arrays: 11.25 MiB
      Localized functions: 18.84 MiB
      Mixer: 7.79 MiB
    Hamiltonian: 7.90 MiB
      Arrays: 7.35 MiB
      XC: 0.00 MiB
      Poisson: 0.00 MiB
      vbar: 0.54 MiB
    Wavefunctions: 121.39 MiB
      Arrays psit_nG: 69.17 MiB
      Eigensolver: 43.02 MiB
      Projections: 2.41 MiB
      Projectors: 4.31 MiB
      PW-descriptor: 2.47 MiB

Total number of cores used: 40
Parallelization over k-points: 40

Number of atoms: 28
Number of atomic orbitals: 148
Number of bands in calculation: 224
Number of valence electrons: 180
Bands to converge: occupied

... initialized

Initializing position-dependent things.

Density initialized from atomic densities
Creating initial wave functions:
  148 bands from LCAO basis set
  76 bands from random numbers

     .-------------------------.  
    /|             P  O        |  
   / |   O      O            Li|  
  /  |            Li Mn      O |  
 *   |PO    O           Mn Li  |  
 |   | O        Li       O     |  
 |   .--Mn----------O---O-P----.  
 | O/      MO                 /   
 | /            O      O     /    
 |/       O  P              /     
 *-------------------------*      

Positions:
   0 O      3.506044    0.290172    1.024795    ( 0.0000,  0.0000,  0.0000)
   1 O      1.726678    5.810111    3.394231    ( 0.0000,  0.0000,  0.0000)
   2 O      6.966945    3.341306    3.766326    ( 0.0000,  0.0000,  0.0000)
   3 O      8.718332    2.759249    1.397997    ( 0.0000,  0.0000,  0.0000)
   4 O      6.967313    5.807776    3.766369    ( 0.0000,  0.0000, -3.0000)
   5 O      8.717960    0.291666    1.398046    ( 0.0000,  0.0000,  3.0000)
   6 O      3.506236    2.760395    1.024901    ( 0.0000,  0.0000,  3.0000)
   7 O      1.726495    3.339315    3.394337    ( 0.0000,  0.0000, -3.0000)
   8 O      0.440252    1.525198    1.425078    ( 0.0000,  0.0000,  0.0000)
   9 O      4.784930    4.574801    3.792413    ( 0.0000,  0.0000,  0.0000)
  10 O     10.013835    4.574886    3.351397    ( 0.0000,  0.0000,  0.0000)
  11 O      5.678891    1.525106    0.981644    ( 0.0000,  0.0000,  0.0000)
  12 Mn     2.288323    1.524931    2.418230    ( 0.0000,  0.0000,  0.0000)
  13 Mn     2.943286    4.575066    0.049630    ( 5.0000,  0.0000,  0.0000)
  14 Mn     8.173342    4.575248    2.263330    (-5.0000,  0.0000,  0.0000)
  15 Mn     7.515979    1.524749    4.630651    (-5.0000,  0.0000,  0.0000)
  16 P      4.241543    1.525265    0.379949    ( 5.0000,  0.0000,  0.0000)
  17 P      0.991208    4.574728    2.750009    ( 0.0000,  0.0000,  0.0000)
  18 P      6.221166    4.574617    4.374358    ( 0.0000,  0.0000,  0.0000)
  19 P      9.462432    1.525381    2.005551    ( 0.0000,  0.0000,  0.0000)
  20 O      4.206543    1.525298    3.594046    ( 0.0000,  0.0000,  0.0000)
  21 O      1.026515    4.574694    1.223900    ( 0.0000,  0.0000,  0.0000)
  22 O      6.240319    4.574713    1.181887    ( 0.0000,  0.0000,  0.0000)
  23 O      9.445303    1.525289    3.553282    ( 0.0000,  0.0000,  0.0000)
  24 Li    -0.000246    0.020453   -0.064761    ( 0.0000,  0.0000,  0.0000)
  25 Li     5.235331   -0.019860    2.303294    ( 0.0000,  0.0000,  0.0000)
  26 Li    -0.000385    3.029903   -0.064401    ( 0.0000,  0.0000,  0.0000)
  27 Li     5.235430    3.069541    2.303617    ( 0.0000,  0.0000,  0.0000)

Unit cell:
           periodic     x           y           z      points  spacing
  1. axis:    yes   10.460000    0.000000    0.000000    60     0.1743
  2. axis:    yes    0.000000    6.100000    0.000000    35     0.1743
  3. axis:    yes    0.000000    0.000000    4.740000    27     0.1756

  Lengths:  10.460000   6.100000   4.740000
  Angles:   90.000000  90.000000  90.000000

Effective grid spacing dv^(1/3) = 0.1747

                     log10-error:    total        iterations:
           time      wfs    density  energy       poisson
iter:   1  10:06:26                -258.424130            -1.0,+0.0,-0.0
iter:   2  10:07:01  -0.42  -0.89  -266.607073            +0.8,-0.0,+0.2
iter:   3  10:07:36  -0.87  -0.94  -254.734848            +0.0,-0.0,-0.0
iter:   4  10:08:11  -0.62  -0.97  -235.954249            -0.0,+0.0,-0.0
iter:   5  10:08:46  -0.41  -1.09  -233.007093            -0.0,+0.0,-0.0
iter:   6  10:09:20  -1.59  -1.25  -222.093486            -0.0,+0.0,-0.0
iter:   7  10:09:55  -2.38  -1.35  -222.226767            -0.0,+0.0,-0.0
iter:   8  10:10:30  -3.14  -1.35  -222.034861            -0.1,-0.0,-0.0
iter:   9  10:11:05  -2.39  -1.37  -222.250533            -0.5,-0.0,-0.0
iter:  10  10:11:40  -2.00  -1.41  -221.961076            -0.6,-0.0,-0.1
iter:  11  10:12:15  -2.88  -1.55  -222.879792            -1.5,-0.0,-0.1
iter:  12  10:12:50  -2.47  -1.57  -223.538727            -1.7,-0.1,-0.2
iter:  13  10:13:24  -2.69  -1.60  -223.629958            -1.9,-0.1,-0.3
iter:  14  10:13:59  -2.47  -1.69  -225.168100            -1.4,-0.1,-0.3
iter:  15  10:14:34  -2.83  -1.69  -226.129996            -1.2,-0.1,-0.5
iter:  16  10:15:09  -1.90  -1.71  -226.505619            -0.3,-0.1,-0.6
iter:  17  10:15:44  -2.61  -1.86  -226.440135            -0.1,-0.1,-0.6
iter:  18  10:16:18  -2.00  -1.94  -226.323096            +0.0,-0.1,-0.5
iter:  19  10:16:53  -2.92  -2.12  -226.308816            -0.0,-0.1,-0.5
iter:  20  10:17:28  -3.37  -2.28  -226.269489            -0.0,-0.1,-0.5
iter:  21  10:18:03  -3.44  -2.33  -226.240516            +0.0,-0.1,-0.5
iter:  22  10:18:37  -3.54  -2.38  -226.229092            +0.0,-0.1,-0.5
iter:  23  10:19:12  -4.28  -2.42  -226.230350            +0.0,-0.1,-0.5
iter:  24  10:19:47  -3.67  -2.43  -226.236259            +0.0,-0.1,-0.5
iter:  25  10:20:22  -4.12  -2.48  -226.241269            +0.0,-0.1,-0.5
iter:  26  10:20:56  -3.85  -2.53  -226.236885            +0.0,-0.1,-0.5
iter:  27  10:21:31  -4.65  -2.85  -226.236055            +0.0,-0.1,-0.5
iter:  28  10:22:06  -3.77  -2.92  -226.229408            +0.0,-0.1,-0.5
iter:  29  10:22:41  -5.04  -3.34  -226.229238            +0.0,-0.1,-0.5
iter:  30  10:23:16  -5.40  -3.43  -226.229274            +0.0,-0.1,-0.5
iter:  31  10:23:50  -4.98  -3.49  -226.228868            +0.0,-0.1,-0.5
iter:  32  10:24:25  -5.55  -3.69  -226.228858            +0.0,-0.1,-0.5
iter:  33  10:25:00  -6.49  -3.80  -226.228835            +0.0,-0.1,-0.5
iter:  34  10:25:35  -5.53  -3.85  -226.228773            +0.0,-0.1,-0.5
iter:  35  10:26:09  -6.51  -4.15  -226.228769            +0.0,-0.1,-0.5
iter:  36  10:26:44  -6.91  -4.24  -226.228759            +0.0,-0.1,-0.5
iter:  37  10:27:19  -7.11  -4.30  -226.228751            +0.0,-0.1,-0.5
iter:  38  10:27:54  -6.32  -4.34  -226.228772            +0.0,-0.1,-0.5
iter:  39  10:28:28  -6.83  -4.37  -226.228771            +0.0,-0.1,-0.5
iter:  40  10:29:03  -6.58  -4.49  -226.228774            +0.0,-0.0,-0.5
iter:  41  10:29:38  -6.55  -4.57  -226.228765            +0.0,-0.0,-0.5
iter:  42  10:30:13  -7.56  -4.93  -226.228769            +0.0,-0.0,-0.5
iter:  43  10:30:47  -7.61  -4.99  -226.228764            +0.0,-0.0,-0.5
iter:  44  10:31:22  -6.42  -5.11  -226.228787            +0.0,-0.0,-0.4
iter:  45  10:31:57  -5.37  -5.17  -226.228839            +0.0,-0.0,-0.2
iter:  46  10:32:31  -5.93  -5.38  -226.228852            +0.0,-0.0,-0.2
iter:  47  10:33:06  -6.67  -5.39  -226.228857            +0.0,-0.0,-0.2
iter:  48  10:33:41  -7.12  -5.41  -226.228862            +0.0,-0.0,-0.2
iter:  49  10:34:15  -7.59  -5.50  -226.228863            +0.0,-0.0,-0.2
iter:  50  10:34:50  -8.52  -5.49  -226.228863            +0.0,-0.0,-0.2
iter:  51  10:35:25  -9.12  -5.47  -226.228863            +0.0,-0.0,-0.2
iter:  52  10:35:59  -9.11  -5.51  -226.228863            +0.0,-0.0,-0.2
iter:  53  10:36:34  -8.41  -5.68  -226.228863            +0.0,-0.0,-0.2
iter:  54  10:37:09  -7.42  -5.79  -226.228865            +0.0,-0.0,-0.1
iter:  55  10:37:44  -6.23  -6.15  -226.228870            +0.0,-0.0,-0.1
iter:  56  10:38:18  -6.67  -5.98  -226.228871            +0.0,-0.0,-0.0
iter:  57  10:38:53  -8.00  -5.90  -226.228871            +0.0,-0.0,-0.0
iter:  58  10:39:28  -8.36  -5.90  -226.228872            +0.0,-0.0,-0.0
iter:  59  10:40:02  -7.72  -6.11  -226.228872            +0.0,-0.0,-0.1
iter:  60  10:40:37  -7.55  -6.23  -226.228872            +0.0,-0.0,-0.0
iter:  61  10:41:12  -7.23  -6.26  -226.228872            +0.0,-0.0,-0.0
iter:  62  10:41:46  -8.06  -6.23  -226.228872            +0.0,-0.0,-0.0
iter:  63  10:42:21  -7.36  -6.14  -226.228872            -0.0,-0.0,-0.0
iter:  64  10:42:56  -7.50  -6.31  -226.228872            -0.0,-0.0,-0.0
iter:  65  10:43:30  -8.59  -6.56  -226.228872            -0.0,-0.0,-0.0
iter:  66  10:44:05  -9.32  -6.59  -226.228872            -0.0,-0.0,-0.0
iter:  67  10:44:40  -8.72  -6.76  -226.228872            -0.0,-0.0,-0.0
iter:  68  10:45:14  -7.52  -6.74  -226.228872            -0.0,-0.0,+0.0
iter:  69  10:45:49  -9.21  -6.55  -226.228872            -0.0,-0.0,-0.0
iter:  70  10:46:24  -9.35  -6.62  -226.228872            -0.0,-0.0,+0.0
iter:  71  10:46:59  -8.59  -6.57  -226.228872            -0.0,-0.0,-0.0
iter:  72  10:47:33  -8.80  -6.80  -226.228872            -0.0,-0.0,-0.0
iter:  73  10:48:08  -7.82  -6.77  -226.228872            -0.0,-0.0,+0.0
iter:  74  10:48:42  -8.60  -6.73  -226.228872            -0.0,-0.0,+0.0
iter:  75  10:49:17  -9.26  -6.66  -226.228872            -0.0,-0.0,+0.0
iter:  76  10:49:52  -7.29  -6.68  -226.228872            -0.0,-0.0,+0.0
iter:  77  10:50:26  -7.61  -6.66  -226.228872            -0.0,-0.0,+0.0
iter:  78  10:51:01  -8.97  -6.54  -226.228872            -0.0,-0.0,+0.0
iter:  79  10:51:36  -8.18  -6.76  -226.228872            -0.0,-0.0,+0.0
iter:  80  10:52:11  -6.96  -6.86  -226.228872            -0.0,-0.0,+0.0
iter:  81  10:52:45  -8.11  -6.45  -226.228872            -0.0,-0.0,+0.0
iter:  82  10:53:20  -8.64  -6.60  -226.228872            -0.0,-0.0,+0.0
iter:  83  10:53:55  -7.89  -6.69  -226.228872            -0.0,-0.0,+0.0
iter:  84  10:54:29  -7.87  -6.74  -226.228872            -0.0,-0.0,+0.0
iter:  85  10:55:04  -8.79  -6.82  -226.228872            -0.0,-0.0,+0.0
iter:  86  10:55:38  -9.44  -6.85  -226.228872            -0.0,-0.0,+0.0
iter:  87  10:56:13  -8.51  -7.01  -226.228873            -0.0,-0.0,+0.0
iter:  88  10:56:48  -9.11  -6.86  -226.228873            -0.0,-0.0,+0.0
iter:  89  10:57:22  -7.43  -6.83  -226.228872            -0.0,-0.0,+0.0
iter:  90  10:57:57  -8.10  -6.94  -226.228872            -0.0,-0.0,+0.0
iter:  91  10:58:32  -8.49  -7.03  -226.228872            -0.0,-0.0,+0.0
iter:  92  10:59:06  -8.57  -7.25  -226.228872            -0.0,-0.0,+0.0
iter:  93  10:59:41  -7.34  -7.11  -226.228873            -0.0,-0.0,+0.0
iter:  94  11:00:15  -7.62  -6.61  -226.228873            -0.0,-0.0,+0.0
iter:  95  11:00:50  -7.53  -6.66  -226.228873            -0.0,-0.0,+0.0
iter:  96  11:01:25  -7.27  -6.49  -226.228873            -0.0,-0.0,+0.0
iter:  97  11:01:59  -8.75  -6.82  -226.228873            -0.0,-0.0,+0.0
iter:  98  11:02:34  -8.82  -6.98  -226.228873            -0.0,-0.0,+0.0
iter:  99  11:03:08  -9.63  -7.00  -226.228873            -0.0,-0.0,+0.0
iter: 100  11:03:43  -9.87  -7.05  -226.228873            -0.0,-0.0,+0.0
iter: 101  11:04:18  -8.62  -7.00  -226.228873            -0.0,-0.0,+0.0
iter: 102  11:04:52  -8.45  -7.17  -226.228873            -0.0,-0.0,+0.0
iter: 103  11:05:27  -8.80  -7.01  -226.228873            -0.0,-0.0,+0.0
iter: 104  11:06:01  -8.33  -7.13  -226.228873            -0.0,-0.0,+0.0
iter: 105  11:06:35  -9.51  -6.95  -226.228873            -0.0,-0.0,+0.0
iter: 106  11:07:10  -8.64  -7.00  -226.228873            -0.0,-0.0,+0.0
iter: 107  11:07:44  -8.95  -6.93  -226.228873            -0.0,-0.0,+0.0
iter: 108  11:08:18  -8.96  -6.85  -226.228873            -0.0,-0.0,+0.0
iter: 109  11:08:53  -8.32  -6.92  -226.228874            -0.0,-0.0,+0.0
iter: 110  11:09:27  -9.23  -7.04  -226.228874            -0.0,-0.0,+0.0
iter: 111  11:10:02  -8.30  -7.11  -226.228874            -0.0,-0.0,+0.0
iter: 112  11:10:36  -8.28  -7.17  -226.228874            -0.0,-0.0,+0.0
iter: 113  11:11:10  -8.60  -7.33  -226.228874            -0.0,-0.0,+0.0
iter: 114  11:11:45  -8.98  -7.26  -226.228874            -0.0,-0.0,+0.0
iter: 115  11:12:19  -9.52  -7.23  -226.228874            -0.0,-0.0,+0.0
iter: 116  11:12:53  -8.81  -7.46  -226.228874            -0.0,-0.0,+0.0
iter: 117  11:13:28  -8.21  -7.51  -226.228874            -0.0,+0.0,+0.0
iter: 118  11:14:02  -8.91  -7.40  -226.228874            -0.0,+0.0,+0.0
iter: 119  11:14:36  -9.31  -7.35  -226.228874            -0.0,+0.0,+0.0
iter: 120  11:15:11  -9.50  -7.45  -226.228874            -0.0,+0.0,+0.0
iter: 121  11:15:45  -9.59  -7.28  -226.228874            -0.0,+0.0,+0.0
iter: 122  11:16:19  -8.50  -7.59  -226.228874            -0.0,+0.0,+0.0
iter: 123  11:16:53  -8.34  -7.85  -226.228874            -0.0,+0.0,+0.0
iter: 124  11:17:28  -8.50  -7.58  -226.228874            -0.0,+0.0,+0.0
iter: 125  11:18:02  -7.43  -7.37  -226.228875            -0.0,+0.0,+0.0
iter: 126  11:18:37  -8.15  -6.93  -226.228875            -0.0,+0.0,+0.0
iter: 127  11:19:11  -8.43  -6.82  -226.228875            -0.0,+0.0,+0.0
iter: 128  11:19:45  -8.72  -7.14  -226.228875            -0.0,+0.0,+0.0
iter: 129  11:20:20  -8.89  -7.45  -226.228875            -0.0,+0.0,+0.0
iter: 130  11:20:54  -8.31  -7.41  -226.228875            -0.0,+0.0,+0.0
iter: 131  11:21:28  -9.31  -7.32  -226.228875            -0.0,+0.0,+0.0
iter: 132  11:22:02  -9.68  -7.33  -226.228875            -0.0,+0.0,+0.0
iter: 133  11:22:37  -8.45  -7.11  -226.228875            -0.0,+0.0,+0.0
iter: 134  11:23:11  -7.38  -7.47  -226.228876            -0.0,+0.0,+0.0
iter: 135  11:23:45  -6.89  -6.88  -226.228877            -0.0,+0.0,+0.0
iter: 136  11:24:20  -6.96  -6.49  -226.228879            -0.0,+0.0,-0.0
iter: 137  11:24:54  -7.40  -6.31  -226.228879            -0.0,+0.0,-0.0
iter: 138  11:25:28  -6.84  -6.21  -226.228878            -0.0,+0.0,+0.0
iter: 139  11:26:02  -6.73  -6.61  -226.228880            -0.0,+0.0,-0.0
iter: 140  11:26:37  -7.89  -6.49  -226.228879            -0.0,+0.0,-0.0
iter: 141  11:27:11  -8.56  -6.14  -226.228880            -0.0,+0.0,-0.0
iter: 142  11:27:45  -8.49  -7.14  -226.228879            -0.0,+0.0,-0.0
iter: 143  11:28:19  -7.20  -7.19  -226.228880            -0.0,+0.0,-0.0
iter: 144  11:28:54  -7.68  -6.95  -226.228881            -0.0,+0.0,-0.0
iter: 145  11:29:28  -6.89  -6.91  -226.228879            -0.0,+0.0,-0.0
iter: 146  11:30:02  -6.73  -6.23  -226.228881            -0.0,+0.0,-0.0
iter: 147  11:30:36  -8.18  -7.27  -226.228881            -0.0,+0.0,-0.0
iter: 148  11:31:10  -7.88  -7.05  -226.228881            -0.0,+0.0,-0.0
iter: 149  11:31:45  -7.55  -7.30  -226.228881            -0.0,+0.0,-0.0
iter: 150  11:32:19  -7.58  -7.45  -226.228882            -0.0,+0.0,-0.0
iter: 151  11:32:53  -7.21  -7.05  -226.228881            -0.0,+0.0,-0.0
iter: 152  11:33:27  -7.10  -7.41  -226.228882            -0.0,+0.0,-0.0
iter: 153  11:34:01  -8.39  -6.99  -226.228882            -0.0,+0.0,-0.0
iter: 154  11:34:35  -9.71  -7.00  -226.228882            -0.0,+0.0,-0.0
iter: 155  11:35:09  -9.79  -7.08  -226.228882            -0.0,+0.0,-0.0
iter: 156  11:35:43  -9.76  -7.38  -226.228882            -0.0,+0.0,-0.0
iter: 157  11:36:17  -7.87  -7.07  -226.228882            -0.0,+0.0,-0.0
iter: 158  11:36:51  -6.74  -7.42  -226.228883            -0.0,+0.0,-0.0
iter: 159  11:37:25  -7.37  -6.92  -226.228883            -0.0,+0.0,-0.0
iter: 160  11:37:59  -7.83  -6.75  -226.228883            -0.0,+0.0,-0.0
iter: 161  11:38:33  -7.44  -6.94  -226.228884            -0.0,+0.0,-0.0
iter: 162  11:39:07  -7.49  -6.99  -226.228884            +0.0,+0.0,-0.0
iter: 163  11:39:41  -7.68  -6.24  -226.228884            -0.0,+0.0,-0.0
iter: 164  11:40:15  -8.78  -7.14  -226.228884            -0.0,+0.0,-0.0
iter: 165  11:40:49  -9.02  -7.10  -226.228884            -0.0,+0.0,-0.0
iter: 166  11:41:23  -8.96  -7.09  -226.228884            -0.0,+0.0,-0.0
iter: 167  11:41:57  -8.12  -7.07  -226.228884            -0.0,+0.0,-0.0
iter: 168  11:42:31  -7.82  -7.13  -226.228884            -0.0,+0.0,-0.0
iter: 169  11:43:05  -6.84  -6.98  -226.228885            -0.0,+0.0,-0.0
iter: 170  11:43:39  -7.49  -6.91  -226.228885            -0.0,+0.0,-0.0
iter: 171  11:44:14  -8.10  -6.92  -226.228885            -0.0,+0.0,-0.0
iter: 172  11:44:48  -7.96  -6.73  -226.228885            -0.0,+0.0,-0.0
iter: 173  11:45:22  -7.83  -7.36  -226.228885            -0.0,+0.0,-0.0
iter: 174  11:45:56  -7.69  -7.23  -226.228885            -0.0,+0.0,-0.0
iter: 175  11:46:31  -9.20  -7.21  -226.228885            -0.0,+0.0,-0.0
iter: 176  11:47:05  -9.22  -6.93  -226.228885            +0.0,+0.0,-0.0
iter: 177  11:47:39  -9.52  -7.41  -226.228885            +0.0,+0.0,-0.0
iter: 178  11:48:13  -9.51  -7.44  -226.228885            +0.0,+0.0,-0.0
iter: 179  11:48:47  -8.10  -7.41  -226.228885            +0.0,+0.0,-0.0
iter: 180  11:49:21  -8.51  -7.25  -226.228885            +0.0,+0.0,-0.0
iter: 181  11:49:56  -8.59  -7.17  -226.228885            +0.0,+0.0,-0.0
iter: 182  11:50:30  -7.90  -7.39  -226.228885            +0.0,+0.0,+0.0
iter: 183  11:51:04  -8.27  -7.23  -226.228885            +0.0,+0.0,+0.0
iter: 184  11:51:38  -9.18  -7.06  -226.228885            +0.0,+0.0,+0.0
iter: 185  11:52:12  -8.74  -7.33  -226.228885            +0.0,+0.0,+0.0
iter: 186  11:52:46  -8.66  -7.41  -226.228885            +0.0,+0.0,+0.0
iter: 187  11:53:21  -9.36  -7.74  -226.228885            +0.0,+0.0,+0.0
iter: 188  11:53:55  -9.22  -7.59  -226.228886            +0.0,+0.0,+0.0
iter: 189  11:54:29  -9.35  -7.59  -226.228886            +0.0,+0.0,+0.0
iter: 190  11:55:03  -9.12  -7.59  -226.228877            +0.0,+0.0,+0.0
iter: 191  11:55:38  -7.65  -7.64  -226.228861            +0.0,-0.0,+0.0
iter: 192  11:56:12  -8.79  -7.34  -226.228871            +0.0,-0.0,+0.0
iter: 193  11:56:46  -9.36  -7.25  -226.228862            +0.0,-0.0,+0.0
iter: 194  11:57:20  -9.27  -7.52  -226.228853            +0.0,-0.0,+0.0
iter: 195  11:57:54  -9.62  -7.85  -226.228860            +0.0,-0.0,+0.0
iter: 196  11:58:28  -8.30  -7.83  -226.228865            +0.0,-0.0,+0.0
iter: 197  11:59:02  -9.39  -7.61  -226.228863            +0.0,-0.0,+0.0
iter: 198  11:59:37 -10.16  -7.54  -226.228866            +0.0,-0.0,+0.0
iter: 199  12:00:11  -9.09  -7.80  -226.228872            +0.0,-0.0,+0.0
iter: 200  12:00:45  -8.52  -7.83  -226.228857            +0.0,-0.0,+0.0
iter: 201  12:01:19  -9.42  -7.40  -226.228866            +0.0,-0.0,+0.0
iter: 202  12:01:53  -9.58  -7.81  -226.228865            +0.0,-0.0,+0.0
iter: 203  12:02:28  -9.87  -7.98  -226.228865            +0.0,-0.0,+0.0
iter: 204  12:03:02  -9.10  -7.98  -226.228864            +0.0,-0.0,+0.0
iter: 205  12:03:36  -8.60  -8.12  -226.228863            +0.0,-0.0,+0.0
iter: 206  12:04:10  -9.17  -7.93  -226.228862            +0.0,-0.0,+0.0
iter: 207  12:04:44  -9.54  -7.86  -226.228859            +0.0,-0.0,+0.0
iter: 208  12:05:18  -9.14  -7.77  -226.228860            +0.0,-0.0,+0.0
iter: 209  12:05:53  -9.77  -7.70  -226.228859            +0.0,-0.0,+0.0
iter: 210  12:06:27  -9.38  -7.71  -226.228859            +0.0,-0.0,+0.0
iter: 211  12:07:01  -9.48  -7.56  -226.228858            +0.0,-0.0,+0.0
iter: 212  12:07:35  -9.43  -8.01  -226.228860            +0.0,-0.0,+0.0
iter: 213  12:08:10  -7.78  -8.16  -226.228861            +0.0,-0.0,+0.0
iter: 214  12:08:44  -8.98  -7.50  -226.228855            +0.0,-0.0,+0.0
iter: 215  12:09:18  -9.39  -7.47  -226.228856            +0.0,-0.0,+0.0
iter: 216  12:09:52  -9.15  -7.71  -226.228851            +0.0,-0.0,+0.0
iter: 217  12:10:26  -9.18  -7.88  -226.228851            +0.0,-0.0,+0.0
iter: 218  12:11:01  -8.74  -7.76  -226.228848            +0.0,-0.0,+0.0
iter: 219  12:11:35  -9.51  -7.60  -226.228853            +0.0,-0.0,+0.0
iter: 220  12:12:09  -9.63  -7.58  -226.228858            +0.0,-0.0,+0.0
iter: 221  12:12:43  -8.98  -7.64  -226.228853            +0.0,-0.0,+0.0
iter: 222  12:13:17  -8.96  -7.56  -226.228877            +0.0,-0.0,+0.0
iter: 223  12:13:51  -8.01  -7.39  -226.228860            +0.0,-0.0,+0.0
iter: 224  12:14:26  -8.77  -7.44  -226.228838            +0.0,-0.0,+0.0
iter: 225  12:15:00  -9.17  -7.30  -226.228862            +0.0,-0.0,+0.0
iter: 226  12:15:34  -9.41  -7.89  -226.228854            +0.0,-0.0,+0.0
iter: 227  12:16:08 -10.55  -7.71  -226.228856            +0.0,-0.0,+0.0
iter: 228  12:16:42 -11.52  -7.71  -226.228868            +0.0,-0.0,+0.0
iter: 229  12:17:16 -10.56  -7.85  -226.228881            +0.0,-0.0,+0.0
iter: 230  12:17:50  -9.50  -7.96  -226.228874            +0.0,-0.0,+0.0
iter: 231  12:18:24  -9.40  -7.98  -226.228876            +0.0,-0.0,+0.0
iter: 232  12:18:58  -9.10  -8.00  -226.228880            +0.0,-0.0,+0.0
iter: 233  12:19:33  -8.17  -7.96  -226.228880            +0.0,-0.0,+0.0
iter: 234  12:20:07  -9.41  -7.68  -226.228883            +0.0,-0.0,+0.0
iter: 235  12:20:41 -10.40  -7.69  -226.228885            +0.0,-0.0,+0.0
iter: 236  12:21:15 -10.83  -8.08  -226.228885            +0.0,-0.0,+0.0
iter: 237  12:21:49 -10.75  -8.08  -226.228886            +0.0,-0.0,+0.0
iter: 238  12:22:23 -10.57  -8.09  -226.228894            +0.0,-0.0,+0.0
iter: 239  12:22:57 -11.19  -8.07  -226.228886            +0.0,-0.0,+0.0
iter: 240  12:23:32  -9.85  -8.11  -226.228883            +0.0,-0.0,+0.0
iter: 241  12:24:06  -8.86  -8.13  -226.228875            +0.0,-0.0,+0.0
iter: 242  12:24:40  -9.17  -7.88  -226.228867            +0.0,-0.0,+0.0
iter: 243  12:25:14 -10.27  -7.67  -226.228874            +0.0,-0.0,+0.0
iter: 244  12:25:48  -9.38  -7.64  -226.228897            +0.0,-0.0,+0.0
iter: 245  12:26:22 -10.19  -7.56  -226.228860            +0.0,-0.0,+0.0
iter: 246  12:26:56 -10.65  -7.80  -226.228860            +0.0,-0.0,+0.0
iter: 247  12:27:30  -9.71  -7.97  -226.228878            +0.0,-0.0,+0.0
iter: 248  12:28:04  -9.87  -8.02  -226.228873            +0.0,-0.0,+0.0
iter: 249  12:28:39  -9.41  -7.91  -226.228887            +0.0,-0.0,+0.0
iter: 250  12:29:13  -9.82  -8.09  -226.228891            +0.0,-0.0,+0.0
iter: 251  12:29:47 -10.30  -8.11  -226.228886            +0.0,-0.0,+0.0
iter: 252  12:30:21  -9.78  -8.13  -226.228887            +0.0,-0.0,+0.0
iter: 253  12:30:55  -9.78  -8.18  -226.228893            +0.0,-0.0,+0.0
iter: 254  12:31:29 -10.38  -8.15  -226.228895            +0.0,-0.0,+0.0
iter: 255  12:32:03 -10.46  -8.16  -226.228894            +0.0,-0.0,+0.0
iter: 256  12:32:38 -10.41  -8.11  -226.228896            +0.0,-0.0,+0.0
iter: 257  12:33:12 -11.07  -7.97  -226.228899            +0.0,-0.0,+0.0
iter: 258  12:33:46 -10.73  -7.92  -226.228888            +0.0,-0.0,+0.0
iter: 259  12:34:20  -9.13  -8.20  -226.228887            +0.0,-0.0,+0.0
iter: 260  12:34:54 -10.11  -8.26  -226.228886            +0.0,-0.0,+0.0
iter: 261  12:35:29 -10.56  -8.27  -226.228886            +0.0,-0.0,+0.0
iter: 262  12:36:03  -9.83  -8.33  -226.228887            +0.0,-0.0,+0.0
iter: 263  12:36:37  -9.57  -8.33  -226.228887            +0.0,+0.0,+0.0
iter: 264  12:37:11  -9.57  -8.17  -226.228886            +0.0,+0.0,+0.0
iter: 265  12:37:45  -9.91  -8.14  -226.228889            +0.0,+0.0,+0.0
iter: 266  12:38:19  -9.05  -8.06  -226.228888            +0.0,+0.0,+0.0
iter: 267  12:38:53 -10.04  -8.17  -226.228888            +0.0,+0.0,+0.0
iter: 268  12:39:27 -11.12  -8.14  -226.228889            +0.0,+0.0,+0.0
iter: 269  12:40:02 -10.09  -8.18  -226.228889            +0.0,+0.0,+0.0
iter: 270  12:40:36 -11.48  -8.31  -226.228889            +0.0,+0.0,+0.0
iter: 271  12:41:10 -11.49  -8.28  -226.228887            +0.0,+0.0,+0.0
iter: 272  12:41:44 -11.00  -8.29  -226.228887            +0.0,+0.0,+0.0
iter: 273  12:42:18 -10.16  -8.36  -226.228884            +0.0,+0.0,+0.0
iter: 274  12:42:52  -9.85  -8.68  -226.228883            +0.0,+0.0,+0.0
iter: 275  12:43:26  -9.86  -8.62  -226.228884            +0.0,+0.0,+0.0
iter: 276  12:44:00  -9.13  -8.61  -226.228886            +0.0,+0.0,+0.0
iter: 277  12:44:34  -9.05  -8.65  -226.228886            +0.0,+0.0,+0.0
iter: 278  12:45:08 -10.80  -8.51  -226.228887            +0.0,+0.0,+0.0
iter: 279  12:45:42 -10.88  -8.57  -226.228887            +0.0,+0.0,+0.0
iter: 280  12:46:16 -10.39  -8.52  -226.228887            +0.0,+0.0,+0.0
iter: 281  12:46:50  -9.73  -8.67  -226.228887            +0.0,+0.0,+0.0
iter: 282  12:47:24 -10.09  -8.46  -226.228887            +0.0,+0.0,+0.0
iter: 283  12:47:58 -11.09  -7.81  -226.228887            +0.0,+0.0,+0.0
iter: 284  12:48:32 -10.49  -8.63  -226.228886            +0.0,+0.0,+0.0
iter: 285  12:49:06 -11.76  -8.54  -226.228886            +0.0,+0.0,+0.0
iter: 286  12:49:40 -12.55  -8.18  -226.228886            +0.0,+0.0,+0.0
iter: 287  12:50:14 -12.05  -8.41  -226.228887            +0.0,+0.0,+0.0
iter: 288  12:50:49 -11.48  -8.44  -226.228885            +0.0,+0.0,+0.0
iter: 289  12:51:23  -9.47  -8.47  -226.228887            +0.0,-0.0,+0.0
iter: 290  12:51:57 -10.35  -8.91  -226.228886            +0.0,-0.0,+0.0
iter: 291  12:52:31 -10.61  -8.84  -226.228885            +0.0,-0.0,+0.0
iter: 292  12:53:05 -10.16  -8.82  -226.228884            +0.0,-0.0,+0.0
iter: 293  12:53:39 -10.21  -8.77  -226.228884            +0.0,-0.0,+0.0
iter: 294  12:54:13  -9.86  -7.79  -226.228885            +0.0,-0.0,+0.0
iter: 295  12:54:47  -9.72  -8.79  -226.228885            +0.0,-0.0,+0.0
iter: 296  12:55:21 -10.74  -8.80  -226.228885            +0.0,-0.0,+0.0
iter: 297  12:55:55 -10.76  -8.82  -226.228885            +0.0,-0.0,+0.0
iter: 298  12:56:29 -11.94  -8.77  -226.228886            +0.0,-0.0,+0.0
iter: 299  12:57:03 -11.88  -8.62  -226.228885            +0.0,-0.0,+0.0
iter: 300  12:57:37 -10.51  -8.61  -226.228886            +0.0,-0.0,+0.0
iter: 301  12:58:11 -11.01  -8.79  -226.228885            +0.0,-0.0,+0.0
iter: 302  12:58:45 -10.49  -8.74  -226.228886            +0.0,-0.0,+0.0
iter: 303  12:59:20 -10.84  -8.82  -226.228885            +0.0,-0.0,+0.0
iter: 304  12:59:53  -9.27  -8.80  -226.228885            +0.0,-0.0,+0.0
iter: 305  13:00:27  -9.37  -8.48  -226.228885            +0.0,-0.0,+0.0
iter: 306  13:01:01 -10.13  -8.79  -226.228885            +0.0,-0.0,+0.0
iter: 307  13:01:36 -10.92  -8.88  -226.228885            +0.0,-0.0,+0.0
iter: 308  13:02:09 -11.33  -8.98  -226.228885            +0.0,-0.0,+0.0
iter: 309  13:02:43 -10.01  -8.95  -226.228885            +0.0,-0.0,+0.0
iter: 310  13:03:17 -10.02  -8.66  -226.228885            +0.0,-0.0,+0.0
iter: 311  13:03:51 -10.82  -8.65  -226.228885            +0.0,-0.0,+0.0
iter: 312  13:04:25 -10.79  -9.01  -226.228885            +0.0,-0.0,+0.0

Converged after 312 iterations.

Dipole moment: (-0.201539, -0.009035, 2.032314) |e|*Ang

Total magnetic moment: (0.000389, -0.000108, 0.004742)
Local magnetic moments:
   0 O  (-0.002086, -0.000078,  0.000225)
   1 O  ( 0.002118,  0.000070,  0.000249)
   2 O  (-0.003042, -0.000105, -0.000187)
   3 O  ( 0.003047,  0.000110, -0.000168)
   4 O  (-0.003016,  0.000082, -0.000186)
   5 O  ( 0.003021, -0.000089, -0.000167)
   6 O  (-0.002074,  0.000059,  0.000227)
   7 O  ( 0.002106, -0.000053,  0.000251)
   8 O  (-0.028695, -0.000143, -0.000110)
   9 O  ( 0.028845,  0.000144,  0.000376)
  10 O  ( 0.028619,  0.000120,  0.000071)
  11 O  (-0.028597, -0.000120, -0.000265)
  12 Mn (-4.446178, -0.022259, -0.021712)
  13 Mn ( 4.445862,  0.022243,  0.054479)
  14 Mn ( 4.446689,  0.018508,  0.010931)
  15 Mn (-4.446228, -0.018589, -0.039509)
  16 P  (-0.002405, -0.000008,  0.000134)
  17 P  ( 0.002416,  0.000008,  0.000146)
  18 P  ( 0.000733,  0.000008, -0.000124)
  19 P  (-0.000666, -0.000008, -0.000170)
  20 O  (-0.024534, -0.000122, -0.000301)
  21 O  ( 0.024495,  0.000122,  0.000126)
  22 O  ( 0.025941,  0.000109,  0.000200)
  23 O  (-0.026056, -0.000110, -0.000090)
  24 Li ( 0.000065, -0.000002,  0.000000)
  25 Li (-0.000073,  0.000002,  0.000000)
  26 Li ( 0.000065,  0.000002,  0.000000)
  27 Li (-0.000073, -0.000003,  0.000000)

Energy contributions relative to reference atoms: (reference = -196157.275402)

Kinetic:       +217.625464
Potential:     -195.455088
External:        +0.000000
XC:            -250.440004
Entropy (-ST):   -0.000000
Local:           +2.040742
--------------------------
Free energy:   -226.228885
Extrapolated:  -226.228885

Showing only first 2 kpts
 Kpt  Band  Eigenvalues  Occupancy
  0    88     -2.04643    1.00000
  0    89     -2.03172    1.00000
  0    90     -1.95380    1.00000
  0    91     -1.94178    1.00000

  1    88     -2.17361    1.00000
  1    89     -2.16195    1.00000
  1    90     -2.11663    1.00000
  1    91     -2.09039    1.00000


Fermi level: 6.20676

Gap: 1.961 eV
Transition (v -> c):
  (s=0, k=51, n=179, [0.12, -0.38, 0.08]) -> (s=0, k=63, n=180, [0.12, 0.12, 0.08])

Forces in eV/Ang:
  0 O     0.02912    0.00855   -0.15962
  1 O    -0.03454   -0.00866   -0.15954
  2 O     0.02721   -0.00306   -0.14000
  3 O    -0.03342    0.00321   -0.14205
  4 O     0.02729    0.00307   -0.13998
  5 O    -0.03354   -0.00322   -0.14203
  6 O     0.02913   -0.00842   -0.15953
  7 O    -0.03455    0.00855   -0.15943
  8 O     0.00065   -0.00001   -0.13300
  9 O    -0.00629    0.00001   -0.13125
 10 O     0.00480    0.00000   -0.14906
 11 O    -0.00889    0.00000   -0.14871
 12 Mn   -0.00616   -0.00003    0.22302
 13 Mn   -0.00143    0.00003    0.22428
 14 Mn    0.00431    0.00004    0.21143
 15 Mn   -0.01213   -0.00004    0.21238
 16 P    -0.02570   -0.00004    0.35374
 17 P     0.01977    0.00003    0.35262
 18 P     0.04970   -0.00003    0.31258
 19 P     0.02293    0.00004    0.31258
 20 O    -0.02812    0.00003   -0.24524
 21 O     0.02334   -0.00003   -0.24592
 22 O    -0.01540   -0.00006   -0.24511
 23 O     0.01232    0.00006   -0.24422
 24 Li   -0.00428    0.00580    0.13459
 25 Li   -0.00090   -0.00560    0.13630
 26 Li   -0.00426   -0.00581    0.13456
 27 Li   -0.00089    0.00558    0.13630

Timing:                              incl.     excl.
-----------------------------------------------------------
Forces:                              4.388     4.388   0.0% |
Hamiltonian:                         0.704     0.004   0.0% |
 Atomic:                             0.135     0.135   0.0% |
  XC Correction:                     0.000     0.000   0.0% |
 Calculate atomic Hamiltonians:      0.265     0.265   0.0% |
 Communicate:                        0.000     0.000   0.0% |
 Initialize Hamiltonian:             0.001     0.001   0.0% |
 Poisson:                            0.002     0.002   0.0% |
 XC 3D grid:                         0.297     0.297   0.0% |
LCAO initialization:                64.927     0.367   0.0% |
 LCAO eigensolver:                  11.310     0.003   0.0% |
  DenseAtomicCorrection:             0.017     0.017   0.0% |
  Distribute overlap matrix:         0.001     0.001   0.0% |
  Orbital Layouts:                   0.060     0.060   0.0% |
  Potential matrix:                 11.189    11.189   0.1% |
  Sum over cells:                    0.040     0.040   0.0% |
 LCAO to grid:                      52.251    52.251   0.5% |
 Set positions (LCAO WFS):           1.000     0.206   0.0% |
  Basic WFS set positions:           0.001     0.001   0.0% |
  Basis functions set positions:     0.000     0.000   0.0% |
  P tci:                             0.403     0.403   0.0% |
  ST tci:                            0.299     0.299   0.0% |
  mktci:                             0.091     0.091   0.0% |
PWDescriptor:                        0.246     0.246   0.0% |
SCF-cycle:                       10734.726  3137.069  29.0% |-----------|
 Davidson:                        6196.391   667.080   6.2% |-|
  Apply H:                         983.253   983.253   9.1% |---|
  Subspace diag:                  1312.547     0.138   0.0% |
   calc_h_matrix:                 1114.073   124.333   1.2% |
    Apply H:                       989.741   989.741   9.2% |---|
   diagonalize:                     10.810    10.810   0.1% |
   rotate_psi:                     187.526   187.526   1.7% ||
  calc. matrices:                 2655.850   707.973   6.6% |--|
   Apply H:                       1947.877  1947.877  18.0% |------|
  diagonalize:                     222.498   222.498   2.1% ||
  rotate_psi:                      355.162   355.162   3.3% ||
 Density:                         1196.302     0.009   0.0% |
  Atomic density matrices:          36.621    36.621   0.3% |
  Mix:                             108.746   108.746   1.0% |
  Multipole moments:                 0.177     0.177   0.0% |
  Pseudo density:                 1050.749  1050.725   9.7% |---|
   Symmetrize density:               0.024     0.024   0.0% |
 Hamiltonian:                      204.033     1.296   0.0% |
  Atomic:                           20.381    20.380   0.2% |
   XC Correction:                    0.001     0.001   0.0% |
  Calculate atomic Hamiltonians:    86.435    86.435   0.8% |
  Communicate:                       0.073     0.073   0.0% |
  Poisson:                           1.268     1.268   0.0% |
  XC 3D grid:                       94.580    94.580   0.9% |
 Orthonormalize:                     0.932     0.001   0.0% |
  calc_s_matrix:                     0.200     0.200   0.0% |
  inverse-cholesky:                  0.009     0.009   0.0% |
  projections:                       0.416     0.416   0.0% |
  rotate_psi_s:                      0.306     0.306   0.0% |
Set symmetry:                        0.000     0.000   0.0% |
Other:                               2.976     2.976   0.0% |
-----------------------------------------------------------
Total:                                     10807.968 100.0%

Memory usage: 857.24 MiB
Date: Fri Jun 24 13:04:29 2022
