
  ___ ___ ___ _ _ _  
 |   |   |_  | | | | 
 | | | | | . | | | | 
 |__ |  _|___|_____|  21.6.1b1
 |___|_|             

User:   madkru@a104.nifl.fysik.dtu.dk
Date:   Sat Jun 25 04:50:42 2022
Arch:   x86_64
Pid:    4971
Python: 3.8.6
gpaw:   /home/niflheim/madkru/new_venv/gpaw/gpaw (1f0dfc9eae)
_gpaw:  /home/niflheim/madkru/new_venv/gpaw/build/lib.linux-x86_64-skylake-3.8/
        _gpaw.cpython-38-x86_64-linux-gnu.so (c1e45bfab3)
ase:    /home/niflheim/madkru/new_venv/ase/ase (version 3.23.0b1-ca38c75a67)
numpy:  /home/modules/software/SciPy-bundle/2020.11-foss-2020b/lib/python3.8/site-packages/numpy (version 1.19.4)
scipy:  /home/modules/software/SciPy-bundle/2020.11-foss-2020b/lib/python3.8/site-packages/scipy (version 1.5.4)
libxc:  4.3.4
units:  Angstrom and eV
cores: 40
OpenMP: False
OMP_NUM_THREADS: 1

Input parameters:
  convergence: {density: 1e-09}
  experimental: {magmoms: [[0. 0. 0.]
 [0. 0. 0.]
 [0. 0. 0.]
 ...
 [0. 0. 0.]
 [0. 0. 0.]
 [0. 0. 0.]],
                 soc: True}
  kpts: [4 4 6]
  maxiter: 5000
  mixer: {backend: pulay,
          beta: 0.05,
          method: difference,
          nmaxold: 3,
          weight: 100}
  mode: {ecut: 600.0,
         gammacentered: False,
         name: pw}
  occupations: {fixmagmom: False,
                name: fermi-dirac,
                width: 0.001}
  symmetry: off

System changes: positions, numbers, cell, pbc, initial_charges, initial_magmoms 

Initialize ...

O-setup:
  name: Oxygen
  id: 9b9d51c344dea68c822856295a461509
  Z: 8.0
  valence: 6
  core: 2
  charge: 0.0
  file: /home/modules/software/GPAW-setups/0.9.20000/O.LDA.gz
  compensation charges: gauss, rc=0.21, lmax=2
  cutoffs: 1.17(filt), 0.83(core),
  valence states:
                energy  radius
    2s(2.00)   -23.752   0.688
    2p(4.00)    -9.195   0.598
    *s           3.459   0.688
    *p          18.016   0.598
    *d           0.000   0.619

  Using partial waves for O as LCAO basis

Mn-setup:
  name: Manganese
  id: 0d715a8018be061a6e9ea6f2d364ac92
  Z: 25.0
  valence: 15
  core: 10
  charge: 0.0
  file: /home/modules/software/GPAW-setups/0.9.20000/Mn.LDA.gz
  compensation charges: gauss, rc=0.38, lmax=2
  cutoffs: 2.14(filt), 0.86(core),
  valence states:
                energy  radius
    3s(2.00)   -85.387   1.275
    4s(2.00)    -5.282   1.275
    3p(6.00)   -54.493   1.281
    4p(0.00)    -1.471   1.281
    3d(5.00)    -7.009   1.138
    *d          20.203   1.138

  Using partial waves for Mn as LCAO basis

P-setup:
  name: Phosphorus
  id: a5561c299094968922a179ab894d2e2d
  Z: 15.0
  valence: 5
  core: 10
  charge: 0.0
  file: /home/modules/software/GPAW-setups/0.9.20000/P.LDA.gz
  compensation charges: gauss, rc=0.30, lmax=2
  cutoffs: 1.69(filt), 1.81(core),
  valence states:
                energy  radius
    3s(2.00)   -14.015   0.953
    3p(3.00)    -5.596   0.953
    *s          13.197   0.953
    *p          21.615   0.953
    *d           0.000   0.953

  Using partial waves for P as LCAO basis

Li-setup:
  name: Lithium
  id: b73562207f97a71b6967473b66fe8b65
  Z: 3.0
  valence: 1
  core: 2
  charge: 0.0
  file: /home/modules/software/GPAW-setups/0.9.20000/Li.LDA.gz
  compensation charges: gauss, rc=0.33, lmax=2
  cutoffs: 1.91(filt), 2.55(core),
  valence states:
                energy  radius
    2s(1.00)    -2.874   1.058
    2p(0.00)    -1.126   1.058
    *s          24.338   1.058

  Using partial waves for Li as LCAO basis

Reference energy: -196157.275402

Non-collinear calculation.
Magnetic moment: (0.000000, 0.000000, 0.000000)

Convergence criteria:
  Maximum total energy change: 0.0005 eV / electron
  Maximum integral of absolute density change: 1e-09 electrons
  Maximum integral of absolute eigenstate change: 4e-08 eV^2
  Maximum number of iterations: 5000

Symmetries present (total): 1

  ( 1  0  0)
  ( 0  1  0)
  ( 0  0  1)

96 k-points: 4 x 4 x 6 Monkhorst-Pack grid
96 k-points in the irreducible part of the Brillouin zone
       k-points in crystal coordinates                weights
   0:    -0.37500000   -0.37500000   -0.41666667          1/96
   1:    -0.37500000   -0.37500000   -0.25000000          1/96
   2:    -0.37500000   -0.37500000   -0.08333333          1/96
   3:    -0.37500000   -0.37500000    0.08333333          1/96
   4:    -0.37500000   -0.37500000    0.25000000          1/96
   5:    -0.37500000   -0.37500000    0.41666667          1/96
   6:    -0.37500000   -0.12500000   -0.41666667          1/96
   7:    -0.37500000   -0.12500000   -0.25000000          1/96
   8:    -0.37500000   -0.12500000   -0.08333333          1/96
   9:    -0.37500000   -0.12500000    0.08333333          1/96
          ...
  95:     0.37500000    0.37500000    0.41666667          1/96

Wave functions: Plane wave expansion
  Cutoff energy: 600.000 eV
  Number of coefficients (min, max): 10065, 10119
  Pulay-stress correction: 0.000000 eV/Ang^3 (de/decut=0.000000)
  Using FFTW library
  ScaLapack parameters: grid=1x1, blocksize=None
  Wavefunction extrapolation:
    Improved wavefunction reuse through dual PAW basis 

Occupation numbers: Fermi-Dirac: width=0.0010 eV
 

Eigensolver
   Davidson(niter=2) 

Densities:
  Coarse grid: 60*35*27 grid
  Fine grid: 120*70*54 grid
  Total Charge: 0.000000 

Density mixing:
  Method: difference
  Backend: pulay
  Linear mixing parameter: 0.05
  Mixing with 3 old densities
  Damping of long wave oscillations: 100 

Hamiltonian:
  XC and Coulomb potentials evaluated on a 120*70*54 grid
  Using the LDA Exchange-Correlation functional
  External potential:
    <gpaw.external.NoExternalPotential object at 0x2ad07484b730>
 

Memory estimate:
  Process memory now: 1059.62 MiB
  Calculator: 167.16 MiB
    Density: 37.88 MiB
      Arrays: 11.25 MiB
      Localized functions: 18.84 MiB
      Mixer: 7.79 MiB
    Hamiltonian: 7.90 MiB
      Arrays: 7.35 MiB
      XC: 0.00 MiB
      Poisson: 0.00 MiB
      vbar: 0.54 MiB
    Wavefunctions: 121.39 MiB
      Arrays psit_nG: 69.17 MiB
      Eigensolver: 43.02 MiB
      Projections: 2.41 MiB
      Projectors: 4.31 MiB
      PW-descriptor: 2.47 MiB

Total number of cores used: 40
Parallelization over k-points: 40

Number of atoms: 28
Number of atomic orbitals: 148
Number of bands in calculation: 224
Number of valence electrons: 180
Bands to converge: occupied

... initialized

Initializing position-dependent things.

Density initialized from atomic densities
Creating initial wave functions:
  148 bands from LCAO basis set
  76 bands from random numbers

     .-------------------------.  
    /|             P  O        |  
   / |   O      O              |  
  /  |              OMn      O |  
 *   |P O   O           Mn     |  
 |   | O        Li       O     |  
 |   Li-Mn----------O----OP----.  
 | O/      On Li              /   
 | /i           O      O     /    
 |/       O  P              /     
 *-------------------------*      

Positions:
   0 O      3.491633    0.291306    0.987973    ( 0.0000,  0.0000,  0.0000)
   1 O      1.737611    5.808553    3.357446    ( 0.0000,  0.0000,  0.0000)
   2 O      6.962767    3.339803    3.731467    ( 0.0000,  0.0000,  0.0000)
   3 O      8.728789    2.759948    1.361552    ( 0.0000,  0.0000,  0.0000)
   4 O      6.963024    5.809515    3.731562    ( 0.0000,  0.0000, -3.0000)
   5 O      8.728533    0.290736    1.361643    ( 0.0000,  0.0000,  3.0000)
   6 O      3.491960    2.759517    0.988042    ( 0.0000,  0.0000,  3.0000)
   7 O      1.737280    3.340626    3.357515    ( 0.0000,  0.0000, -3.0000)
   8 O      0.444054    1.525131    1.399018    ( 0.0000,  0.0000,  0.0000)
   9 O      4.787609    4.574869    3.769962    ( 0.0000,  0.0000,  0.0000)
  10 O     10.018311    4.574835    3.326392    ( 0.0000,  0.0000,  0.0000)
  11 O      5.670863    1.525168    0.956415    ( 0.0000,  0.0000,  0.0000)
  12 Mn     2.284538    1.524804    2.459733    ( 0.0000,  0.0000,  0.0000)
  13 Mn     2.944855    4.575196    0.089079    ( 5.0000,  0.0000,  0.0000)
  14 Mn     8.174796    4.575124    2.303643    (-5.0000,  0.0000,  0.0000)
  15 Mn     7.515439    1.524878    4.674808    (-5.0000,  0.0000,  0.0000)
  16 P      4.233453    1.525351    0.369170    ( 5.0000,  0.0000,  0.0000)
  17 P      0.995581    4.574651    2.738730    ( 0.0000,  0.0000,  0.0000)
  18 P      6.225463    4.574696    4.365107    ( 0.0000,  0.0000,  0.0000)
  19 P      9.466963    1.525305    1.995047    ( 0.0000,  0.0000,  0.0000)
  20 O      4.211371    1.525298    3.568033    ( 0.0000,  0.0000,  0.0000)
  21 O      1.017288    4.574706    1.197649    ( 0.0000,  0.0000,  0.0000)
  22 O      6.253884    4.574698    1.157594    ( 0.0000,  0.0000,  0.0000)
  23 O      9.437985    1.525301    3.527478    ( 0.0000,  0.0000,  0.0000)
  24 Li     0.000099   -0.008181    0.025904    ( 0.0000,  0.0000,  0.0000)
  25 Li     5.227868    0.007944    2.396683    ( 0.0000,  0.0000,  0.0000)
  26 Li     0.000154    3.058039    0.025760    ( 0.0000,  0.0000,  0.0000)
  27 Li     5.227828    3.042183    2.396553    ( 0.0000,  0.0000,  0.0000)

Unit cell:
           periodic     x           y           z      points  spacing
  1. axis:    yes   10.460000    0.000000    0.000000    60     0.1743
  2. axis:    yes    0.000000    6.100000    0.000000    35     0.1743
  3. axis:    yes    0.000000    0.000000    4.740000    27     0.1756

  Lengths:  10.460000   6.100000   4.740000
  Angles:   90.000000  90.000000  90.000000

Effective grid spacing dv^(1/3) = 0.1747

                     log10-error:    total        iterations:
           time      wfs    density  energy       poisson
iter:   1  04:52:42                -258.494185            -1.0,+0.0,+0.0
iter:   2  04:53:17  -0.42  -0.89  -266.767273            +0.8,-0.0,+0.2
iter:   3  04:53:52  -0.87  -0.94  -254.542940            +0.0,-0.0,+0.0
iter:   4  04:54:27  -0.61  -0.97  -236.160279            -0.0,+0.0,+0.0
iter:   5  04:55:01  -0.42  -1.09  -232.472705            -0.0,+0.0,+0.0
iter:   6  04:55:36  -1.60  -1.25  -222.200319            -0.0,+0.0,+0.0
iter:   7  04:56:11  -2.51  -1.35  -222.160821            -0.1,+0.0,+0.0
iter:   8  04:56:45  -2.43  -1.35  -221.962790            -0.0,-0.0,+0.0
iter:   9  04:57:20  -2.53  -1.38  -224.345727            -0.1,-0.0,-0.0
iter:  10  04:57:55  -2.20  -1.33  -222.661278            -0.1,-0.0,-0.0
iter:  11  04:58:30  -3.04  -1.41  -221.881806            +0.1,-0.0,-0.1
iter:  12  04:59:05  -3.06  -1.49  -222.057628            +0.1,-0.1,-0.1
iter:  13  04:59:39  -2.03  -1.53  -222.359656            +0.1,-0.1,-0.1
iter:  14  05:00:14  -2.49  -1.71  -222.927173            +0.0,-0.1,-0.2
iter:  15  05:00:49  -2.64  -1.80  -224.205253            -0.0,-0.2,-0.2
iter:  16  05:01:24  -2.98  -1.88  -223.394463            +0.6,-0.2,-0.4
iter:  17  05:01:58  -2.74  -1.85  -224.978485            +0.8,-0.2,-0.3
iter:  18  05:02:33  -2.79  -1.88  -226.356584            +0.3,-0.3,-0.3
iter:  19  05:03:08  -3.10  -1.85  -226.701256            -0.0,-0.3,-0.4
iter:  20  05:03:43  -2.89  -1.85  -226.571301            -0.0,-0.3,-0.4
iter:  21  05:04:18  -2.68  -1.83  -226.574984            -0.0,-0.3,-0.4
iter:  22  05:04:53  -1.44  -1.83  -234.764216            -0.0,-0.3,-0.4
iter:  23  05:05:27  -1.83  -1.68  -226.491961            -0.0,-0.3,-0.4
iter:  24  05:06:02  -2.17  -1.88  -226.395128            -0.0,-0.3,-0.4
iter:  25  05:06:37  -3.20  -2.15  -226.385766            -0.0,-0.3,-0.4
iter:  26  05:07:12  -2.77  -2.18  -226.290727            +0.0,-0.3,-0.4
iter:  27  05:07:47  -3.53  -2.43  -226.290071            +0.0,-0.3,-0.4
iter:  28  05:08:22  -3.82  -2.53  -226.290838            +0.0,-0.3,-0.4
iter:  29  05:08:57  -4.29  -2.66  -226.290679            +0.0,-0.3,-0.4
iter:  30  05:09:31  -3.73  -2.73  -226.280102            +0.0,-0.3,-0.4
iter:  31  05:10:06  -4.95  -2.86  -226.278173            +0.0,-0.3,-0.3
iter:  32  05:10:41  -4.59  -2.90  -226.276606            +0.0,-0.3,-0.3
iter:  33  05:11:16  -4.85  -2.96  -226.275862            +0.0,-0.3,-0.3
iter:  34  05:11:50  -5.42  -2.98  -226.275381            +0.0,-0.3,-0.3
iter:  35  05:12:25  -4.89  -3.02  -226.274783            +0.0,-0.3,-0.3
iter:  36  05:13:00  -4.88  -3.09  -226.274471            +0.0,-0.3,-0.3
iter:  37  05:13:35  -5.93  -3.37  -226.274373            +0.0,-0.3,-0.3
iter:  38  05:14:10  -5.39  -3.41  -226.274247            +0.0,-0.3,-0.3
iter:  39  05:14:45  -6.15  -3.53  -226.274147            +0.0,-0.3,-0.3
iter:  40  05:15:20  -5.62  -3.62  -226.274130            -0.0,-0.2,-0.3
iter:  41  05:15:54  -6.51  -3.83  -226.274130            -0.0,-0.2,-0.3
iter:  42  05:16:29  -6.51  -3.89  -226.274138            -0.0,-0.2,-0.3
iter:  43  05:17:04  -5.70  -3.93  -226.274132            -0.0,-0.2,-0.2
iter:  44  05:17:39  -5.90  -4.19  -226.274146            -0.0,-0.2,-0.1
iter:  45  05:18:14  -6.59  -4.26  -226.274145            -0.0,-0.2,-0.1
iter:  46  05:18:48  -5.93  -4.34  -226.274160            -0.0,-0.2,-0.1
iter:  47  05:19:23  -6.70  -4.38  -226.274156            -0.0,-0.2,-0.1
iter:  48  05:19:58  -7.95  -4.56  -226.274155            -0.0,-0.2,-0.1
iter:  49  05:20:33  -7.65  -4.59  -226.274155            -0.0,-0.2,-0.1
iter:  50  05:21:08  -7.31  -4.63  -226.274155            -0.0,-0.2,-0.1
iter:  51  05:21:42  -7.74  -4.64  -226.274154            -0.0,-0.2,-0.1
iter:  52  05:22:17  -7.75  -4.71  -226.274153            -0.0,-0.2,-0.1
iter:  53  05:22:52  -7.95  -4.75  -226.274153            -0.0,-0.2,-0.1
iter:  54  05:23:27  -6.90  -4.85  -226.274155            -0.0,-0.2,-0.1
iter:  55  05:24:02  -7.27  -4.89  -226.274157            -0.0,-0.2,-0.1
iter:  56  05:24:37  -7.31  -5.01  -226.274158            -0.0,-0.1,-0.1
iter:  57  05:25:11  -6.70  -5.06  -226.274161            -0.0,-0.1,-0.1
iter:  58  05:25:46  -6.58  -5.36  -226.274164            -0.0,-0.1,-0.1
iter:  59  05:26:21  -6.34  -5.51  -226.274166            -0.0,-0.0,-0.1
iter:  60  05:26:56  -6.71  -5.55  -226.274166            -0.0,-0.0,-0.0
iter:  61  05:27:30  -7.91  -5.60  -226.274167            -0.0,-0.0,-0.0
iter:  62  05:28:05  -8.17  -5.68  -226.274167            -0.0,-0.0,-0.0
iter:  63  05:28:40  -8.35  -5.77  -226.274167            -0.0,-0.0,-0.0
iter:  64  05:29:15  -9.06  -5.79  -226.274167            -0.0,-0.0,-0.0
iter:  65  05:29:49  -8.84  -6.05  -226.274167            -0.0,-0.0,-0.0
iter:  66  05:30:24  -9.00  -6.04  -226.274167            -0.0,-0.0,-0.0
iter:  67  05:30:59  -7.67  -5.97  -226.274167            -0.0,-0.0,-0.0
iter:  68  05:31:34  -8.08  -6.08  -226.274166            -0.0,-0.0,-0.0
iter:  69  05:32:08  -8.42  -6.38  -226.274166            -0.0,-0.0,-0.0
iter:  70  05:32:43  -7.80  -6.41  -226.274166            -0.0,-0.0,-0.0
iter:  71  05:33:18  -8.79  -6.51  -226.274166            -0.0,-0.0,+0.0
iter:  72  05:33:53  -9.21  -6.66  -226.274166            -0.0,-0.0,+0.0
iter:  73  05:34:27  -9.51  -6.71  -226.274166            -0.0,-0.0,+0.0
iter:  74  05:35:02 -10.05  -6.69  -226.274166            -0.0,-0.0,+0.0
iter:  75  05:35:37  -9.67  -6.69  -226.274166            -0.0,-0.0,+0.0
iter:  76  05:36:12  -8.14  -6.66  -226.274166            -0.0,-0.0,-0.0
iter:  77  05:36:46  -7.78  -6.79  -226.274167            -0.0,-0.0,-0.0
iter:  78  05:37:21  -7.64  -6.82  -226.274167            -0.0,-0.0,-0.0
iter:  79  05:37:56  -7.38  -6.76  -226.274168            -0.0,+0.0,-0.0
iter:  80  05:38:31  -8.46  -6.61  -226.274168            -0.0,+0.0,-0.0
iter:  81  05:39:06  -8.58  -6.54  -226.274168            -0.0,+0.0,-0.0
iter:  82  05:39:40  -9.79  -6.77  -226.274168            -0.0,+0.0,-0.0
iter:  83  05:40:15  -8.78  -6.81  -226.274168            -0.0,+0.0,-0.0
iter:  84  05:40:50  -9.31  -7.12  -226.274168            -0.0,+0.0,-0.0
iter:  85  05:41:25  -8.29  -7.15  -226.274168            -0.0,+0.0,-0.0
iter:  86  05:41:59  -8.81  -7.27  -226.274168            -0.0,+0.0,-0.0
iter:  87  05:42:34  -8.68  -7.31  -226.274168            -0.0,+0.0,-0.0
iter:  88  05:43:09  -8.99  -7.41  -226.274168            -0.0,+0.0,-0.0
iter:  89  05:43:44  -7.59  -7.40  -226.274168            -0.0,-0.0,-0.0
iter:  90  05:44:18  -7.85  -7.10  -226.274168            -0.0,+0.0,-0.0
iter:  91  05:44:53  -8.67  -7.28  -226.274168            -0.0,+0.0,-0.0
iter:  92  05:45:28  -7.77  -7.18  -226.274168            -0.0,+0.0,-0.0
iter:  93  05:46:03  -8.27  -7.22  -226.274168            -0.0,+0.0,-0.0
iter:  94  05:46:37  -8.19  -7.28  -226.274168            -0.0,+0.0,-0.0
iter:  95  05:47:12  -8.44  -7.47  -226.274168            -0.0,+0.0,-0.0
iter:  96  05:47:47  -8.16  -7.38  -226.274168            -0.0,+0.0,-0.0
iter:  97  05:48:22  -8.56  -7.16  -226.274168            -0.0,+0.0,-0.0
iter:  98  05:48:57  -8.26  -7.22  -226.274168            -0.0,+0.0,-0.0
iter:  99  05:49:31  -8.71  -7.41  -226.274168            -0.0,+0.0,-0.0
iter: 100  05:50:06  -9.00  -7.43  -226.274168            -0.0,+0.0,-0.0
iter: 101  05:50:41  -7.80  -7.60  -226.274168            -0.0,+0.0,-0.0
iter: 102  05:51:16  -8.32  -7.33  -226.274168            -0.0,+0.0,-0.0
iter: 103  05:51:51  -7.66  -7.30  -226.274169            -0.0,+0.0,-0.0
iter: 104  05:52:25  -7.97  -7.07  -226.274169            -0.0,+0.0,-0.0
iter: 105  05:53:00  -8.06  -6.90  -226.274169            -0.0,+0.0,-0.0
iter: 106  05:53:35  -6.67  -6.90  -226.274167            -0.0,+0.0,-0.0
iter: 107  05:54:10  -6.90  -6.86  -226.274169            -0.0,+0.0,-0.0
iter: 108  05:54:44  -7.98  -7.26  -226.274168            -0.0,+0.0,-0.0
iter: 109  05:55:19  -9.71  -7.55  -226.274168            -0.0,+0.0,-0.0
iter: 110  05:55:54  -9.73  -7.54  -226.274168            -0.0,+0.0,-0.0
iter: 111  05:56:29  -8.85  -7.47  -226.274168            -0.0,+0.0,-0.0
iter: 112  05:57:03  -8.39  -7.42  -226.274169            -0.0,+0.0,-0.0
iter: 113  05:57:38  -7.38  -7.28  -226.274169            -0.0,+0.0,-0.0
iter: 114  05:58:13  -7.09  -6.83  -226.274169            -0.0,+0.0,-0.0
iter: 115  05:58:48  -7.64  -6.61  -226.274170            -0.0,+0.0,-0.0
iter: 116  05:59:22  -8.21  -6.50  -226.274170            -0.0,+0.0,-0.0
iter: 117  05:59:57  -7.65  -6.77  -226.274170            -0.0,+0.0,-0.0
iter: 118  06:00:32  -8.57  -6.89  -226.274170            -0.0,+0.0,-0.0
iter: 119  06:01:07  -8.96  -7.46  -226.274170            -0.0,+0.0,-0.0
iter: 120  06:01:41  -8.23  -7.46  -226.274170            -0.0,+0.0,-0.0
iter: 121  06:02:16  -9.12  -7.20  -226.274170            -0.0,+0.0,-0.0
iter: 122  06:02:51  -8.26  -7.28  -226.274170            -0.0,+0.0,+0.0
iter: 123  06:03:26  -8.57  -7.21  -226.274170            -0.0,+0.0,+0.0
iter: 124  06:04:00  -8.60  -6.92  -226.274170            -0.0,+0.0,+0.0
iter: 125  06:04:35  -9.02  -7.21  -226.274170            -0.0,+0.0,+0.0
iter: 126  06:05:10  -8.40  -7.27  -226.274170            -0.0,+0.0,-0.0
iter: 127  06:05:45  -7.24  -7.25  -226.274171            -0.0,+0.0,+0.0
iter: 128  06:06:20  -7.86  -7.06  -226.274171            -0.0,-0.0,+0.0
iter: 129  06:06:54  -9.13  -6.64  -226.274171            -0.0,-0.0,+0.0
iter: 130  06:07:29  -8.46  -7.11  -226.274171            -0.0,-0.0,+0.0
iter: 131  06:08:04  -9.59  -7.33  -226.274171            -0.0,-0.0,+0.0
iter: 132  06:08:39  -9.57  -7.33  -226.274171            -0.0,-0.0,+0.0
iter: 133  06:09:14  -8.19  -7.43  -226.274171            -0.0,-0.0,+0.0
iter: 134  06:09:48  -8.40  -7.41  -226.274171            -0.0,-0.0,+0.0
iter: 135  06:10:23  -8.11  -7.73  -226.274171            -0.0,-0.0,+0.0
iter: 136  06:10:58  -8.61  -7.41  -226.274171            -0.0,-0.0,+0.0
iter: 137  06:11:33  -6.87  -7.41  -226.274171            -0.0,-0.0,+0.0
iter: 138  06:12:07  -7.15  -7.12  -226.274171            -0.0,-0.0,+0.0
iter: 139  06:12:42  -7.93  -7.37  -226.274171            -0.0,-0.0,+0.0
iter: 140  06:13:17  -9.24  -7.73  -226.274171            -0.0,-0.0,+0.0
iter: 141  06:13:52  -8.39  -7.84  -226.274171            -0.0,-0.0,+0.0
iter: 142  06:14:27  -7.08  -7.48  -226.274172            -0.0,-0.0,+0.0
iter: 143  06:15:01  -7.58  -7.04  -226.274172            -0.0,-0.0,+0.0
iter: 144  06:15:36  -8.45  -6.85  -226.274172            -0.0,-0.0,+0.0
iter: 145  06:16:11  -8.03  -6.88  -226.274172            -0.0,-0.0,+0.0
iter: 146  06:16:45  -8.64  -7.20  -226.274172            -0.0,-0.0,+0.0
iter: 147  06:17:20  -8.21  -7.49  -226.274172            -0.0,-0.0,+0.0
iter: 148  06:17:55  -8.49  -7.84  -226.274172            -0.0,-0.0,+0.0
iter: 149  06:18:30  -7.78  -7.67  -226.274172            -0.0,-0.0,+0.0
iter: 150  06:19:04  -8.24  -7.75  -226.274172            -0.0,-0.0,+0.0
iter: 151  06:19:39  -7.94  -7.59  -226.274173            -0.0,-0.0,+0.0
iter: 152  06:20:14  -7.67  -7.31  -226.274173            -0.0,-0.0,+0.0
iter: 153  06:20:49  -7.58  -7.45  -226.274173            -0.0,-0.0,+0.0
iter: 154  06:21:23  -7.74  -7.10  -226.274173            -0.0,-0.0,+0.0
iter: 155  06:21:58  -7.69  -6.91  -226.274174            -0.0,-0.0,+0.0
iter: 156  06:22:33  -6.93  -7.02  -226.274174            -0.0,-0.0,+0.0
iter: 157  06:23:08  -7.55  -7.04  -226.274174            -0.0,-0.0,+0.0
iter: 158  06:23:42  -7.85  -7.60  -226.274174            -0.0,-0.0,+0.0
iter: 159  06:24:17  -8.82  -7.44  -226.274174            -0.0,-0.0,+0.0
iter: 160  06:24:52  -8.98  -7.31  -226.274174            -0.0,-0.0,+0.0
iter: 161  06:25:27  -8.66  -7.25  -226.274174            -0.0,-0.0,+0.0
iter: 162  06:26:02  -7.94  -7.39  -226.274174            -0.0,-0.0,+0.0
iter: 163  06:26:36  -8.47  -7.50  -226.274174            -0.0,-0.0,+0.0
iter: 164  06:27:11  -8.90  -7.51  -226.274174            -0.0,-0.0,+0.0
iter: 165  06:27:46  -8.29  -6.92  -226.274175            -0.0,-0.0,+0.0
iter: 166  06:28:20  -9.93  -7.55  -226.274174            -0.0,-0.0,+0.0
iter: 167  06:28:55  -9.70  -7.51  -226.274173            -0.0,-0.0,+0.0
iter: 168  06:29:30  -9.63  -7.50  -226.274176            -0.0,-0.0,+0.0
iter: 169  06:30:05  -8.80  -7.61  -226.274178            -0.0,-0.0,+0.0
iter: 170  06:30:39  -8.44  -7.64  -226.274175            -0.0,-0.0,+0.0
iter: 171  06:31:14  -8.36  -7.83  -226.274175            -0.0,-0.0,+0.0
iter: 172  06:31:49  -8.16  -7.69  -226.274175            -0.0,-0.0,+0.0
iter: 173  06:32:23  -7.82  -7.42  -226.274175            -0.0,-0.0,+0.0
iter: 174  06:32:58  -7.89  -7.52  -226.274175            -0.0,-0.0,+0.0
iter: 175  06:33:33  -9.13  -7.60  -226.274176            -0.0,-0.0,+0.0
iter: 176  06:34:08  -8.95  -7.79  -226.274176            -0.0,-0.0,+0.0
iter: 177  06:34:42  -7.64  -7.67  -226.274176            -0.0,-0.0,+0.0
iter: 178  06:35:17  -8.72  -7.53  -226.274176            -0.0,-0.0,+0.0
iter: 179  06:35:52  -8.79  -7.52  -226.274176            -0.0,-0.0,+0.0
iter: 180  06:36:27  -8.69  -7.76  -226.274176            -0.0,-0.0,+0.0
iter: 181  06:37:01  -8.47  -7.81  -226.274176            -0.0,-0.0,+0.0
iter: 182  06:37:36  -7.82  -7.70  -226.274176            -0.0,-0.0,+0.0
iter: 183  06:38:11  -7.32  -7.36  -226.274177            -0.0,-0.0,+0.0
iter: 184  06:38:45  -8.24  -6.98  -226.274176            -0.0,-0.0,+0.0
iter: 185  06:39:20  -8.15  -7.07  -226.274177            -0.0,-0.0,+0.0
iter: 186  06:39:55  -9.01  -7.44  -226.274177            -0.0,-0.0,-0.0
iter: 187  06:40:30  -9.53  -7.70  -226.274177            -0.0,-0.0,-0.0
iter: 188  06:41:04  -8.41  -7.67  -226.274177            -0.0,-0.0,-0.0
iter: 189  06:41:39  -8.26  -7.67  -226.274177            -0.0,-0.0,-0.0
iter: 190  06:42:14  -6.76  -7.51  -226.274177            -0.0,-0.0,+0.0
iter: 191  06:42:48  -7.49  -7.03  -226.274177            -0.0,-0.0,-0.0
iter: 192  06:43:23  -8.14  -7.14  -226.274177            +0.0,-0.0,-0.0
iter: 193  06:43:58  -8.34  -7.06  -226.274178            -0.0,-0.0,-0.0
iter: 194  06:44:32  -8.84  -7.06  -226.274175            +0.0,-0.0,-0.0
iter: 195  06:45:07  -8.94  -7.36  -226.274173            +0.0,-0.0,-0.0
iter: 196  06:45:42  -9.11  -7.49  -226.274173            +0.0,-0.0,-0.0
iter: 197  06:46:16  -8.88  -7.53  -226.274177            +0.0,-0.0,-0.0
iter: 198  06:46:51  -8.41  -7.45  -226.274175            +0.0,-0.0,-0.0
iter: 199  06:47:26  -8.25  -7.29  -226.274182            +0.0,-0.0,-0.0
iter: 200  06:48:00  -7.68  -7.30  -226.274187            +0.0,-0.0,-0.0
iter: 201  06:48:35  -8.07  -7.28  -226.274193            +0.0,-0.0,-0.0
iter: 202  06:49:10  -8.51  -7.21  -226.274167            +0.0,-0.0,-0.0
iter: 203  06:49:44  -8.63  -7.43  -226.274165            +0.0,-0.0,-0.0
iter: 204  06:50:19  -8.95  -7.46  -226.274178            +0.0,-0.0,-0.0
iter: 205  06:50:53  -9.52  -7.81  -226.274176            +0.0,-0.0,-0.0
iter: 206  06:51:28 -10.32  -7.94  -226.274175            +0.0,-0.0,-0.0
iter: 207  06:52:02  -8.61  -7.97  -226.274173            +0.0,-0.0,-0.0
iter: 208  06:52:37  -9.99  -8.00  -226.274174            +0.0,-0.0,-0.0
iter: 209  06:53:11 -10.56  -8.03  -226.274176            +0.0,-0.0,-0.0
iter: 210  06:53:46 -11.17  -8.16  -226.274176            +0.0,-0.0,-0.0
iter: 211  06:54:20 -10.61  -8.09  -226.274173            +0.0,-0.0,-0.0
iter: 212  06:54:55  -8.84  -8.11  -226.274173            +0.0,-0.0,-0.0
iter: 213  06:55:29  -8.67  -7.95  -226.274174            +0.0,-0.0,-0.0
iter: 214  06:56:04  -8.64  -7.79  -226.274174            +0.0,-0.0,-0.0
iter: 215  06:56:38  -8.59  -7.97  -226.274174            +0.0,-0.0,-0.0
iter: 216  06:57:12  -8.73  -8.04  -226.274173            +0.0,-0.0,-0.0
iter: 217  06:57:47  -9.13  -8.18  -226.274174            +0.0,-0.0,-0.0
iter: 218  06:58:21  -9.82  -8.21  -226.274172            +0.0,-0.0,-0.0
iter: 219  06:58:56  -7.95  -8.27  -226.274168            +0.0,-0.0,-0.0
iter: 220  06:59:30  -9.45  -7.77  -226.274168            +0.0,-0.0,-0.0
iter: 221  07:00:04 -10.04  -7.81  -226.274169            +0.0,-0.0,-0.0
iter: 222  07:00:39 -10.14  -8.12  -226.274169            +0.0,-0.0,-0.0
iter: 223  07:01:13  -9.20  -8.23  -226.274170            +0.0,-0.0,-0.0
iter: 224  07:01:47  -9.01  -8.10  -226.274168            +0.0,-0.0,+0.0
iter: 225  07:02:22  -8.42  -7.96  -226.274170            +0.0,-0.0,-0.0
iter: 226  07:02:56  -8.00  -8.20  -226.274171            +0.0,-0.0,+0.0
iter: 227  07:03:30  -8.43  -7.73  -226.274167            +0.0,-0.0,+0.0
iter: 228  07:04:05  -9.14  -7.60  -226.274171            +0.0,-0.0,+0.0
iter: 229  07:04:39  -9.99  -7.68  -226.274178            +0.0,-0.0,+0.0
iter: 230  07:05:13  -8.80  -7.90  -226.274180            +0.0,-0.0,+0.0
iter: 231  07:05:47  -9.26  -7.88  -226.274181            +0.0,-0.0,+0.0
iter: 232  07:06:22  -8.74  -7.86  -226.274174            +0.0,-0.0,+0.0
iter: 233  07:06:56  -8.69  -7.71  -226.274172            +0.0,-0.0,+0.0
iter: 234  07:07:30  -9.50  -7.96  -226.274171            +0.0,-0.0,+0.0
iter: 235  07:08:05  -8.63  -8.01  -226.274174            +0.0,-0.0,+0.0
iter: 236  07:08:39  -9.73  -8.13  -226.274173            +0.0,-0.0,+0.0
iter: 237  07:09:13 -10.55  -8.14  -226.274172            +0.0,-0.0,+0.0
iter: 238  07:09:48  -9.97  -8.12  -226.274170            +0.0,-0.0,+0.0
iter: 239  07:10:22 -10.65  -8.13  -226.274173            +0.0,-0.0,+0.0
iter: 240  07:10:56  -9.85  -8.08  -226.274178            +0.0,-0.0,+0.0
iter: 241  07:11:31  -9.78  -8.18  -226.274178            +0.0,-0.0,+0.0
iter: 242  07:12:05  -9.38  -8.21  -226.274177            +0.0,-0.0,+0.0
iter: 243  07:12:39  -8.31  -8.25  -226.274176            +0.0,-0.0,+0.0
iter: 244  07:13:13  -8.20  -7.95  -226.274176            +0.0,-0.0,+0.0
iter: 245  07:13:47  -9.24  -7.71  -226.274175            +0.0,-0.0,+0.0
iter: 246  07:14:22  -9.06  -7.67  -226.274178            +0.0,-0.0,+0.0
iter: 247  07:14:56 -10.45  -7.35  -226.274178            +0.0,-0.0,+0.0
iter: 248  07:15:30 -10.76  -8.29  -226.274177            +0.0,-0.0,+0.0
iter: 249  07:16:04 -10.25  -8.32  -226.274176            +0.0,-0.0,+0.0
iter: 250  07:16:38  -9.23  -8.24  -226.274177            +0.0,-0.0,+0.0
iter: 251  07:17:12  -8.91  -8.39  -226.274175            +0.0,-0.0,+0.0
iter: 252  07:17:47  -8.74  -8.22  -226.274173            +0.0,-0.0,+0.0
iter: 253  07:18:21  -8.06  -7.95  -226.274176            +0.0,-0.0,+0.0
iter: 254  07:18:55  -9.02  -7.65  -226.274173            +0.0,-0.0,+0.0
iter: 255  07:19:29  -9.45  -7.66  -226.274168            +0.0,-0.0,+0.0
iter: 256  07:20:03 -10.06  -7.62  -226.274167            +0.0,-0.0,+0.0
iter: 257  07:20:38 -10.17  -7.91  -226.274166            +0.0,-0.0,+0.0
iter: 258  07:21:12 -10.80  -8.28  -226.274165            +0.0,-0.0,+0.0
iter: 259  07:21:46 -10.64  -8.35  -226.274166            +0.0,-0.0,+0.0
iter: 260  07:22:21  -8.89  -8.44  -226.274167            +0.0,-0.0,+0.0
iter: 261  07:22:55  -8.55  -8.33  -226.274166            +0.0,-0.0,+0.0
iter: 262  07:23:29  -8.79  -8.02  -226.274164            +0.0,+0.0,+0.0
iter: 263  07:24:03  -8.98  -7.91  -226.274168            +0.0,-0.0,+0.0
iter: 264  07:24:37  -8.95  -8.08  -226.274169            +0.0,+0.0,+0.0
iter: 265  07:25:12  -8.88  -8.08  -226.274164            +0.0,+0.0,+0.0
iter: 266  07:25:46  -8.50  -8.16  -226.274163            +0.0,+0.0,-0.0
iter: 267  07:26:20  -8.74  -8.07  -226.274162            +0.0,+0.0,-0.0
iter: 268  07:26:54  -8.58  -7.89  -226.274162            +0.0,+0.0,-0.0
iter: 269  07:27:29  -9.16  -8.10  -226.274165            +0.0,+0.0,-0.0
iter: 270  07:28:03 -10.23  -8.12  -226.274164            +0.0,+0.0,-0.0
iter: 271  07:28:37 -10.71  -8.19  -226.274166            +0.0,+0.0,-0.0
iter: 272  07:29:11 -10.37  -8.27  -226.274167            +0.0,+0.0,-0.0
iter: 273  07:29:45 -11.58  -8.41  -226.274170            +0.0,+0.0,-0.0
iter: 274  07:30:19  -9.61  -8.62  -226.274173            +0.0,+0.0,-0.0
iter: 275  07:30:54 -10.80  -8.51  -226.274173            +0.0,+0.0,-0.0
iter: 276  07:31:28 -10.13  -8.54  -226.274173            +0.0,+0.0,-0.0
iter: 277  07:32:02  -9.58  -8.49  -226.274179            +0.0,+0.0,-0.0
iter: 278  07:32:36  -9.87  -8.38  -226.274180            +0.0,+0.0,-0.0
iter: 279  07:33:10  -8.84  -8.18  -226.274174            +0.0,+0.0,-0.0
iter: 280  07:33:44  -9.18  -8.35  -226.274174            +0.0,+0.0,-0.0
iter: 281  07:34:19  -9.66  -8.47  -226.274173            +0.0,+0.0,-0.0
iter: 282  07:34:53  -8.59  -8.65  -226.274173            +0.0,+0.0,-0.0
iter: 283  07:35:27  -9.21  -8.25  -226.274173            +0.0,+0.0,-0.0
iter: 284  07:36:01 -10.24  -8.20  -226.274174            +0.0,+0.0,-0.0
iter: 285  07:36:35  -9.91  -8.46  -226.274175            +0.0,+0.0,-0.0
iter: 286  07:37:09 -10.16  -8.46  -226.274175            +0.0,+0.0,-0.0
iter: 287  07:37:44  -9.83  -8.50  -226.274176            +0.0,+0.0,-0.0
iter: 288  07:38:18  -9.78  -8.37  -226.274178            +0.0,+0.0,-0.0
iter: 289  07:38:52  -9.17  -8.23  -226.274177            +0.0,+0.0,-0.0
iter: 290  07:39:26 -10.11  -8.05  -226.274177            +0.0,+0.0,-0.0
iter: 291  07:40:00 -10.49  -8.13  -226.274184            +0.0,+0.0,-0.0
iter: 292  07:40:34 -11.44  -8.05  -226.274178            +0.0,+0.0,-0.0
iter: 293  07:41:08 -10.94  -8.39  -226.274182            +0.0,+0.0,-0.0
iter: 294  07:41:43  -9.05  -8.28  -226.274183            +0.0,+0.0,-0.0
iter: 295  07:42:17  -9.12  -8.33  -226.274185            +0.0,+0.0,-0.0
iter: 296  07:42:51  -9.68  -8.16  -226.274184            +0.0,+0.0,-0.0
iter: 297  07:43:25  -9.83  -8.05  -226.274184            +0.0,+0.0,-0.0
iter: 298  07:44:00  -9.10  -8.22  -226.274185            +0.0,+0.0,-0.0
iter: 299  07:44:34  -8.94  -8.24  -226.274185            +0.0,+0.0,-0.0
iter: 300  07:45:08  -9.85  -7.56  -226.274184            +0.0,+0.0,-0.0
iter: 301  07:45:42 -10.53  -8.11  -226.274184            +0.0,+0.0,-0.0
iter: 302  07:46:17  -9.75  -8.29  -226.274184            +0.0,+0.0,-0.0
iter: 303  07:46:51 -10.56  -8.35  -226.274183            +0.0,+0.0,-0.0
iter: 304  07:47:25 -10.87  -8.41  -226.274182            +0.0,+0.0,-0.0
iter: 305  07:47:59 -10.81  -8.52  -226.274182            +0.0,+0.0,-0.0
iter: 306  07:48:33 -10.72  -8.66  -226.274181            +0.0,+0.0,-0.0
iter: 307  07:49:07 -10.31  -8.86  -226.274181            +0.0,+0.0,-0.0
iter: 308  07:49:42  -9.00  -8.70  -226.274181            +0.0,+0.0,-0.0
iter: 309  07:50:16 -10.12  -8.57  -226.274182            +0.0,+0.0,-0.0
iter: 310  07:50:50 -11.13  -8.60  -226.274180            +0.0,+0.0,-0.0
iter: 311  07:51:25 -10.99  -8.57  -226.274181            +0.0,+0.0,-0.0
iter: 312  07:51:59 -11.08  -8.61  -226.274180            +0.0,+0.0,-0.0
iter: 313  07:52:33 -10.72  -8.69  -226.274180            +0.0,+0.0,-0.0
iter: 314  07:53:07 -10.54  -8.67  -226.274178            +0.0,+0.0,-0.0
iter: 315  07:53:42  -9.67  -8.80  -226.274177            +0.0,+0.0,-0.0
iter: 316  07:54:16  -9.30  -8.57  -226.274177            +0.0,+0.0,-0.0
iter: 317  07:54:50 -10.00  -8.28  -226.274177            +0.0,+0.0,-0.0
iter: 318  07:55:24 -10.19  -8.15  -226.274177            +0.0,+0.0,-0.0
iter: 319  07:55:58  -9.59  -8.34  -226.274177            +0.0,+0.0,-0.0
iter: 320  07:56:32  -9.31  -8.35  -226.274177            +0.0,+0.0,-0.0
iter: 321  07:57:07 -10.10  -7.77  -226.274177            +0.0,+0.0,-0.0
iter: 322  07:57:41 -11.23  -8.21  -226.274178            +0.0,+0.0,-0.0
iter: 323  07:58:15 -10.75  -8.77  -226.274177            +0.0,+0.0,-0.0
iter: 324  07:58:49 -10.91  -8.82  -226.274177            +0.0,+0.0,-0.0
iter: 325  07:59:23 -11.66  -8.83  -226.274177            +0.0,+0.0,-0.0
iter: 326  07:59:57 -10.69  -8.78  -226.274178            +0.0,+0.0,-0.0
iter: 327  08:00:31 -11.06  -8.84  -226.274177            +0.0,+0.0,-0.0
iter: 328  08:01:06 -11.07  -8.91  -226.274176            +0.0,+0.0,-0.0
iter: 329  08:01:40  -9.72  -8.93  -226.274176            +0.0,+0.0,-0.0
iter: 330  08:02:14 -11.15  -8.67  -226.274176            +0.0,+0.0,-0.0
iter: 331  08:02:48 -11.67  -8.92  -226.274176            +0.0,+0.0,-0.0
iter: 332  08:03:22 -11.02  -9.15  -226.274176            +0.0,+0.0,-0.0

Converged after 332 iterations.

Dipole moment: (0.080600, 0.003570, -0.820497) |e|*Ang

Total magnetic moment: (0.000437, 0.000899, -0.001436)
Local magnetic moments:
   0 O  ( 0.001528, -0.000092,  0.000214)
   1 O  (-0.001560,  0.000094,  0.000184)
   2 O  ( 0.000503, -0.000069, -0.000212)
   3 O  (-0.000475,  0.000083, -0.000225)
   4 O  ( 0.000520,  0.000071, -0.000214)
   5 O  (-0.000492, -0.000079, -0.000228)
   6 O  ( 0.001551,  0.000090,  0.000212)
   7 O  (-0.001583, -0.000076,  0.000183)
   8 O  (-0.028688,  0.000140, -0.000042)
   9 O  ( 0.028647, -0.000136,  0.000269)
  10 O  ( 0.028728, -0.000171, -0.000033)
  11 O  (-0.028737,  0.000174, -0.000218)
  12 Mn (-4.446029,  0.021522, -0.009719)
  13 Mn ( 4.446303, -0.020943,  0.040190)
  14 Mn ( 4.446164, -0.026718, -0.002126)
  15 Mn (-4.445971,  0.026948, -0.029606)
  16 P  (-0.001198,  0.000014,  0.000157)
  17 P  ( 0.001175, -0.000011,  0.000140)
  18 P  ( 0.001878, -0.000004, -0.000125)
  19 P  (-0.001874,  0.000005, -0.000164)
  20 O  (-0.025602,  0.000125, -0.000211)
  21 O  ( 0.025608, -0.000121,  0.000082)
  22 O  ( 0.025038, -0.000150,  0.000153)
  23 O  (-0.024980,  0.000151,  0.000004)
  24 Li (-0.000026,  0.000001, -0.000001)
  25 Li ( 0.000028, -0.000001,  0.000000)
  26 Li (-0.000026, -0.000001, -0.000001)
  27 Li ( 0.000028,  0.000001,  0.000000)

Energy contributions relative to reference atoms: (reference = -196157.275402)

Kinetic:       +217.281605
Potential:     -195.209399
External:        +0.000000
XC:            -250.387152
Entropy (-ST):   -0.000000
Local:           +2.040771
--------------------------
Free energy:   -226.274176
Extrapolated:  -226.274176

Showing only first 2 kpts
 Kpt  Band  Eigenvalues  Occupancy
  0    88     -2.03739    1.00000
  0    89     -2.03069    1.00000
  0    90     -1.94244    1.00000
  0    91     -1.93629    1.00000

  1    88     -2.16056    1.00000
  1    89     -2.15443    1.00000
  1    90     -2.10666    1.00000
  1    91     -2.09342    1.00000


Fermi level: 6.08119

Gap: 1.970 eV
Transition (v -> c):
  (s=0, k=45, n=179, [-0.12, 0.38, 0.08]) -> (s=0, k=56, n=180, [0.12, -0.12, -0.08])

Forces in eV/Ang:
  0 O    -0.01181   -0.00186    0.05817
  1 O     0.01395    0.00214    0.05900
  2 O    -0.01172    0.00218    0.06146
  3 O     0.01364   -0.00224    0.06176
  4 O    -0.01176   -0.00220    0.06152
  5 O     0.01368    0.00226    0.06183
  6 O    -0.01180    0.00184    0.05820
  7 O     0.01393   -0.00212    0.05903
  8 O    -0.00057    0.00001    0.05812
  9 O     0.00307   -0.00001    0.05761
 10 O    -0.00103    0.00000    0.05538
 11 O     0.00323   -0.00000    0.05391
 12 Mn   -0.00072   -0.00001   -0.08682
 13 Mn    0.00249    0.00001   -0.08631
 14 Mn    0.00056    0.00000   -0.08827
 15 Mn    0.00102   -0.00000   -0.08891
 16 P     0.01064    0.00002   -0.13007
 17 P    -0.00868   -0.00002   -0.13029
 18 P    -0.01874    0.00000   -0.13645
 19 P    -0.00843   -0.00001   -0.13628
 20 O     0.00829   -0.00001    0.09711
 21 O    -0.00638    0.00000    0.09768
 22 O     0.01060    0.00001    0.09791
 23 O    -0.00793   -0.00001    0.09807
 24 Li    0.00168   -0.00265   -0.05344
 25 Li    0.00055    0.00262   -0.05319
 26 Li    0.00167    0.00265   -0.05343
 27 Li    0.00055   -0.00260   -0.05320

Timing:                              incl.     excl.
-----------------------------------------------------------
Forces:                              4.428     4.428   0.0% |
Hamiltonian:                         0.679     0.003   0.0% |
 Atomic:                             0.132     0.132   0.0% |
  XC Correction:                     0.000     0.000   0.0% |
 Calculate atomic Hamiltonians:      0.248     0.248   0.0% |
 Communicate:                        0.000     0.000   0.0% |
 Initialize Hamiltonian:             0.001     0.001   0.0% |
 Poisson:                            0.002     0.002   0.0% |
 XC 3D grid:                         0.293     0.293   0.0% |
LCAO initialization:                62.157     0.367   0.0% |
 LCAO eigensolver:                  10.361     0.002   0.0% |
  DenseAtomicCorrection:             0.017     0.017   0.0% |
  Distribute overlap matrix:         0.001     0.001   0.0% |
  Orbital Layouts:                   0.060     0.060   0.0% |
  Potential matrix:                 10.242    10.242   0.1% |
  Sum over cells:                    0.039     0.039   0.0% |
 LCAO to grid:                      50.415    50.415   0.4% |
 Set positions (LCAO WFS):           1.015     0.207   0.0% |
  Basic WFS set positions:           0.001     0.001   0.0% |
  Basis functions set positions:     0.000     0.000   0.0% |
  P tci:                             0.382     0.382   0.0% |
  ST tci:                            0.301     0.301   0.0% |
  mktci:                             0.124     0.124   0.0% |
PWDescriptor:                        0.011     0.011   0.0% |
SCF-cycle:                       11494.841  3325.021  28.8% |-----------|
 Davidson:                        6673.942   735.354   6.4% |--|
  Apply H:                        1057.190  1057.190   9.1% |---|
  Subspace diag:                  1404.692     0.145   0.0% |
   calc_h_matrix:                 1194.125   129.721   1.1% |
    Apply H:                      1064.405  1064.405   9.2% |---|
   diagonalize:                     11.813    11.813   0.1% |
   rotate_psi:                     198.609   198.609   1.7% ||
  calc. matrices:                 2849.815   746.337   6.5% |--|
   Apply H:                       2103.478  2103.478  18.2% |------|
  diagonalize:                     245.894   245.894   2.1% ||
  rotate_psi:                      380.996   380.996   3.3% ||
 Density:                         1276.338     0.010   0.0% |
  Atomic density matrices:          38.266    38.266   0.3% |
  Mix:                             116.741   116.741   1.0% |
  Multipole moments:                 0.184     0.184   0.0% |
  Pseudo density:                 1121.138  1121.122   9.7% |---|
   Symmetrize density:               0.016     0.016   0.0% |
 Hamiltonian:                      218.630     1.262   0.0% |
  Atomic:                           21.680    21.678   0.2% |
   XC Correction:                    0.001     0.001   0.0% |
  Calculate atomic Hamiltonians:    92.836    92.836   0.8% |
  Communicate:                       0.079     0.079   0.0% |
  Poisson:                           1.122     1.122   0.0% |
  XC 3D grid:                      101.652   101.652   0.9% |
 Orthonormalize:                     0.911     0.001   0.0% |
  calc_s_matrix:                     0.191     0.191   0.0% |
  inverse-cholesky:                  0.008     0.008   0.0% |
  projections:                       0.412     0.412   0.0% |
  rotate_psi_s:                      0.298     0.298   0.0% |
Set symmetry:                        0.000     0.000   0.0% |
Other:                               2.627     2.627   0.0% |
-----------------------------------------------------------
Total:                                     11564.743 100.0%

Memory usage: 1.06 GiB
Date: Sat Jun 25 08:03:27 2022
