
  ___ ___ ___ _ _ _  
 |   |   |_  | | | | 
 | | | | | . | | | | 
 |__ |  _|___|_____|  20.10.1b1
 |___|_|             

User:   madkru@i018.nifl.fysik.dtu.dk
Date:   Wed Mar 24 22:25:37 2021
Arch:   x86_64
Pid:    26873
Python: 3.7.4
gpaw:   /home/niflheim/madkru/venv_folder/gpaw/gpaw (d224efde0f)
_gpaw:  /home/niflheim/madkru/venv_folder/gpaw/build/lib.linux-x86_64-ivybridge-3.7/
        _gpaw.cpython-37m-x86_64-linux-gnu.so (4fd39e8b1e)
ase:    /home/niflheim/madkru/venv_folder/ase/ase (version 3.21.0b1-4d5a73cb29)
numpy:  /home/niflheim/madkru/venv_folder/lib/python3.7/site-packages/numpy (version 1.19.4)
scipy:  /home/niflheim/madkru/venv_folder/lib/python3.7/site-packages/scipy (version 1.5.4)
libxc:  4.3.4
units:  Angstrom and eV
cores: 64
OMP_NUM_THREADS: 1

Input parameters:
  convergence: {bands: occupied,
                density: 0.0001,
                eigenstates: 4e-08,
                energy: 0.0005,
                forces: 1e-06}
  kpts: [6 6 4]
  mode: {ecut: 600.0,
         gammacentered: False,
         name: pw}
  occupations: {fixmagmom: False,
                name: fermi-dirac,
                width: 0.001}
  setups: {Mn: :d,3.0}
  symmetry: {point_group: False,
             time_reversal: False}

System changes: positions, numbers, cell, pbc, initial_charges, initial_magmoms 

Initialize ...

O-setup:
  name: Oxygen
  id: 9b9d51c344dea68c822856295a461509
  Z: 8.0
  valence: 6
  core: 2
  charge: 0.0
  file: /home/modules/software/GPAW-setups/0.9.20000/O.LDA.gz
  compensation charges: gauss, rc=0.21, lmax=2
  cutoffs: 1.17(filt), 0.83(core),
  valence states:
                energy  radius
    2s(2.00)   -23.752   0.688
    2p(4.00)    -9.195   0.598
    *s           3.459   0.688
    *p          18.016   0.598
    *d           0.000   0.619

  Using partial waves for O as LCAO basis

Mn-setup:
  name: Manganese
  id: 0d715a8018be061a6e9ea6f2d364ac92
  Z: 25.0
  valence: 15
  core: 10
  charge: 0.0
  Hubbard U: 3.000000 eV (l=2, scale=True)
  file: /home/modules/software/GPAW-setups/0.9.20000/Mn.LDA.gz
  compensation charges: gauss, rc=0.38, lmax=2
  cutoffs: 2.14(filt), 0.86(core),
  valence states:
                energy  radius
    3s(2.00)   -85.387   1.275
    4s(2.00)    -5.282   1.275
    3p(6.00)   -54.493   1.281
    4p(0.00)    -1.471   1.281
    3d(5.00)    -7.009   1.138
    *d          20.203   1.138

  Using partial waves for Mn as LCAO basis

P-setup:
  name: Phosphorus
  id: a5561c299094968922a179ab894d2e2d
  Z: 15.0
  valence: 5
  core: 10
  charge: 0.0
  file: /home/modules/software/GPAW-setups/0.9.20000/P.LDA.gz
  compensation charges: gauss, rc=0.30, lmax=2
  cutoffs: 1.69(filt), 1.81(core),
  valence states:
                energy  radius
    3s(2.00)   -14.015   0.953
    3p(3.00)    -5.596   0.953
    *s          13.197   0.953
    *p          21.615   0.953
    *d           0.000   0.953

  Using partial waves for P as LCAO basis

Li-setup:
  name: Lithium
  id: b73562207f97a71b6967473b66fe8b65
  Z: 3.0
  valence: 1
  core: 2
  charge: 0.0
  file: /home/modules/software/GPAW-setups/0.9.20000/Li.LDA.gz
  compensation charges: gauss, rc=0.33, lmax=2
  cutoffs: 1.91(filt), 2.55(core),
  valence states:
                energy  radius
    2s(1.00)    -2.874   1.058
    2p(0.00)    -1.126   1.058
    *s          24.338   1.058

  Using partial waves for Li as LCAO basis

Reference energy: -196157.275402

Spin-polarized calculation.
Magnetic moment: 0.000000

Convergence criteria:
  Maximum total energy change: 0.0005 eV / electron
  Maximum integral of absolute density change: 0.0001 electrons
  Maximum integral of absolute eigenstate change: 4e-08 eV^2
  Maximum change in atomic force: 1e-06 eV / Ang
  Maximum number of iterations: 333

Symmetries present (total): 1

  ( 1  0  0)
  ( 0  1  0)
  ( 0  0  1)

144 k-points: 6 x 6 x 4 Monkhorst-Pack grid
144 k-points in the irreducible part of the Brillouin zone
       k-points in crystal coordinates                weights
   0:    -0.41666667   -0.41666667   -0.37500000          1/144
   1:    -0.41666667   -0.41666667   -0.12500000          1/144
   2:    -0.41666667   -0.41666667    0.12500000          1/144
   3:    -0.41666667   -0.41666667    0.37500000          1/144
   4:    -0.41666667   -0.25000000   -0.37500000          1/144
   5:    -0.41666667   -0.25000000   -0.12500000          1/144
   6:    -0.41666667   -0.25000000    0.12500000          1/144
   7:    -0.41666667   -0.25000000    0.37500000          1/144
   8:    -0.41666667   -0.08333333   -0.37500000          1/144
   9:    -0.41666667   -0.08333333   -0.12500000          1/144
          ...
 143:     0.41666667    0.41666667    0.37500000          1/144

Wave functions: Plane wave expansion
  Cutoff energy: 600.000 eV
  Number of coefficients (min, max): 9238, 9284
  Pulay-stress correction: 0.000000 eV/Ang^3 (de/decut=0.000000)
  Using FFTW library
  ScaLapack parameters: grid=1x1, blocksize=None
  Wavefunction extrapolation:
    Improved wavefunction reuse through dual PAW basis 

  Fermi-Dirac: width=0.0010 eV

Eigensolver
   Davidson(niter=2, smin=None, normalize=True) 

Densities:
  Coarse grid: 60*35*27 grid
  Fine grid: 120*70*54 grid
  Total Charge: 0.000000 

Density mixing:
  Method: difference
  Backend: pulay
  Linear mixing parameter: 0.05
  Mixing with 5 old densities
  Damping of long wave oscillations: 50 

Hamiltonian:
  XC and Coulomb potentials evaluated on a 120*70*54 grid
  Using the LDA Exchange-Correlation functional
 

Memory estimate:
  Process memory now: 13658.76 MiB
  Calculator: 326.59 MiB
    Density: 9.67 MiB
      Arrays: 3.79 MiB
      Localized functions: 4.32 MiB
      Mixer: 1.56 MiB
    Hamiltonian: 2.94 MiB
      Arrays: 2.82 MiB
      XC: 0.00 MiB
      Poisson: 0.00 MiB
      vbar: 0.12 MiB
    Wavefunctions: 313.97 MiB
      Arrays psit_nG: 285.59 MiB
      Eigensolver: 18.49 MiB
      Projections: 2.71 MiB
      Projectors: 4.46 MiB
      PW-descriptor: 2.72 MiB

Total number of cores used: 64
Parallelization over k-points: 16
Domain decomposition: 2 x 2 x 1

Number of atoms: 28
Number of atomic orbitals: 148
Number of bands in calculation: 112
Number of valence electrons: 180
Bands to converge: occupied

... initialized

Initializing position-dependent things.

Density initialized from atomic densities
Creating initial wave functions:
  112 bands from LCAO basis set

                                           
                                           
                                           
                                           
                                           
               O     O  P  O               
            PO           OMn     O         
                  O          MO            
            O        Li O                  
             Mn  On          OP            
         O         Li O                    
         Li     O P         O              
       Li                                  
                                           
                                           
                                           
                                           

Positions:
   0 O     -1.263197   -2.497779   -1.098475    ( 0.0000,  0.0000,  0.0000)
   1 O     -3.070823    2.922496    1.209491    ( 0.0000,  0.0000,  0.0000)
   2 O      1.985541    0.474863    1.428016    ( 0.0000,  0.0000,  0.0000)
   3 O      3.793120   -0.050100   -0.879950    ( 0.0000,  0.0000,  0.0000)
   4 O      1.985518    2.922485    1.428149    ( 0.0000,  0.0000,  0.0000)
   5 O      3.793144   -2.497790   -0.879818    ( 0.0000,  0.0000,  0.0000)
   6 O     -1.263220   -0.050157   -1.098342    ( 0.0000,  0.0000,  0.0000)
   7 O     -3.070798    0.474805    1.209623    ( 0.0000,  0.0000,  0.0000)
   8 O     -4.167835   -1.273920   -0.862116    ( 0.0000,  0.0000,  0.0000)
   9 O     -0.166037    1.698602    1.445528    ( 0.0000,  0.0000,  0.0000)
  10 O      4.890156    1.698625    1.191790    ( 0.0000,  0.0000,  0.0000)
  11 O      0.888358   -1.273896   -1.115855    ( 0.0000,  0.0000,  0.0000)
  12 Mn    -2.445557   -1.274211    0.312921    ( 0.0000,  0.0000,  1.0000)
  13 Mn    -1.888303    1.698892   -1.994948    ( 0.0000,  0.0000, -1.0000)
  14 Mn     3.167879    1.698917    0.016752    ( 0.0000,  0.0000, -1.0000)
  15 Mn     2.610624   -1.274187    2.324621    ( 0.0000,  0.0000,  1.0000)
  16 P     -0.529549   -1.273917   -1.724376    ( 0.0000,  0.0000,  0.0000)
  17 P     -3.804359    1.698599    0.583463    ( 0.0000,  0.0000,  0.0000)
  18 P      1.251870    1.698623    2.054050    ( 0.0000,  0.0000,  0.0000)
  19 P      4.526680   -1.273894   -0.253789    ( 0.0000,  0.0000,  0.0000)
  20 O     -0.544227   -1.273926    1.365380    ( 0.0000,  0.0000,  0.0000)
  21 O     -3.789411    1.698610   -0.942222    ( 0.0000,  0.0000,  0.0000)
  22 O      1.266548    1.698631   -1.035707    ( 0.0000,  0.0000,  0.0000)
  23 O      4.501733   -1.273905    1.271895    ( 0.0000,  0.0000,  0.0000)
  24 Li    -4.695087   -2.760584   -2.142877    ( 0.0000,  0.0000,  0.0000)
  25 Li     0.361147   -2.760561    0.164836    ( 0.0000,  0.0000,  0.0000)
  26 Li    -4.695074    0.212330   -2.142877    ( 0.0000,  0.0000,  0.0000)
  27 Li     0.361161    0.212353    0.164837    ( 0.0000,  0.0000,  0.0000)

Unit cell:
           periodic     x           y           z      points  spacing
  1. axis:    yes   10.112485    0.000045   -0.000035    60     0.1685
  2. axis:    yes    0.000026    5.945827    0.000001    35     0.1699
  3. axis:    yes   -0.000016    0.000000    4.615463    27     0.1709

  Lengths:  10.112485   5.945827   4.615463
  Angles:   89.999989  90.000396  89.999490

Effective grid spacing dv^(1/3) = 0.1698

                     log10-error:           total        iterations:
           time      wfs    density  force  energy       poisson  magmom
iter:   1  22:27:12                       -221.373761             +0.0000
iter:   2  22:27:32  -0.61  -0.93         -234.821027             +0.0000
iter:   3  22:27:52  -0.37  -0.97         -225.907821             -0.0000
iter:   4  22:28:12  -1.39  -1.29         -225.761325             +0.0000
iter:   5  22:28:32  -1.27  -1.39         -227.319230             +0.0000
iter:   6  22:28:52  -1.47  -1.46         -225.737207             +0.0000
iter:   7  22:29:12  -2.48  -2.04         -225.723771             +0.0000
iter:   8  22:29:32  -2.13  -1.99         -225.597997             +0.0000
iter:   9  22:29:51  -2.45  -2.08         -225.431789             +0.0000
iter:  10  22:30:11  -3.32  -2.55         -225.422396             +0.0000
iter:  11  22:30:31  -3.67  -2.81         -225.412026             +0.0000
iter:  12  22:30:51  -4.11  -3.03         -225.410818             +0.0000
iter:  13  22:31:11  -5.07  -3.29         -225.410667             -0.0000
iter:  14  22:31:31  -5.40  -3.32         -225.410502             -0.0000
iter:  15  22:31:51  -6.07  -3.44         -225.410507             -0.0000
iter:  16  22:32:11  -5.35  -3.48         -225.410768             +0.0000
iter:  17  22:32:31  -5.77  -3.61         -225.410681             -0.0000
iter:  18  22:32:50  -5.50  -3.76         -225.410455             +0.0000
iter:  19  22:33:10  -6.06  -3.94         -225.410457             -0.0000
iter:  20  22:33:30  -6.92  -4.08         -225.410448             -0.0000
iter:  21  22:33:50  -7.14  -4.20         -225.410455             -0.0000
iter:  22  22:34:10  -7.38  -4.30         -225.410455             -0.0000
iter:  23  22:34:30  -7.32  -4.28         -225.410451             -0.0000
iter:  24  22:34:50  -6.87  -4.31         -225.410462             -0.0000
iter:  25  22:35:10  -7.10  -4.43         -225.410454             -0.0000
iter:  26  22:35:29  -7.36  -4.56         -225.410453             -0.0000
iter:  27  22:35:54  -8.36  -4.64         -225.410452             -0.0000
iter:  28  22:36:19  -8.45  -4.66    -3.08-225.410452             -0.0000
iter:  29  22:36:43  -8.33  -4.79    -2.78-225.410452             -0.0000
iter:  30  22:37:08  -8.63  -4.89    -3.13-225.410452             -0.0000
iter:  31  22:37:32  -8.79  -5.04    -3.36-225.410452             -0.0000
iter:  32  22:37:57  -9.24  -5.08    -3.42-225.410452             -0.0000
iter:  33  22:38:21  -8.68  -5.10    -3.04-225.410452             -0.0000
iter:  34  22:38:46  -9.35  -5.80    -3.87-225.410452             -0.0000
iter:  35  22:39:10 -10.53  -6.14    -4.65-225.410452             -0.0000
iter:  36  22:39:35 -10.36  -6.15    -3.92-225.410452             -0.0000
iter:  37  22:40:00 -10.17  -6.37    -4.17-225.410452             -0.0000
iter:  38  22:40:24 -11.27  -6.40    -4.64-225.410452             -0.0000
iter:  39  22:40:49 -11.36  -6.49    -4.63-225.410452             -0.0000
iter:  40  22:41:13 -11.51  -6.56    -4.39-225.410452             -0.0000
iter:  41  22:41:38 -11.80  -6.76    -4.92-225.410452             -0.0000
iter:  42  22:42:02 -12.09  -6.83    -4.52-225.410452             -0.0000
iter:  43  22:42:27 -12.27  -6.99    -4.94-225.410452             -0.0000
iter:  44  22:42:51 -13.09  -7.09    -5.94-225.410452             -0.0000
iter:  45  22:43:16 -13.26  -7.12    -5.11-225.410452             -0.0000
iter:  46  22:43:40 -13.62  -7.26    -5.74-225.410452             -0.0000
iter:  47  22:44:05 -12.78  -7.25    -5.17-225.410452             -0.0000
iter:  48  22:44:29 -13.07  -7.38    -5.12-225.410452             -0.0000
iter:  49  22:44:54 -13.43  -7.45    -5.52-225.410452             +0.0000
iter:  50  22:45:18 -13.82  -7.51    -5.44-225.410452             -0.0000
iter:  51  22:45:43 -13.80  -7.67    -5.85-225.410452             -0.0000
iter:  52  22:46:08 -14.28  -7.69    -5.75-225.410452             -0.0000
iter:  53  22:46:32 -14.93  -7.72    -6.32-225.410452             -0.0000

Converged after 53 iterations.

Dipole moment: (19.056900, -1.424762, -4.183256) |e|*Ang

Total magnetic moment: (0.000000, 0.000000, -0.000000)
Local magnetic moments:
   0 O  ( 0.000000,  0.000000,  0.000673)
   1 O  ( 0.000000,  0.000000, -0.000632)
   2 O  ( 0.000000,  0.000000, -0.000603)
   3 O  ( 0.000000,  0.000000,  0.000670)
   4 O  ( 0.000000,  0.000000, -0.000607)
   5 O  ( 0.000000,  0.000000,  0.000674)
   6 O  ( 0.000000,  0.000000,  0.000669)
   7 O  ( 0.000000,  0.000000, -0.000628)
   8 O  ( 0.000000,  0.000000,  0.022407)
   9 O  ( 0.000000,  0.000000, -0.022392)
  10 O  ( 0.000000,  0.000000, -0.022319)
  11 O  ( 0.000000,  0.000000,  0.022249)
  12 Mn ( 0.000000,  0.000000,  4.575007)
  13 Mn ( 0.000000,  0.000000, -4.575026)
  14 Mn ( 0.000000,  0.000000, -4.575064)
  15 Mn ( 0.000000,  0.000000,  4.574645)
  16 P  ( 0.000000,  0.000000,  0.000816)
  17 P  ( 0.000000,  0.000000, -0.000820)
  18 P  ( 0.000000,  0.000000, -0.000783)
  19 P  ( 0.000000,  0.000000,  0.001002)
  20 O  ( 0.000000,  0.000000,  0.020731)
  21 O  ( 0.000000,  0.000000, -0.020703)
  22 O  ( 0.000000,  0.000000, -0.020714)
  23 O  ( 0.000000,  0.000000,  0.020749)
  24 Li ( 0.000000,  0.000000,  0.000002)
  25 Li ( 0.000000,  0.000000,  0.000000)
  26 Li ( 0.000000,  0.000000,  0.000002)
  27 Li ( 0.000000,  0.000000,  0.000000)

Energy contributions relative to reference atoms: (reference = -196157.275402)

Kinetic:       +296.933449
Potential:     -256.460188
External:        +0.000000
XC:            -267.664018
Entropy (-ST):   -0.000000
Local:           +1.780305
--------------------------
Free energy:   -225.410452
Extrapolated:  -225.410452

Spin contamination: 9.697111 electrons
Showing only first 2 kpts
                      Up                     Down
 Kpt  Band  Eigenvalues  Occupancy  Eigenvalues  Occupancy
  0    88      5.11322    0.00694      5.11023    0.00694
  0    89      5.16978    0.00694      5.16230    0.00694
  0    90      9.65462    0.00000      9.64969    0.00000
  0    91      9.67037    0.00000      9.68479    0.00000

  1    88      5.12511    0.00694      5.12173    0.00694
  1    89      5.18033    0.00694      5.17157    0.00694
  1    90      9.53728    0.00000      9.53010    0.00000
  1    91      9.54407    0.00000      9.55854    0.00000


Fermi level: 6.37238

Gap: 3.790 eV
Transition (v -> c):
  (s=0, k=72, n=89, [0.08, -0.42, -0.38]) -> (s=0, k=85, n=90, [0.08, 0.08, -0.12])
Writing to born-0.01-23x-.gpw (mode='all')

Timing:                              incl.     excl.
-----------------------------------------------------------
Hamiltonian:                         0.218     0.002   0.0% |
 Atomic:                             0.055     0.055   0.0% |
  XC Correction:                     0.000     0.000   0.0% |
 Calculate atomic Hamiltonians:      0.074     0.074   0.0% |
 Communicate:                        0.002     0.002   0.0% |
 Initialize Hamiltonian:             0.000     0.000   0.0% |
 Poisson:                            0.001     0.001   0.0% |
 XC 3D grid:                         0.085     0.085   0.0% |
LCAO initialization:                71.292     0.647   0.0% |
 LCAO eigensolver:                  19.393     0.002   0.0% |
  Calculate projections:             0.029     0.029   0.0% |
  DenseAtomicCorrection:             0.045     0.045   0.0% |
  Distribute overlap matrix:         0.025     0.025   0.0% |
  Orbital Layouts:                   0.433     0.433   0.0% |
  Potential matrix:                 18.773    18.773   0.6% |
  Sum over cells:                    0.087     0.087   0.0% |
 LCAO to grid:                      49.935    49.935   1.6% ||
 Set positions (LCAO WFS):           1.316     0.191   0.0% |
  Basic WFS set positions:           0.001     0.001   0.0% |
  Basis functions set positions:     0.000     0.000   0.0% |
  P tci:                             0.524     0.524   0.0% |
  ST tci:                            0.384     0.384   0.0% |
  mktci:                             0.216     0.216   0.0% |
PWDescriptor:                        0.024     0.024   0.0% |
SCF-cycle:                        1182.435     1.877   0.1% |
 Davidson:                         999.529   306.782  10.1% |---|
  Apply H:                          68.766    66.872   2.2% ||
   HMM T:                            1.894     1.894   0.1% |
  Subspace diag:                   145.219     0.150   0.0% |
   calc_h_matrix:                   93.325    24.207   0.8% |
    Apply H:                        69.118    67.199   2.2% ||
     HMM T:                          1.919     1.919   0.1% |
   diagonalize:                      7.220     7.220   0.2% |
   rotate_psi:                      44.524    44.524   1.5% ||
  calc. matrices:                  299.232   164.272   5.4% |-|
   Apply H:                        134.960   131.402   4.3% |-|
    HMM T:                           3.558     3.558   0.1% |
  diagonalize:                      83.017    83.017   2.7% ||
  rotate_psi:                       96.513    96.513   3.2% ||
 Density:                           39.959     0.001   0.0% |
  Atomic density matrices:           0.866     0.866   0.0% |
  Mix:                               5.556     5.556   0.2% |
  Multipole moments:                 0.019     0.019   0.0% |
  Pseudo density:                   33.517    33.516   1.1% |
   Symmetrize density:               0.001     0.001   0.0% |
 Forces:                           127.544   127.544   4.2% |-|
 Hamiltonian:                       11.439     0.107   0.0% |
  Atomic:                            2.838     2.838   0.1% |
   XC Correction:                    0.000     0.000   0.0% |
  Calculate atomic Hamiltonians:     3.928     3.928   0.1% |
  Communicate:                       0.105     0.105   0.0% |
  Poisson:                           0.030     0.030   0.0% |
  XC 3D grid:                        4.430     4.430   0.1% |
 Orthonormalize:                     2.087     0.003   0.0% |
  calc_s_matrix:                     0.245     0.245   0.0% |
  inverse-cholesky:                  0.072     0.072   0.0% |
  projections:                       1.332     1.332   0.0% |
  rotate_psi_s:                      0.435     0.435   0.0% |
Set symmetry:                        0.000     0.000   0.0% |
Other:                            1789.317  1789.317  58.8% |-----------------------|
-----------------------------------------------------------
Total:                                      3043.286 100.0%

Memory usage: 13.38 GiB
Date: Wed Mar 24 23:16:20 2021
