
  ___ ___ ___ _ _ _  
 |   |   |_  | | | | 
 | | | | | . | | | | 
 |__ |  _|___|_____|  20.10.1b1
 |___|_|             

User:   madkru@i018.nifl.fysik.dtu.dk
Date:   Wed Mar 24 08:54:49 2021
Arch:   x86_64
Pid:    26873
Python: 3.7.4
gpaw:   /home/niflheim/madkru/venv_folder/gpaw/gpaw (d0d1ca1c71)
_gpaw:  /home/niflheim/madkru/venv_folder/gpaw/build/lib.linux-x86_64-ivybridge-3.7/
        _gpaw.cpython-37m-x86_64-linux-gnu.so (4fd39e8b1e)
ase:    /home/niflheim/madkru/venv_folder/ase/ase (version 3.21.0b1-7e6c206a91)
numpy:  /home/niflheim/madkru/venv_folder/lib/python3.7/site-packages/numpy (version 1.19.4)
scipy:  /home/niflheim/madkru/venv_folder/lib/python3.7/site-packages/scipy (version 1.5.4)
libxc:  4.3.4
units:  Angstrom and eV
cores: 64
OMP_NUM_THREADS: 1

Input parameters:
  convergence: {bands: occupied,
                density: 0.0001,
                eigenstates: 4e-08,
                energy: 0.0005,
                forces: 1e-06}
  kpts: [6 6 4]
  mode: {ecut: 600.0,
         gammacentered: False,
         name: pw}
  occupations: {fixmagmom: False,
                name: fermi-dirac,
                width: 0.001}
  setups: {Mn: :d,3.0}
  symmetry: {point_group: False,
             time_reversal: False}

System changes: positions, numbers, cell, pbc, initial_charges, initial_magmoms 

Initialize ...

O-setup:
  name: Oxygen
  id: 9b9d51c344dea68c822856295a461509
  Z: 8.0
  valence: 6
  core: 2
  charge: 0.0
  file: /home/modules/software/GPAW-setups/0.9.20000/O.LDA.gz
  compensation charges: gauss, rc=0.21, lmax=2
  cutoffs: 1.17(filt), 0.83(core),
  valence states:
                energy  radius
    2s(2.00)   -23.752   0.688
    2p(4.00)    -9.195   0.598
    *s           3.459   0.688
    *p          18.016   0.598
    *d           0.000   0.619

  Using partial waves for O as LCAO basis

Mn-setup:
  name: Manganese
  id: 0d715a8018be061a6e9ea6f2d364ac92
  Z: 25.0
  valence: 15
  core: 10
  charge: 0.0
  Hubbard U: 3.000000 eV (l=2, scale=True)
  file: /home/modules/software/GPAW-setups/0.9.20000/Mn.LDA.gz
  compensation charges: gauss, rc=0.38, lmax=2
  cutoffs: 2.14(filt), 0.86(core),
  valence states:
                energy  radius
    3s(2.00)   -85.387   1.275
    4s(2.00)    -5.282   1.275
    3p(6.00)   -54.493   1.281
    4p(0.00)    -1.471   1.281
    3d(5.00)    -7.009   1.138
    *d          20.203   1.138

  Using partial waves for Mn as LCAO basis

P-setup:
  name: Phosphorus
  id: a5561c299094968922a179ab894d2e2d
  Z: 15.0
  valence: 5
  core: 10
  charge: 0.0
  file: /home/modules/software/GPAW-setups/0.9.20000/P.LDA.gz
  compensation charges: gauss, rc=0.30, lmax=2
  cutoffs: 1.69(filt), 1.81(core),
  valence states:
                energy  radius
    3s(2.00)   -14.015   0.953
    3p(3.00)    -5.596   0.953
    *s          13.197   0.953
    *p          21.615   0.953
    *d           0.000   0.953

  Using partial waves for P as LCAO basis

Li-setup:
  name: Lithium
  id: b73562207f97a71b6967473b66fe8b65
  Z: 3.0
  valence: 1
  core: 2
  charge: 0.0
  file: /home/modules/software/GPAW-setups/0.9.20000/Li.LDA.gz
  compensation charges: gauss, rc=0.33, lmax=2
  cutoffs: 1.91(filt), 2.55(core),
  valence states:
                energy  radius
    2s(1.00)    -2.874   1.058
    2p(0.00)    -1.126   1.058
    *s          24.338   1.058

  Using partial waves for Li as LCAO basis

Reference energy: -196157.275402

Spin-polarized calculation.
Magnetic moment: 0.000000

Convergence criteria:
  Maximum total energy change: 0.0005 eV / electron
  Maximum integral of absolute density change: 0.0001 electrons
  Maximum integral of absolute eigenstate change: 4e-08 eV^2
  Maximum change in atomic force: 1e-06 eV / Ang
  Maximum number of iterations: 333

Symmetries present (total): 1

  ( 1  0  0)
  ( 0  1  0)
  ( 0  0  1)

144 k-points: 6 x 6 x 4 Monkhorst-Pack grid
144 k-points in the irreducible part of the Brillouin zone
       k-points in crystal coordinates                weights
   0:    -0.41666667   -0.41666667   -0.37500000          1/144
   1:    -0.41666667   -0.41666667   -0.12500000          1/144
   2:    -0.41666667   -0.41666667    0.12500000          1/144
   3:    -0.41666667   -0.41666667    0.37500000          1/144
   4:    -0.41666667   -0.25000000   -0.37500000          1/144
   5:    -0.41666667   -0.25000000   -0.12500000          1/144
   6:    -0.41666667   -0.25000000    0.12500000          1/144
   7:    -0.41666667   -0.25000000    0.37500000          1/144
   8:    -0.41666667   -0.08333333   -0.37500000          1/144
   9:    -0.41666667   -0.08333333   -0.12500000          1/144
          ...
 143:     0.41666667    0.41666667    0.37500000          1/144

Wave functions: Plane wave expansion
  Cutoff energy: 600.000 eV
  Number of coefficients (min, max): 9238, 9284
  Pulay-stress correction: 0.000000 eV/Ang^3 (de/decut=0.000000)
  Using FFTW library
  ScaLapack parameters: grid=1x1, blocksize=None
  Wavefunction extrapolation:
    Improved wavefunction reuse through dual PAW basis 

  Fermi-Dirac: width=0.0010 eV

Eigensolver
   Davidson(niter=2, smin=None, normalize=True) 

Densities:
  Coarse grid: 60*35*27 grid
  Fine grid: 120*70*54 grid
  Total Charge: 0.000000 

Density mixing:
  Method: difference
  Backend: pulay
  Linear mixing parameter: 0.05
  Mixing with 5 old densities
  Damping of long wave oscillations: 50 

Hamiltonian:
  XC and Coulomb potentials evaluated on a 120*70*54 grid
  Using the LDA Exchange-Correlation functional
 

Memory estimate:
  Process memory now: 13052.85 MiB
  Calculator: 326.59 MiB
    Density: 9.67 MiB
      Arrays: 3.79 MiB
      Localized functions: 4.32 MiB
      Mixer: 1.56 MiB
    Hamiltonian: 2.94 MiB
      Arrays: 2.82 MiB
      XC: 0.00 MiB
      Poisson: 0.00 MiB
      vbar: 0.12 MiB
    Wavefunctions: 313.97 MiB
      Arrays psit_nG: 285.59 MiB
      Eigensolver: 18.49 MiB
      Projections: 2.71 MiB
      Projectors: 4.46 MiB
      PW-descriptor: 2.72 MiB

Total number of cores used: 64
Parallelization over k-points: 16
Domain decomposition: 2 x 2 x 1

Number of atoms: 28
Number of atomic orbitals: 148
Number of bands in calculation: 112
Number of valence electrons: 180
Bands to converge: occupied

... initialized

Initializing position-dependent things.

Density initialized from atomic densities
Creating initial wave functions:
  112 bands from LCAO basis set

                                           
                                           
                                           
                                           
                                           
               O     O  P  O               
            PO           OMn     O         
                  O          MO            
            O        Li O                  
             Mn  On          OP            
         O         Li O                    
         Li     O P         O              
       Li                                  
                                           
                                           
                                           
                                           

Positions:
   0 O     -1.263197   -2.497779   -1.098475    ( 0.0000,  0.0000,  0.0000)
   1 O     -3.070823    2.922496    1.209491    ( 0.0000,  0.0000,  0.0000)
   2 O      1.985541    0.474863    1.428016    ( 0.0000,  0.0000,  0.0000)
   3 O      3.793120   -0.050100   -0.879950    ( 0.0000,  0.0000,  0.0000)
   4 O      1.985518    2.922485    1.428149    ( 0.0000,  0.0000,  0.0000)
   5 O      3.793144   -2.497790   -0.879818    ( 0.0000,  0.0000,  0.0000)
   6 O     -1.263220   -0.050157   -1.098342    ( 0.0000,  0.0000,  0.0000)
   7 O     -3.070798    0.474805    1.209623    ( 0.0000,  0.0000,  0.0000)
   8 O     -4.167835   -1.273920   -0.862116    ( 0.0000,  0.0000,  0.0000)
   9 O     -0.166037    1.698602    1.445528    ( 0.0000,  0.0000,  0.0000)
  10 O      4.890156    1.698625    1.191790    ( 0.0000,  0.0000,  0.0000)
  11 O      0.888358   -1.273896   -1.115855    ( 0.0000,  0.0000,  0.0000)
  12 Mn    -2.445557   -1.274211    0.312921    ( 0.0000,  0.0000,  1.0000)
  13 Mn    -1.888303    1.698892   -1.994948    ( 0.0000,  0.0000, -1.0000)
  14 Mn     3.167879    1.698917    0.016752    ( 0.0000,  0.0000, -1.0000)
  15 Mn     2.610624   -1.274187    2.324621    ( 0.0000,  0.0000,  1.0000)
  16 P     -0.529549   -1.273917   -1.724376    ( 0.0000,  0.0000,  0.0000)
  17 P     -3.804359    1.698599    0.583463    ( 0.0000,  0.0000,  0.0000)
  18 P      1.251870    1.688623    2.054050    ( 0.0000,  0.0000,  0.0000)
  19 P      4.526680   -1.273894   -0.253789    ( 0.0000,  0.0000,  0.0000)
  20 O     -0.544227   -1.273926    1.365380    ( 0.0000,  0.0000,  0.0000)
  21 O     -3.789411    1.698610   -0.942222    ( 0.0000,  0.0000,  0.0000)
  22 O      1.266548    1.698631   -1.035707    ( 0.0000,  0.0000,  0.0000)
  23 O      4.511733   -1.273905    1.271895    ( 0.0000,  0.0000,  0.0000)
  24 Li    -4.695087   -2.760584   -2.142877    ( 0.0000,  0.0000,  0.0000)
  25 Li     0.361147   -2.760561    0.164836    ( 0.0000,  0.0000,  0.0000)
  26 Li    -4.695074    0.212330   -2.142877    ( 0.0000,  0.0000,  0.0000)
  27 Li     0.361161    0.212353    0.164837    ( 0.0000,  0.0000,  0.0000)

Unit cell:
           periodic     x           y           z      points  spacing
  1. axis:    yes   10.112485    0.000045   -0.000035    60     0.1685
  2. axis:    yes    0.000026    5.945827    0.000001    35     0.1699
  3. axis:    yes   -0.000016    0.000000    4.615463    27     0.1709

  Lengths:  10.112485   5.945827   4.615463
  Angles:   89.999989  90.000396  89.999490

Effective grid spacing dv^(1/3) = 0.1698

                     log10-error:           total        iterations:
           time      wfs    density  force  energy       poisson  magmom
iter:   1  08:56:23                       -221.374688             +0.0000
iter:   2  08:56:43  -0.61  -0.93         -234.833888             +0.0000
iter:   3  08:57:03  -0.37  -0.97         -225.909718             -0.0000
iter:   4  08:57:23  -1.39  -1.29         -225.759203             +0.0000
iter:   5  08:57:43  -1.27  -1.39         -227.327115             +0.0000
iter:   6  08:58:03  -1.46  -1.46         -225.734885             +0.0000
iter:   7  08:58:23  -2.47  -2.04         -225.722006             +0.0000
iter:   8  08:58:42  -2.13  -1.99         -225.594955             +0.0000
iter:   9  08:59:02  -2.45  -2.08         -225.429549             +0.0000
iter:  10  08:59:22  -3.31  -2.55         -225.419772             +0.0000
iter:  11  08:59:42  -3.67  -2.81         -225.409715             +0.0000
iter:  12  09:00:02  -4.12  -3.04         -225.408528             +0.0000
iter:  13  09:00:22  -5.11  -3.29         -225.408392             +0.0000
iter:  14  09:00:41  -5.37  -3.32         -225.408229             +0.0000
iter:  15  09:01:01  -6.05  -3.43         -225.408226             +0.0000
iter:  16  09:01:21  -5.28  -3.47         -225.408525             -0.0000
iter:  17  09:01:41  -5.79  -3.59         -225.408438             +0.0000
iter:  18  09:02:01  -5.32  -3.72         -225.408170             -0.0000
iter:  19  09:02:21  -6.04  -4.03         -225.408179             -0.0000
iter:  20  09:02:41  -7.09  -4.31         -225.408174             +0.0000
iter:  21  09:03:05  -7.59  -4.36         -225.408177             +0.0000
iter:  22  09:03:30  -7.42  -4.47    -2.32-225.408179             +0.0000
iter:  23  09:03:54  -8.22  -4.45    -3.18-225.408177             +0.0000
iter:  24  09:04:14  -7.35  -4.49         -225.408175             +0.0000
iter:  25  09:04:39  -8.33  -4.64    -2.66-225.408175             +0.0000
iter:  26  09:05:03  -7.95  -4.67    -2.57-225.408175             +0.0000
iter:  27  09:05:28  -8.59  -5.00    -2.86-225.408175             +0.0000
iter:  28  09:05:52  -8.97  -5.21    -3.38-225.408175             +0.0000
iter:  29  09:06:17  -8.41  -5.25    -2.71-225.408175             +0.0000
iter:  30  09:06:41  -8.97  -5.42    -3.18-225.408175             +0.0000
iter:  31  09:07:06  -9.98  -5.63    -3.76-225.408175             +0.0000
iter:  32  09:07:30  -9.52  -5.75    -3.60-225.408175             +0.0000
iter:  33  09:07:55 -10.55  -5.92    -3.90-225.408175             +0.0000
iter:  34  09:08:19 -11.26  -6.08    -4.51-225.408175             +0.0000
iter:  35  09:08:43 -10.70  -6.13    -3.70-225.408175             +0.0000
iter:  36  09:09:08 -10.75  -6.33    -4.42-225.408175             +0.0000
iter:  37  09:09:32 -12.02  -6.66    -5.07-225.408175             +0.0000
iter:  38  09:09:57 -11.30  -6.70    -4.37-225.408175             +0.0000
iter:  39  09:10:21 -12.34  -6.73    -5.15-225.408175             +0.0000
iter:  40  09:10:46 -12.74  -6.84    -5.31-225.408175             +0.0000
iter:  41  09:11:10 -13.59  -6.90    -5.38-225.408175             +0.0000
iter:  42  09:11:35 -13.02  -6.92    -5.16-225.408175             +0.0000
iter:  43  09:11:59 -12.07  -6.97    -4.78-225.408175             +0.0000
iter:  44  09:12:24 -12.43  -7.16    -5.00-225.408175             +0.0000
iter:  45  09:12:48 -12.24  -7.19    -4.89-225.408175             +0.0000
iter:  46  09:13:13 -13.00  -7.31    -5.13-225.408175             +0.0000
iter:  47  09:13:38 -13.57  -7.82    -5.47-225.408175             +0.0000
iter:  48  09:14:02 -14.85  -7.88    -5.93-225.408175             +0.0000
iter:  49  09:14:26 -15.05  -7.95    -6.01-225.408175             +0.0000

Converged after 49 iterations.

Dipole moment: (19.052643, -1.443433, -4.182748) |e|*Ang

Total magnetic moment: (0.000000, 0.000000, 0.000000)
Local magnetic moments:
   0 O  ( 0.000000,  0.000000,  0.000679)
   1 O  ( 0.000000,  0.000000, -0.000675)
   2 O  ( 0.000000,  0.000000, -0.000555)
   3 O  ( 0.000000,  0.000000,  0.000679)
   4 O  ( 0.000000,  0.000000, -0.000762)
   5 O  ( 0.000000,  0.000000,  0.000662)
   6 O  ( 0.000000,  0.000000,  0.000645)
   7 O  ( 0.000000,  0.000000, -0.000665)
   8 O  ( 0.000000,  0.000000,  0.022368)
   9 O  ( 0.000000,  0.000000, -0.022368)
  10 O  ( 0.000000,  0.000000, -0.022368)
  11 O  ( 0.000000,  0.000000,  0.022368)
  12 Mn ( 0.000000,  0.000000,  4.575065)
  13 Mn ( 0.000000,  0.000000, -4.575034)
  14 Mn ( 0.000000,  0.000000, -4.575058)
  15 Mn ( 0.000000,  0.000000,  4.575025)
  16 P  ( 0.000000,  0.000000,  0.000812)
  17 P  ( 0.000000,  0.000000, -0.000817)
  18 P  ( 0.000000,  0.000000, -0.000814)
  19 P  ( 0.000000,  0.000000,  0.000817)
  20 O  ( 0.000000,  0.000000,  0.020709)
  21 O  ( 0.000000,  0.000000, -0.020708)
  22 O  ( 0.000000,  0.000000, -0.020709)
  23 O  ( 0.000000,  0.000000,  0.020709)
  24 Li ( 0.000000,  0.000000,  0.000000)
  25 Li ( 0.000000,  0.000000,  0.000006)
  26 Li ( 0.000000,  0.000000, -0.000000)
  27 Li ( 0.000000,  0.000000, -0.000006)

Energy contributions relative to reference atoms: (reference = -196157.275402)

Kinetic:       +296.851647
Potential:     -256.391251
External:        +0.000000
XC:            -267.649307
Entropy (-ST):   -0.000000
Local:           +1.780736
--------------------------
Free energy:   -225.408175
Extrapolated:  -225.408175

Spin contamination: 9.697229 electrons
Showing only first 2 kpts
                      Up                     Down
 Kpt  Band  Eigenvalues  Occupancy  Eigenvalues  Occupancy
  0    88      5.10960    0.00694      5.10936    0.00694
  0    89      5.16095    0.00694      5.16132    0.00694
  0    90      9.65233    0.00000      9.65222    0.00000
  0    91      9.67099    0.00000      9.67097    0.00000

  1    88      5.12106    0.00694      5.12130    0.00694
  1    89      5.17039    0.00694      5.17045    0.00694
  1    90      9.53462    0.00000      9.53448    0.00000
  1    91      9.54480    0.00000      9.54483    0.00000


Fermi level: 6.36995

Gap: 3.795 eV
Transition (v -> c):
  (s=1, k=95, n=89, [0.08, 0.42, 0.38]) -> (s=0, k=81, n=90, [0.08, -0.08, -0.12])
Writing to born-0.01-18y-.gpw (mode='all')

Timing:                              incl.     excl.
-----------------------------------------------------------
Hamiltonian:                         0.220     0.002   0.0% |
 Atomic:                             0.057     0.057   0.0% |
  XC Correction:                     0.000     0.000   0.0% |
 Calculate atomic Hamiltonians:      0.075     0.075   0.0% |
 Communicate:                        0.001     0.001   0.0% |
 Initialize Hamiltonian:             0.000     0.000   0.0% |
 Poisson:                            0.001     0.001   0.0% |
 XC 3D grid:                         0.083     0.083   0.0% |
LCAO initialization:                68.508     0.649   0.0% |
 LCAO eigensolver:                  19.209     0.002   0.0% |
  Calculate projections:             0.029     0.029   0.0% |
  DenseAtomicCorrection:             0.045     0.045   0.0% |
  Distribute overlap matrix:         0.071     0.071   0.0% |
  Orbital Layouts:                   0.431     0.431   0.0% |
  Potential matrix:                 18.529    18.529   0.6% |
  Sum over cells:                    0.102     0.102   0.0% |
 LCAO to grid:                      47.293    47.293   1.6% ||
 Set positions (LCAO WFS):           1.357     0.191   0.0% |
  Basic WFS set positions:           0.001     0.001   0.0% |
  Basis functions set positions:     0.000     0.000   0.0% |
  P tci:                             0.524     0.524   0.0% |
  ST tci:                            0.384     0.384   0.0% |
  mktci:                             0.256     0.256   0.0% |
PWDescriptor:                        0.023     0.023   0.0% |
SCF-cycle:                        1107.126     3.303   0.1% |
 Davidson:                         922.770   283.556   9.6% |---|
  Apply H:                          63.210    61.394   2.1% ||
   HMM T:                            1.815     1.815   0.1% |
  Subspace diag:                   133.529     0.139   0.0% |
   calc_h_matrix:                   85.528    22.412   0.8% |
    Apply H:                        63.116    61.274   2.1% ||
     HMM T:                          1.842     1.842   0.1% |
   diagonalize:                      6.647     6.647   0.2% |
   rotate_psi:                      41.214    41.214   1.4% ||
  calc. matrices:                  275.699   151.985   5.1% |-|
   Apply H:                        123.713   120.306   4.1% |-|
    HMM T:                           3.407     3.407   0.1% |
  diagonalize:                      77.530    77.530   2.6% ||
  rotate_psi:                       89.247    89.247   3.0% ||
 Density:                           36.792     0.001   0.0% |
  Atomic density matrices:           0.772     0.772   0.0% |
  Mix:                               5.136     5.136   0.2% |
  Multipole moments:                 0.018     0.018   0.0% |
  Pseudo density:                   30.865    30.864   1.0% |
   Symmetrize density:               0.001     0.001   0.0% |
 Forces:                           131.608   131.608   4.4% |-|
 Hamiltonian:                       10.558     0.101   0.0% |
  Atomic:                            2.629     2.629   0.1% |
   XC Correction:                    0.000     0.000   0.0% |
  Calculate atomic Hamiltonians:     3.630     3.630   0.1% |
  Communicate:                       0.082     0.082   0.0% |
  Poisson:                           0.029     0.029   0.0% |
  XC 3D grid:                        4.087     4.087   0.1% |
 Orthonormalize:                     2.094     0.003   0.0% |
  calc_s_matrix:                     0.246     0.246   0.0% |
  inverse-cholesky:                  0.073     0.073   0.0% |
  projections:                       1.336     1.336   0.0% |
  rotate_psi_s:                      0.435     0.435   0.0% |
Set symmetry:                        0.000     0.000   0.0% |
Other:                            1782.904  1782.904  60.3% |-----------------------|
-----------------------------------------------------------
Total:                                      2958.781 100.0%

Memory usage: 12.75 GiB
Date: Wed Mar 24 09:44:08 2021
