
  ___ ___ ___ _ _ _  
 |   |   |_  | | | | 
 | | | | | . | | | | 
 |__ |  _|___|_____|  20.10.1b1
 |___|_|             

User:   madkru@g035.nifl.fysik.dtu.dk
Date:   Sun Mar 21 16:33:01 2021
Arch:   x86_64
Pid:    44316
Python: 3.7.4
gpaw:   /home/niflheim/madkru/venv_folder/gpaw/gpaw (d0d1ca1c71)
_gpaw:  /home/niflheim/madkru/venv_folder/gpaw/build/lib.linux-x86_64-sandybridge-3.7/
        _gpaw.cpython-37m-x86_64-linux-gnu.so (4fd39e8b1e)
ase:    /home/niflheim/madkru/venv_folder/ase/ase (version 3.21.0b1-7e6c206a91)
numpy:  /home/niflheim/madkru/venv_folder/lib/python3.7/site-packages/numpy (version 1.19.4)
scipy:  /home/niflheim/madkru/venv_folder/lib/python3.7/site-packages/scipy (version 1.5.4)
libxc:  4.3.4
units:  Angstrom and eV
cores: 32
OMP_NUM_THREADS: 1

Input parameters:
  convergence: {bands: occupied,
                density: 0.0001,
                eigenstates: 4e-08,
                energy: 0.0005,
                forces: 1e-06}
  kpts: [6 6 4]
  mode: {ecut: 600.0,
         gammacentered: False,
         name: pw}
  occupations: {fixmagmom: False,
                name: fermi-dirac,
                width: 0.001}
  setups: {Mn: :d,3.0}
  symmetry: {point_group: False,
             time_reversal: False}

System changes: positions, numbers, cell, pbc, initial_charges, initial_magmoms 

Initialize ...

O-setup:
  name: Oxygen
  id: 9b9d51c344dea68c822856295a461509
  Z: 8.0
  valence: 6
  core: 2
  charge: 0.0
  file: /home/modules/software/GPAW-setups/0.9.20000/O.LDA.gz
  compensation charges: gauss, rc=0.21, lmax=2
  cutoffs: 1.17(filt), 0.83(core),
  valence states:
                energy  radius
    2s(2.00)   -23.752   0.688
    2p(4.00)    -9.195   0.598
    *s           3.459   0.688
    *p          18.016   0.598
    *d           0.000   0.619

  Using partial waves for O as LCAO basis

Mn-setup:
  name: Manganese
  id: 0d715a8018be061a6e9ea6f2d364ac92
  Z: 25.0
  valence: 15
  core: 10
  charge: 0.0
  Hubbard U: 3.000000 eV (l=2, scale=True)
  file: /home/modules/software/GPAW-setups/0.9.20000/Mn.LDA.gz
  compensation charges: gauss, rc=0.38, lmax=2
  cutoffs: 2.14(filt), 0.86(core),
  valence states:
                energy  radius
    3s(2.00)   -85.387   1.275
    4s(2.00)    -5.282   1.275
    3p(6.00)   -54.493   1.281
    4p(0.00)    -1.471   1.281
    3d(5.00)    -7.009   1.138
    *d          20.203   1.138

  Using partial waves for Mn as LCAO basis

P-setup:
  name: Phosphorus
  id: a5561c299094968922a179ab894d2e2d
  Z: 15.0
  valence: 5
  core: 10
  charge: 0.0
  file: /home/modules/software/GPAW-setups/0.9.20000/P.LDA.gz
  compensation charges: gauss, rc=0.30, lmax=2
  cutoffs: 1.69(filt), 1.81(core),
  valence states:
                energy  radius
    3s(2.00)   -14.015   0.953
    3p(3.00)    -5.596   0.953
    *s          13.197   0.953
    *p          21.615   0.953
    *d           0.000   0.953

  Using partial waves for P as LCAO basis

Li-setup:
  name: Lithium
  id: b73562207f97a71b6967473b66fe8b65
  Z: 3.0
  valence: 1
  core: 2
  charge: 0.0
  file: /home/modules/software/GPAW-setups/0.9.20000/Li.LDA.gz
  compensation charges: gauss, rc=0.33, lmax=2
  cutoffs: 1.91(filt), 2.55(core),
  valence states:
                energy  radius
    2s(1.00)    -2.874   1.058
    2p(0.00)    -1.126   1.058
    *s          24.338   1.058

  Using partial waves for Li as LCAO basis

Reference energy: -196157.275402

Spin-polarized calculation.
Magnetic moment: 0.000000

Convergence criteria:
  Maximum total energy change: 0.0005 eV / electron
  Maximum integral of absolute density change: 0.0001 electrons
  Maximum integral of absolute eigenstate change: 4e-08 eV^2
  Maximum change in atomic force: 1e-06 eV / Ang
  Maximum number of iterations: 333

Symmetries present (total): 1

  ( 1  0  0)
  ( 0  1  0)
  ( 0  0  1)

144 k-points: 6 x 6 x 4 Monkhorst-Pack grid
144 k-points in the irreducible part of the Brillouin zone
       k-points in crystal coordinates                weights
   0:    -0.41666667   -0.41666667   -0.37500000          1/144
   1:    -0.41666667   -0.41666667   -0.12500000          1/144
   2:    -0.41666667   -0.41666667    0.12500000          1/144
   3:    -0.41666667   -0.41666667    0.37500000          1/144
   4:    -0.41666667   -0.25000000   -0.37500000          1/144
   5:    -0.41666667   -0.25000000   -0.12500000          1/144
   6:    -0.41666667   -0.25000000    0.12500000          1/144
   7:    -0.41666667   -0.25000000    0.37500000          1/144
   8:    -0.41666667   -0.08333333   -0.37500000          1/144
   9:    -0.41666667   -0.08333333   -0.12500000          1/144
          ...
 143:     0.41666667    0.41666667    0.37500000          1/144

Wave functions: Plane wave expansion
  Cutoff energy: 600.000 eV
  Number of coefficients (min, max): 9238, 9284
  Pulay-stress correction: 0.000000 eV/Ang^3 (de/decut=0.000000)
  Using FFTW library
  ScaLapack parameters: grid=1x1, blocksize=None
  Wavefunction extrapolation:
    Improved wavefunction reuse through dual PAW basis 

  Fermi-Dirac: width=0.0010 eV

Eigensolver
   Davidson(niter=2, smin=None, normalize=True) 

Densities:
  Coarse grid: 60*35*27 grid
  Fine grid: 120*70*54 grid
  Total Charge: 0.000000 

Density mixing:
  Method: difference
  Backend: pulay
  Linear mixing parameter: 0.05
  Mixing with 5 old densities
  Damping of long wave oscillations: 50 

Hamiltonian:
  XC and Coulomb potentials evaluated on a 120*70*54 grid
  Using the LDA Exchange-Correlation functional
 

Memory estimate:
  Process memory now: 12540.01 MiB
  Calculator: 346.50 MiB
    Density: 19.24 MiB
      Arrays: 7.57 MiB
      Localized functions: 8.64 MiB
      Mixer: 3.03 MiB
    Hamiltonian: 5.87 MiB
      Arrays: 5.62 MiB
      XC: 0.00 MiB
      Poisson: 0.00 MiB
      vbar: 0.25 MiB
    Wavefunctions: 321.38 MiB
      Arrays psit_nG: 285.59 MiB
      Eigensolver: 18.49 MiB
      Projections: 5.41 MiB
      Projectors: 8.92 MiB
      PW-descriptor: 2.96 MiB

Total number of cores used: 32
Parallelization over k-points: 16
Domain decomposition: 2 x 1 x 1

Number of atoms: 28
Number of atomic orbitals: 148
Number of bands in calculation: 112
Number of valence electrons: 180
Bands to converge: occupied

... initialized

Initializing position-dependent things.

Density initialized from atomic densities
Creating initial wave functions:
  112 bands from LCAO basis set

                                           
                                           
                                           
                                           
                                           
               O     O  P  O               
            PO           OMn     O         
                  O          MO            
            O        Li O                  
             Mn  On          OP            
         O         Li O                    
         Li     O P         O              
       Li                                  
                                           
                                           
                                           
                                           

Positions:
   0 O     -1.263197   -2.497779   -1.098475    ( 0.0000,  0.0000,  0.0000)
   1 O     -3.070823    2.922496    1.209491    ( 0.0000,  0.0000,  0.0000)
   2 O      1.985541    0.474863    1.418016    ( 0.0000,  0.0000,  0.0000)
   3 O      3.793120   -0.050100   -0.879950    ( 0.0000,  0.0000,  0.0000)
   4 O      1.985518    2.922485    1.428149    ( 0.0000,  0.0000,  0.0000)
   5 O      3.793144   -2.497790   -0.879818    ( 0.0000,  0.0000,  0.0000)
   6 O     -1.263220   -0.050157   -1.098342    ( 0.0000,  0.0000,  0.0000)
   7 O     -3.070798    0.474805    1.209623    ( 0.0000,  0.0000,  0.0000)
   8 O     -4.167835   -1.273920   -0.862116    ( 0.0000,  0.0000,  0.0000)
   9 O     -0.166037    1.698602    1.445528    ( 0.0000,  0.0000,  0.0000)
  10 O      4.890156    1.698625    1.191790    ( 0.0000,  0.0000,  0.0000)
  11 O      0.888358   -1.273896   -1.115855    ( 0.0000,  0.0000,  0.0000)
  12 Mn    -2.445557   -1.274211    0.312921    ( 0.0000,  0.0000,  1.0000)
  13 Mn    -1.888303    1.698892   -1.994948    ( 0.0000,  0.0000, -1.0000)
  14 Mn     3.167879    1.698917    0.016752    ( 0.0000,  0.0000, -1.0000)
  15 Mn     2.610624   -1.274187    2.324621    ( 0.0000,  0.0000,  1.0000)
  16 P     -0.529549   -1.273917   -1.724376    ( 0.0000,  0.0000,  0.0000)
  17 P     -3.804359    1.698599    0.583463    ( 0.0000,  0.0000,  0.0000)
  18 P      1.251870    1.698623    2.054050    ( 0.0000,  0.0000,  0.0000)
  19 P      4.526680   -1.273894   -0.253789    ( 0.0000,  0.0000,  0.0000)
  20 O     -0.544227   -1.273926    1.365380    ( 0.0000,  0.0000,  0.0000)
  21 O     -3.789411    1.698610   -0.942222    ( 0.0000,  0.0000,  0.0000)
  22 O      1.266548    1.698631   -1.035707    ( 0.0000,  0.0000,  0.0000)
  23 O      4.511733   -1.273905    1.271895    ( 0.0000,  0.0000,  0.0000)
  24 Li    -4.695087   -2.760584   -2.142877    ( 0.0000,  0.0000,  0.0000)
  25 Li     0.361147   -2.760561    0.164836    ( 0.0000,  0.0000,  0.0000)
  26 Li    -4.695074    0.212330   -2.142877    ( 0.0000,  0.0000,  0.0000)
  27 Li     0.361161    0.212353    0.164837    ( 0.0000,  0.0000,  0.0000)

Unit cell:
           periodic     x           y           z      points  spacing
  1. axis:    yes   10.112485    0.000045   -0.000035    60     0.1685
  2. axis:    yes    0.000026    5.945827    0.000001    35     0.1699
  3. axis:    yes   -0.000016    0.000000    4.615463    27     0.1709

  Lengths:  10.112485   5.945827   4.615463
  Angles:   89.999989  90.000396  89.999490

Effective grid spacing dv^(1/3) = 0.1698

                     log10-error:           total        iterations:
           time      wfs    density  force  energy       poisson  magmom
iter:   1  16:36:15                       -221.379200             +0.0000
iter:   2  16:36:52  -0.61  -0.93         -234.833473             +0.0000
iter:   3  16:37:30  -0.37  -0.97         -225.909766             -0.0000
iter:   4  16:38:07  -1.39  -1.29         -225.761371             +0.0000
iter:   5  16:38:44  -1.27  -1.39         -227.328487             +0.0000
iter:   6  16:39:22  -1.46  -1.46         -225.737019             +0.0000
iter:   7  16:39:59  -2.47  -2.04         -225.724351             +0.0000
iter:   8  16:40:36  -2.15  -1.99         -225.587734             +0.0000
iter:   9  16:41:14  -2.46  -2.09         -225.432084             +0.0000
iter:  10  16:41:51  -3.31  -2.55         -225.422141             +0.0000
iter:  11  16:42:28  -3.64  -2.81         -225.411635             +0.0000
iter:  12  16:43:05  -4.15  -3.05         -225.410597             +0.0000
iter:  13  16:43:43  -5.11  -3.29         -225.410489             -0.0000
iter:  14  16:44:20  -5.39  -3.32         -225.410314             -0.0000
iter:  15  16:44:57  -6.03  -3.43         -225.410322             -0.0000
iter:  16  16:45:34  -5.26  -3.47         -225.410646             +0.0000
iter:  17  16:46:12  -5.86  -3.58         -225.410544             -0.0000
iter:  18  16:46:49  -5.28  -3.71         -225.410271             +0.0000
iter:  19  16:47:26  -6.14  -4.09         -225.410268             +0.0000
iter:  20  16:48:03  -7.26  -4.49         -225.410271             -0.0000
iter:  21  16:48:50  -7.57  -4.54         -225.410270             -0.0000
iter:  22  16:49:27  -7.18  -4.59         -225.410269             -0.0000
iter:  23  16:50:14  -8.31  -4.69    -2.46-225.410269             -0.0000
iter:  24  16:51:01  -7.62  -4.76    -2.65-225.410268             -0.0000
iter:  25  16:51:48  -8.30  -5.05    -2.99-225.410268             -0.0000
iter:  26  16:52:35  -9.11  -5.49    -3.51-225.410268             -0.0000
iter:  27  16:53:22  -9.48  -5.49    -3.35-225.410268             -0.0000
iter:  28  16:54:09  -9.65  -5.62    -3.47-225.410268             -0.0000
iter:  29  16:54:56 -10.09  -5.74    -3.62-225.410268             -0.0000
iter:  30  16:55:43 -10.26  -5.80    -3.66-225.410268             +0.0000
iter:  31  16:56:30 -10.08  -5.81    -3.98-225.410268             +0.0000
iter:  32  16:57:17 -11.54  -5.85    -4.75-225.410268             -0.0000
iter:  33  16:58:04 -10.02  -5.88    -3.67-225.410268             +0.0000
iter:  34  16:58:51 -10.61  -6.20    -4.42-225.410268             +0.0000
iter:  35  16:59:38 -11.69  -6.42    -4.39-225.410268             +0.0000
iter:  36  17:00:25 -12.13  -6.44    -4.44-225.410268             -0.0000
iter:  37  17:01:12 -11.88  -6.49    -4.34-225.410268             +0.0000
iter:  38  17:01:59 -11.52  -6.55    -4.13-225.410268             +0.0000
iter:  39  17:02:46 -11.29  -6.68    -4.58-225.410268             +0.0000
iter:  40  17:03:33 -12.90  -6.92    -5.77-225.410268             +0.0000
iter:  41  17:04:20 -11.76  -6.95    -4.69-225.410268             -0.0000
iter:  42  17:05:07 -12.16  -7.06    -4.94-225.410268             -0.0000
iter:  43  17:05:54 -13.24  -7.40    -5.27-225.410268             -0.0000
iter:  44  17:06:41 -12.95  -7.39    -5.39-225.410268             +0.0000
iter:  45  17:07:28 -12.88  -7.57    -5.35-225.410268             -0.0000
iter:  46  17:08:15 -13.65  -7.86    -5.95-225.410268             -0.0000
iter:  47  17:09:02 -14.68  -7.96    -6.23-225.410268             -0.0000

Converged after 47 iterations.

Dipole moment: (19.051912, -1.427887, -4.178793) |e|*Ang

Total magnetic moment: (0.000000, 0.000000, -0.000000)
Local magnetic moments:
   0 O  ( 0.000000,  0.000000,  0.000654)
   1 O  ( 0.000000,  0.000000, -0.000679)
   2 O  ( 0.000000,  0.000000, -0.000850)
   3 O  ( 0.000000,  0.000000,  0.000616)
   4 O  ( 0.000000,  0.000000, -0.000696)
   5 O  ( 0.000000,  0.000000,  0.000766)
   6 O  ( 0.000000,  0.000000,  0.000652)
   7 O  ( 0.000000,  0.000000, -0.000671)
   8 O  ( 0.000000,  0.000000,  0.022371)
   9 O  ( 0.000000,  0.000000, -0.022437)
  10 O  ( 0.000000,  0.000000, -0.022385)
  11 O  ( 0.000000,  0.000000,  0.022324)
  12 Mn ( 0.000000,  0.000000,  4.575060)
  13 Mn ( 0.000000,  0.000000, -4.575036)
  14 Mn ( 0.000000,  0.000000, -4.574710)
  15 Mn ( 0.000000,  0.000000,  4.575379)
  16 P  ( 0.000000,  0.000000,  0.000807)
  17 P  ( 0.000000,  0.000000, -0.000825)
  18 P  ( 0.000000,  0.000000, -0.000969)
  19 P  ( 0.000000,  0.000000,  0.000809)
  20 O  ( 0.000000,  0.000000,  0.020700)
  21 O  ( 0.000000,  0.000000, -0.020711)
  22 O  ( 0.000000,  0.000000, -0.020713)
  23 O  ( 0.000000,  0.000000,  0.020693)
  24 Li ( 0.000000,  0.000000, -0.000001)
  25 Li ( 0.000000,  0.000000, -0.000000)
  26 Li ( 0.000000,  0.000000,  0.000001)
  27 Li ( 0.000000,  0.000000, -0.000008)

Energy contributions relative to reference atoms: (reference = -196157.275402)

Kinetic:       +296.591585
Potential:     -256.190940
External:        +0.000000
XC:            -267.592399
Entropy (-ST):   -0.000000
Local:           +1.781485
--------------------------
Free energy:   -225.410268
Extrapolated:  -225.410268

Spin contamination: 9.697158 electrons
Showing only first 2 kpts
                      Up                     Down
 Kpt  Band  Eigenvalues  Occupancy  Eigenvalues  Occupancy
  0    88      5.10758    0.00694      5.11163    0.00694
  0    89      5.15948    0.00694      5.16363    0.00694
  0    90      9.65527    0.00000      9.65222    0.00000
  0    91      9.67235    0.00000      9.67147    0.00000

  1    88      5.11939    0.00694      5.12313    0.00694
  1    89      5.16886    0.00694      5.17357    0.00694
  1    90      9.53645    0.00000      9.53448    0.00000
  1    91      9.54530    0.00000      9.54567    0.00000


Fermi level: 6.37002

Gap: 3.792 eV
Transition (v -> c):
  (s=1, k=75, n=89, [0.08, -0.42, 0.38]) -> (s=0, k=58, n=90, [-0.08, -0.08, 0.12])
Writing to born-0.01-2z-.gpw (mode='all')

Timing:                              incl.     excl.
-----------------------------------------------------------
Hamiltonian:                         0.418     0.002   0.0% |
 Atomic:                             0.065     0.065   0.0% |
  XC Correction:                     0.000     0.000   0.0% |
 Calculate atomic Hamiltonians:      0.167     0.167   0.0% |
 Communicate:                        0.010     0.010   0.0% |
 Initialize Hamiltonian:             0.000     0.000   0.0% |
 Poisson:                            0.001     0.001   0.0% |
 XC 3D grid:                         0.173     0.173   0.0% |
LCAO initialization:               147.069     0.711   0.0% |
 LCAO eigensolver:                  39.914     0.002   0.0% |
  Calculate projections:             0.056     0.056   0.0% |
  DenseAtomicCorrection:             0.082     0.082   0.0% |
  Distribute overlap matrix:         0.133     0.133   0.0% |
  Orbital Layouts:                   0.361     0.361   0.0% |
  Potential matrix:                 39.177    39.177   0.8% |
  Sum over cells:                    0.102     0.102   0.0% |
 LCAO to grid:                     104.081   104.081   2.0% ||
 Set positions (LCAO WFS):           2.364     0.367   0.0% |
  Basic WFS set positions:           0.001     0.001   0.0% |
  Basis functions set positions:     0.000     0.000   0.0% |
  P tci:                             1.074     1.074   0.0% |
  ST tci:                            0.705     0.705   0.0% |
  mktci:                             0.215     0.215   0.0% |
PWDescriptor:                        0.025     0.025   0.0% |
SCF-cycle:                        2011.426     7.841   0.2% |
 Davidson:                        1657.963   526.410  10.3% |---|
  Apply H:                         122.016   118.665   2.3% ||
   HMM T:                            3.351     3.351   0.1% |
  Subspace diag:                   247.577     0.148   0.0% |
   calc_h_matrix:                  163.203    42.787   0.8% |
    Apply H:                       120.416   117.164   2.3% ||
     HMM T:                          3.252     3.252   0.1% |
   diagonalize:                      5.751     5.751   0.1% |
   rotate_psi:                      78.475    78.475   1.5% ||
  calc. matrices:                  523.272   286.304   5.6% |-|
   Apply H:                        236.968   230.703   4.5% |-|
    HMM T:                           6.265     6.265   0.1% |
  diagonalize:                      78.419    78.419   1.5% ||
  rotate_psi:                      160.268   160.268   3.1% ||
 Density:                           68.861     0.001   0.0% |
  Atomic density matrices:           1.227     1.227   0.0% |
  Mix:                              10.627    10.627   0.2% |
  Multipole moments:                 0.029     0.029   0.0% |
  Pseudo density:                   56.978    56.977   1.1% |
   Symmetrize density:               0.001     0.001   0.0% |
 Forces:                           253.620   253.620   5.0% |-|
 Hamiltonian:                       19.089     0.112   0.0% |
  Atomic:                            2.726     2.725   0.1% |
   XC Correction:                    0.000     0.000   0.0% |
  Calculate atomic Hamiltonians:     7.865     7.865   0.2% |
  Communicate:                       0.085     0.085   0.0% |
  Poisson:                           0.070     0.070   0.0% |
  XC 3D grid:                        8.231     8.231   0.2% |
 Orthonormalize:                     4.053     0.004   0.0% |
  calc_s_matrix:                     0.483     0.483   0.0% |
  inverse-cholesky:                  0.055     0.055   0.0% |
  projections:                       2.655     2.655   0.1% |
  rotate_psi_s:                      0.856     0.856   0.0% |
Set symmetry:                        0.000     0.000   0.0% |
Other:                            2960.441  2960.441  57.8% |----------------------|
-----------------------------------------------------------
Total:                                      5119.380 100.0%

Memory usage: 12.27 GiB
Date: Sun Mar 21 17:58:21 2021
