
  ___ ___ ___ _ _ _  
 |   |   |_  | | | | 
 | | | | | . | | | | 
 |__ |  _|___|_____|  20.10.1b1
 |___|_|             

User:   madkru@i018.nifl.fysik.dtu.dk
Date:   Wed Mar 24 07:51:29 2021
Arch:   x86_64
Pid:    26873
Python: 3.7.4
gpaw:   /home/niflheim/madkru/venv_folder/gpaw/gpaw (d0d1ca1c71)
_gpaw:  /home/niflheim/madkru/venv_folder/gpaw/build/lib.linux-x86_64-ivybridge-3.7/
        _gpaw.cpython-37m-x86_64-linux-gnu.so (4fd39e8b1e)
ase:    /home/niflheim/madkru/venv_folder/ase/ase (version 3.21.0b1-7e6c206a91)
numpy:  /home/niflheim/madkru/venv_folder/lib/python3.7/site-packages/numpy (version 1.19.4)
scipy:  /home/niflheim/madkru/venv_folder/lib/python3.7/site-packages/scipy (version 1.5.4)
libxc:  4.3.4
units:  Angstrom and eV
cores: 64
OMP_NUM_THREADS: 1

Input parameters:
  convergence: {bands: occupied,
                density: 0.0001,
                eigenstates: 4e-08,
                energy: 0.0005,
                forces: 1e-06}
  kpts: [6 6 4]
  mode: {ecut: 600.0,
         gammacentered: False,
         name: pw}
  occupations: {fixmagmom: False,
                name: fermi-dirac,
                width: 0.001}
  setups: {Mn: :d,3.0}
  symmetry: {point_group: False,
             time_reversal: False}

System changes: positions, numbers, cell, pbc, initial_charges, initial_magmoms 

Initialize ...

O-setup:
  name: Oxygen
  id: 9b9d51c344dea68c822856295a461509
  Z: 8.0
  valence: 6
  core: 2
  charge: 0.0
  file: /home/modules/software/GPAW-setups/0.9.20000/O.LDA.gz
  compensation charges: gauss, rc=0.21, lmax=2
  cutoffs: 1.17(filt), 0.83(core),
  valence states:
                energy  radius
    2s(2.00)   -23.752   0.688
    2p(4.00)    -9.195   0.598
    *s           3.459   0.688
    *p          18.016   0.598
    *d           0.000   0.619

  Using partial waves for O as LCAO basis

Mn-setup:
  name: Manganese
  id: 0d715a8018be061a6e9ea6f2d364ac92
  Z: 25.0
  valence: 15
  core: 10
  charge: 0.0
  Hubbard U: 3.000000 eV (l=2, scale=True)
  file: /home/modules/software/GPAW-setups/0.9.20000/Mn.LDA.gz
  compensation charges: gauss, rc=0.38, lmax=2
  cutoffs: 2.14(filt), 0.86(core),
  valence states:
                energy  radius
    3s(2.00)   -85.387   1.275
    4s(2.00)    -5.282   1.275
    3p(6.00)   -54.493   1.281
    4p(0.00)    -1.471   1.281
    3d(5.00)    -7.009   1.138
    *d          20.203   1.138

  Using partial waves for Mn as LCAO basis

P-setup:
  name: Phosphorus
  id: a5561c299094968922a179ab894d2e2d
  Z: 15.0
  valence: 5
  core: 10
  charge: 0.0
  file: /home/modules/software/GPAW-setups/0.9.20000/P.LDA.gz
  compensation charges: gauss, rc=0.30, lmax=2
  cutoffs: 1.69(filt), 1.81(core),
  valence states:
                energy  radius
    3s(2.00)   -14.015   0.953
    3p(3.00)    -5.596   0.953
    *s          13.197   0.953
    *p          21.615   0.953
    *d           0.000   0.953

  Using partial waves for P as LCAO basis

Li-setup:
  name: Lithium
  id: b73562207f97a71b6967473b66fe8b65
  Z: 3.0
  valence: 1
  core: 2
  charge: 0.0
  file: /home/modules/software/GPAW-setups/0.9.20000/Li.LDA.gz
  compensation charges: gauss, rc=0.33, lmax=2
  cutoffs: 1.91(filt), 2.55(core),
  valence states:
                energy  radius
    2s(1.00)    -2.874   1.058
    2p(0.00)    -1.126   1.058
    *s          24.338   1.058

  Using partial waves for Li as LCAO basis

Reference energy: -196157.275402

Spin-polarized calculation.
Magnetic moment: 0.000000

Convergence criteria:
  Maximum total energy change: 0.0005 eV / electron
  Maximum integral of absolute density change: 0.0001 electrons
  Maximum integral of absolute eigenstate change: 4e-08 eV^2
  Maximum change in atomic force: 1e-06 eV / Ang
  Maximum number of iterations: 333

Symmetries present (total): 1

  ( 1  0  0)
  ( 0  1  0)
  ( 0  0  1)

144 k-points: 6 x 6 x 4 Monkhorst-Pack grid
144 k-points in the irreducible part of the Brillouin zone
       k-points in crystal coordinates                weights
   0:    -0.41666667   -0.41666667   -0.37500000          1/144
   1:    -0.41666667   -0.41666667   -0.12500000          1/144
   2:    -0.41666667   -0.41666667    0.12500000          1/144
   3:    -0.41666667   -0.41666667    0.37500000          1/144
   4:    -0.41666667   -0.25000000   -0.37500000          1/144
   5:    -0.41666667   -0.25000000   -0.12500000          1/144
   6:    -0.41666667   -0.25000000    0.12500000          1/144
   7:    -0.41666667   -0.25000000    0.37500000          1/144
   8:    -0.41666667   -0.08333333   -0.37500000          1/144
   9:    -0.41666667   -0.08333333   -0.12500000          1/144
          ...
 143:     0.41666667    0.41666667    0.37500000          1/144

Wave functions: Plane wave expansion
  Cutoff energy: 600.000 eV
  Number of coefficients (min, max): 9238, 9284
  Pulay-stress correction: 0.000000 eV/Ang^3 (de/decut=0.000000)
  Using FFTW library
  ScaLapack parameters: grid=1x1, blocksize=None
  Wavefunction extrapolation:
    Improved wavefunction reuse through dual PAW basis 

  Fermi-Dirac: width=0.0010 eV

Eigensolver
   Davidson(niter=2, smin=None, normalize=True) 

Densities:
  Coarse grid: 60*35*27 grid
  Fine grid: 120*70*54 grid
  Total Charge: 0.000000 

Density mixing:
  Method: difference
  Backend: pulay
  Linear mixing parameter: 0.05
  Mixing with 5 old densities
  Damping of long wave oscillations: 50 

Hamiltonian:
  XC and Coulomb potentials evaluated on a 120*70*54 grid
  Using the LDA Exchange-Correlation functional
 

Memory estimate:
  Process memory now: 12989.96 MiB
  Calculator: 326.59 MiB
    Density: 9.67 MiB
      Arrays: 3.79 MiB
      Localized functions: 4.32 MiB
      Mixer: 1.56 MiB
    Hamiltonian: 2.94 MiB
      Arrays: 2.82 MiB
      XC: 0.00 MiB
      Poisson: 0.00 MiB
      vbar: 0.12 MiB
    Wavefunctions: 313.97 MiB
      Arrays psit_nG: 285.59 MiB
      Eigensolver: 18.49 MiB
      Projections: 2.71 MiB
      Projectors: 4.46 MiB
      PW-descriptor: 2.72 MiB

Total number of cores used: 64
Parallelization over k-points: 16
Domain decomposition: 2 x 2 x 1

Number of atoms: 28
Number of atomic orbitals: 148
Number of bands in calculation: 112
Number of valence electrons: 180
Bands to converge: occupied

... initialized

Initializing position-dependent things.

Density initialized from atomic densities
Creating initial wave functions:
  112 bands from LCAO basis set

                                           
                                           
                                           
                                           
                                           
               O     O  P  O               
            PO           OMn     O         
                  O          MO            
            O        Li O                  
             Mn  On          OP            
         O         Li O                    
         Li     O P         O              
       Li                                  
                                           
                                           
                                           
                                           

Positions:
   0 O     -1.263197   -2.497779   -1.098475    ( 0.0000,  0.0000,  0.0000)
   1 O     -3.070823    2.922496    1.209491    ( 0.0000,  0.0000,  0.0000)
   2 O      1.985541    0.474863    1.428016    ( 0.0000,  0.0000,  0.0000)
   3 O      3.793120   -0.050100   -0.879950    ( 0.0000,  0.0000,  0.0000)
   4 O      1.985518    2.922485    1.428149    ( 0.0000,  0.0000,  0.0000)
   5 O      3.793144   -2.497790   -0.879818    ( 0.0000,  0.0000,  0.0000)
   6 O     -1.263220   -0.050157   -1.098342    ( 0.0000,  0.0000,  0.0000)
   7 O     -3.070798    0.474805    1.209623    ( 0.0000,  0.0000,  0.0000)
   8 O     -4.167835   -1.273920   -0.862116    ( 0.0000,  0.0000,  0.0000)
   9 O     -0.166037    1.698602    1.445528    ( 0.0000,  0.0000,  0.0000)
  10 O      4.890156    1.698625    1.191790    ( 0.0000,  0.0000,  0.0000)
  11 O      0.888358   -1.273896   -1.115855    ( 0.0000,  0.0000,  0.0000)
  12 Mn    -2.445557   -1.274211    0.312921    ( 0.0000,  0.0000,  1.0000)
  13 Mn    -1.888303    1.698892   -1.994948    ( 0.0000,  0.0000, -1.0000)
  14 Mn     3.167879    1.698917    0.016752    ( 0.0000,  0.0000, -1.0000)
  15 Mn     2.610624   -1.274187    2.324621    ( 0.0000,  0.0000,  1.0000)
  16 P     -0.529549   -1.273917   -1.724376    ( 0.0000,  0.0000,  0.0000)
  17 P     -3.804359    1.698599    0.583463    ( 0.0000,  0.0000,  0.0000)
  18 P      1.241870    1.698623    2.054050    ( 0.0000,  0.0000,  0.0000)
  19 P      4.526680   -1.273894   -0.253789    ( 0.0000,  0.0000,  0.0000)
  20 O     -0.544227   -1.273926    1.365380    ( 0.0000,  0.0000,  0.0000)
  21 O     -3.789411    1.698610   -0.942222    ( 0.0000,  0.0000,  0.0000)
  22 O      1.266548    1.698631   -1.035707    ( 0.0000,  0.0000,  0.0000)
  23 O      4.511733   -1.273905    1.271895    ( 0.0000,  0.0000,  0.0000)
  24 Li    -4.695087   -2.760584   -2.142877    ( 0.0000,  0.0000,  0.0000)
  25 Li     0.361147   -2.760561    0.164836    ( 0.0000,  0.0000,  0.0000)
  26 Li    -4.695074    0.212330   -2.142877    ( 0.0000,  0.0000,  0.0000)
  27 Li     0.361161    0.212353    0.164837    ( 0.0000,  0.0000,  0.0000)

Unit cell:
           periodic     x           y           z      points  spacing
  1. axis:    yes   10.112485    0.000045   -0.000035    60     0.1685
  2. axis:    yes    0.000026    5.945827    0.000001    35     0.1699
  3. axis:    yes   -0.000016    0.000000    4.615463    27     0.1709

  Lengths:  10.112485   5.945827   4.615463
  Angles:   89.999989  90.000396  89.999490

Effective grid spacing dv^(1/3) = 0.1698

                     log10-error:           total        iterations:
           time      wfs    density  force  energy       poisson  magmom
iter:   1  07:53:05                       -221.367828             +0.0000
iter:   2  07:53:25  -0.61  -0.93         -234.829474             +0.0000
iter:   3  07:53:45  -0.37  -0.97         -225.908628             -0.0000
iter:   4  07:54:05  -1.39  -1.29         -225.758328             +0.0000
iter:   5  07:54:25  -1.27  -1.39         -227.330213             +0.0000
iter:   6  07:54:44  -1.47  -1.46         -225.733924             +0.0000
iter:   7  07:55:04  -2.49  -2.04         -225.722651             +0.0000
iter:   8  07:55:24  -2.31  -2.00         -225.537182             +0.0000
iter:   9  07:55:44  -2.53  -2.18         -225.433285             +0.0000
iter:  10  07:56:04  -3.25  -2.52         -225.419682             +0.0000
iter:  11  07:56:24  -3.38  -2.84         -225.410262             +0.0000
iter:  12  07:56:44  -4.36  -2.99         -225.408001             +0.0000
iter:  13  07:57:04  -5.42  -3.29         -225.407986             +0.0000
iter:  14  07:57:24  -5.25  -3.31         -225.407779             +0.0000
iter:  15  07:57:44  -5.55  -3.45         -225.408003             +0.0000
iter:  16  07:58:04  -5.11  -3.45         -225.408038             +0.0000
iter:  17  07:58:24  -5.29  -3.65         -225.407751             +0.0000
iter:  18  07:58:44  -6.38  -4.16         -225.407753             +0.0000
iter:  19  07:59:04  -7.37  -4.21         -225.407750             +0.0000
iter:  20  07:59:24  -7.25  -4.28         -225.407752             +0.0000
iter:  21  07:59:43  -6.83  -4.36         -225.407748             +0.0000
iter:  22  08:00:08  -7.86  -4.49         -225.407747             +0.0000
iter:  23  08:00:33  -8.12  -4.57    -2.72-225.407748             +0.0000
iter:  24  08:00:57  -8.31  -4.58    -2.55-225.407748             +0.0000
iter:  25  08:01:22  -8.59  -4.69    -2.88-225.407748             +0.0000
iter:  26  08:01:47  -7.84  -4.77    -2.84-225.407747             +0.0000
iter:  27  08:02:11  -8.52  -4.86    -3.09-225.407747             +0.0000
iter:  28  08:02:36  -8.63  -4.92    -2.94-225.407747             -0.0000
iter:  29  08:03:00  -8.45  -5.01    -3.07-225.407747             +0.0000
iter:  30  08:03:26  -9.10  -5.05    -3.14-225.407747             -0.0000
iter:  31  08:03:50  -8.94  -5.16    -3.16-225.407747             +0.0000
iter:  32  08:04:15  -9.58  -5.21    -3.76-225.407747             +0.0000
iter:  33  08:04:39  -9.44  -5.24    -3.27-225.407747             +0.0000
iter:  34  08:05:04  -9.71  -5.32    -3.39-225.407747             +0.0000
iter:  35  08:05:28  -9.43  -5.37    -3.17-225.407747             +0.0000
iter:  36  08:05:53  -9.82  -5.54    -4.05-225.407747             +0.0000
iter:  37  08:06:18 -10.05  -5.75    -3.90-225.407747             +0.0000
iter:  38  08:06:42 -10.51  -5.88    -4.06-225.407747             -0.0000
iter:  39  08:07:07  -9.87  -5.92    -3.97-225.407747             +0.0000
iter:  40  08:07:31 -10.64  -6.10    -4.20-225.407747             +0.0000
iter:  41  08:07:56 -10.55  -6.14    -3.84-225.407747             +0.0000
iter:  42  08:08:21 -11.69  -6.21    -4.62-225.407747             +0.0000
iter:  43  08:08:45 -11.17  -6.26    -4.41-225.407747             +0.0000
iter:  44  08:09:10 -11.32  -6.38    -4.43-225.407747             +0.0000
iter:  45  08:09:34 -10.58  -6.48    -4.26-225.407747             +0.0000
iter:  46  08:09:59 -11.97  -6.52    -5.14-225.407747             +0.0000
iter:  47  08:10:24 -10.83  -6.56    -4.56-225.407747             +0.0000
iter:  48  08:10:48 -11.88  -6.75    -4.43-225.407747             +0.0000
iter:  49  08:11:13 -12.44  -7.00    -5.38-225.407747             +0.0000
iter:  50  08:11:37 -11.91  -7.04    -4.84-225.407747             +0.0000
iter:  51  08:12:02 -13.02  -7.19    -5.48-225.407747             +0.0000
iter:  52  08:12:26 -13.12  -7.31    -5.37-225.407747             +0.0000
iter:  53  08:12:51 -13.52  -7.35    -5.31-225.407747             +0.0000
iter:  54  08:13:15 -13.46  -7.53    -5.53-225.407747             +0.0000
iter:  55  08:13:40 -13.78  -7.59    -5.29-225.407747             +0.0000
iter:  56  08:14:05 -13.48  -7.83    -5.54-225.407747             -0.0000
iter:  57  08:14:29 -14.66  -8.03    -6.39-225.407747             +0.0000

Converged after 57 iterations.

Dipole moment: (19.026923, -1.433438, -4.183179) |e|*Ang

Total magnetic moment: (0.000000, 0.000000, 0.000000)
Local magnetic moments:
   0 O  ( 0.000000,  0.000000,  0.000594)
   1 O  ( 0.000000,  0.000000, -0.000719)
   2 O  ( 0.000000,  0.000000, -0.000507)
   3 O  ( 0.000000,  0.000000,  0.000692)
   4 O  ( 0.000000,  0.000000, -0.000511)
   5 O  ( 0.000000,  0.000000,  0.000696)
   6 O  ( 0.000000,  0.000000,  0.000590)
   7 O  ( 0.000000,  0.000000, -0.000715)
   8 O  ( 0.000000,  0.000000,  0.022437)
   9 O  ( 0.000000,  0.000000, -0.022221)
  10 O  ( 0.000000,  0.000000, -0.022309)
  11 O  ( 0.000000,  0.000000,  0.022269)
  12 Mn ( 0.000000,  0.000000,  4.575045)
  13 Mn ( 0.000000,  0.000000, -4.575125)
  14 Mn ( 0.000000,  0.000000, -4.575208)
  15 Mn ( 0.000000,  0.000000,  4.574897)
  16 P  ( 0.000000,  0.000000,  0.000838)
  17 P  ( 0.000000,  0.000000, -0.000821)
  18 P  ( 0.000000,  0.000000, -0.000949)
  19 P  ( 0.000000,  0.000000,  0.000813)
  20 O  ( 0.000000,  0.000000,  0.020697)
  21 O  ( 0.000000,  0.000000, -0.020794)
  22 O  ( 0.000000,  0.000000, -0.020544)
  23 O  ( 0.000000,  0.000000,  0.020692)
  24 Li ( 0.000000,  0.000000, -0.000001)
  25 Li ( 0.000000,  0.000000,  0.000016)
  26 Li ( 0.000000,  0.000000, -0.000001)
  27 Li ( 0.000000,  0.000000,  0.000016)

Energy contributions relative to reference atoms: (reference = -196157.275402)

Kinetic:       +296.880771
Potential:     -256.418107
External:        +0.000000
XC:            -267.651130
Entropy (-ST):   -0.000000
Local:           +1.780718
--------------------------
Free energy:   -225.407747
Extrapolated:  -225.407747

Spin contamination: 9.697101 electrons
Showing only first 2 kpts
                      Up                     Down
 Kpt  Band  Eigenvalues  Occupancy  Eigenvalues  Occupancy
  0    88      5.11263    0.00694      5.09621    0.00694
  0    89      5.16920    0.00694      5.16035    0.00694
  0    90      9.64647    0.00000      9.64802    0.00000
  0    91      9.67849    0.00000      9.68646    0.00000

  1    88      5.12422    0.00694      5.10723    0.00694
  1    89      5.17844    0.00694      5.17073    0.00694
  1    90      9.52556    0.00000      9.52835    0.00000
  1    91      9.55984    0.00000      9.56145    0.00000


Fermi level: 6.37045

Gap: 3.791 eV
Transition (v -> c):
  (s=0, k=71, n=89, [-0.08, 0.42, 0.38]) -> (s=1, k=86, n=90, [0.08, 0.08, 0.12])
Writing to born-0.01-18x-.gpw (mode='all')

Timing:                              incl.     excl.
-----------------------------------------------------------
Hamiltonian:                         0.217     0.002   0.0% |
 Atomic:                             0.053     0.053   0.0% |
  XC Correction:                     0.000     0.000   0.0% |
 Calculate atomic Hamiltonians:      0.075     0.075   0.0% |
 Communicate:                        0.002     0.002   0.0% |
 Initialize Hamiltonian:             0.000     0.000   0.0% |
 Poisson:                            0.001     0.001   0.0% |
 XC 3D grid:                         0.084     0.084   0.0% |
LCAO initialization:                73.207     0.646   0.0% |
 LCAO eigensolver:                  19.309     0.002   0.0% |
  Calculate projections:             0.029     0.029   0.0% |
  DenseAtomicCorrection:             0.045     0.045   0.0% |
  Distribute overlap matrix:         0.142     0.142   0.0% |
  Orbital Layouts:                   0.434     0.434   0.0% |
  Potential matrix:                 18.569    18.569   0.6% |
  Sum over cells:                    0.088     0.088   0.0% |
 LCAO to grid:                      51.918    51.918   1.5% ||
 Set positions (LCAO WFS):           1.335     0.189   0.0% |
  Basic WFS set positions:           0.001     0.001   0.0% |
  Basis functions set positions:     0.000     0.000   0.0% |
  P tci:                             0.522     0.522   0.0% |
  ST tci:                            0.379     0.379   0.0% |
  mktci:                             0.242     0.242   0.0% |
PWDescriptor:                        0.024     0.024   0.0% |
SCF-cycle:                        1305.480     0.384   0.0% |
 Davidson:                        1077.560   330.238   9.9% |---|
  Apply H:                          74.022    71.891   2.1% ||
   HMM T:                            2.131     2.131   0.1% |
  Subspace diag:                   156.445     0.163   0.0% |
   calc_h_matrix:                  100.676    26.040   0.8% |
    Apply H:                        74.636    72.453   2.2% ||
     HMM T:                          2.183     2.183   0.1% |
   diagonalize:                      7.690     7.690   0.2% |
   rotate_psi:                      47.916    47.916   1.4% ||
  calc. matrices:                  322.954   176.864   5.3% |-|
   Apply H:                        146.090   142.017   4.2% |-|
    HMM T:                           4.073     4.073   0.1% |
  diagonalize:                      90.129    90.129   2.7% ||
  rotate_psi:                      103.772   103.772   3.1% ||
 Density:                           43.375     0.001   0.0% |
  Atomic density matrices:           0.925     0.925   0.0% |
  Mix:                               5.996     5.996   0.2% |
  Multipole moments:                 0.021     0.021   0.0% |
  Pseudo density:                   36.432    36.431   1.1% |
   Symmetrize density:               0.001     0.001   0.0% |
 Forces:                           169.561   169.561   5.1% |-|
 Hamiltonian:                       12.513     0.118   0.0% |
  Atomic:                            3.230     3.230   0.1% |
   XC Correction:                    0.000     0.000   0.0% |
  Calculate atomic Hamiltonians:     4.206     4.206   0.1% |
  Communicate:                       0.125     0.125   0.0% |
  Poisson:                           0.033     0.033   0.0% |
  XC 3D grid:                        4.801     4.801   0.1% |
 Orthonormalize:                     2.087     0.003   0.0% |
  calc_s_matrix:                     0.245     0.245   0.0% |
  inverse-cholesky:                  0.072     0.072   0.0% |
  projections:                       1.333     1.333   0.0% |
  rotate_psi_s:                      0.434     0.434   0.0% |
Set symmetry:                        0.000     0.000   0.0% |
Other:                            1970.790  1970.790  58.8% |-----------------------|
-----------------------------------------------------------
Total:                                      3349.718 100.0%

Memory usage: 12.71 GiB
Date: Wed Mar 24 08:47:19 2021
