
  ___ ___ ___ _ _ _  
 |   |   |_  | | | | 
 | | | | | . | | | | 
 |__ |  _|___|_____|  20.10.1b1
 |___|_|             

User:   madkru@g035.nifl.fysik.dtu.dk
Date:   Sun Mar 21 19:38:55 2021
Arch:   x86_64
Pid:    44316
Python: 3.7.4
gpaw:   /home/niflheim/madkru/venv_folder/gpaw/gpaw (d0d1ca1c71)
_gpaw:  /home/niflheim/madkru/venv_folder/gpaw/build/lib.linux-x86_64-sandybridge-3.7/
        _gpaw.cpython-37m-x86_64-linux-gnu.so (4fd39e8b1e)
ase:    /home/niflheim/madkru/venv_folder/ase/ase (version 3.21.0b1-7e6c206a91)
numpy:  /home/niflheim/madkru/venv_folder/lib/python3.7/site-packages/numpy (version 1.19.4)
scipy:  /home/niflheim/madkru/venv_folder/lib/python3.7/site-packages/scipy (version 1.5.4)
libxc:  4.3.4
units:  Angstrom and eV
cores: 32
OMP_NUM_THREADS: 1

Input parameters:
  convergence: {bands: occupied,
                density: 0.0001,
                eigenstates: 4e-08,
                energy: 0.0005,
                forces: 1e-06}
  kpts: [6 6 4]
  mode: {ecut: 600.0,
         gammacentered: False,
         name: pw}
  occupations: {fixmagmom: False,
                name: fermi-dirac,
                width: 0.001}
  setups: {Mn: :d,3.0}
  symmetry: {point_group: False,
             time_reversal: False}

System changes: positions, numbers, cell, pbc, initial_charges, initial_magmoms 

Initialize ...

O-setup:
  name: Oxygen
  id: 9b9d51c344dea68c822856295a461509
  Z: 8.0
  valence: 6
  core: 2
  charge: 0.0
  file: /home/modules/software/GPAW-setups/0.9.20000/O.LDA.gz
  compensation charges: gauss, rc=0.21, lmax=2
  cutoffs: 1.17(filt), 0.83(core),
  valence states:
                energy  radius
    2s(2.00)   -23.752   0.688
    2p(4.00)    -9.195   0.598
    *s           3.459   0.688
    *p          18.016   0.598
    *d           0.000   0.619

  Using partial waves for O as LCAO basis

Mn-setup:
  name: Manganese
  id: 0d715a8018be061a6e9ea6f2d364ac92
  Z: 25.0
  valence: 15
  core: 10
  charge: 0.0
  Hubbard U: 3.000000 eV (l=2, scale=True)
  file: /home/modules/software/GPAW-setups/0.9.20000/Mn.LDA.gz
  compensation charges: gauss, rc=0.38, lmax=2
  cutoffs: 2.14(filt), 0.86(core),
  valence states:
                energy  radius
    3s(2.00)   -85.387   1.275
    4s(2.00)    -5.282   1.275
    3p(6.00)   -54.493   1.281
    4p(0.00)    -1.471   1.281
    3d(5.00)    -7.009   1.138
    *d          20.203   1.138

  Using partial waves for Mn as LCAO basis

P-setup:
  name: Phosphorus
  id: a5561c299094968922a179ab894d2e2d
  Z: 15.0
  valence: 5
  core: 10
  charge: 0.0
  file: /home/modules/software/GPAW-setups/0.9.20000/P.LDA.gz
  compensation charges: gauss, rc=0.30, lmax=2
  cutoffs: 1.69(filt), 1.81(core),
  valence states:
                energy  radius
    3s(2.00)   -14.015   0.953
    3p(3.00)    -5.596   0.953
    *s          13.197   0.953
    *p          21.615   0.953
    *d           0.000   0.953

  Using partial waves for P as LCAO basis

Li-setup:
  name: Lithium
  id: b73562207f97a71b6967473b66fe8b65
  Z: 3.0
  valence: 1
  core: 2
  charge: 0.0
  file: /home/modules/software/GPAW-setups/0.9.20000/Li.LDA.gz
  compensation charges: gauss, rc=0.33, lmax=2
  cutoffs: 1.91(filt), 2.55(core),
  valence states:
                energy  radius
    2s(1.00)    -2.874   1.058
    2p(0.00)    -1.126   1.058
    *s          24.338   1.058

  Using partial waves for Li as LCAO basis

Reference energy: -196157.275402

Spin-polarized calculation.
Magnetic moment: 0.000000

Convergence criteria:
  Maximum total energy change: 0.0005 eV / electron
  Maximum integral of absolute density change: 0.0001 electrons
  Maximum integral of absolute eigenstate change: 4e-08 eV^2
  Maximum change in atomic force: 1e-06 eV / Ang
  Maximum number of iterations: 333

Symmetries present (total): 1

  ( 1  0  0)
  ( 0  1  0)
  ( 0  0  1)

144 k-points: 6 x 6 x 4 Monkhorst-Pack grid
144 k-points in the irreducible part of the Brillouin zone
       k-points in crystal coordinates                weights
   0:    -0.41666667   -0.41666667   -0.37500000          1/144
   1:    -0.41666667   -0.41666667   -0.12500000          1/144
   2:    -0.41666667   -0.41666667    0.12500000          1/144
   3:    -0.41666667   -0.41666667    0.37500000          1/144
   4:    -0.41666667   -0.25000000   -0.37500000          1/144
   5:    -0.41666667   -0.25000000   -0.12500000          1/144
   6:    -0.41666667   -0.25000000    0.12500000          1/144
   7:    -0.41666667   -0.25000000    0.37500000          1/144
   8:    -0.41666667   -0.08333333   -0.37500000          1/144
   9:    -0.41666667   -0.08333333   -0.12500000          1/144
          ...
 143:     0.41666667    0.41666667    0.37500000          1/144

Wave functions: Plane wave expansion
  Cutoff energy: 600.000 eV
  Number of coefficients (min, max): 9238, 9284
  Pulay-stress correction: 0.000000 eV/Ang^3 (de/decut=0.000000)
  Using FFTW library
  ScaLapack parameters: grid=1x1, blocksize=None
  Wavefunction extrapolation:
    Improved wavefunction reuse through dual PAW basis 

  Fermi-Dirac: width=0.0010 eV

Eigensolver
   Davidson(niter=2, smin=None, normalize=True) 

Densities:
  Coarse grid: 60*35*27 grid
  Fine grid: 120*70*54 grid
  Total Charge: 0.000000 

Density mixing:
  Method: difference
  Backend: pulay
  Linear mixing parameter: 0.05
  Mixing with 5 old densities
  Damping of long wave oscillations: 50 

Hamiltonian:
  XC and Coulomb potentials evaluated on a 120*70*54 grid
  Using the LDA Exchange-Correlation functional
 

Memory estimate:
  Process memory now: 12628.24 MiB
  Calculator: 346.50 MiB
    Density: 19.24 MiB
      Arrays: 7.57 MiB
      Localized functions: 8.64 MiB
      Mixer: 3.03 MiB
    Hamiltonian: 5.87 MiB
      Arrays: 5.62 MiB
      XC: 0.00 MiB
      Poisson: 0.00 MiB
      vbar: 0.25 MiB
    Wavefunctions: 321.38 MiB
      Arrays psit_nG: 285.59 MiB
      Eigensolver: 18.49 MiB
      Projections: 5.41 MiB
      Projectors: 8.92 MiB
      PW-descriptor: 2.96 MiB

Total number of cores used: 32
Parallelization over k-points: 16
Domain decomposition: 2 x 1 x 1

Number of atoms: 28
Number of atomic orbitals: 148
Number of bands in calculation: 112
Number of valence electrons: 180
Bands to converge: occupied

... initialized

Initializing position-dependent things.

Density initialized from atomic densities
Creating initial wave functions:
  112 bands from LCAO basis set

                                           
                                           
                                           
                                           
                                           
               O     O  P  O               
            PO           OMn     O         
                  O          MO            
            O        Li O                  
             Mn  On          OP            
         O         Li O                    
         Li     O P         O              
       Li                                  
                                           
                                           
                                           
                                           

Positions:
   0 O     -1.263197   -2.497779   -1.098475    ( 0.0000,  0.0000,  0.0000)
   1 O     -3.070823    2.922496    1.209491    ( 0.0000,  0.0000,  0.0000)
   2 O      1.985541    0.474863    1.428016    ( 0.0000,  0.0000,  0.0000)
   3 O      3.793120   -0.060100   -0.879950    ( 0.0000,  0.0000,  0.0000)
   4 O      1.985518    2.922485    1.428149    ( 0.0000,  0.0000,  0.0000)
   5 O      3.793144   -2.497790   -0.879818    ( 0.0000,  0.0000,  0.0000)
   6 O     -1.263220   -0.050157   -1.098342    ( 0.0000,  0.0000,  0.0000)
   7 O     -3.070798    0.474805    1.209623    ( 0.0000,  0.0000,  0.0000)
   8 O     -4.167835   -1.273920   -0.862116    ( 0.0000,  0.0000,  0.0000)
   9 O     -0.166037    1.698602    1.445528    ( 0.0000,  0.0000,  0.0000)
  10 O      4.890156    1.698625    1.191790    ( 0.0000,  0.0000,  0.0000)
  11 O      0.888358   -1.273896   -1.115855    ( 0.0000,  0.0000,  0.0000)
  12 Mn    -2.445557   -1.274211    0.312921    ( 0.0000,  0.0000,  1.0000)
  13 Mn    -1.888303    1.698892   -1.994948    ( 0.0000,  0.0000, -1.0000)
  14 Mn     3.167879    1.698917    0.016752    ( 0.0000,  0.0000, -1.0000)
  15 Mn     2.610624   -1.274187    2.324621    ( 0.0000,  0.0000,  1.0000)
  16 P     -0.529549   -1.273917   -1.724376    ( 0.0000,  0.0000,  0.0000)
  17 P     -3.804359    1.698599    0.583463    ( 0.0000,  0.0000,  0.0000)
  18 P      1.251870    1.698623    2.054050    ( 0.0000,  0.0000,  0.0000)
  19 P      4.526680   -1.273894   -0.253789    ( 0.0000,  0.0000,  0.0000)
  20 O     -0.544227   -1.273926    1.365380    ( 0.0000,  0.0000,  0.0000)
  21 O     -3.789411    1.698610   -0.942222    ( 0.0000,  0.0000,  0.0000)
  22 O      1.266548    1.698631   -1.035707    ( 0.0000,  0.0000,  0.0000)
  23 O      4.511733   -1.273905    1.271895    ( 0.0000,  0.0000,  0.0000)
  24 Li    -4.695087   -2.760584   -2.142877    ( 0.0000,  0.0000,  0.0000)
  25 Li     0.361147   -2.760561    0.164836    ( 0.0000,  0.0000,  0.0000)
  26 Li    -4.695074    0.212330   -2.142877    ( 0.0000,  0.0000,  0.0000)
  27 Li     0.361161    0.212353    0.164837    ( 0.0000,  0.0000,  0.0000)

Unit cell:
           periodic     x           y           z      points  spacing
  1. axis:    yes   10.112485    0.000045   -0.000035    60     0.1685
  2. axis:    yes    0.000026    5.945827    0.000001    35     0.1699
  3. axis:    yes   -0.000016    0.000000    4.615463    27     0.1709

  Lengths:  10.112485   5.945827   4.615463
  Angles:   89.999989  90.000396  89.999490

Effective grid spacing dv^(1/3) = 0.1698

                     log10-error:           total        iterations:
           time      wfs    density  force  energy       poisson  magmom
iter:   1  19:42:07                       -221.375052             +0.0000
iter:   2  19:42:45  -0.61  -0.93         -234.851337             +0.0000
iter:   3  19:43:22  -0.37  -0.97         -225.916330             -0.0000
iter:   4  19:44:00  -1.39  -1.29         -225.759969             +0.0000
iter:   5  19:44:37  -1.26  -1.39         -227.336022             +0.0000
iter:   6  19:45:15  -1.46  -1.46         -225.736319             +0.0000
iter:   7  19:45:52  -2.47  -2.04         -225.724260             +0.0000
iter:   8  19:46:30  -2.14  -1.99         -225.587473             +0.0000
iter:   9  19:47:07  -2.47  -2.09         -225.431171             +0.0000
iter:  10  19:47:44  -3.30  -2.54         -225.420876             +0.0000
iter:  11  19:48:22  -3.65  -2.81         -225.410712             +0.0000
iter:  12  19:48:59  -4.11  -3.05         -225.409589             +0.0000
iter:  13  19:49:37  -5.13  -3.29         -225.409476             +0.0000
iter:  14  19:50:15  -5.38  -3.32         -225.409301             +0.0000
iter:  15  19:50:52  -6.00  -3.43         -225.409304             +0.0000
iter:  16  19:51:30  -5.23  -3.47         -225.409642             -0.0000
iter:  17  19:52:07  -5.74  -3.57         -225.409529             +0.0000
iter:  18  19:52:45  -5.22  -3.71         -225.409250             -0.0000
iter:  19  19:53:22  -6.07  -4.13         -225.409254             -0.0000
iter:  20  19:54:00  -7.29  -4.51         -225.409254             +0.0000
iter:  21  19:54:47  -7.46  -4.53         -225.409254             +0.0000
iter:  22  19:55:34  -7.52  -4.62    -2.68-225.409255             +0.0000
iter:  23  19:56:21  -8.30  -4.68    -2.85-225.409254             +0.0000
iter:  24  19:57:08  -8.77  -4.76    -3.58-225.409254             +0.0000
iter:  25  19:57:56  -8.00  -4.82    -2.58-225.409253             +0.0000
iter:  26  19:58:43  -8.14  -4.98    -3.19-225.409254             +0.0000
iter:  27  19:59:30  -9.48  -5.09    -3.63-225.409253             +0.0000
iter:  28  20:00:17  -7.99  -5.12    -2.77-225.409253             -0.0000
iter:  29  20:01:05  -8.83  -5.26    -3.25-225.409253             +0.0000
iter:  30  20:01:52 -10.04  -5.53    -3.64-225.409253             +0.0000
iter:  31  20:02:39  -9.68  -5.65    -3.37-225.409253             +0.0000
iter:  32  20:03:26 -10.84  -5.79    -4.51-225.409253             +0.0000
iter:  33  20:04:13 -10.08  -5.85    -3.82-225.409253             +0.0000
iter:  34  20:05:00 -10.86  -5.90    -4.85-225.409253             +0.0000
iter:  35  20:05:47 -10.20  -5.93    -4.26-225.409253             +0.0000
iter:  36  20:06:35 -10.38  -6.00    -3.88-225.409253             +0.0000
iter:  37  20:07:22 -10.65  -6.01    -3.80-225.409253             +0.0000
iter:  38  20:08:09 -11.64  -6.34    -4.39-225.409253             +0.0000
iter:  39  20:08:56 -11.50  -6.40    -4.55-225.409253             +0.0000
iter:  40  20:09:43 -12.02  -6.62    -4.73-225.409253             +0.0000
iter:  41  20:10:30 -11.70  -6.71    -4.60-225.409253             +0.0000
iter:  42  20:11:17 -12.08  -6.87    -5.10-225.409253             +0.0000
iter:  43  20:12:04 -12.09  -7.02    -5.04-225.409253             +0.0000
iter:  44  20:12:51 -13.11  -7.11    -5.34-225.409253             +0.0000
iter:  45  20:13:38 -12.70  -7.15    -4.95-225.409253             +0.0000
iter:  46  20:14:25 -13.11  -7.52    -5.64-225.409253             +0.0000
iter:  47  20:15:13 -14.59  -7.68    -6.31-225.409253             +0.0000

Converged after 47 iterations.

Dipole moment: (19.051117, -0.943860, -4.185999) |e|*Ang

Total magnetic moment: (0.000000, 0.000000, 0.000000)
Local magnetic moments:
   0 O  ( 0.000000,  0.000000,  0.000659)
   1 O  ( 0.000000,  0.000000, -0.000677)
   2 O  ( 0.000000,  0.000000, -0.000617)
   3 O  ( 0.000000,  0.000000,  0.000902)
   4 O  ( 0.000000,  0.000000, -0.000810)
   5 O  ( 0.000000,  0.000000,  0.000601)
   6 O  ( 0.000000,  0.000000,  0.000653)
   7 O  ( 0.000000,  0.000000, -0.000678)
   8 O  ( 0.000000,  0.000000,  0.022534)
   9 O  ( 0.000000,  0.000000, -0.022353)
  10 O  ( 0.000000,  0.000000, -0.022337)
  11 O  ( 0.000000,  0.000000,  0.022365)
  12 Mn ( 0.000000,  0.000000,  4.575108)
  13 Mn ( 0.000000,  0.000000, -4.575029)
  14 Mn ( 0.000000,  0.000000, -4.576058)
  15 Mn ( 0.000000,  0.000000,  4.574987)
  16 P  ( 0.000000,  0.000000,  0.000818)
  17 P  ( 0.000000,  0.000000, -0.000803)
  18 P  ( 0.000000,  0.000000, -0.000796)
  19 P  ( 0.000000,  0.000000,  0.001097)
  20 O  ( 0.000000,  0.000000,  0.020694)
  21 O  ( 0.000000,  0.000000, -0.020711)
  22 O  ( 0.000000,  0.000000, -0.020653)
  23 O  ( 0.000000,  0.000000,  0.020808)
  24 Li ( 0.000000,  0.000000,  0.000002)
  25 Li ( 0.000000,  0.000000,  0.000001)
  26 Li ( 0.000000,  0.000000,  0.000025)
  27 Li ( 0.000000,  0.000000,  0.000000)

Energy contributions relative to reference atoms: (reference = -196157.275402)

Kinetic:       +297.365893
Potential:     -256.790322
External:        +0.000000
XC:            -267.764618
Entropy (-ST):   -0.000000
Local:           +1.779793
--------------------------
Free energy:   -225.409253
Extrapolated:  -225.409253

Spin contamination: 9.697809 electrons
Showing only first 2 kpts
                      Up                     Down
 Kpt  Band  Eigenvalues  Occupancy  Eigenvalues  Occupancy
  0    88      5.11310    0.00694      5.10197    0.00694
  0    89      5.16470    0.00694      5.15434    0.00694
  0    90      9.64378    0.00000      9.65523    0.00000
  0    91      9.66852    0.00000      9.67483    0.00000

  1    88      5.12464    0.00694      5.11321    0.00694
  1    89      5.17397    0.00694      5.16374    0.00694
  1    90      9.52549    0.00000      9.53739    0.00000
  1    91      9.54309    0.00000      9.55189    0.00000


Fermi level: 6.37021

Gap: 3.792 eV
Transition (v -> c):
  (s=0, k=51, n=89, [-0.08, -0.42, 0.38]) -> (s=0, k=82, n=90, [0.08, -0.08, 0.12])
Writing to born-0.01-3y-.gpw (mode='all')

Timing:                              incl.     excl.
-----------------------------------------------------------
Hamiltonian:                         0.406     0.002   0.0% |
 Atomic:                             0.060     0.060   0.0% |
  XC Correction:                     0.000     0.000   0.0% |
 Calculate atomic Hamiltonians:      0.164     0.164   0.0% |
 Communicate:                        0.005     0.005   0.0% |
 Initialize Hamiltonian:             0.000     0.000   0.0% |
 Poisson:                            0.001     0.001   0.0% |
 XC 3D grid:                         0.173     0.173   0.0% |
LCAO initialization:               150.744     0.676   0.0% |
 LCAO eigensolver:                  40.256     0.002   0.0% |
  Calculate projections:             0.057     0.057   0.0% |
  DenseAtomicCorrection:             0.083     0.083   0.0% |
  Distribute overlap matrix:         0.096     0.096   0.0% |
  Orbital Layouts:                   0.361     0.361   0.0% |
  Potential matrix:                 39.555    39.555   0.7% |
  Sum over cells:                    0.102     0.102   0.0% |
 LCAO to grid:                     107.439   107.439   2.0% ||
 Set positions (LCAO WFS):           2.374     0.369   0.0% |
  Basic WFS set positions:           0.001     0.001   0.0% |
  Basis functions set positions:     0.000     0.000   0.0% |
  P tci:                             1.077     1.077   0.0% |
  ST tci:                            0.708     0.708   0.0% |
  mktci:                             0.217     0.217   0.0% |
PWDescriptor:                        0.025     0.025   0.0% |
SCF-cycle:                        2024.631    14.089   0.3% |
 Davidson:                        1654.489   527.314   9.7% |---|
  Apply H:                         120.720   116.891   2.2% ||
   HMM T:                            3.830     3.830   0.1% |
  Subspace diag:                   246.095     0.147   0.0% |
   calc_h_matrix:                  161.999    42.638   0.8% |
    Apply H:                       119.361   115.670   2.1% ||
     HMM T:                          3.691     3.691   0.1% |
   diagonalize:                      5.701     5.701   0.1% |
   rotate_psi:                      78.248    78.248   1.4% ||
  calc. matrices:                  522.742   285.726   5.3% |-|
   Apply H:                        237.015   229.769   4.2% |-|
    HMM T:                           7.247     7.247   0.1% |
  diagonalize:                      78.157    78.157   1.4% ||
  rotate_psi:                      159.461   159.461   2.9% ||
 Density:                           69.996     0.001   0.0% |
  Atomic density matrices:           1.236     1.236   0.0% |
  Mix:                              10.771    10.771   0.2% |
  Multipole moments:                 0.028     0.028   0.0% |
  Pseudo density:                   57.960    57.959   1.1% |
   Symmetrize density:               0.001     0.001   0.0% |
 Forces:                           262.979   262.979   4.9% |-|
 Hamiltonian:                       19.023     0.109   0.0% |
  Atomic:                            2.681     2.681   0.0% |
   XC Correction:                    0.000     0.000   0.0% |
  Calculate atomic Hamiltonians:     7.823     7.823   0.1% |
  Communicate:                       0.087     0.087   0.0% |
  Poisson:                           0.067     0.067   0.0% |
  XC 3D grid:                        8.255     8.255   0.2% |
 Orthonormalize:                     4.055     0.004   0.0% |
  calc_s_matrix:                     0.485     0.485   0.0% |
  inverse-cholesky:                  0.055     0.055   0.0% |
  projections:                       2.655     2.655   0.0% |
  rotate_psi_s:                      0.857     0.857   0.0% |
Set symmetry:                        0.000     0.000   0.0% |
Other:                            3233.255  3233.255  59.8% |-----------------------|
-----------------------------------------------------------
Total:                                      5409.061 100.0%

Memory usage: 12.34 GiB
Date: Sun Mar 21 21:09:04 2021
