
  ___ ___ ___ _ _ _  
 |   |   |_  | | | | 
 | | | | | . | | | | 
 |__ |  _|___|_____|  20.10.1b1
 |___|_|             

User:   madkru@i018.nifl.fysik.dtu.dk
Date:   Tue Mar 23 10:39:10 2021
Arch:   x86_64
Pid:    26873
Python: 3.7.4
gpaw:   /home/niflheim/madkru/venv_folder/gpaw/gpaw (d0d1ca1c71)
_gpaw:  /home/niflheim/madkru/venv_folder/gpaw/build/lib.linux-x86_64-ivybridge-3.7/
        _gpaw.cpython-37m-x86_64-linux-gnu.so (4fd39e8b1e)
ase:    /home/niflheim/madkru/venv_folder/ase/ase (version 3.21.0b1-7e6c206a91)
numpy:  /home/niflheim/madkru/venv_folder/lib/python3.7/site-packages/numpy (version 1.19.4)
scipy:  /home/niflheim/madkru/venv_folder/lib/python3.7/site-packages/scipy (version 1.5.4)
libxc:  4.3.4
units:  Angstrom and eV
cores: 64
OMP_NUM_THREADS: 1

Input parameters:
  convergence: {bands: occupied,
                density: 0.0001,
                eigenstates: 4e-08,
                energy: 0.0005,
                forces: 1e-06}
  kpts: [6 6 4]
  mode: {ecut: 600.0,
         gammacentered: False,
         name: pw}
  occupations: {fixmagmom: False,
                name: fermi-dirac,
                width: 0.001}
  setups: {Mn: :d,3.0}
  symmetry: {point_group: False,
             time_reversal: False}

System changes: positions, numbers, cell, pbc, initial_charges, initial_magmoms 

Initialize ...

O-setup:
  name: Oxygen
  id: 9b9d51c344dea68c822856295a461509
  Z: 8.0
  valence: 6
  core: 2
  charge: 0.0
  file: /home/modules/software/GPAW-setups/0.9.20000/O.LDA.gz
  compensation charges: gauss, rc=0.21, lmax=2
  cutoffs: 1.17(filt), 0.83(core),
  valence states:
                energy  radius
    2s(2.00)   -23.752   0.688
    2p(4.00)    -9.195   0.598
    *s           3.459   0.688
    *p          18.016   0.598
    *d           0.000   0.619

  Using partial waves for O as LCAO basis

Mn-setup:
  name: Manganese
  id: 0d715a8018be061a6e9ea6f2d364ac92
  Z: 25.0
  valence: 15
  core: 10
  charge: 0.0
  Hubbard U: 3.000000 eV (l=2, scale=True)
  file: /home/modules/software/GPAW-setups/0.9.20000/Mn.LDA.gz
  compensation charges: gauss, rc=0.38, lmax=2
  cutoffs: 2.14(filt), 0.86(core),
  valence states:
                energy  radius
    3s(2.00)   -85.387   1.275
    4s(2.00)    -5.282   1.275
    3p(6.00)   -54.493   1.281
    4p(0.00)    -1.471   1.281
    3d(5.00)    -7.009   1.138
    *d          20.203   1.138

  Using partial waves for Mn as LCAO basis

P-setup:
  name: Phosphorus
  id: a5561c299094968922a179ab894d2e2d
  Z: 15.0
  valence: 5
  core: 10
  charge: 0.0
  file: /home/modules/software/GPAW-setups/0.9.20000/P.LDA.gz
  compensation charges: gauss, rc=0.30, lmax=2
  cutoffs: 1.69(filt), 1.81(core),
  valence states:
                energy  radius
    3s(2.00)   -14.015   0.953
    3p(3.00)    -5.596   0.953
    *s          13.197   0.953
    *p          21.615   0.953
    *d           0.000   0.953

  Using partial waves for P as LCAO basis

Li-setup:
  name: Lithium
  id: b73562207f97a71b6967473b66fe8b65
  Z: 3.0
  valence: 1
  core: 2
  charge: 0.0
  file: /home/modules/software/GPAW-setups/0.9.20000/Li.LDA.gz
  compensation charges: gauss, rc=0.33, lmax=2
  cutoffs: 1.91(filt), 2.55(core),
  valence states:
                energy  radius
    2s(1.00)    -2.874   1.058
    2p(0.00)    -1.126   1.058
    *s          24.338   1.058

  Using partial waves for Li as LCAO basis

Reference energy: -196157.275402

Spin-polarized calculation.
Magnetic moment: 0.000000

Convergence criteria:
  Maximum total energy change: 0.0005 eV / electron
  Maximum integral of absolute density change: 0.0001 electrons
  Maximum integral of absolute eigenstate change: 4e-08 eV^2
  Maximum change in atomic force: 1e-06 eV / Ang
  Maximum number of iterations: 333

Symmetries present (total): 1

  ( 1  0  0)
  ( 0  1  0)
  ( 0  0  1)

144 k-points: 6 x 6 x 4 Monkhorst-Pack grid
144 k-points in the irreducible part of the Brillouin zone
       k-points in crystal coordinates                weights
   0:    -0.41666667   -0.41666667   -0.37500000          1/144
   1:    -0.41666667   -0.41666667   -0.12500000          1/144
   2:    -0.41666667   -0.41666667    0.12500000          1/144
   3:    -0.41666667   -0.41666667    0.37500000          1/144
   4:    -0.41666667   -0.25000000   -0.37500000          1/144
   5:    -0.41666667   -0.25000000   -0.12500000          1/144
   6:    -0.41666667   -0.25000000    0.12500000          1/144
   7:    -0.41666667   -0.25000000    0.37500000          1/144
   8:    -0.41666667   -0.08333333   -0.37500000          1/144
   9:    -0.41666667   -0.08333333   -0.12500000          1/144
          ...
 143:     0.41666667    0.41666667    0.37500000          1/144

Wave functions: Plane wave expansion
  Cutoff energy: 600.000 eV
  Number of coefficients (min, max): 9238, 9284
  Pulay-stress correction: 0.000000 eV/Ang^3 (de/decut=0.000000)
  Using FFTW library
  ScaLapack parameters: grid=1x1, blocksize=None
  Wavefunction extrapolation:
    Improved wavefunction reuse through dual PAW basis 

  Fermi-Dirac: width=0.0010 eV

Eigensolver
   Davidson(niter=2, smin=None, normalize=True) 

Densities:
  Coarse grid: 60*35*27 grid
  Fine grid: 120*70*54 grid
  Total Charge: 0.000000 

Density mixing:
  Method: difference
  Backend: pulay
  Linear mixing parameter: 0.05
  Mixing with 5 old densities
  Damping of long wave oscillations: 50 

Hamiltonian:
  XC and Coulomb potentials evaluated on a 120*70*54 grid
  Using the LDA Exchange-Correlation functional
 

Memory estimate:
  Process memory now: 12008.33 MiB
  Calculator: 326.59 MiB
    Density: 9.67 MiB
      Arrays: 3.79 MiB
      Localized functions: 4.32 MiB
      Mixer: 1.56 MiB
    Hamiltonian: 2.94 MiB
      Arrays: 2.82 MiB
      XC: 0.00 MiB
      Poisson: 0.00 MiB
      vbar: 0.12 MiB
    Wavefunctions: 313.97 MiB
      Arrays psit_nG: 285.59 MiB
      Eigensolver: 18.49 MiB
      Projections: 2.71 MiB
      Projectors: 4.46 MiB
      PW-descriptor: 2.72 MiB

Total number of cores used: 64
Parallelization over k-points: 16
Domain decomposition: 2 x 2 x 1

Number of atoms: 28
Number of atomic orbitals: 148
Number of bands in calculation: 112
Number of valence electrons: 180
Bands to converge: occupied

... initialized

Initializing position-dependent things.

Density initialized from atomic densities
Creating initial wave functions:
  112 bands from LCAO basis set

                                           
                                           
                                           
                                           
                                           
               O     O  P  O               
            PO           OMn     O         
                  O          MO            
            O        Li O                  
             Mn  On          OP            
         O         Li O                    
         Li     O P         O              
       Li                                  
                                           
                                           
                                           
                                           

Positions:
   0 O     -1.263197   -2.497779   -1.098475    ( 0.0000,  0.0000,  0.0000)
   1 O     -3.070823    2.922496    1.209491    ( 0.0000,  0.0000,  0.0000)
   2 O      1.985541    0.474863    1.428016    ( 0.0000,  0.0000,  0.0000)
   3 O      3.793120   -0.050100   -0.879950    ( 0.0000,  0.0000,  0.0000)
   4 O      1.985518    2.922485    1.428149    ( 0.0000,  0.0000,  0.0000)
   5 O      3.793144   -2.497790   -0.879818    ( 0.0000,  0.0000,  0.0000)
   6 O     -1.263220   -0.050157   -1.098342    ( 0.0000,  0.0000,  0.0000)
   7 O     -3.070798    0.474805    1.209623    ( 0.0000,  0.0000,  0.0000)
   8 O     -4.167835   -1.273920   -0.862116    ( 0.0000,  0.0000,  0.0000)
   9 O     -0.166037    1.698602    1.445528    ( 0.0000,  0.0000,  0.0000)
  10 O      4.890156    1.698625    1.181790    ( 0.0000,  0.0000,  0.0000)
  11 O      0.888358   -1.273896   -1.115855    ( 0.0000,  0.0000,  0.0000)
  12 Mn    -2.445557   -1.274211    0.312921    ( 0.0000,  0.0000,  1.0000)
  13 Mn    -1.888303    1.698892   -1.994948    ( 0.0000,  0.0000, -1.0000)
  14 Mn     3.167879    1.698917    0.016752    ( 0.0000,  0.0000, -1.0000)
  15 Mn     2.610624   -1.274187    2.324621    ( 0.0000,  0.0000,  1.0000)
  16 P     -0.529549   -1.273917   -1.724376    ( 0.0000,  0.0000,  0.0000)
  17 P     -3.804359    1.698599    0.583463    ( 0.0000,  0.0000,  0.0000)
  18 P      1.251870    1.698623    2.054050    ( 0.0000,  0.0000,  0.0000)
  19 P      4.526680   -1.273894   -0.253789    ( 0.0000,  0.0000,  0.0000)
  20 O     -0.544227   -1.273926    1.365380    ( 0.0000,  0.0000,  0.0000)
  21 O     -3.789411    1.698610   -0.942222    ( 0.0000,  0.0000,  0.0000)
  22 O      1.266548    1.698631   -1.035707    ( 0.0000,  0.0000,  0.0000)
  23 O      4.511733   -1.273905    1.271895    ( 0.0000,  0.0000,  0.0000)
  24 Li    -4.695087   -2.760584   -2.142877    ( 0.0000,  0.0000,  0.0000)
  25 Li     0.361147   -2.760561    0.164836    ( 0.0000,  0.0000,  0.0000)
  26 Li    -4.695074    0.212330   -2.142877    ( 0.0000,  0.0000,  0.0000)
  27 Li     0.361161    0.212353    0.164837    ( 0.0000,  0.0000,  0.0000)

Unit cell:
           periodic     x           y           z      points  spacing
  1. axis:    yes   10.112485    0.000045   -0.000035    60     0.1685
  2. axis:    yes    0.000026    5.945827    0.000001    35     0.1699
  3. axis:    yes   -0.000016    0.000000    4.615463    27     0.1709

  Lengths:  10.112485   5.945827   4.615463
  Angles:   89.999989  90.000396  89.999490

Effective grid spacing dv^(1/3) = 0.1698

                     log10-error:           total        iterations:
           time      wfs    density  force  energy       poisson  magmom
iter:   1  10:40:38                       -221.371127             +0.0000
iter:   2  10:40:58  -0.61  -0.93         -234.825231             +0.0000
iter:   3  10:41:18  -0.37  -0.97         -225.909506             -0.0000
iter:   4  10:41:37  -1.39  -1.29         -225.760392             +0.0000
iter:   5  10:41:57  -1.27  -1.39         -227.325352             +0.0000
iter:   6  10:42:17  -1.47  -1.46         -225.737024             +0.0000
iter:   7  10:42:37  -2.48  -2.04         -225.724820             +0.0000
iter:   8  10:42:57  -2.21  -1.99         -225.569528             +0.0000
iter:   9  10:43:16  -2.49  -2.12         -225.434033             +0.0000
iter:  10  10:43:36  -3.30  -2.53         -225.422890             +0.0000
iter:  11  10:43:56  -3.53  -2.80         -225.411087             +0.0000
iter:  12  10:44:16  -4.19  -3.05         -225.410348             -0.0000
iter:  13  10:44:36  -5.00  -3.30         -225.410437             -0.0000
iter:  14  10:44:55  -5.26  -3.32         -225.410244             -0.0000
iter:  15  10:45:15  -5.88  -3.45         -225.410270             -0.0000
iter:  16  10:45:35  -5.27  -3.50         -225.410634             -0.0000
iter:  17  10:45:55  -6.30  -3.56         -225.410479             -0.0000
iter:  18  10:46:15  -6.06  -3.61         -225.410393             +0.0000
iter:  19  10:46:34  -6.37  -3.78         -225.410353             -0.0000
iter:  20  10:46:54  -5.99  -3.91         -225.410251             -0.0000
iter:  21  10:47:14  -6.12  -3.95         -225.410208             +0.0000
iter:  22  10:47:34  -6.67  -4.28         -225.410212             -0.0000
iter:  23  10:47:58  -7.53  -4.34         -225.410211             -0.0000
iter:  24  10:48:23  -7.76  -4.41    -2.85-225.410208             -0.0000
iter:  25  10:48:43  -6.70  -4.44         -225.410206             -0.0000
iter:  26  10:49:07  -8.04  -4.63    -2.15-225.410205             -0.0000
iter:  27  10:49:32  -7.55  -4.66    -2.63-225.410205             +0.0000
iter:  28  10:49:56  -8.09  -4.83    -2.71-225.410205             +0.0000
iter:  29  10:50:21  -8.62  -4.90    -3.04-225.410204             +0.0000
iter:  30  10:50:45  -8.89  -4.98    -3.54-225.410205             -0.0000
iter:  31  10:51:10  -9.33  -5.02    -3.22-225.410205             -0.0000
iter:  32  10:51:34  -8.94  -5.14    -3.59-225.410205             -0.0000
iter:  33  10:51:59  -9.71  -5.27    -3.41-225.410205             -0.0000
iter:  34  10:52:23  -9.29  -5.37    -3.19-225.410205             -0.0000
iter:  35  10:52:48  -9.07  -5.47    -3.50-225.410205             -0.0000
iter:  36  10:53:12  -9.87  -5.66    -3.63-225.410205             -0.0000
iter:  37  10:53:37  -9.26  -5.82    -3.55-225.410205             -0.0000
iter:  38  10:54:02  -9.73  -5.80    -3.67-225.410205             -0.0000
iter:  39  10:54:26 -11.24  -6.61    -4.51-225.410205             -0.0000
iter:  40  10:54:51 -11.93  -6.68    -5.03-225.410205             -0.0000
iter:  41  10:55:15 -11.92  -6.70    -4.43-225.410205             -0.0000
iter:  42  10:55:40 -11.06  -6.86    -4.37-225.410205             -0.0000
iter:  43  10:56:04 -12.03  -6.91    -4.74-225.410205             -0.0000
iter:  44  10:56:29 -12.93  -7.02    -5.82-225.410205             -0.0000
iter:  45  10:56:53 -11.70  -7.03    -4.46-225.410205             -0.0000
iter:  46  10:57:18 -11.82  -7.06    -4.90-225.410205             -0.0000
iter:  47  10:57:42 -13.08  -7.56    -6.12-225.410205             -0.0000

Converged after 47 iterations.

Dipole moment: (19.052026, -1.427194, -4.186267) |e|*Ang

Total magnetic moment: (0.000000, 0.000000, -0.000000)
Local magnetic moments:
   0 O  ( 0.000000,  0.000000,  0.000662)
   1 O  ( 0.000000,  0.000000, -0.000721)
   2 O  ( 0.000000,  0.000000, -0.000672)
   3 O  ( 0.000000,  0.000000,  0.000633)
   4 O  ( 0.000000,  0.000000, -0.000676)
   5 O  ( 0.000000,  0.000000,  0.000637)
   6 O  ( 0.000000,  0.000000,  0.000658)
   7 O  ( 0.000000,  0.000000, -0.000717)
   8 O  ( 0.000000,  0.000000,  0.022354)
   9 O  ( 0.000000,  0.000000, -0.022346)
  10 O  ( 0.000000,  0.000000, -0.022388)
  11 O  ( 0.000000,  0.000000,  0.022373)
  12 Mn ( 0.000000,  0.000000,  4.575063)
  13 Mn ( 0.000000,  0.000000, -4.575088)
  14 Mn ( 0.000000,  0.000000, -4.574618)
  15 Mn ( 0.000000,  0.000000,  4.575022)
  16 P  ( 0.000000,  0.000000,  0.000806)
  17 P  ( 0.000000,  0.000000, -0.000882)
  18 P  ( 0.000000,  0.000000, -0.000819)
  19 P  ( 0.000000,  0.000000,  0.000806)
  20 O  ( 0.000000,  0.000000,  0.020703)
  21 O  ( 0.000000,  0.000000, -0.020794)
  22 O  ( 0.000000,  0.000000, -0.020666)
  23 O  ( 0.000000,  0.000000,  0.020703)
  24 Li ( 0.000000,  0.000000,  0.000005)
  25 Li ( 0.000000,  0.000000, -0.000000)
  26 Li ( 0.000000,  0.000000,  0.000005)
  27 Li ( 0.000000,  0.000000, -0.000000)

Energy contributions relative to reference atoms: (reference = -196157.275402)

Kinetic:       +297.197117
Potential:     -256.663996
External:        +0.000000
XC:            -267.722803
Entropy (-ST):   -0.000000
Local:           +1.779477
--------------------------
Free energy:   -225.410205
Extrapolated:  -225.410205

Spin contamination: 9.697091 electrons
Showing only first 2 kpts
                      Up                     Down
 Kpt  Band  Eigenvalues  Occupancy  Eigenvalues  Occupancy
  0    88      5.10958    0.00694      5.11609    0.00694
  0    89      5.16109    0.00694      5.16697    0.00694
  0    90      9.65439    0.00000      9.65276    0.00000
  0    91      9.67394    0.00000      9.67107    0.00000

  1    88      5.12106    0.00694      5.12729    0.00694
  1    89      5.17034    0.00694      5.17686    0.00694
  1    90      9.53492    0.00000      9.53517    0.00000
  1    91      9.54740    0.00000      9.54500    0.00000


Fermi level: 6.37076

Gap: 3.791 eV
Transition (v -> c):
  (s=1, k=71, n=89, [-0.08, 0.42, 0.38]) -> (s=0, k=58, n=90, [-0.08, -0.08, 0.12])
Writing to born-0.01-10z-.gpw (mode='all')

Timing:                              incl.     excl.
-----------------------------------------------------------
Hamiltonian:                         0.214     0.002   0.0% |
 Atomic:                             0.056     0.056   0.0% |
  XC Correction:                     0.000     0.000   0.0% |
 Calculate atomic Hamiltonians:      0.071     0.071   0.0% |
 Communicate:                        0.002     0.002   0.0% |
 Initialize Hamiltonian:             0.000     0.000   0.0% |
 Poisson:                            0.001     0.001   0.0% |
 XC 3D grid:                         0.082     0.082   0.0% |
LCAO initialization:                63.575     0.646   0.0% |
 LCAO eigensolver:                  18.900     0.002   0.0% |
  Calculate projections:             0.029     0.029   0.0% |
  DenseAtomicCorrection:             0.045     0.045   0.0% |
  Distribute overlap matrix:         0.008     0.008   0.0% |
  Orbital Layouts:                   0.433     0.433   0.0% |
  Potential matrix:                 18.286    18.286   0.6% |
  Sum over cells:                    0.097     0.097   0.0% |
 LCAO to grid:                      42.715    42.715   1.5% ||
 Set positions (LCAO WFS):           1.314     0.195   0.0% |
  Basic WFS set positions:           0.001     0.001   0.0% |
  Basis functions set positions:     0.000     0.000   0.0% |
  P tci:                             0.522     0.522   0.0% |
  ST tci:                            0.382     0.382   0.0% |
  mktci:                             0.214     0.214   0.0% |
PWDescriptor:                        0.023     0.023   0.0% |
SCF-cycle:                        1046.646     1.965   0.1% |
 Davidson:                         884.596   272.015   9.5% |---|
  Apply H:                          60.777    59.065   2.1% ||
   HMM T:                            1.712     1.712   0.1% |
  Subspace diag:                   128.185     0.133   0.0% |
   calc_h_matrix:                   82.064    21.509   0.8% |
    Apply H:                        60.555    58.829   2.1% ||
     HMM T:                          1.727     1.727   0.1% |
   diagonalize:                      6.448     6.448   0.2% |
   rotate_psi:                      39.539    39.539   1.4% ||
  calc. matrices:                  263.929   145.621   5.1% |-|
   Apply H:                        118.308   115.161   4.0% |-|
    HMM T:                           3.147     3.147   0.1% |
  diagonalize:                      74.019    74.019   2.6% ||
  rotate_psi:                       85.670    85.670   3.0% ||
 Density:                           35.015     0.001   0.0% |
  Atomic density matrices:           0.739     0.739   0.0% |
  Mix:                               4.833     4.833   0.2% |
  Multipole moments:                 0.017     0.017   0.0% |
  Pseudo density:                   29.424    29.423   1.0% |
   Symmetrize density:               0.001     0.001   0.0% |
 Forces:                           112.986   112.986   3.9% |-|
 Hamiltonian:                        9.986     0.097   0.0% |
  Atomic:                            2.596     2.596   0.1% |
   XC Correction:                    0.000     0.000   0.0% |
  Calculate atomic Hamiltonians:     3.272     3.272   0.1% |
  Communicate:                       0.086     0.086   0.0% |
  Poisson:                           0.027     0.027   0.0% |
  XC 3D grid:                        3.907     3.907   0.1% |
 Orthonormalize:                     2.098     0.003   0.0% |
  calc_s_matrix:                     0.245     0.245   0.0% |
  inverse-cholesky:                  0.074     0.074   0.0% |
  projections:                       1.339     1.339   0.0% |
  rotate_psi_s:                      0.436     0.436   0.0% |
Set symmetry:                        0.000     0.000   0.0% |
Other:                            1753.577  1753.577  61.2% |-----------------------|
-----------------------------------------------------------
Total:                                      2864.036 100.0%

Memory usage: 11.74 GiB
Date: Tue Mar 23 11:26:55 2021
