
  ___ ___ ___ _ _ _  
 |   |   |_  | | | | 
 | | | | | . | | | | 
 |__ |  _|___|_____|  20.10.1b1
 |___|_|             

User:   madkru@g035.nifl.fysik.dtu.dk
Date:   Mon Mar 22 09:46:23 2021
Arch:   x86_64
Pid:    44316
Python: 3.7.4
gpaw:   /home/niflheim/madkru/venv_folder/gpaw/gpaw (d0d1ca1c71)
_gpaw:  /home/niflheim/madkru/venv_folder/gpaw/build/lib.linux-x86_64-sandybridge-3.7/
        _gpaw.cpython-37m-x86_64-linux-gnu.so (4fd39e8b1e)
ase:    /home/niflheim/madkru/venv_folder/ase/ase (version 3.21.0b1-7e6c206a91)
numpy:  /home/niflheim/madkru/venv_folder/lib/python3.7/site-packages/numpy (version 1.19.4)
scipy:  /home/niflheim/madkru/venv_folder/lib/python3.7/site-packages/scipy (version 1.5.4)
libxc:  4.3.4
units:  Angstrom and eV
cores: 32
OMP_NUM_THREADS: 1

Input parameters:
  convergence: {bands: occupied,
                density: 0.0001,
                eigenstates: 4e-08,
                energy: 0.0005,
                forces: 1e-06}
  kpts: [6 6 4]
  mode: {ecut: 600.0,
         gammacentered: False,
         name: pw}
  occupations: {fixmagmom: False,
                name: fermi-dirac,
                width: 0.001}
  setups: {Mn: :d,3.0}
  symmetry: {point_group: False,
             time_reversal: False}

System changes: positions, numbers, cell, pbc, initial_charges, initial_magmoms 

Initialize ...

O-setup:
  name: Oxygen
  id: 9b9d51c344dea68c822856295a461509
  Z: 8.0
  valence: 6
  core: 2
  charge: 0.0
  file: /home/modules/software/GPAW-setups/0.9.20000/O.LDA.gz
  compensation charges: gauss, rc=0.21, lmax=2
  cutoffs: 1.17(filt), 0.83(core),
  valence states:
                energy  radius
    2s(2.00)   -23.752   0.688
    2p(4.00)    -9.195   0.598
    *s           3.459   0.688
    *p          18.016   0.598
    *d           0.000   0.619

  Using partial waves for O as LCAO basis

Mn-setup:
  name: Manganese
  id: 0d715a8018be061a6e9ea6f2d364ac92
  Z: 25.0
  valence: 15
  core: 10
  charge: 0.0
  Hubbard U: 3.000000 eV (l=2, scale=True)
  file: /home/modules/software/GPAW-setups/0.9.20000/Mn.LDA.gz
  compensation charges: gauss, rc=0.38, lmax=2
  cutoffs: 2.14(filt), 0.86(core),
  valence states:
                energy  radius
    3s(2.00)   -85.387   1.275
    4s(2.00)    -5.282   1.275
    3p(6.00)   -54.493   1.281
    4p(0.00)    -1.471   1.281
    3d(5.00)    -7.009   1.138
    *d          20.203   1.138

  Using partial waves for Mn as LCAO basis

P-setup:
  name: Phosphorus
  id: a5561c299094968922a179ab894d2e2d
  Z: 15.0
  valence: 5
  core: 10
  charge: 0.0
  file: /home/modules/software/GPAW-setups/0.9.20000/P.LDA.gz
  compensation charges: gauss, rc=0.30, lmax=2
  cutoffs: 1.69(filt), 1.81(core),
  valence states:
                energy  radius
    3s(2.00)   -14.015   0.953
    3p(3.00)    -5.596   0.953
    *s          13.197   0.953
    *p          21.615   0.953
    *d           0.000   0.953

  Using partial waves for P as LCAO basis

Li-setup:
  name: Lithium
  id: b73562207f97a71b6967473b66fe8b65
  Z: 3.0
  valence: 1
  core: 2
  charge: 0.0
  file: /home/modules/software/GPAW-setups/0.9.20000/Li.LDA.gz
  compensation charges: gauss, rc=0.33, lmax=2
  cutoffs: 1.91(filt), 2.55(core),
  valence states:
                energy  radius
    2s(1.00)    -2.874   1.058
    2p(0.00)    -1.126   1.058
    *s          24.338   1.058

  Using partial waves for Li as LCAO basis

Reference energy: -196157.275402

Spin-polarized calculation.
Magnetic moment: 0.000000

Convergence criteria:
  Maximum total energy change: 0.0005 eV / electron
  Maximum integral of absolute density change: 0.0001 electrons
  Maximum integral of absolute eigenstate change: 4e-08 eV^2
  Maximum change in atomic force: 1e-06 eV / Ang
  Maximum number of iterations: 333

Symmetries present (total): 1

  ( 1  0  0)
  ( 0  1  0)
  ( 0  0  1)

144 k-points: 6 x 6 x 4 Monkhorst-Pack grid
144 k-points in the irreducible part of the Brillouin zone
       k-points in crystal coordinates                weights
   0:    -0.41666667   -0.41666667   -0.37500000          1/144
   1:    -0.41666667   -0.41666667   -0.12500000          1/144
   2:    -0.41666667   -0.41666667    0.12500000          1/144
   3:    -0.41666667   -0.41666667    0.37500000          1/144
   4:    -0.41666667   -0.25000000   -0.37500000          1/144
   5:    -0.41666667   -0.25000000   -0.12500000          1/144
   6:    -0.41666667   -0.25000000    0.12500000          1/144
   7:    -0.41666667   -0.25000000    0.37500000          1/144
   8:    -0.41666667   -0.08333333   -0.37500000          1/144
   9:    -0.41666667   -0.08333333   -0.12500000          1/144
          ...
 143:     0.41666667    0.41666667    0.37500000          1/144

Wave functions: Plane wave expansion
  Cutoff energy: 600.000 eV
  Number of coefficients (min, max): 9238, 9284
  Pulay-stress correction: 0.000000 eV/Ang^3 (de/decut=0.000000)
  Using FFTW library
  ScaLapack parameters: grid=1x1, blocksize=None
  Wavefunction extrapolation:
    Improved wavefunction reuse through dual PAW basis 

  Fermi-Dirac: width=0.0010 eV

Eigensolver
   Davidson(niter=2, smin=None, normalize=True) 

Densities:
  Coarse grid: 60*35*27 grid
  Fine grid: 120*70*54 grid
  Total Charge: 0.000000 

Density mixing:
  Method: difference
  Backend: pulay
  Linear mixing parameter: 0.05
  Mixing with 5 old densities
  Damping of long wave oscillations: 50 

Hamiltonian:
  XC and Coulomb potentials evaluated on a 120*70*54 grid
  Using the LDA Exchange-Correlation functional
 

Memory estimate:
  Process memory now: 13009.38 MiB
  Calculator: 346.50 MiB
    Density: 19.24 MiB
      Arrays: 7.57 MiB
      Localized functions: 8.64 MiB
      Mixer: 3.03 MiB
    Hamiltonian: 5.87 MiB
      Arrays: 5.62 MiB
      XC: 0.00 MiB
      Poisson: 0.00 MiB
      vbar: 0.25 MiB
    Wavefunctions: 321.38 MiB
      Arrays psit_nG: 285.59 MiB
      Eigensolver: 18.49 MiB
      Projections: 5.41 MiB
      Projectors: 8.92 MiB
      PW-descriptor: 2.96 MiB

Total number of cores used: 32
Parallelization over k-points: 16
Domain decomposition: 2 x 1 x 1

Number of atoms: 28
Number of atomic orbitals: 148
Number of bands in calculation: 112
Number of valence electrons: 180
Bands to converge: occupied

... initialized

Initializing position-dependent things.

Density initialized from atomic densities
Creating initial wave functions:
  112 bands from LCAO basis set

                                           
                                           
                                           
                                           
                                           
               O     O  P  O               
            PO           OMn     O         
                  O          MO            
            O        Li O                  
             Mn  On          OP            
         O         Li O                    
         Li     O P         O              
       Li                                  
                                           
                                           
                                           
                                           

Positions:
   0 O     -1.263197   -2.497779   -1.098475    ( 0.0000,  0.0000,  0.0000)
   1 O     -3.070823    2.922496    1.209491    ( 0.0000,  0.0000,  0.0000)
   2 O      1.985541    0.474863    1.428016    ( 0.0000,  0.0000,  0.0000)
   3 O      3.793120   -0.050100   -0.879950    ( 0.0000,  0.0000,  0.0000)
   4 O      1.985518    2.922485    1.428149    ( 0.0000,  0.0000,  0.0000)
   5 O      3.793144   -2.497790   -0.879818    ( 0.0000,  0.0000,  0.0000)
   6 O     -1.263220   -0.060157   -1.098342    ( 0.0000,  0.0000,  0.0000)
   7 O     -3.070798    0.474805    1.209623    ( 0.0000,  0.0000,  0.0000)
   8 O     -4.167835   -1.273920   -0.862116    ( 0.0000,  0.0000,  0.0000)
   9 O     -0.166037    1.698602    1.445528    ( 0.0000,  0.0000,  0.0000)
  10 O      4.890156    1.698625    1.191790    ( 0.0000,  0.0000,  0.0000)
  11 O      0.888358   -1.273896   -1.115855    ( 0.0000,  0.0000,  0.0000)
  12 Mn    -2.445557   -1.274211    0.312921    ( 0.0000,  0.0000,  1.0000)
  13 Mn    -1.888303    1.698892   -1.994948    ( 0.0000,  0.0000, -1.0000)
  14 Mn     3.167879    1.698917    0.016752    ( 0.0000,  0.0000, -1.0000)
  15 Mn     2.610624   -1.274187    2.324621    ( 0.0000,  0.0000,  1.0000)
  16 P     -0.529549   -1.273917   -1.724376    ( 0.0000,  0.0000,  0.0000)
  17 P     -3.804359    1.698599    0.583463    ( 0.0000,  0.0000,  0.0000)
  18 P      1.251870    1.698623    2.054050    ( 0.0000,  0.0000,  0.0000)
  19 P      4.526680   -1.273894   -0.253789    ( 0.0000,  0.0000,  0.0000)
  20 O     -0.544227   -1.273926    1.365380    ( 0.0000,  0.0000,  0.0000)
  21 O     -3.789411    1.698610   -0.942222    ( 0.0000,  0.0000,  0.0000)
  22 O      1.266548    1.698631   -1.035707    ( 0.0000,  0.0000,  0.0000)
  23 O      4.511733   -1.273905    1.271895    ( 0.0000,  0.0000,  0.0000)
  24 Li    -4.695087   -2.760584   -2.142877    ( 0.0000,  0.0000,  0.0000)
  25 Li     0.361147   -2.760561    0.164836    ( 0.0000,  0.0000,  0.0000)
  26 Li    -4.695074    0.212330   -2.142877    ( 0.0000,  0.0000,  0.0000)
  27 Li     0.361161    0.212353    0.164837    ( 0.0000,  0.0000,  0.0000)

Unit cell:
           periodic     x           y           z      points  spacing
  1. axis:    yes   10.112485    0.000045   -0.000035    60     0.1685
  2. axis:    yes    0.000026    5.945827    0.000001    35     0.1699
  3. axis:    yes   -0.000016    0.000000    4.615463    27     0.1709

  Lengths:  10.112485   5.945827   4.615463
  Angles:   89.999989  90.000396  89.999490

Effective grid spacing dv^(1/3) = 0.1698

                     log10-error:           total        iterations:
           time      wfs    density  force  energy       poisson  magmom
iter:   1  09:49:40                       -221.375041             +0.0000
iter:   2  09:50:17  -0.61  -0.93         -234.851358             +0.0000
iter:   3  09:50:55  -0.37  -0.97         -225.916325             -0.0000
iter:   4  09:51:32  -1.39  -1.29         -225.759968             +0.0000
iter:   5  09:52:10  -1.26  -1.39         -227.336039             +0.0000
iter:   6  09:52:48  -1.46  -1.46         -225.736318             +0.0000
iter:   7  09:53:25  -2.47  -2.04         -225.724261             +0.0000
iter:   8  09:54:03  -2.14  -1.99         -225.587395             +0.0000
iter:   9  09:54:40  -2.47  -2.09         -225.431178             +0.0000
iter:  10  09:55:17  -3.30  -2.54         -225.420878             +0.0000
iter:  11  09:55:55  -3.65  -2.81         -225.410710             +0.0000
iter:  12  09:56:32  -4.11  -3.05         -225.409588             +0.0000
iter:  13  09:57:10  -5.13  -3.29         -225.409475             +0.0000
iter:  14  09:57:47  -5.38  -3.32         -225.409300             +0.0000
iter:  15  09:58:25  -6.00  -3.43         -225.409303             +0.0000
iter:  16  09:59:02  -5.23  -3.47         -225.409642             -0.0000
iter:  17  09:59:40  -5.74  -3.57         -225.409528             +0.0000
iter:  18  10:00:17  -5.22  -3.71         -225.409250             -0.0000
iter:  19  10:00:55  -6.07  -4.13         -225.409253             -0.0000
iter:  20  10:01:32  -7.29  -4.51         -225.409254             +0.0000
iter:  21  10:02:19  -7.49  -4.53         -225.409253             +0.0000
iter:  22  10:03:06  -7.51  -4.62    -2.67-225.409254             -0.0000
iter:  23  10:03:54  -8.27  -4.68    -2.82-225.409254             -0.0000
iter:  24  10:04:41  -8.75  -4.77    -3.57-225.409253             +0.0000
iter:  25  10:05:28  -8.12  -4.84    -2.63-225.409253             -0.0000
iter:  26  10:06:15  -8.18  -4.98    -3.31-225.409253             -0.0000
iter:  27  10:07:02  -9.52  -5.08    -3.66-225.409253             -0.0000
iter:  28  10:07:49  -8.11  -5.12    -2.83-225.409253             -0.0000
iter:  29  10:08:36  -8.99  -5.26    -3.28-225.409253             +0.0000
iter:  30  10:09:23  -9.93  -5.44    -3.50-225.409253             -0.0000
iter:  31  10:10:10  -9.57  -5.55    -3.37-225.409253             +0.0000
iter:  32  10:10:57 -10.49  -5.64    -4.07-225.409253             +0.0000
iter:  33  10:11:44  -9.88  -5.71    -3.91-225.409253             -0.0000
iter:  34  10:12:31 -10.53  -5.72    -4.65-225.409253             +0.0000
iter:  35  10:13:18 -10.09  -5.76    -4.32-225.409253             +0.0000
iter:  36  10:14:05 -10.03  -5.83    -3.67-225.409253             +0.0000
iter:  37  10:14:52 -10.24  -5.87    -4.02-225.409253             +0.0000
iter:  38  10:15:39 -11.10  -6.18    -4.44-225.409253             +0.0000
iter:  39  10:16:27 -10.86  -6.18    -4.18-225.409253             -0.0000
iter:  40  10:17:14 -11.33  -6.36    -4.38-225.409253             -0.0000
iter:  41  10:18:01 -11.58  -6.37    -4.54-225.409253             -0.0000
iter:  42  10:18:48 -11.37  -6.54    -4.56-225.409253             -0.0000
iter:  43  10:19:35 -11.99  -6.66    -4.99-225.409253             -0.0000
iter:  44  10:20:22 -11.62  -6.70    -4.69-225.409253             -0.0000
iter:  45  10:21:09 -12.41  -6.79    -5.23-225.409253             -0.0000
iter:  46  10:21:56 -11.83  -6.84    -4.56-225.409253             -0.0000
iter:  47  10:22:43 -13.07  -7.35    -5.73-225.409253             -0.0000
iter:  48  10:23:30 -14.00  -7.44    -5.80-225.409253             -0.0000
iter:  49  10:24:17 -14.00  -7.49    -5.59-225.409253             -0.0000
iter:  50  10:25:04 -13.90  -7.57    -5.69-225.409253             -0.0000
iter:  51  10:25:51 -13.74  -7.61    -5.76-225.409253             -0.0000
iter:  52  10:26:38 -14.14  -7.67    -5.81-225.409253             -0.0000
iter:  53  10:27:25 -14.81  -7.75    -6.06-225.409253             -0.0000

Converged after 53 iterations.

Dipole moment: (19.053651, -0.943926, -4.182883) |e|*Ang

Total magnetic moment: (0.000000, 0.000000, -0.000000)
Local magnetic moments:
   0 O  ( 0.000000,  0.000000,  0.000593)
   1 O  ( 0.000000,  0.000000, -0.000818)
   2 O  ( 0.000000,  0.000000, -0.000669)
   3 O  ( 0.000000,  0.000000,  0.000661)
   4 O  ( 0.000000,  0.000000, -0.000669)
   5 O  ( 0.000000,  0.000000,  0.000668)
   6 O  ( 0.000000,  0.000000,  0.000894)
   7 O  ( 0.000000,  0.000000, -0.000625)
   8 O  ( 0.000000,  0.000000,  0.022365)
   9 O  ( 0.000000,  0.000000, -0.022337)
  10 O  ( 0.000000,  0.000000, -0.022353)
  11 O  ( 0.000000,  0.000000,  0.022534)
  12 Mn ( 0.000000,  0.000000,  4.575018)
  13 Mn ( 0.000000,  0.000000, -4.576028)
  14 Mn ( 0.000000,  0.000000, -4.575059)
  15 Mn ( 0.000000,  0.000000,  4.575078)
  16 P  ( 0.000000,  0.000000,  0.001092)
  17 P  ( 0.000000,  0.000000, -0.000801)
  18 P  ( 0.000000,  0.000000, -0.000798)
  19 P  ( 0.000000,  0.000000,  0.000823)
  20 O  ( 0.000000,  0.000000,  0.020809)
  21 O  ( 0.000000,  0.000000, -0.020653)
  22 O  ( 0.000000,  0.000000, -0.020711)
  23 O  ( 0.000000,  0.000000,  0.020694)
  24 Li ( 0.000000,  0.000000,  0.000001)
  25 Li ( 0.000000,  0.000000,  0.000002)
  26 Li ( 0.000000,  0.000000,  0.000000)
  27 Li ( 0.000000,  0.000000,  0.000025)

Energy contributions relative to reference atoms: (reference = -196157.275402)

Kinetic:       +297.365725
Potential:     -256.790167
External:        +0.000000
XC:            -267.764604
Entropy (-ST):   -0.000000
Local:           +1.779793
--------------------------
Free energy:   -225.409253
Extrapolated:  -225.409253

Spin contamination: 9.697807 electrons
Showing only first 2 kpts
                      Up                     Down
 Kpt  Band  Eigenvalues  Occupancy  Eigenvalues  Occupancy
  0    88      5.11303    0.00694      5.10183    0.00694
  0    89      5.16487    0.00694      5.15481    0.00694
  0    90      9.64818    0.00000      9.65621    0.00000
  0    91      9.66295    0.00000      9.67371    0.00000

  1    88      5.12450    0.00694      5.11311    0.00694
  1    89      5.17418    0.00694      5.16428    0.00694
  1    90      9.53084    0.00000      9.54128    0.00000
  1    91      9.53722    0.00000      9.54786    0.00000


Fermi level: 6.37019

Gap: 3.792 eV
Transition (v -> c):
  (s=0, k=71, n=89, [-0.08, 0.42, 0.38]) -> (s=0, k=81, n=90, [0.08, -0.08, -0.12])
Writing to born-0.01-6y-.gpw (mode='all')

Timing:                              incl.     excl.
-----------------------------------------------------------
Hamiltonian:                         0.408     0.002   0.0% |
 Atomic:                             0.058     0.058   0.0% |
  XC Correction:                     0.000     0.000   0.0% |
 Calculate atomic Hamiltonians:      0.167     0.167   0.0% |
 Communicate:                        0.005     0.005   0.0% |
 Initialize Hamiltonian:             0.000     0.000   0.0% |
 Poisson:                            0.001     0.001   0.0% |
 XC 3D grid:                         0.175     0.175   0.0% |
LCAO initialization:               152.082     0.677   0.0% |
 LCAO eigensolver:                  40.105     0.003   0.0% |
  Calculate projections:             0.056     0.056   0.0% |
  DenseAtomicCorrection:             0.082     0.082   0.0% |
  Distribute overlap matrix:         0.553     0.553   0.0% |
  Orbital Layouts:                   0.361     0.361   0.0% |
  Potential matrix:                 38.949    38.949   0.7% |
  Sum over cells:                    0.100     0.100   0.0% |
 LCAO to grid:                     108.921   108.921   1.9% ||
 Set positions (LCAO WFS):           2.379     0.371   0.0% |
  Basic WFS set positions:           0.001     0.001   0.0% |
  Basis functions set positions:     0.000     0.000   0.0% |
  P tci:                             1.079     1.079   0.0% |
  ST tci:                            0.710     0.710   0.0% |
  mktci:                             0.217     0.217   0.0% |
PWDescriptor:                        0.025     0.025   0.0% |
SCF-cycle:                        2307.598    14.642   0.3% |
 Davidson:                        1866.766   594.048  10.4% |---|
  Apply H:                         136.485   132.445   2.3% ||
   HMM T:                            4.040     4.040   0.1% |
  Subspace diag:                   277.656     0.166   0.0% |
   calc_h_matrix:                  182.654    48.122   0.8% |
    Apply H:                       134.532   130.614   2.3% ||
     HMM T:                          3.918     3.918   0.1% |
   diagonalize:                      6.428     6.428   0.1% |
   rotate_psi:                      88.408    88.408   1.5% ||
  calc. matrices:                  589.764   322.572   5.7% |-|
   Apply H:                        267.192   259.507   4.5% |-|
    HMM T:                           7.686     7.686   0.1% |
  diagonalize:                      88.427    88.427   1.5% ||
  rotate_psi:                      180.387   180.387   3.2% ||
 Density:                           79.348     0.001   0.0% |
  Atomic density matrices:           1.366     1.366   0.0% |
  Mix:                              11.780    11.780   0.2% |
  Multipole moments:                 0.031     0.031   0.0% |
  Pseudo density:                   66.170    66.169   1.2% |
   Symmetrize density:               0.002     0.002   0.0% |
 Forces:                           321.296   321.296   5.6% |-|
 Hamiltonian:                       21.493     0.130   0.0% |
  Atomic:                            3.092     3.091   0.1% |
   XC Correction:                    0.000     0.000   0.0% |
  Calculate atomic Hamiltonians:     8.826     8.826   0.2% |
  Communicate:                       0.084     0.084   0.0% |
  Poisson:                           0.080     0.080   0.0% |
  XC 3D grid:                        9.281     9.281   0.2% |
 Orthonormalize:                     4.053     0.004   0.0% |
  calc_s_matrix:                     0.483     0.483   0.0% |
  inverse-cholesky:                  0.055     0.055   0.0% |
  projections:                       2.653     2.653   0.0% |
  rotate_psi_s:                      0.858     0.858   0.0% |
Set symmetry:                        0.000     0.000   0.0% |
Other:                            3244.916  3244.916  56.9% |----------------------|
-----------------------------------------------------------
Total:                                      5705.030 100.0%

Memory usage: 12.74 GiB
Date: Mon Mar 22 11:21:28 2021
