
  ___ ___ ___ _ _ _  
 |   |   |_  | | | | 
 | | | | | . | | | | 
 |__ |  _|___|_____|  21.1.1b1
 |___|_|             

User:   madkru@g008.nifl.fysik.dtu.dk
Date:   Fri Mar 26 16:22:19 2021
Arch:   x86_64
Pid:    26423
Python: 3.8.6
gpaw:   /home/niflheim/madkru/venv_madkru/gpaw/gpaw (e6f0d78a31)
_gpaw:  /home/niflheim/madkru/venv_madkru/gpaw/build/lib.linux-x86_64-sandybridge-3.8/
        _gpaw.cpython-38-x86_64-linux-gnu.so (e6f0d78a31)
ase:    /home/niflheim/madkru/venv_madkru/ase/ase (version 3.22.0b1-4d5a73cb29)
numpy:  /home/modules/software/SciPy-bundle/2020.11-foss-2020b/lib/python3.8/site-packages/numpy (version 1.19.4)
scipy:  /home/modules/software/SciPy-bundle/2020.11-foss-2020b/lib/python3.8/site-packages/scipy (version 1.5.4)
libxc:  4.3.4
units:  Angstrom and eV
cores: 64
OpenMP: False
OMP_NUM_THREADS: 1

Input parameters:
  convergence: {bands: occupied,
                density: 0.0001,
                eigenstates: 4e-08,
                energy: 0.0005,
                forces: 1e-06}
  kpts: [6 6 4]
  mode: {ecut: 600.0,
         gammacentered: False,
         name: pw}
  occupations: {fixmagmom: False,
                name: fermi-dirac,
                width: 0.001}
  setups: {Mn: :d,3.0}
  symmetry: {point_group: False,
             time_reversal: False}

System changes: positions, numbers, cell, pbc, initial_charges, initial_magmoms 

Initialize ...

O-setup:
  name: Oxygen
  id: 9b9d51c344dea68c822856295a461509
  Z: 8.0
  valence: 6
  core: 2
  charge: 0.0
  file: /home/modules/software/GPAW-setups/0.9.20000/O.LDA.gz
  compensation charges: gauss, rc=0.21, lmax=2
  cutoffs: 1.17(filt), 0.83(core),
  valence states:
                energy  radius
    2s(2.00)   -23.752   0.688
    2p(4.00)    -9.195   0.598
    *s           3.459   0.688
    *p          18.016   0.598
    *d           0.000   0.619

  Using partial waves for O as LCAO basis

Mn-setup:
  name: Manganese
  id: 0d715a8018be061a6e9ea6f2d364ac92
  Z: 25.0
  valence: 15
  core: 10
  charge: 0.0
  Hubbard U: 3.000000 eV (l=2, scale=True)
  file: /home/modules/software/GPAW-setups/0.9.20000/Mn.LDA.gz
  compensation charges: gauss, rc=0.38, lmax=2
  cutoffs: 2.14(filt), 0.86(core),
  valence states:
                energy  radius
    3s(2.00)   -85.387   1.275
    4s(2.00)    -5.282   1.275
    3p(6.00)   -54.493   1.281
    4p(0.00)    -1.471   1.281
    3d(5.00)    -7.009   1.138
    *d          20.203   1.138

  Using partial waves for Mn as LCAO basis

P-setup:
  name: Phosphorus
  id: a5561c299094968922a179ab894d2e2d
  Z: 15.0
  valence: 5
  core: 10
  charge: 0.0
  file: /home/modules/software/GPAW-setups/0.9.20000/P.LDA.gz
  compensation charges: gauss, rc=0.30, lmax=2
  cutoffs: 1.69(filt), 1.81(core),
  valence states:
                energy  radius
    3s(2.00)   -14.015   0.953
    3p(3.00)    -5.596   0.953
    *s          13.197   0.953
    *p          21.615   0.953
    *d           0.000   0.953

  Using partial waves for P as LCAO basis

Li-setup:
  name: Lithium
  id: b73562207f97a71b6967473b66fe8b65
  Z: 3.0
  valence: 1
  core: 2
  charge: 0.0
  file: /home/modules/software/GPAW-setups/0.9.20000/Li.LDA.gz
  compensation charges: gauss, rc=0.33, lmax=2
  cutoffs: 1.91(filt), 2.55(core),
  valence states:
                energy  radius
    2s(1.00)    -2.874   1.058
    2p(0.00)    -1.126   1.058
    *s          24.338   1.058

  Using partial waves for Li as LCAO basis

Reference energy: -196157.275402

Spin-polarized calculation.
Magnetic moment: 0.000000

Convergence criteria:
  Maximum total energy change: 0.0005 eV / electron
  Maximum integral of absolute density change: 0.0001 electrons
  Maximum integral of absolute eigenstate change: 4e-08 eV^2
  Maximum change in atomic force: 1e-06 eV / Ang
  Maximum number of iterations: 333

Symmetries present (total): 1

  ( 1  0  0)
  ( 0  1  0)
  ( 0  0  1)

144 k-points: 6 x 6 x 4 Monkhorst-Pack grid
144 k-points in the irreducible part of the Brillouin zone
       k-points in crystal coordinates                weights
   0:    -0.41666667   -0.41666667   -0.37500000          1/144
   1:    -0.41666667   -0.41666667   -0.12500000          1/144
   2:    -0.41666667   -0.41666667    0.12500000          1/144
   3:    -0.41666667   -0.41666667    0.37500000          1/144
   4:    -0.41666667   -0.25000000   -0.37500000          1/144
   5:    -0.41666667   -0.25000000   -0.12500000          1/144
   6:    -0.41666667   -0.25000000    0.12500000          1/144
   7:    -0.41666667   -0.25000000    0.37500000          1/144
   8:    -0.41666667   -0.08333333   -0.37500000          1/144
   9:    -0.41666667   -0.08333333   -0.12500000          1/144
          ...
 143:     0.41666667    0.41666667    0.37500000          1/144

Wave functions: Plane wave expansion
  Cutoff energy: 600.000 eV
  Number of coefficients (min, max): 9238, 9284
  Pulay-stress correction: 0.000000 eV/Ang^3 (de/decut=0.000000)
  Using FFTW library
  ScaLapack parameters: grid=1x1, blocksize=None
  Wavefunction extrapolation:
    Improved wavefunction reuse through dual PAW basis 

  Fermi-Dirac: width=0.0010 eV

Eigensolver
   Davidson(niter=2) 

Densities:
  Coarse grid: 60*35*27 grid
  Fine grid: 120*70*54 grid
  Total Charge: 0.000000 

Density mixing:
  Method: difference
  Backend: pulay
  Linear mixing parameter: 0.05
  Mixing with 5 old densities
  Damping of long wave oscillations: 50 

Hamiltonian:
  XC and Coulomb potentials evaluated on a 120*70*54 grid
  Using the LDA Exchange-Correlation functional
 

Memory estimate:
  Process memory now: 12127.76 MiB
  Calculator: 326.59 MiB
    Density: 9.67 MiB
      Arrays: 3.79 MiB
      Localized functions: 4.32 MiB
      Mixer: 1.56 MiB
    Hamiltonian: 2.94 MiB
      Arrays: 2.82 MiB
      XC: 0.00 MiB
      Poisson: 0.00 MiB
      vbar: 0.12 MiB
    Wavefunctions: 313.97 MiB
      Arrays psit_nG: 285.59 MiB
      Eigensolver: 18.49 MiB
      Projections: 2.71 MiB
      Projectors: 4.46 MiB
      PW-descriptor: 2.72 MiB

Total number of cores used: 64
Parallelization over k-points: 16
Domain decomposition: 2 x 2 x 1

Number of atoms: 28
Number of atomic orbitals: 148
Number of bands in calculation: 112
Number of valence electrons: 180
Bands to converge: occupied

... initialized

Initializing position-dependent things.

Density initialized from atomic densities
Creating initial wave functions:
  112 bands from LCAO basis set

                                           
                                           
                                           
                                           
                                           
               O     O  P  O               
            PO           OMn     O         
                  O          MO            
            O        Li O                  
             Mn  On          OP            
         O         Li O                    
         Li     O P         O              
       Li                                  
                                           
                                           
                                           
                                           

Positions:
   0 O     -1.263197   -2.497779   -1.098475    ( 0.0000,  0.0000,  0.0000)
   1 O     -3.070823    2.922496    1.209491    ( 0.0000,  0.0000,  0.0000)
   2 O      1.985541    0.474863    1.428016    ( 0.0000,  0.0000,  0.0000)
   3 O      3.793120   -0.050100   -0.879950    ( 0.0000,  0.0000,  0.0000)
   4 O      1.985518    2.922485    1.428149    ( 0.0000,  0.0000,  0.0000)
   5 O      3.793144   -2.497790   -0.879818    ( 0.0000,  0.0000,  0.0000)
   6 O     -1.263220   -0.050157   -1.098342    ( 0.0000,  0.0000,  0.0000)
   7 O     -3.070798    0.474805    1.209623    ( 0.0000,  0.0000,  0.0000)
   8 O     -4.167835   -1.273920   -0.862116    ( 0.0000,  0.0000,  0.0000)
   9 O     -0.166037    1.698602    1.445528    ( 0.0000,  0.0000,  0.0000)
  10 O      4.890156    1.698625    1.191790    ( 0.0000,  0.0000,  0.0000)
  11 O      0.888358   -1.273896   -1.115855    ( 0.0000,  0.0000,  0.0000)
  12 Mn    -2.445557   -1.274211    0.312921    ( 0.0000,  0.0000,  1.0000)
  13 Mn    -1.888303    1.698892   -1.994948    ( 0.0000,  0.0000, -1.0000)
  14 Mn     3.167879    1.698917    0.016752    ( 0.0000,  0.0000, -1.0000)
  15 Mn     2.610624   -1.274187    2.324621    ( 0.0000,  0.0000,  1.0000)
  16 P     -0.529549   -1.273917   -1.724376    ( 0.0000,  0.0000,  0.0000)
  17 P     -3.804359    1.698599    0.583463    ( 0.0000,  0.0000,  0.0000)
  18 P      1.251870    1.698623    2.054050    ( 0.0000,  0.0000,  0.0000)
  19 P      4.526680   -1.273894   -0.253789    ( 0.0000,  0.0000,  0.0000)
  20 O     -0.544227   -1.273926    1.365380    ( 0.0000,  0.0000,  0.0000)
  21 O     -3.789411    1.698610   -0.942222    ( 0.0000,  0.0000,  0.0000)
  22 O      1.266548    1.698631   -1.035707    ( 0.0000,  0.0000,  0.0000)
  23 O      4.511733   -1.273905    1.271895    ( 0.0000,  0.0000,  0.0000)
  24 Li    -4.695087   -2.760584   -2.142877    ( 0.0000,  0.0000,  0.0000)
  25 Li     0.361147   -2.760561    0.164836    ( 0.0000,  0.0000,  0.0000)
  26 Li    -4.695074    0.212330   -2.142877    ( 0.0000,  0.0000,  0.0000)
  27 Li     0.361161    0.202353    0.164837    ( 0.0000,  0.0000,  0.0000)

Unit cell:
           periodic     x           y           z      points  spacing
  1. axis:    yes   10.112485    0.000045   -0.000035    60     0.1685
  2. axis:    yes    0.000026    5.945827    0.000001    35     0.1699
  3. axis:    yes   -0.000016    0.000000    4.615463    27     0.1709

  Lengths:  10.112485   5.945827   4.615463
  Angles:   89.999989  90.000396  89.999490

Effective grid spacing dv^(1/3) = 0.1698

                     log10-error:           total        iterations:
           time      wfs    density  force  energy       poisson  magmom
iter:   1  16:24:00                       -221.376775             +0.0000
iter:   2  16:24:20  -0.61  -0.93         -234.836068             +0.0000
iter:   3  16:24:40  -0.37  -0.97         -225.912130             -0.0000
iter:   4  16:25:00  -1.39  -1.29         -225.761659             +0.0000
iter:   5  16:25:20  -1.27  -1.39         -227.329891             +0.0000
iter:   6  16:25:40  -1.46  -1.46         -225.737460             +0.0000
iter:   7  16:26:01  -2.47  -2.04         -225.724885             +0.0000
iter:   8  16:26:21  -2.14  -1.99         -225.590495             +0.0000
iter:   9  16:26:41  -2.46  -2.09         -225.432510             +0.0000
iter:  10  16:27:01  -3.31  -2.55         -225.422570             +0.0000
iter:  11  16:27:21  -3.65  -2.81         -225.412134             +0.0000
iter:  12  16:27:41  -4.12  -3.05         -225.411029             +0.0000
iter:  13  16:28:01  -5.10  -3.29         -225.410908             -0.0000
iter:  14  16:28:21  -5.39  -3.32         -225.410734             -0.0000
iter:  15  16:28:41  -6.04  -3.43         -225.410741             -0.0000
iter:  16  16:29:01  -5.24  -3.47         -225.411084             +0.0000
iter:  17  16:29:21  -5.87  -3.58         -225.410969             -0.0000
iter:  18  16:29:41  -5.21  -3.70         -225.410684             +0.0000
iter:  19  16:30:01  -6.10  -4.14         -225.410687             +0.0000
iter:  20  16:30:21  -7.28  -4.54         -225.410689             -0.0000
iter:  21  16:30:46  -8.09  -4.57         -225.410689             +0.0000
iter:  22  16:31:11  -7.85  -4.63    -2.33-225.410689             +0.0000
iter:  23  16:31:36  -8.17  -4.90    -2.69-225.410688             +0.0000
iter:  24  16:32:01  -8.86  -5.15    -3.07-225.410688             +0.0000
iter:  25  16:32:26  -9.35  -5.22    -3.34-225.410688             +0.0000
iter:  26  16:32:51  -9.07  -5.35    -3.26-225.410688             +0.0000
iter:  27  16:33:17  -9.50  -5.56    -3.45-225.410688             -0.0000
iter:  28  16:33:42 -10.05  -5.62    -3.95-225.410688             +0.0000
iter:  29  16:34:07  -9.79  -5.65    -3.57-225.410688             +0.0000
iter:  30  16:34:32 -10.05  -5.73    -3.40-225.410688             +0.0000
iter:  31  16:34:57 -10.03  -5.79    -3.94-225.410688             +0.0000
iter:  32  16:35:22  -9.52  -5.89    -3.54-225.410688             +0.0000
iter:  33  16:35:47  -9.88  -5.84    -3.44-225.410688             +0.0000
iter:  34  16:36:12 -11.05  -6.08    -4.69-225.410688             +0.0000
iter:  35  16:36:37 -10.15  -6.10    -3.76-225.410688             +0.0000
iter:  36  16:37:03 -11.46  -6.23    -4.41-225.410688             -0.0000
iter:  37  16:37:28 -12.09  -6.31    -4.41-225.410688             -0.0000
iter:  38  16:37:53 -11.11  -6.30    -4.60-225.410688             -0.0000
iter:  39  16:38:18 -11.22  -6.32    -4.20-225.410688             -0.0000
iter:  40  16:38:43 -12.15  -6.35    -4.92-225.410688             +0.0000
iter:  41  16:39:08 -11.83  -6.38    -4.33-225.410688             -0.0000
iter:  42  16:39:33 -11.60  -6.53    -4.49-225.410688             -0.0000
iter:  43  16:39:58 -12.54  -6.53    -4.79-225.410688             -0.0000
iter:  44  16:40:23 -11.88  -6.61    -4.67-225.410688             -0.0000
iter:  45  16:40:48 -12.33  -6.88    -4.68-225.410688             -0.0000
iter:  46  16:41:13 -12.64  -6.98    -5.01-225.410688             -0.0000
iter:  47  16:41:39 -12.29  -7.07    -4.71-225.410688             -0.0000
iter:  48  16:42:04 -12.55  -7.12    -5.33-225.410688             -0.0000
iter:  49  16:42:29 -13.32  -7.45    -5.69-225.410688             -0.0000
iter:  50  16:42:54 -14.71  -7.49    -6.10-225.410688             -0.0000

Converged after 50 iterations.

Dipole moment: (19.052484, -1.375065, -4.182842) |e|*Ang

Total magnetic moment: (0.000000, 0.000000, -0.000000)
Local magnetic moments:
   0 O  ( 0.000000,  0.000000,  0.000684)
   1 O  ( 0.000000,  0.000000, -0.000662)
   2 O  ( 0.000000,  0.000000, -0.000619)
   3 O  ( 0.000000,  0.000000,  0.000680)
   4 O  ( 0.000000,  0.000000, -0.000644)
   5 O  ( 0.000000,  0.000000,  0.000683)
   6 O  ( 0.000000,  0.000000,  0.000701)
   7 O  ( 0.000000,  0.000000, -0.000656)
   8 O  ( 0.000000,  0.000000,  0.022383)
   9 O  ( 0.000000,  0.000000, -0.022405)
  10 O  ( 0.000000,  0.000000, -0.022353)
  11 O  ( 0.000000,  0.000000,  0.022330)
  12 Mn ( 0.000000,  0.000000,  4.575052)
  13 Mn ( 0.000000,  0.000000, -4.575071)
  14 Mn ( 0.000000,  0.000000, -4.575079)
  15 Mn ( 0.000000,  0.000000,  4.574998)
  16 P  ( 0.000000,  0.000000,  0.000809)
  17 P  ( 0.000000,  0.000000, -0.000820)
  18 P  ( 0.000000,  0.000000, -0.000814)
  19 P  ( 0.000000,  0.000000,  0.000813)
  20 O  ( 0.000000,  0.000000,  0.020697)
  21 O  ( 0.000000,  0.000000, -0.020699)
  22 O  ( 0.000000,  0.000000, -0.020721)
  23 O  ( 0.000000,  0.000000,  0.020718)
  24 Li ( 0.000000,  0.000000,  0.000000)
  25 Li ( 0.000000,  0.000000, -0.000001)
  26 Li ( 0.000000,  0.000000,  0.000000)
  27 Li ( 0.000000,  0.000000,  0.000007)

Energy contributions relative to reference atoms: (reference = -196157.275402)

Kinetic:       +296.840020
Potential:     -256.382590
External:        +0.000000
XC:            -267.648846
Entropy (-ST):   -0.000000
Local:           +1.780727
--------------------------
Free energy:   -225.410688
Extrapolated:  -225.410688

Spin contamination: 9.697235 electrons
Showing only first 2 kpts
                      Up                     Down
 Kpt  Band  Eigenvalues  Occupancy  Eigenvalues  Occupancy
  0    88      5.10738    1.00000      5.11137    1.00000
  0    89      5.15885    1.00000      5.16313    1.00000
  0    90      9.65450    0.00000      9.65003    0.00000
  0    91      9.67240    0.00000      9.66955    0.00000

  1    88      5.11887    1.00000      5.12307    1.00000
  1    89      5.16819    1.00000      5.17240    1.00000
  1    90      9.53660    0.00000      9.53248    0.00000
  1    91      9.54621    0.00000      9.54357    0.00000


Fermi level: 6.36994

Gap: 3.793 eV
Transition (v -> c):
  (s=1, k=51, n=89, [-0.08, -0.42, 0.38]) -> (s=1, k=61, n=90, [-0.08, 0.08, -0.12])
Writing to born-0.01-27y-.gpw (mode='all')

Timing:                              incl.     excl.
-----------------------------------------------------------
Hamiltonian:                         0.254     0.003   0.0% |
 Atomic:                             0.079     0.079   0.0% |
  XC Correction:                     0.000     0.000   0.0% |
 Calculate atomic Hamiltonians:      0.081     0.081   0.0% |
 Communicate:                        0.000     0.000   0.0% |
 Initialize Hamiltonian:             0.000     0.000   0.0% |
 Poisson:                            0.001     0.001   0.0% |
 XC 3D grid:                         0.090     0.090   0.0% |
LCAO initialization:                77.191     0.674   0.0% |
 LCAO eigensolver:                  21.118     0.002   0.0% |
  Calculate projections:             0.029     0.029   0.0% |
  DenseAtomicCorrection:             0.043     0.043   0.0% |
  Distribute overlap matrix:         0.099     0.099   0.0% |
  Orbital Layouts:                   0.277     0.277   0.0% |
  Potential matrix:                 20.583    20.583   0.7% |
  Sum over cells:                    0.084     0.084   0.0% |
 LCAO to grid:                      54.032    54.032   1.8% ||
 Set positions (LCAO WFS):           1.367     0.194   0.0% |
  Basic WFS set positions:           0.002     0.002   0.0% |
  Basis functions set positions:     0.000     0.000   0.0% |
  P tci:                             0.526     0.526   0.0% |
  ST tci:                            0.393     0.393   0.0% |
  mktci:                             0.253     0.253   0.0% |
PWDescriptor:                        0.025     0.025   0.0% |
SCF-cycle:                        1156.175     2.876   0.1% |
 Davidson:                         948.884   295.033   9.8% |---|
  Apply H:                          67.215    65.218   2.2% ||
   HMM T:                            1.997     1.997   0.1% |
  Subspace diag:                   137.566     0.144   0.0% |
   calc_h_matrix:                   88.913    23.256   0.8% |
    Apply H:                        65.657    63.779   2.1% ||
     HMM T:                          1.878     1.878   0.1% |
   diagonalize:                      5.143     5.143   0.2% |
   rotate_psi:                      43.366    43.366   1.4% ||
  calc. matrices:                  285.006   154.193   5.1% |-|
   Apply H:                        130.813   127.184   4.2% |-|
    HMM T:                           3.629     3.629   0.1% |
  diagonalize:                      77.777    77.777   2.6% ||
  rotate_psi:                       86.288    86.288   2.9% ||
 Density:                           39.420     0.001   0.0% |
  Atomic density matrices:           0.647     0.647   0.0% |
  Mix:                               6.298     6.298   0.2% |
  Multipole moments:                 0.018     0.018   0.0% |
  Pseudo density:                   32.455    32.453   1.1% |
   Symmetrize density:               0.001     0.001   0.0% |
 Forces:                           150.990   150.990   5.0% |-|
 Hamiltonian:                       11.898     0.101   0.0% |
  Atomic:                            3.001     3.000   0.1% |
   XC Correction:                    0.000     0.000   0.0% |
  Calculate atomic Hamiltonians:     4.225     4.225   0.1% |
  Communicate:                       0.010     0.010   0.0% |
  Poisson:                           0.039     0.039   0.0% |
  XC 3D grid:                        4.522     4.522   0.2% |
 Orthonormalize:                     2.107     0.003   0.0% |
  calc_s_matrix:                     0.247     0.247   0.0% |
  inverse-cholesky:                  0.040     0.040   0.0% |
  projections:                       1.368     1.368   0.0% |
  rotate_psi_s:                      0.448     0.448   0.0% |
Set symmetry:                        0.000     0.000   0.0% |
Other:                            1768.654  1768.654  58.9% |-----------------------|
-----------------------------------------------------------
Total:                                      3002.299 100.0%

Memory usage: 11.85 GiB
Date: Fri Mar 26 17:12:21 2021
