
  ___ ___ ___ _ _ _  
 |   |   |_  | | | | 
 | | | | | . | | | | 
 |__ |  _|___|_____|  20.10.1b1
 |___|_|             

User:   madkru@g035.nifl.fysik.dtu.dk
Date:   Mon Mar 22 05:52:00 2021
Arch:   x86_64
Pid:    44316
Python: 3.7.4
gpaw:   /home/niflheim/madkru/venv_folder/gpaw/gpaw (d0d1ca1c71)
_gpaw:  /home/niflheim/madkru/venv_folder/gpaw/build/lib.linux-x86_64-sandybridge-3.7/
        _gpaw.cpython-37m-x86_64-linux-gnu.so (4fd39e8b1e)
ase:    /home/niflheim/madkru/venv_folder/ase/ase (version 3.21.0b1-7e6c206a91)
numpy:  /home/niflheim/madkru/venv_folder/lib/python3.7/site-packages/numpy (version 1.19.4)
scipy:  /home/niflheim/madkru/venv_folder/lib/python3.7/site-packages/scipy (version 1.5.4)
libxc:  4.3.4
units:  Angstrom and eV
cores: 32
OMP_NUM_THREADS: 1

Input parameters:
  convergence: {bands: occupied,
                density: 0.0001,
                eigenstates: 4e-08,
                energy: 0.0005,
                forces: 1e-06}
  kpts: [6 6 4]
  mode: {ecut: 600.0,
         gammacentered: False,
         name: pw}
  occupations: {fixmagmom: False,
                name: fermi-dirac,
                width: 0.001}
  setups: {Mn: :d,3.0}
  symmetry: {point_group: False,
             time_reversal: False}

System changes: positions, numbers, cell, pbc, initial_charges, initial_magmoms 

Initialize ...

O-setup:
  name: Oxygen
  id: 9b9d51c344dea68c822856295a461509
  Z: 8.0
  valence: 6
  core: 2
  charge: 0.0
  file: /home/modules/software/GPAW-setups/0.9.20000/O.LDA.gz
  compensation charges: gauss, rc=0.21, lmax=2
  cutoffs: 1.17(filt), 0.83(core),
  valence states:
                energy  radius
    2s(2.00)   -23.752   0.688
    2p(4.00)    -9.195   0.598
    *s           3.459   0.688
    *p          18.016   0.598
    *d           0.000   0.619

  Using partial waves for O as LCAO basis

Mn-setup:
  name: Manganese
  id: 0d715a8018be061a6e9ea6f2d364ac92
  Z: 25.0
  valence: 15
  core: 10
  charge: 0.0
  Hubbard U: 3.000000 eV (l=2, scale=True)
  file: /home/modules/software/GPAW-setups/0.9.20000/Mn.LDA.gz
  compensation charges: gauss, rc=0.38, lmax=2
  cutoffs: 2.14(filt), 0.86(core),
  valence states:
                energy  radius
    3s(2.00)   -85.387   1.275
    4s(2.00)    -5.282   1.275
    3p(6.00)   -54.493   1.281
    4p(0.00)    -1.471   1.281
    3d(5.00)    -7.009   1.138
    *d          20.203   1.138

  Using partial waves for Mn as LCAO basis

P-setup:
  name: Phosphorus
  id: a5561c299094968922a179ab894d2e2d
  Z: 15.0
  valence: 5
  core: 10
  charge: 0.0
  file: /home/modules/software/GPAW-setups/0.9.20000/P.LDA.gz
  compensation charges: gauss, rc=0.30, lmax=2
  cutoffs: 1.69(filt), 1.81(core),
  valence states:
                energy  radius
    3s(2.00)   -14.015   0.953
    3p(3.00)    -5.596   0.953
    *s          13.197   0.953
    *p          21.615   0.953
    *d           0.000   0.953

  Using partial waves for P as LCAO basis

Li-setup:
  name: Lithium
  id: b73562207f97a71b6967473b66fe8b65
  Z: 3.0
  valence: 1
  core: 2
  charge: 0.0
  file: /home/modules/software/GPAW-setups/0.9.20000/Li.LDA.gz
  compensation charges: gauss, rc=0.33, lmax=2
  cutoffs: 1.91(filt), 2.55(core),
  valence states:
                energy  radius
    2s(1.00)    -2.874   1.058
    2p(0.00)    -1.126   1.058
    *s          24.338   1.058

  Using partial waves for Li as LCAO basis

Reference energy: -196157.275402

Spin-polarized calculation.
Magnetic moment: 0.000000

Convergence criteria:
  Maximum total energy change: 0.0005 eV / electron
  Maximum integral of absolute density change: 0.0001 electrons
  Maximum integral of absolute eigenstate change: 4e-08 eV^2
  Maximum change in atomic force: 1e-06 eV / Ang
  Maximum number of iterations: 333

Symmetries present (total): 1

  ( 1  0  0)
  ( 0  1  0)
  ( 0  0  1)

144 k-points: 6 x 6 x 4 Monkhorst-Pack grid
144 k-points in the irreducible part of the Brillouin zone
       k-points in crystal coordinates                weights
   0:    -0.41666667   -0.41666667   -0.37500000          1/144
   1:    -0.41666667   -0.41666667   -0.12500000          1/144
   2:    -0.41666667   -0.41666667    0.12500000          1/144
   3:    -0.41666667   -0.41666667    0.37500000          1/144
   4:    -0.41666667   -0.25000000   -0.37500000          1/144
   5:    -0.41666667   -0.25000000   -0.12500000          1/144
   6:    -0.41666667   -0.25000000    0.12500000          1/144
   7:    -0.41666667   -0.25000000    0.37500000          1/144
   8:    -0.41666667   -0.08333333   -0.37500000          1/144
   9:    -0.41666667   -0.08333333   -0.12500000          1/144
          ...
 143:     0.41666667    0.41666667    0.37500000          1/144

Wave functions: Plane wave expansion
  Cutoff energy: 600.000 eV
  Number of coefficients (min, max): 9238, 9284
  Pulay-stress correction: 0.000000 eV/Ang^3 (de/decut=0.000000)
  Using FFTW library
  ScaLapack parameters: grid=1x1, blocksize=None
  Wavefunction extrapolation:
    Improved wavefunction reuse through dual PAW basis 

  Fermi-Dirac: width=0.0010 eV

Eigensolver
   Davidson(niter=2, smin=None, normalize=True) 

Densities:
  Coarse grid: 60*35*27 grid
  Fine grid: 120*70*54 grid
  Total Charge: 0.000000 

Density mixing:
  Method: difference
  Backend: pulay
  Linear mixing parameter: 0.05
  Mixing with 5 old densities
  Damping of long wave oscillations: 50 

Hamiltonian:
  XC and Coulomb potentials evaluated on a 120*70*54 grid
  Using the LDA Exchange-Correlation functional
 

Memory estimate:
  Process memory now: 12911.95 MiB
  Calculator: 346.50 MiB
    Density: 19.24 MiB
      Arrays: 7.57 MiB
      Localized functions: 8.64 MiB
      Mixer: 3.03 MiB
    Hamiltonian: 5.87 MiB
      Arrays: 5.62 MiB
      XC: 0.00 MiB
      Poisson: 0.00 MiB
      vbar: 0.25 MiB
    Wavefunctions: 321.38 MiB
      Arrays psit_nG: 285.59 MiB
      Eigensolver: 18.49 MiB
      Projections: 5.41 MiB
      Projectors: 8.92 MiB
      PW-descriptor: 2.96 MiB

Total number of cores used: 32
Parallelization over k-points: 16
Domain decomposition: 2 x 1 x 1

Number of atoms: 28
Number of atomic orbitals: 148
Number of bands in calculation: 112
Number of valence electrons: 180
Bands to converge: occupied

... initialized

Initializing position-dependent things.

Density initialized from atomic densities
Creating initial wave functions:
  112 bands from LCAO basis set

                                           
                                           
                                           
                                           
                                           
               O     O  P  O               
            PO           OMn     O         
                  O          MO            
            O        Li O                  
             Mn  On          OP            
         O         Li O                    
         Li     O P         O              
       Li                                  
                                           
                                           
                                           
                                           

Positions:
   0 O     -1.263197   -2.497779   -1.098475    ( 0.0000,  0.0000,  0.0000)
   1 O     -3.070823    2.922496    1.209491    ( 0.0000,  0.0000,  0.0000)
   2 O      1.985541    0.474863    1.428016    ( 0.0000,  0.0000,  0.0000)
   3 O      3.793120   -0.050100   -0.879950    ( 0.0000,  0.0000,  0.0000)
   4 O      1.985518    2.922485    1.428149    ( 0.0000,  0.0000,  0.0000)
   5 O      3.793144   -2.487790   -0.879818    ( 0.0000,  0.0000,  0.0000)
   6 O     -1.263220   -0.050157   -1.098342    ( 0.0000,  0.0000,  0.0000)
   7 O     -3.070798    0.474805    1.209623    ( 0.0000,  0.0000,  0.0000)
   8 O     -4.167835   -1.273920   -0.862116    ( 0.0000,  0.0000,  0.0000)
   9 O     -0.166037    1.698602    1.445528    ( 0.0000,  0.0000,  0.0000)
  10 O      4.890156    1.698625    1.191790    ( 0.0000,  0.0000,  0.0000)
  11 O      0.888358   -1.273896   -1.115855    ( 0.0000,  0.0000,  0.0000)
  12 Mn    -2.445557   -1.274211    0.312921    ( 0.0000,  0.0000,  1.0000)
  13 Mn    -1.888303    1.698892   -1.994948    ( 0.0000,  0.0000, -1.0000)
  14 Mn     3.167879    1.698917    0.016752    ( 0.0000,  0.0000, -1.0000)
  15 Mn     2.610624   -1.274187    2.324621    ( 0.0000,  0.0000,  1.0000)
  16 P     -0.529549   -1.273917   -1.724376    ( 0.0000,  0.0000,  0.0000)
  17 P     -3.804359    1.698599    0.583463    ( 0.0000,  0.0000,  0.0000)
  18 P      1.251870    1.698623    2.054050    ( 0.0000,  0.0000,  0.0000)
  19 P      4.526680   -1.273894   -0.253789    ( 0.0000,  0.0000,  0.0000)
  20 O     -0.544227   -1.273926    1.365380    ( 0.0000,  0.0000,  0.0000)
  21 O     -3.789411    1.698610   -0.942222    ( 0.0000,  0.0000,  0.0000)
  22 O      1.266548    1.698631   -1.035707    ( 0.0000,  0.0000,  0.0000)
  23 O      4.511733   -1.273905    1.271895    ( 0.0000,  0.0000,  0.0000)
  24 Li    -4.695087   -2.760584   -2.142877    ( 0.0000,  0.0000,  0.0000)
  25 Li     0.361147   -2.760561    0.164836    ( 0.0000,  0.0000,  0.0000)
  26 Li    -4.695074    0.212330   -2.142877    ( 0.0000,  0.0000,  0.0000)
  27 Li     0.361161    0.212353    0.164837    ( 0.0000,  0.0000,  0.0000)

Unit cell:
           periodic     x           y           z      points  spacing
  1. axis:    yes   10.112485    0.000045   -0.000035    60     0.1685
  2. axis:    yes    0.000026    5.945827    0.000001    35     0.1699
  3. axis:    yes   -0.000016    0.000000    4.615463    27     0.1709

  Lengths:  10.112485   5.945827   4.615463
  Angles:   89.999989  90.000396  89.999490

Effective grid spacing dv^(1/3) = 0.1698

                     log10-error:           total        iterations:
           time      wfs    density  force  energy       poisson  magmom
iter:   1  05:55:15                       -221.375049             +0.0000
iter:   2  05:55:52  -0.61  -0.93         -234.851328             +0.0000
iter:   3  05:56:30  -0.37  -0.97         -225.916321             -0.0000
iter:   4  05:57:07  -1.39  -1.29         -225.759960             +0.0000
iter:   5  05:57:44  -1.26  -1.39         -227.336010             +0.0000
iter:   6  05:58:21  -1.46  -1.46         -225.736310             +0.0000
iter:   7  05:58:59  -2.47  -2.04         -225.724248             +0.0000
iter:   8  05:59:36  -2.14  -1.99         -225.587531             +0.0000
iter:   9  06:00:13  -2.47  -2.09         -225.431157             +0.0000
iter:  10  06:00:51  -3.30  -2.54         -225.420865             +0.0000
iter:  11  06:01:28  -3.65  -2.81         -225.410704             +0.0000
iter:  12  06:02:05  -4.11  -3.05         -225.409580             +0.0000
iter:  13  06:02:43  -5.13  -3.29         -225.409467             +0.0000
iter:  14  06:03:20  -5.38  -3.32         -225.409293             +0.0000
iter:  15  06:03:57  -6.00  -3.43         -225.409295             +0.0000
iter:  16  06:04:34  -5.23  -3.47         -225.409634             -0.0000
iter:  17  06:05:12  -5.74  -3.57         -225.409520             +0.0000
iter:  18  06:05:49  -5.22  -3.71         -225.409241             -0.0000
iter:  19  06:06:26  -6.07  -4.13         -225.409245             +0.0000
iter:  20  06:07:04  -7.29  -4.50         -225.409246             +0.0000
iter:  21  06:07:51  -7.45  -4.52         -225.409245             +0.0000
iter:  22  06:08:38  -7.52  -4.62    -2.69-225.409246             +0.0000
iter:  23  06:09:25  -8.32  -4.67    -2.87-225.409246             +0.0000
iter:  24  06:10:12  -8.79  -4.75    -3.59-225.409245             +0.0000
iter:  25  06:10:58  -7.93  -4.81    -2.56-225.409245             +0.0000
iter:  26  06:11:45  -8.11  -4.98    -3.12-225.409245             +0.0000
iter:  27  06:12:32  -9.43  -5.10    -3.59-225.409245             +0.0000
iter:  28  06:13:20  -7.93  -5.13    -2.74-225.409245             +0.0000
iter:  29  06:14:06  -8.75  -5.26    -3.23-225.409245             +0.0000
iter:  30  06:14:53  -9.78  -5.63    -3.75-225.409245             +0.0000
iter:  31  06:15:41  -9.83  -5.75    -3.40-225.409245             +0.0000
iter:  32  06:16:28 -11.13  -5.97    -4.52-225.409245             +0.0000
iter:  33  06:17:15 -10.16  -6.03    -3.75-225.409245             +0.0000
iter:  34  06:18:02 -11.55  -6.14    -4.75-225.409245             +0.0000
iter:  35  06:18:49 -10.96  -6.13    -4.61-225.409245             +0.0000
iter:  36  06:19:36 -10.93  -6.18    -4.22-225.409245             -0.0000
iter:  37  06:20:23 -10.55  -6.24    -3.90-225.409245             +0.0000
iter:  38  06:21:09 -11.31  -6.26    -4.40-225.409245             +0.0000
iter:  39  06:21:56 -11.24  -6.43    -4.31-225.409245             +0.0000
iter:  40  06:22:43 -11.48  -6.61    -4.62-225.409245             +0.0000
iter:  41  06:23:30 -12.14  -6.73    -5.17-225.409245             +0.0000
iter:  42  06:24:17 -12.45  -6.78    -4.88-225.409245             +0.0000
iter:  43  06:25:04 -12.02  -6.88    -4.55-225.409245             +0.0000
iter:  44  06:25:51 -11.61  -6.98    -4.81-225.409245             +0.0000
iter:  45  06:26:38 -12.89  -7.16    -5.32-225.409245             +0.0000
iter:  46  06:27:25 -12.98  -7.27    -5.49-225.409245             +0.0000
iter:  47  06:28:12 -12.95  -7.39    -5.20-225.409245             +0.0000
iter:  48  06:28:59 -13.39  -7.50    -5.56-225.409245             +0.0000
iter:  49  06:29:46 -13.86  -7.55    -5.66-225.409245             +0.0000
iter:  50  06:30:33 -13.44  -7.60    -5.58-225.409245             -0.0000
iter:  51  06:31:20 -14.11  -7.68    -6.22-225.409245             +0.0000

Converged after 51 iterations.

Dipole moment: (19.051115, -1.431867, -4.186000) |e|*Ang

Total magnetic moment: (0.000000, 0.000000, 0.000000)
Local magnetic moments:
   0 O  ( 0.000000,  0.000000,  0.000657)
   1 O  ( 0.000000,  0.000000, -0.000682)
   2 O  ( 0.000000,  0.000000, -0.000805)
   3 O  ( 0.000000,  0.000000,  0.000597)
   4 O  ( 0.000000,  0.000000, -0.000621)
   5 O  ( 0.000000,  0.000000,  0.000906)
   6 O  ( 0.000000,  0.000000,  0.000655)
   7 O  ( 0.000000,  0.000000, -0.000673)
   8 O  ( 0.000000,  0.000000,  0.022534)
   9 O  ( 0.000000,  0.000000, -0.022353)
  10 O  ( 0.000000,  0.000000, -0.022337)
  11 O  ( 0.000000,  0.000000,  0.022365)
  12 Mn ( 0.000000,  0.000000,  4.575108)
  13 Mn ( 0.000000,  0.000000, -4.575029)
  14 Mn ( 0.000000,  0.000000, -4.576058)
  15 Mn ( 0.000000,  0.000000,  4.574987)
  16 P  ( 0.000000,  0.000000,  0.000818)
  17 P  ( 0.000000,  0.000000, -0.000803)
  18 P  ( 0.000000,  0.000000, -0.000796)
  19 P  ( 0.000000,  0.000000,  0.001097)
  20 O  ( 0.000000,  0.000000,  0.020694)
  21 O  ( 0.000000,  0.000000, -0.020711)
  22 O  ( 0.000000,  0.000000, -0.020653)
  23 O  ( 0.000000,  0.000000,  0.020808)
  24 Li ( 0.000000,  0.000000,  0.000025)
  25 Li ( 0.000000,  0.000000,  0.000000)
  26 Li ( 0.000000,  0.000000,  0.000002)
  27 Li ( 0.000000,  0.000000,  0.000001)

Energy contributions relative to reference atoms: (reference = -196157.275402)

Kinetic:       +297.365756
Potential:     -256.790196
External:        +0.000000
XC:            -267.764603
Entropy (-ST):   -0.000000
Local:           +1.779799
--------------------------
Free energy:   -225.409245
Extrapolated:  -225.409245

Spin contamination: 9.697809 electrons
Showing only first 2 kpts
                      Up                     Down
 Kpt  Band  Eigenvalues  Occupancy  Eigenvalues  Occupancy
  0    88      5.11315    0.00694      5.10195    0.00694
  0    89      5.16480    0.00694      5.15465    0.00694
  0    90      9.64375    0.00000      9.65525    0.00000
  0    91      9.66843    0.00000      9.67499    0.00000

  1    88      5.12460    0.00694      5.11365    0.00694
  1    89      5.17408    0.00694      5.16376    0.00694
  1    90      9.52541    0.00000      9.53737    0.00000
  1    91      9.54303    0.00000      9.55200    0.00000


Fermi level: 6.37021

Gap: 3.792 eV
Transition (v -> c):
  (s=0, k=71, n=89, [-0.08, 0.42, 0.38]) -> (s=0, k=86, n=90, [0.08, 0.08, 0.12])
Writing to born-0.01-5y+.gpw (mode='all')

Timing:                              incl.     excl.
-----------------------------------------------------------
Hamiltonian:                         0.419     0.002   0.0% |
 Atomic:                             0.078     0.078   0.0% |
  XC Correction:                     0.000     0.000   0.0% |
 Calculate atomic Hamiltonians:      0.165     0.165   0.0% |
 Communicate:                        0.001     0.001   0.0% |
 Initialize Hamiltonian:             0.000     0.000   0.0% |
 Poisson:                            0.002     0.002   0.0% |
 XC 3D grid:                         0.170     0.170   0.0% |
LCAO initialization:               150.757     0.678   0.0% |
 LCAO eigensolver:                  40.426     0.003   0.0% |
  Calculate projections:             0.057     0.057   0.0% |
  DenseAtomicCorrection:             0.083     0.083   0.0% |
  Distribute overlap matrix:         0.623     0.623   0.0% |
  Orbital Layouts:                   0.363     0.363   0.0% |
  Potential matrix:                 39.203    39.203   0.8% |
  Sum over cells:                    0.094     0.094   0.0% |
 LCAO to grid:                     107.244   107.244   2.2% ||
 Set positions (LCAO WFS):           2.408     0.370   0.0% |
  Basic WFS set positions:           0.001     0.001   0.0% |
  Basis functions set positions:     0.000     0.000   0.0% |
  P tci:                             1.078     1.078   0.0% |
  ST tci:                            0.708     0.708   0.0% |
  mktci:                             0.250     0.250   0.0% |
PWDescriptor:                        0.025     0.025   0.0% |
SCF-cycle:                        2207.007    13.302   0.3% |
 Davidson:                        1791.222   572.984  11.7% |----|
  Apply H:                         130.003   125.861   2.6% ||
   HMM T:                            4.142     4.142   0.1% |
  Subspace diag:                   265.576     0.159   0.0% |
   calc_h_matrix:                  174.123    46.300   0.9% |
    Apply H:                       127.823   123.843   2.5% ||
     HMM T:                          3.980     3.980   0.1% |
   diagonalize:                      6.164     6.164   0.1% |
   rotate_psi:                      85.131    85.131   1.7% ||
  calc. matrices:                  564.545   310.455   6.3% |--|
   Apply H:                        254.090   246.355   5.0% |-|
    HMM T:                           7.735     7.735   0.2% |
  diagonalize:                      84.811    84.811   1.7% ||
  rotate_psi:                      173.303   173.303   3.5% ||
 Density:                           74.618     0.001   0.0% |
  Atomic density matrices:           1.309     1.309   0.0% |
  Mix:                              11.415    11.415   0.2% |
  Multipole moments:                 0.030     0.030   0.0% |
  Pseudo density:                   61.862    61.861   1.3% ||
   Symmetrize density:               0.001     0.001   0.0% |
 Forces:                           303.118   303.118   6.2% |-|
 Hamiltonian:                       20.684     0.118   0.0% |
  Atomic:                            2.940     2.940   0.1% |
   XC Correction:                    0.000     0.000   0.0% |
  Calculate atomic Hamiltonians:     8.500     8.500   0.2% |
  Communicate:                       0.089     0.089   0.0% |
  Poisson:                           0.073     0.073   0.0% |
  XC 3D grid:                        8.963     8.963   0.2% |
 Orthonormalize:                     4.063     0.004   0.0% |
  calc_s_matrix:                     0.485     0.485   0.0% |
  inverse-cholesky:                  0.056     0.056   0.0% |
  projections:                       2.658     2.658   0.1% |
  rotate_psi_s:                      0.860     0.860   0.0% |
Set symmetry:                        0.000     0.000   0.0% |
Other:                            2533.280  2533.280  51.8% |--------------------|
-----------------------------------------------------------
Total:                                      4891.489 100.0%

Memory usage: 12.63 GiB
Date: Mon Mar 22 07:13:32 2021
