
  ___ ___ ___ _ _ _  
 |   |   |_  | | | | 
 | | | | | . | | | | 
 |__ |  _|___|_____|  20.10.1b1
 |___|_|             

User:   madkru@i018.nifl.fysik.dtu.dk
Date:   Wed Mar 24 08:23:18 2021
Arch:   x86_64
Pid:    26873
Python: 3.7.4
gpaw:   /home/niflheim/madkru/venv_folder/gpaw/gpaw (d0d1ca1c71)
_gpaw:  /home/niflheim/madkru/venv_folder/gpaw/build/lib.linux-x86_64-ivybridge-3.7/
        _gpaw.cpython-37m-x86_64-linux-gnu.so (4fd39e8b1e)
ase:    /home/niflheim/madkru/venv_folder/ase/ase (version 3.21.0b1-7e6c206a91)
numpy:  /home/niflheim/madkru/venv_folder/lib/python3.7/site-packages/numpy (version 1.19.4)
scipy:  /home/niflheim/madkru/venv_folder/lib/python3.7/site-packages/scipy (version 1.5.4)
libxc:  4.3.4
units:  Angstrom and eV
cores: 64
OMP_NUM_THREADS: 1

Input parameters:
  convergence: {bands: occupied,
                density: 0.0001,
                eigenstates: 4e-08,
                energy: 0.0005,
                forces: 1e-06}
  kpts: [6 6 4]
  mode: {ecut: 600.0,
         gammacentered: False,
         name: pw}
  occupations: {fixmagmom: False,
                name: fermi-dirac,
                width: 0.001}
  setups: {Mn: :d,3.0}
  symmetry: {point_group: False,
             time_reversal: False}

System changes: positions, numbers, cell, pbc, initial_charges, initial_magmoms 

Initialize ...

O-setup:
  name: Oxygen
  id: 9b9d51c344dea68c822856295a461509
  Z: 8.0
  valence: 6
  core: 2
  charge: 0.0
  file: /home/modules/software/GPAW-setups/0.9.20000/O.LDA.gz
  compensation charges: gauss, rc=0.21, lmax=2
  cutoffs: 1.17(filt), 0.83(core),
  valence states:
                energy  radius
    2s(2.00)   -23.752   0.688
    2p(4.00)    -9.195   0.598
    *s           3.459   0.688
    *p          18.016   0.598
    *d           0.000   0.619

  Using partial waves for O as LCAO basis

Mn-setup:
  name: Manganese
  id: 0d715a8018be061a6e9ea6f2d364ac92
  Z: 25.0
  valence: 15
  core: 10
  charge: 0.0
  Hubbard U: 3.000000 eV (l=2, scale=True)
  file: /home/modules/software/GPAW-setups/0.9.20000/Mn.LDA.gz
  compensation charges: gauss, rc=0.38, lmax=2
  cutoffs: 2.14(filt), 0.86(core),
  valence states:
                energy  radius
    3s(2.00)   -85.387   1.275
    4s(2.00)    -5.282   1.275
    3p(6.00)   -54.493   1.281
    4p(0.00)    -1.471   1.281
    3d(5.00)    -7.009   1.138
    *d          20.203   1.138

  Using partial waves for Mn as LCAO basis

P-setup:
  name: Phosphorus
  id: a5561c299094968922a179ab894d2e2d
  Z: 15.0
  valence: 5
  core: 10
  charge: 0.0
  file: /home/modules/software/GPAW-setups/0.9.20000/P.LDA.gz
  compensation charges: gauss, rc=0.30, lmax=2
  cutoffs: 1.69(filt), 1.81(core),
  valence states:
                energy  radius
    3s(2.00)   -14.015   0.953
    3p(3.00)    -5.596   0.953
    *s          13.197   0.953
    *p          21.615   0.953
    *d           0.000   0.953

  Using partial waves for P as LCAO basis

Li-setup:
  name: Lithium
  id: b73562207f97a71b6967473b66fe8b65
  Z: 3.0
  valence: 1
  core: 2
  charge: 0.0
  file: /home/modules/software/GPAW-setups/0.9.20000/Li.LDA.gz
  compensation charges: gauss, rc=0.33, lmax=2
  cutoffs: 1.91(filt), 2.55(core),
  valence states:
                energy  radius
    2s(1.00)    -2.874   1.058
    2p(0.00)    -1.126   1.058
    *s          24.338   1.058

  Using partial waves for Li as LCAO basis

Reference energy: -196157.275402

Spin-polarized calculation.
Magnetic moment: 0.000000

Convergence criteria:
  Maximum total energy change: 0.0005 eV / electron
  Maximum integral of absolute density change: 0.0001 electrons
  Maximum integral of absolute eigenstate change: 4e-08 eV^2
  Maximum change in atomic force: 1e-06 eV / Ang
  Maximum number of iterations: 333

Symmetries present (total): 1

  ( 1  0  0)
  ( 0  1  0)
  ( 0  0  1)

144 k-points: 6 x 6 x 4 Monkhorst-Pack grid
144 k-points in the irreducible part of the Brillouin zone
       k-points in crystal coordinates                weights
   0:    -0.41666667   -0.41666667   -0.37500000          1/144
   1:    -0.41666667   -0.41666667   -0.12500000          1/144
   2:    -0.41666667   -0.41666667    0.12500000          1/144
   3:    -0.41666667   -0.41666667    0.37500000          1/144
   4:    -0.41666667   -0.25000000   -0.37500000          1/144
   5:    -0.41666667   -0.25000000   -0.12500000          1/144
   6:    -0.41666667   -0.25000000    0.12500000          1/144
   7:    -0.41666667   -0.25000000    0.37500000          1/144
   8:    -0.41666667   -0.08333333   -0.37500000          1/144
   9:    -0.41666667   -0.08333333   -0.12500000          1/144
          ...
 143:     0.41666667    0.41666667    0.37500000          1/144

Wave functions: Plane wave expansion
  Cutoff energy: 600.000 eV
  Number of coefficients (min, max): 9238, 9284
  Pulay-stress correction: 0.000000 eV/Ang^3 (de/decut=0.000000)
  Using FFTW library
  ScaLapack parameters: grid=1x1, blocksize=None
  Wavefunction extrapolation:
    Improved wavefunction reuse through dual PAW basis 

  Fermi-Dirac: width=0.0010 eV

Eigensolver
   Davidson(niter=2, smin=None, normalize=True) 

Densities:
  Coarse grid: 60*35*27 grid
  Fine grid: 120*70*54 grid
  Total Charge: 0.000000 

Density mixing:
  Method: difference
  Backend: pulay
  Linear mixing parameter: 0.05
  Mixing with 5 old densities
  Damping of long wave oscillations: 50 

Hamiltonian:
  XC and Coulomb potentials evaluated on a 120*70*54 grid
  Using the LDA Exchange-Correlation functional
 

Memory estimate:
  Process memory now: 13010.88 MiB
  Calculator: 326.59 MiB
    Density: 9.67 MiB
      Arrays: 3.79 MiB
      Localized functions: 4.32 MiB
      Mixer: 1.56 MiB
    Hamiltonian: 2.94 MiB
      Arrays: 2.82 MiB
      XC: 0.00 MiB
      Poisson: 0.00 MiB
      vbar: 0.12 MiB
    Wavefunctions: 313.97 MiB
      Arrays psit_nG: 285.59 MiB
      Eigensolver: 18.49 MiB
      Projections: 2.71 MiB
      Projectors: 4.46 MiB
      PW-descriptor: 2.72 MiB

Total number of cores used: 64
Parallelization over k-points: 16
Domain decomposition: 2 x 2 x 1

Number of atoms: 28
Number of atomic orbitals: 148
Number of bands in calculation: 112
Number of valence electrons: 180
Bands to converge: occupied

... initialized

Initializing position-dependent things.

Density initialized from atomic densities
Creating initial wave functions:
  112 bands from LCAO basis set

                                           
                                           
                                           
                                           
                                           
               O     O  P  O               
            PO           OMn     O         
                  O          MO            
            O        Li O                  
             Mn  On          OP            
         O         Li O                    
         Li     O P         O              
       Li                                  
                                           
                                           
                                           
                                           

Positions:
   0 O     -1.263197   -2.497779   -1.098475    ( 0.0000,  0.0000,  0.0000)
   1 O     -3.070823    2.922496    1.209491    ( 0.0000,  0.0000,  0.0000)
   2 O      1.985541    0.474863    1.428016    ( 0.0000,  0.0000,  0.0000)
   3 O      3.793120   -0.050100   -0.879950    ( 0.0000,  0.0000,  0.0000)
   4 O      1.985518    2.922485    1.428149    ( 0.0000,  0.0000,  0.0000)
   5 O      3.793144   -2.497790   -0.879818    ( 0.0000,  0.0000,  0.0000)
   6 O     -1.263220   -0.050157   -1.098342    ( 0.0000,  0.0000,  0.0000)
   7 O     -3.070798    0.474805    1.209623    ( 0.0000,  0.0000,  0.0000)
   8 O     -4.167835   -1.273920   -0.862116    ( 0.0000,  0.0000,  0.0000)
   9 O     -0.166037    1.698602    1.445528    ( 0.0000,  0.0000,  0.0000)
  10 O      4.890156    1.698625    1.191790    ( 0.0000,  0.0000,  0.0000)
  11 O      0.888358   -1.273896   -1.115855    ( 0.0000,  0.0000,  0.0000)
  12 Mn    -2.445557   -1.274211    0.312921    ( 0.0000,  0.0000,  1.0000)
  13 Mn    -1.888303    1.698892   -1.994948    ( 0.0000,  0.0000, -1.0000)
  14 Mn     3.167879    1.698917    0.016752    ( 0.0000,  0.0000, -1.0000)
  15 Mn     2.610624   -1.274187    2.324621    ( 0.0000,  0.0000,  1.0000)
  16 P     -0.529549   -1.273917   -1.724376    ( 0.0000,  0.0000,  0.0000)
  17 P     -3.804359    1.698599    0.583463    ( 0.0000,  0.0000,  0.0000)
  18 P      1.261870    1.698623    2.054050    ( 0.0000,  0.0000,  0.0000)
  19 P      4.526680   -1.273894   -0.253789    ( 0.0000,  0.0000,  0.0000)
  20 O     -0.544227   -1.273926    1.365380    ( 0.0000,  0.0000,  0.0000)
  21 O     -3.789411    1.698610   -0.942222    ( 0.0000,  0.0000,  0.0000)
  22 O      1.266548    1.698631   -1.035707    ( 0.0000,  0.0000,  0.0000)
  23 O      4.511733   -1.273905    1.271895    ( 0.0000,  0.0000,  0.0000)
  24 Li    -4.695087   -2.760584   -2.142877    ( 0.0000,  0.0000,  0.0000)
  25 Li     0.361147   -2.760561    0.164836    ( 0.0000,  0.0000,  0.0000)
  26 Li    -4.695074    0.212330   -2.142877    ( 0.0000,  0.0000,  0.0000)
  27 Li     0.361161    0.212353    0.164837    ( 0.0000,  0.0000,  0.0000)

Unit cell:
           periodic     x           y           z      points  spacing
  1. axis:    yes   10.112485    0.000045   -0.000035    60     0.1685
  2. axis:    yes    0.000026    5.945827    0.000001    35     0.1699
  3. axis:    yes   -0.000016    0.000000    4.615463    27     0.1709

  Lengths:  10.112485   5.945827   4.615463
  Angles:   89.999989  90.000396  89.999490

Effective grid spacing dv^(1/3) = 0.1698

                     log10-error:           total        iterations:
           time      wfs    density  force  energy       poisson  magmom
iter:   1  08:24:52                       -221.381272             +0.0000
iter:   2  08:25:12  -0.61  -0.93         -234.837701             +0.0000
iter:   3  08:25:32  -0.37  -0.97         -225.910002             -0.0000
iter:   4  08:25:52  -1.39  -1.29         -225.759336             +0.0000
iter:   5  08:26:12  -1.27  -1.39         -227.322399             +0.0000
iter:   6  08:26:31  -1.46  -1.46         -225.735114             +0.0000
iter:   7  08:26:51  -2.45  -2.04         -225.720325             +0.0000
iter:   8  08:27:11  -2.02  -1.99         -225.636220             +0.0000
iter:   9  08:27:31  -2.40  -2.02         -225.425152             +0.0000
iter:  10  08:27:51  -3.28  -2.60         -225.416769             +0.0000
iter:  11  08:28:11  -3.78  -2.88         -225.409701             +0.0000
iter:  12  08:28:31  -4.22  -3.02         -225.408200             +0.0000
iter:  13  08:28:50  -5.02  -3.27         -225.408028             +0.0000
iter:  14  08:29:10  -4.79  -3.33         -225.408174             +0.0000
iter:  15  08:29:30  -5.66  -3.40         -225.408263             +0.0000
iter:  16  08:29:50  -5.60  -3.37         -225.408096             -0.0000
iter:  17  08:30:10  -4.88  -3.51         -225.407809             -0.0000
iter:  18  08:30:30  -5.43  -3.50         -225.407874             -0.0000
iter:  19  08:30:49  -5.39  -3.63         -225.407871             +0.0000
iter:  20  08:31:09  -6.09  -3.87         -225.407808             +0.0000
iter:  21  08:31:29  -6.56  -4.00         -225.407811             +0.0000
iter:  22  08:31:54  -7.46  -4.08         -225.407815             -0.0000
iter:  23  08:32:18  -7.43  -4.09    -2.58-225.407810             +0.0000
iter:  24  08:32:38  -6.75  -4.15         -225.407809             -0.0000
iter:  25  08:33:03  -7.92  -4.26    -2.26-225.407808             -0.0000
iter:  26  08:33:23  -6.86  -4.30         -225.407805             -0.0000
iter:  27  08:33:42  -7.38  -4.60         -225.407807             -0.0000
iter:  28  08:34:07  -8.10  -4.65    -2.42-225.407806             -0.0000
iter:  29  08:34:32  -8.25  -4.70    -2.96-225.407806             -0.0000
iter:  30  08:34:56  -8.95  -4.74    -3.24-225.407806             -0.0000
iter:  31  08:35:21  -7.96  -4.78    -2.88-225.407806             -0.0000
iter:  32  08:35:45  -9.25  -4.88    -3.33-225.407805             -0.0000
iter:  33  08:36:10  -8.00  -4.92    -2.53-225.407805             -0.0000
iter:  34  08:36:34  -8.90  -5.60    -3.45-225.407805             -0.0000
iter:  35  08:36:59 -10.26  -5.72    -4.24-225.407805             -0.0000
iter:  36  08:37:23  -9.85  -5.77    -3.89-225.407805             -0.0000
iter:  37  08:37:48  -9.60  -5.88    -3.66-225.407805             -0.0000
iter:  38  08:38:12  -9.64  -6.02    -3.99-225.407805             -0.0000
iter:  39  08:38:37 -10.94  -6.11    -4.19-225.407805             -0.0000
iter:  40  08:39:01 -10.32  -6.16    -3.99-225.407805             -0.0000
iter:  41  08:39:26 -11.13  -6.27    -4.66-225.407805             -0.0000
iter:  42  08:39:50 -10.44  -6.28    -4.29-225.407805             -0.0000
iter:  43  08:40:15 -11.87  -6.77    -4.70-225.407805             -0.0000
iter:  44  08:40:40 -11.30  -6.80    -4.44-225.407805             -0.0000
iter:  45  08:41:04 -11.90  -6.73    -4.45-225.407805             -0.0000
iter:  46  08:41:29 -12.62  -6.94    -5.39-225.407805             -0.0000
iter:  47  08:41:53 -13.03  -6.98    -5.23-225.407805             -0.0000
iter:  48  08:42:18 -13.27  -7.05    -5.07-225.407805             -0.0000
iter:  49  08:42:42 -13.33  -7.13    -5.52-225.407805             -0.0000
iter:  50  08:43:07 -13.53  -7.21    -5.50-225.407805             -0.0000
iter:  51  08:43:31 -12.53  -7.31    -5.15-225.407805             -0.0000
iter:  52  08:43:56 -13.25  -7.46    -5.09-225.407805             -0.0000
iter:  53  08:44:20 -14.01  -7.87    -5.93-225.407805             -0.0000
iter:  54  08:44:45 -14.23  -7.94    -5.93-225.407805             -0.0000
iter:  55  08:45:09 -14.55  -8.00    -5.86-225.407805             -0.0000
iter:  56  08:45:34 -14.05  -8.07    -5.98-225.407805             -0.0000
iter:  57  08:45:58 -14.40  -8.29    -6.19-225.407805             -0.0000

Converged after 57 iterations.

Dipole moment: (19.077411, -1.419644, -4.182319) |e|*Ang

Total magnetic moment: (0.000000, 0.000000, -0.000000)
Local magnetic moments:
   0 O  ( 0.000000,  0.000000,  0.000733)
   1 O  ( 0.000000,  0.000000, -0.000626)
   2 O  ( 0.000000,  0.000000, -0.000814)
   3 O  ( 0.000000,  0.000000,  0.000644)
   4 O  ( 0.000000,  0.000000, -0.000818)
   5 O  ( 0.000000,  0.000000,  0.000648)
   6 O  ( 0.000000,  0.000000,  0.000729)
   7 O  ( 0.000000,  0.000000, -0.000621)
   8 O  ( 0.000000,  0.000000,  0.022298)
   9 O  ( 0.000000,  0.000000, -0.022519)
  10 O  ( 0.000000,  0.000000, -0.022427)
  11 O  ( 0.000000,  0.000000,  0.022465)
  12 Mn ( 0.000000,  0.000000,  4.575085)
  13 Mn ( 0.000000,  0.000000, -4.574933)
  14 Mn ( 0.000000,  0.000000, -4.574906)
  15 Mn ( 0.000000,  0.000000,  4.575165)
  16 P  ( 0.000000,  0.000000,  0.000786)
  17 P  ( 0.000000,  0.000000, -0.000812)
  18 P  ( 0.000000,  0.000000, -0.000676)
  19 P  ( 0.000000,  0.000000,  0.000820)
  20 O  ( 0.000000,  0.000000,  0.020721)
  21 O  ( 0.000000,  0.000000, -0.020623)
  22 O  ( 0.000000,  0.000000, -0.020875)
  23 O  ( 0.000000,  0.000000,  0.020724)
  24 Li ( 0.000000,  0.000000,  0.000001)
  25 Li ( 0.000000,  0.000000, -0.000016)
  26 Li ( 0.000000,  0.000000,  0.000001)
  27 Li ( 0.000000,  0.000000, -0.000016)

Energy contributions relative to reference atoms: (reference = -196157.275402)

Kinetic:       +296.827244
Potential:     -256.367939
External:        +0.000000
XC:            -267.647852
Entropy (-ST):   -0.000000
Local:           +1.780743
--------------------------
Free energy:   -225.407805
Extrapolated:  -225.407805

Spin contamination: 9.697358 electrons
Showing only first 2 kpts
                      Up                     Down
 Kpt  Band  Eigenvalues  Occupancy  Eigenvalues  Occupancy
  0    88      5.10055    0.00694      5.11088    0.00694
  0    89      5.15843    0.00694      5.17347    0.00694
  0    90      9.63303    0.00000      9.64606    0.00000
  0    91      9.68658    0.00000      9.66518    0.00000

  1    88      5.11202    0.00694      5.12172    0.00694
  1    89      5.16792    0.00694      5.18301    0.00694
  1    90      9.51069    0.00000      9.52556    0.00000
  1    91      9.56134    0.00000      9.54305    0.00000


Fermi level: 6.36978

Gap: 3.782 eV
Transition (v -> c):
  (s=1, k=72, n=89, [0.08, -0.42, -0.38]) -> (s=0, k=57, n=90, [-0.08, -0.08, -0.12])
Writing to born-0.01-18x+.gpw (mode='all')

Timing:                              incl.     excl.
-----------------------------------------------------------
Hamiltonian:                         0.217     0.002   0.0% |
 Atomic:                             0.054     0.054   0.0% |
  XC Correction:                     0.000     0.000   0.0% |
 Calculate atomic Hamiltonians:      0.075     0.075   0.0% |
 Communicate:                        0.001     0.001   0.0% |
 Initialize Hamiltonian:             0.000     0.000   0.0% |
 Poisson:                            0.001     0.001   0.0% |
 XC 3D grid:                         0.084     0.084   0.0% |
LCAO initialization:                71.590     0.656   0.0% |
 LCAO eigensolver:                  19.459     0.002   0.0% |
  Calculate projections:             0.029     0.029   0.0% |
  DenseAtomicCorrection:             0.045     0.045   0.0% |
  Distribute overlap matrix:         0.008     0.008   0.0% |
  Orbital Layouts:                   0.433     0.433   0.0% |
  Potential matrix:                 18.844    18.844   0.6% |
  Sum over cells:                    0.098     0.098   0.0% |
 LCAO to grid:                      50.153    50.153   1.6% ||
 Set positions (LCAO WFS):           1.322     0.191   0.0% |
  Basic WFS set positions:           0.001     0.001   0.0% |
  Basis functions set positions:     0.000     0.000   0.0% |
  P tci:                             0.526     0.526   0.0% |
  ST tci:                            0.387     0.387   0.0% |
  mktci:                             0.217     0.217   0.0% |
PWDescriptor:                        0.024     0.024   0.0% |
SCF-cycle:                        1287.134     0.367   0.0% |
 Davidson:                        1073.880   330.537  10.5% |---|
  Apply H:                          73.538    71.387   2.3% ||
   HMM T:                            2.151     2.151   0.1% |
  Subspace diag:                   155.391     0.165   0.0% |
   calc_h_matrix:                   99.721    26.057   0.8% |
    Apply H:                        73.664    71.466   2.3% ||
     HMM T:                          2.198     2.198   0.1% |
   diagonalize:                      7.725     7.725   0.2% |
   rotate_psi:                      47.781    47.781   1.5% ||
  calc. matrices:                  320.654   176.848   5.6% |-|
   Apply H:                        143.806   139.781   4.4% |-|
    HMM T:                           4.025     4.025   0.1% |
  diagonalize:                      90.170    90.170   2.9% ||
  rotate_psi:                      103.590   103.590   3.3% ||
 Density:                           43.072     0.001   0.0% |
  Atomic density matrices:           0.884     0.884   0.0% |
  Mix:                               5.966     5.966   0.2% |
  Multipole moments:                 0.020     0.020   0.0% |
  Pseudo density:                   36.200    36.199   1.2% |
   Symmetrize density:               0.002     0.002   0.0% |
 Forces:                           155.372   155.372   4.9% |-|
 Hamiltonian:                       12.351     0.118   0.0% |
  Atomic:                            3.112     3.111   0.1% |
   XC Correction:                    0.000     0.000   0.0% |
  Calculate atomic Hamiltonians:     4.241     4.241   0.1% |
  Communicate:                       0.081     0.081   0.0% |
  Poisson:                           0.034     0.034   0.0% |
  XC 3D grid:                        4.766     4.766   0.2% |
 Orthonormalize:                     2.093     0.003   0.0% |
  calc_s_matrix:                     0.245     0.245   0.0% |
  inverse-cholesky:                  0.075     0.075   0.0% |
  projections:                       1.334     1.334   0.0% |
  rotate_psi_s:                      0.435     0.435   0.0% |
Set symmetry:                        0.000     0.000   0.0% |
Other:                            1788.146  1788.146  56.8% |----------------------|
-----------------------------------------------------------
Total:                                      3147.111 100.0%

Memory usage: 12.75 GiB
Date: Wed Mar 24 09:15:45 2021
