
  ___ ___ ___ _ _ _  
 |   |   |_  | | | | 
 | | | | | . | | | | 
 |__ |  _|___|_____|  20.10.1b1
 |___|_|             

User:   madkru@i018.nifl.fysik.dtu.dk
Date:   Wed Mar 24 02:05:03 2021
Arch:   x86_64
Pid:    26873
Python: 3.7.4
gpaw:   /home/niflheim/madkru/venv_folder/gpaw/gpaw (d0d1ca1c71)
_gpaw:  /home/niflheim/madkru/venv_folder/gpaw/build/lib.linux-x86_64-ivybridge-3.7/
        _gpaw.cpython-37m-x86_64-linux-gnu.so (4fd39e8b1e)
ase:    /home/niflheim/madkru/venv_folder/ase/ase (version 3.21.0b1-7e6c206a91)
numpy:  /home/niflheim/madkru/venv_folder/lib/python3.7/site-packages/numpy (version 1.19.4)
scipy:  /home/niflheim/madkru/venv_folder/lib/python3.7/site-packages/scipy (version 1.5.4)
libxc:  4.3.4
units:  Angstrom and eV
cores: 64
OMP_NUM_THREADS: 1

Input parameters:
  convergence: {bands: occupied,
                density: 0.0001,
                eigenstates: 4e-08,
                energy: 0.0005,
                forces: 1e-06}
  kpts: [6 6 4]
  mode: {ecut: 600.0,
         gammacentered: False,
         name: pw}
  occupations: {fixmagmom: False,
                name: fermi-dirac,
                width: 0.001}
  setups: {Mn: :d,3.0}
  symmetry: {point_group: False,
             time_reversal: False}

System changes: positions, numbers, cell, pbc, initial_charges, initial_magmoms 

Initialize ...

O-setup:
  name: Oxygen
  id: 9b9d51c344dea68c822856295a461509
  Z: 8.0
  valence: 6
  core: 2
  charge: 0.0
  file: /home/modules/software/GPAW-setups/0.9.20000/O.LDA.gz
  compensation charges: gauss, rc=0.21, lmax=2
  cutoffs: 1.17(filt), 0.83(core),
  valence states:
                energy  radius
    2s(2.00)   -23.752   0.688
    2p(4.00)    -9.195   0.598
    *s           3.459   0.688
    *p          18.016   0.598
    *d           0.000   0.619

  Using partial waves for O as LCAO basis

Mn-setup:
  name: Manganese
  id: 0d715a8018be061a6e9ea6f2d364ac92
  Z: 25.0
  valence: 15
  core: 10
  charge: 0.0
  Hubbard U: 3.000000 eV (l=2, scale=True)
  file: /home/modules/software/GPAW-setups/0.9.20000/Mn.LDA.gz
  compensation charges: gauss, rc=0.38, lmax=2
  cutoffs: 2.14(filt), 0.86(core),
  valence states:
                energy  radius
    3s(2.00)   -85.387   1.275
    4s(2.00)    -5.282   1.275
    3p(6.00)   -54.493   1.281
    4p(0.00)    -1.471   1.281
    3d(5.00)    -7.009   1.138
    *d          20.203   1.138

  Using partial waves for Mn as LCAO basis

P-setup:
  name: Phosphorus
  id: a5561c299094968922a179ab894d2e2d
  Z: 15.0
  valence: 5
  core: 10
  charge: 0.0
  file: /home/modules/software/GPAW-setups/0.9.20000/P.LDA.gz
  compensation charges: gauss, rc=0.30, lmax=2
  cutoffs: 1.69(filt), 1.81(core),
  valence states:
                energy  radius
    3s(2.00)   -14.015   0.953
    3p(3.00)    -5.596   0.953
    *s          13.197   0.953
    *p          21.615   0.953
    *d           0.000   0.953

  Using partial waves for P as LCAO basis

Li-setup:
  name: Lithium
  id: b73562207f97a71b6967473b66fe8b65
  Z: 3.0
  valence: 1
  core: 2
  charge: 0.0
  file: /home/modules/software/GPAW-setups/0.9.20000/Li.LDA.gz
  compensation charges: gauss, rc=0.33, lmax=2
  cutoffs: 1.91(filt), 2.55(core),
  valence states:
                energy  radius
    2s(1.00)    -2.874   1.058
    2p(0.00)    -1.126   1.058
    *s          24.338   1.058

  Using partial waves for Li as LCAO basis

Reference energy: -196157.275402

Spin-polarized calculation.
Magnetic moment: 0.000000

Convergence criteria:
  Maximum total energy change: 0.0005 eV / electron
  Maximum integral of absolute density change: 0.0001 electrons
  Maximum integral of absolute eigenstate change: 4e-08 eV^2
  Maximum change in atomic force: 1e-06 eV / Ang
  Maximum number of iterations: 333

Symmetries present (total): 1

  ( 1  0  0)
  ( 0  1  0)
  ( 0  0  1)

144 k-points: 6 x 6 x 4 Monkhorst-Pack grid
144 k-points in the irreducible part of the Brillouin zone
       k-points in crystal coordinates                weights
   0:    -0.41666667   -0.41666667   -0.37500000          1/144
   1:    -0.41666667   -0.41666667   -0.12500000          1/144
   2:    -0.41666667   -0.41666667    0.12500000          1/144
   3:    -0.41666667   -0.41666667    0.37500000          1/144
   4:    -0.41666667   -0.25000000   -0.37500000          1/144
   5:    -0.41666667   -0.25000000   -0.12500000          1/144
   6:    -0.41666667   -0.25000000    0.12500000          1/144
   7:    -0.41666667   -0.25000000    0.37500000          1/144
   8:    -0.41666667   -0.08333333   -0.37500000          1/144
   9:    -0.41666667   -0.08333333   -0.12500000          1/144
          ...
 143:     0.41666667    0.41666667    0.37500000          1/144

Wave functions: Plane wave expansion
  Cutoff energy: 600.000 eV
  Number of coefficients (min, max): 9238, 9284
  Pulay-stress correction: 0.000000 eV/Ang^3 (de/decut=0.000000)
  Using FFTW library
  ScaLapack parameters: grid=1x1, blocksize=None
  Wavefunction extrapolation:
    Improved wavefunction reuse through dual PAW basis 

  Fermi-Dirac: width=0.0010 eV

Eigensolver
   Davidson(niter=2, smin=None, normalize=True) 

Densities:
  Coarse grid: 60*35*27 grid
  Fine grid: 120*70*54 grid
  Total Charge: 0.000000 

Density mixing:
  Method: difference
  Backend: pulay
  Linear mixing parameter: 0.05
  Mixing with 5 old densities
  Damping of long wave oscillations: 50 

Hamiltonian:
  XC and Coulomb potentials evaluated on a 120*70*54 grid
  Using the LDA Exchange-Correlation functional
 

Memory estimate:
  Process memory now: 12719.89 MiB
  Calculator: 326.59 MiB
    Density: 9.67 MiB
      Arrays: 3.79 MiB
      Localized functions: 4.32 MiB
      Mixer: 1.56 MiB
    Hamiltonian: 2.94 MiB
      Arrays: 2.82 MiB
      XC: 0.00 MiB
      Poisson: 0.00 MiB
      vbar: 0.12 MiB
    Wavefunctions: 313.97 MiB
      Arrays psit_nG: 285.59 MiB
      Eigensolver: 18.49 MiB
      Projections: 2.71 MiB
      Projectors: 4.46 MiB
      PW-descriptor: 2.72 MiB

Total number of cores used: 64
Parallelization over k-points: 16
Domain decomposition: 2 x 2 x 1

Number of atoms: 28
Number of atomic orbitals: 148
Number of bands in calculation: 112
Number of valence electrons: 180
Bands to converge: occupied

... initialized

Initializing position-dependent things.

Density initialized from atomic densities
Creating initial wave functions:
  112 bands from LCAO basis set

                                           
                                           
                                           
                                           
                                           
               O     O  P  O               
            PO           OMn     O         
                  O          MO            
            O        Li O                  
             Mn  On          OP            
         O         Li O                    
         Li     O P         O              
       Li                                  
                                           
                                           
                                           
                                           

Positions:
   0 O     -1.263197   -2.497779   -1.098475    ( 0.0000,  0.0000,  0.0000)
   1 O     -3.070823    2.922496    1.209491    ( 0.0000,  0.0000,  0.0000)
   2 O      1.985541    0.474863    1.428016    ( 0.0000,  0.0000,  0.0000)
   3 O      3.793120   -0.050100   -0.879950    ( 0.0000,  0.0000,  0.0000)
   4 O      1.985518    2.922485    1.428149    ( 0.0000,  0.0000,  0.0000)
   5 O      3.793144   -2.497790   -0.879818    ( 0.0000,  0.0000,  0.0000)
   6 O     -1.263220   -0.050157   -1.098342    ( 0.0000,  0.0000,  0.0000)
   7 O     -3.070798    0.474805    1.209623    ( 0.0000,  0.0000,  0.0000)
   8 O     -4.167835   -1.273920   -0.862116    ( 0.0000,  0.0000,  0.0000)
   9 O     -0.166037    1.698602    1.445528    ( 0.0000,  0.0000,  0.0000)
  10 O      4.890156    1.698625    1.191790    ( 0.0000,  0.0000,  0.0000)
  11 O      0.888358   -1.273896   -1.115855    ( 0.0000,  0.0000,  0.0000)
  12 Mn    -2.445557   -1.274211    0.312921    ( 0.0000,  0.0000,  1.0000)
  13 Mn    -1.888303    1.698892   -1.994948    ( 0.0000,  0.0000, -1.0000)
  14 Mn     3.167879    1.698917    0.016752    ( 0.0000,  0.0000, -1.0000)
  15 Mn     2.610624   -1.274187    2.324621    ( 0.0000,  0.0000,  1.0000)
  16 P     -0.539549   -1.273917   -1.724376    ( 0.0000,  0.0000,  0.0000)
  17 P     -3.804359    1.698599    0.583463    ( 0.0000,  0.0000,  0.0000)
  18 P      1.251870    1.698623    2.054050    ( 0.0000,  0.0000,  0.0000)
  19 P      4.526680   -1.273894   -0.253789    ( 0.0000,  0.0000,  0.0000)
  20 O     -0.544227   -1.273926    1.365380    ( 0.0000,  0.0000,  0.0000)
  21 O     -3.789411    1.698610   -0.942222    ( 0.0000,  0.0000,  0.0000)
  22 O      1.266548    1.698631   -1.035707    ( 0.0000,  0.0000,  0.0000)
  23 O      4.511733   -1.273905    1.271895    ( 0.0000,  0.0000,  0.0000)
  24 Li    -4.695087   -2.760584   -2.142877    ( 0.0000,  0.0000,  0.0000)
  25 Li     0.361147   -2.760561    0.164836    ( 0.0000,  0.0000,  0.0000)
  26 Li    -4.695074    0.212330   -2.142877    ( 0.0000,  0.0000,  0.0000)
  27 Li     0.361161    0.212353    0.164837    ( 0.0000,  0.0000,  0.0000)

Unit cell:
           periodic     x           y           z      points  spacing
  1. axis:    yes   10.112485    0.000045   -0.000035    60     0.1685
  2. axis:    yes    0.000026    5.945827    0.000001    35     0.1699
  3. axis:    yes   -0.000016    0.000000    4.615463    27     0.1709

  Lengths:  10.112485   5.945827   4.615463
  Angles:   89.999989  90.000396  89.999490

Effective grid spacing dv^(1/3) = 0.1698

                     log10-error:           total        iterations:
           time      wfs    density  force  energy       poisson  magmom
iter:   1  02:06:39                       -221.381268             +0.0000
iter:   2  02:06:59  -0.61  -0.93         -234.837677             +0.0000
iter:   3  02:07:19  -0.37  -0.97         -225.910015             -0.0000
iter:   4  02:07:39  -1.39  -1.29         -225.759336             +0.0000
iter:   5  02:07:59  -1.27  -1.39         -227.322363             +0.0000
iter:   6  02:08:19  -1.46  -1.46         -225.735115             +0.0000
iter:   7  02:08:38  -2.45  -2.04         -225.720324             +0.0000
iter:   8  02:08:58  -2.02  -1.99         -225.636232             +0.0000
iter:   9  02:09:18  -2.40  -2.02         -225.425151             +0.0000
iter:  10  02:09:38  -3.28  -2.60         -225.416769             +0.0000
iter:  11  02:09:58  -3.78  -2.88         -225.409701             +0.0000
iter:  12  02:10:17  -4.22  -3.02         -225.408200             +0.0000
iter:  13  02:10:37  -5.02  -3.27         -225.408028             +0.0000
iter:  14  02:10:57  -4.79  -3.33         -225.408173             +0.0000
iter:  15  02:11:17  -5.67  -3.40         -225.408263             +0.0000
iter:  16  02:11:37  -5.60  -3.37         -225.408097             -0.0000
iter:  17  02:11:56  -4.88  -3.51         -225.407809             -0.0000
iter:  18  02:12:16  -5.43  -3.50         -225.407873             -0.0000
iter:  19  02:12:36  -5.40  -3.63         -225.407871             +0.0000
iter:  20  02:12:56  -6.09  -3.87         -225.407808             +0.0000
iter:  21  02:13:16  -6.57  -4.01         -225.407811             +0.0000
iter:  22  02:13:40  -7.46  -4.08         -225.407814             +0.0000
iter:  23  02:14:05  -7.41  -4.10    -2.57-225.407809             +0.0000
iter:  24  02:14:24  -6.78  -4.15         -225.407809             +0.0000
iter:  25  02:14:49  -7.92  -4.25    -2.26-225.407808             +0.0000
iter:  26  02:15:09  -6.92  -4.30         -225.407805             +0.0000
iter:  27  02:15:33  -7.54  -4.57    -2.43-225.407806             +0.0000
iter:  28  02:15:58  -8.44  -4.63    -3.01-225.407806             +0.0000
iter:  29  02:16:22  -8.16  -4.67    -2.88-225.407806             +0.0000
iter:  30  02:16:47  -8.39  -4.72    -3.33-225.407806             +0.0000
iter:  31  02:17:11  -7.82  -4.80    -2.91-225.407805             +0.0000
iter:  32  02:17:36  -9.10  -4.88    -3.39-225.407805             +0.0000
iter:  33  02:18:00  -8.06  -4.93    -2.65-225.407805             +0.0000
iter:  34  02:18:25  -8.83  -5.24    -3.91-225.407805             +0.0000
iter:  35  02:18:49  -8.96  -5.31    -3.50-225.407805             +0.0000
iter:  36  02:19:14  -9.17  -5.45    -3.28-225.407805             +0.0000
iter:  37  02:19:38  -9.66  -5.75    -3.69-225.407805             +0.0000
iter:  38  02:20:03 -10.42  -5.80    -3.95-225.407805             +0.0000
iter:  39  02:20:27 -11.10  -5.84    -4.22-225.407805             +0.0000
iter:  40  02:20:52 -10.39  -5.88    -3.56-225.407805             -0.0000
iter:  41  02:21:16 -11.15  -5.98    -4.00-225.407805             -0.0000
iter:  42  02:21:41 -11.61  -5.97    -4.72-225.407805             -0.0000
iter:  43  02:22:05 -10.38  -6.01    -3.97-225.407805             -0.0000
iter:  44  02:22:30 -11.72  -6.41    -4.80-225.407805             -0.0000
iter:  45  02:22:54 -10.63  -6.43    -4.29-225.407805             +0.0000
iter:  46  02:23:19 -11.75  -6.55    -4.64-225.407805             -0.0000
iter:  47  02:23:43 -12.61  -6.75    -5.06-225.407805             -0.0000
iter:  48  02:24:08 -11.87  -6.80    -4.62-225.407805             +0.0000
iter:  49  02:24:32 -12.66  -7.03    -5.40-225.407805             +0.0000
iter:  50  02:24:57 -13.14  -7.03    -5.19-225.407805             -0.0000
iter:  51  02:25:21 -12.89  -7.28    -4.99-225.407805             -0.0000
iter:  52  02:25:46 -13.20  -7.56    -5.31-225.407805             +0.0000
iter:  53  02:26:10 -13.36  -7.73    -5.58-225.407805             +0.0000
iter:  54  02:26:35 -14.39  -7.99    -5.73-225.407805             +0.0000
iter:  55  02:26:59 -14.62  -8.03    -6.31-225.407805             +0.0000

Converged after 55 iterations.

Dipole moment: (18.903700, -1.435855, -4.183174) |e|*Ang

Total magnetic moment: (0.000000, 0.000000, 0.000000)
Local magnetic moments:
   0 O  ( 0.000000,  0.000000,  0.000818)
   1 O  ( 0.000000,  0.000000, -0.000648)
   2 O  ( 0.000000,  0.000000, -0.000729)
   3 O  ( 0.000000,  0.000000,  0.000621)
   4 O  ( 0.000000,  0.000000, -0.000733)
   5 O  ( 0.000000,  0.000000,  0.000625)
   6 O  ( 0.000000,  0.000000,  0.000814)
   7 O  ( 0.000000,  0.000000, -0.000644)
   8 O  ( 0.000000,  0.000000,  0.022427)
   9 O  ( 0.000000,  0.000000, -0.022465)
  10 O  ( 0.000000,  0.000000, -0.022298)
  11 O  ( 0.000000,  0.000000,  0.022519)
  12 Mn ( 0.000000,  0.000000,  4.574906)
  13 Mn ( 0.000000,  0.000000, -4.575164)
  14 Mn ( 0.000000,  0.000000, -4.575085)
  15 Mn ( 0.000000,  0.000000,  4.574933)
  16 P  ( 0.000000,  0.000000,  0.000676)
  17 P  ( 0.000000,  0.000000, -0.000820)
  18 P  ( 0.000000,  0.000000, -0.000786)
  19 P  ( 0.000000,  0.000000,  0.000812)
  20 O  ( 0.000000,  0.000000,  0.020875)
  21 O  ( 0.000000,  0.000000, -0.020724)
  22 O  ( 0.000000,  0.000000, -0.020721)
  23 O  ( 0.000000,  0.000000,  0.020623)
  24 Li ( 0.000000,  0.000000, -0.000001)
  25 Li ( 0.000000,  0.000000,  0.000016)
  26 Li ( 0.000000,  0.000000, -0.000001)
  27 Li ( 0.000000,  0.000000,  0.000016)

Energy contributions relative to reference atoms: (reference = -196157.275402)

Kinetic:       +296.827282
Potential:     -256.367972
External:        +0.000000
XC:            -267.647857
Entropy (-ST):   -0.000000
Local:           +1.780742
--------------------------
Free energy:   -225.407805
Extrapolated:  -225.407805

Spin contamination: 9.697366 electrons
Showing only first 2 kpts
                      Up                     Down
 Kpt  Band  Eigenvalues  Occupancy  Eigenvalues  Occupancy
  0    88      5.11086    0.00694      5.10057    0.00694
  0    89      5.17346    0.00694      5.15845    0.00694
  0    90      9.64607    0.00000      9.63302    0.00000
  0    91      9.66519    0.00000      9.68657    0.00000

  1    88      5.12170    0.00694      5.11204    0.00694
  1    89      5.18299    0.00694      5.16794    0.00694
  1    90      9.52557    0.00000      9.51068    0.00000
  1    91      9.54306    0.00000      9.56133    0.00000


Fermi level: 6.37019

Gap: 3.782 eV
Transition (v -> c):
  (s=0, k=71, n=89, [-0.08, 0.42, 0.38]) -> (s=1, k=86, n=90, [0.08, 0.08, 0.12])
Writing to born-0.01-16x-.gpw (mode='all')

Timing:                              incl.     excl.
-----------------------------------------------------------
Hamiltonian:                         0.223     0.002   0.0% |
 Atomic:                             0.061     0.061   0.0% |
  XC Correction:                     0.000     0.000   0.0% |
 Calculate atomic Hamiltonians:      0.074     0.074   0.0% |
 Communicate:                        0.001     0.001   0.0% |
 Initialize Hamiltonian:             0.000     0.000   0.0% |
 Poisson:                            0.001     0.001   0.0% |
 XC 3D grid:                         0.083     0.083   0.0% |
LCAO initialization:                71.185     0.647   0.0% |
 LCAO eigensolver:                  19.289     0.002   0.0% |
  Calculate projections:             0.029     0.029   0.0% |
  DenseAtomicCorrection:             0.045     0.045   0.0% |
  Distribute overlap matrix:         0.117     0.117   0.0% |
  Orbital Layouts:                   0.433     0.433   0.0% |
  Potential matrix:                 18.580    18.580   0.6% |
  Sum over cells:                    0.085     0.085   0.0% |
 LCAO to grid:                      49.957    49.957   1.6% ||
 Set positions (LCAO WFS):           1.291     0.187   0.0% |
  Basic WFS set positions:           0.001     0.001   0.0% |
  Basis functions set positions:     0.000     0.000   0.0% |
  P tci:                             0.515     0.515   0.0% |
  ST tci:                            0.376     0.376   0.0% |
  mktci:                             0.212     0.212   0.0% |
PWDescriptor:                        0.023     0.023   0.0% |
SCF-cycle:                        1243.125     2.859   0.1% |
 Davidson:                        1034.611   318.501  10.1% |---|
  Apply H:                          70.889    68.790   2.2% ||
   HMM T:                            2.099     2.099   0.1% |
  Subspace diag:                   149.875     0.153   0.0% |
   calc_h_matrix:                   95.985    25.165   0.8% |
    Apply H:                        70.820    68.729   2.2% ||
     HMM T:                          2.091     2.091   0.1% |
   diagonalize:                      7.448     7.448   0.2% |
   rotate_psi:                      46.288    46.288   1.5% ||
  calc. matrices:                  308.690   170.384   5.4% |-|
   Apply H:                        138.306   134.411   4.3% |-|
    HMM T:                           3.895     3.895   0.1% |
  diagonalize:                      86.641    86.641   2.8% ||
  rotate_psi:                      100.016   100.016   3.2% ||
 Density:                           41.375     0.001   0.0% |
  Atomic density matrices:           0.858     0.858   0.0% |
  Mix:                               5.775     5.775   0.2% |
  Multipole moments:                 0.020     0.020   0.0% |
  Pseudo density:                   34.721    34.720   1.1% |
   Symmetrize density:               0.001     0.001   0.0% |
 Forces:                           150.343   150.343   4.8% |-|
 Hamiltonian:                       11.850     0.113   0.0% |
  Atomic:                            2.923     2.923   0.1% |
   XC Correction:                    0.000     0.000   0.0% |
  Calculate atomic Hamiltonians:     4.102     4.102   0.1% |
  Communicate:                       0.082     0.082   0.0% |
  Poisson:                           0.032     0.032   0.0% |
  XC 3D grid:                        4.598     4.598   0.1% |
 Orthonormalize:                     2.086     0.003   0.0% |
  calc_s_matrix:                     0.245     0.245   0.0% |
  inverse-cholesky:                  0.073     0.073   0.0% |
  projections:                       1.331     1.331   0.0% |
  rotate_psi_s:                      0.435     0.435   0.0% |
Set symmetry:                        0.000     0.000   0.0% |
Other:                            1832.395  1832.395  58.2% |----------------------|
-----------------------------------------------------------
Total:                                      3146.951 100.0%

Memory usage: 12.46 GiB
Date: Wed Mar 24 02:57:30 2021
