
  ___ ___ ___ _ _ _  
 |   |   |_  | | | | 
 | | | | | . | | | | 
 |__ |  _|___|_____|  20.10.1b1
 |___|_|             

User:   madkru@g035.nifl.fysik.dtu.dk
Date:   Mon Mar 22 01:16:32 2021
Arch:   x86_64
Pid:    44316
Python: 3.7.4
gpaw:   /home/niflheim/madkru/venv_folder/gpaw/gpaw (d0d1ca1c71)
_gpaw:  /home/niflheim/madkru/venv_folder/gpaw/build/lib.linux-x86_64-sandybridge-3.7/
        _gpaw.cpython-37m-x86_64-linux-gnu.so (4fd39e8b1e)
ase:    /home/niflheim/madkru/venv_folder/ase/ase (version 3.21.0b1-7e6c206a91)
numpy:  /home/niflheim/madkru/venv_folder/lib/python3.7/site-packages/numpy (version 1.19.4)
scipy:  /home/niflheim/madkru/venv_folder/lib/python3.7/site-packages/scipy (version 1.5.4)
libxc:  4.3.4
units:  Angstrom and eV
cores: 32
OMP_NUM_THREADS: 1

Input parameters:
  convergence: {bands: occupied,
                density: 0.0001,
                eigenstates: 4e-08,
                energy: 0.0005,
                forces: 1e-06}
  kpts: [6 6 4]
  mode: {ecut: 600.0,
         gammacentered: False,
         name: pw}
  occupations: {fixmagmom: False,
                name: fermi-dirac,
                width: 0.001}
  setups: {Mn: :d,3.0}
  symmetry: {point_group: False,
             time_reversal: False}

System changes: positions, numbers, cell, pbc, initial_charges, initial_magmoms 

Initialize ...

O-setup:
  name: Oxygen
  id: 9b9d51c344dea68c822856295a461509
  Z: 8.0
  valence: 6
  core: 2
  charge: 0.0
  file: /home/modules/software/GPAW-setups/0.9.20000/O.LDA.gz
  compensation charges: gauss, rc=0.21, lmax=2
  cutoffs: 1.17(filt), 0.83(core),
  valence states:
                energy  radius
    2s(2.00)   -23.752   0.688
    2p(4.00)    -9.195   0.598
    *s           3.459   0.688
    *p          18.016   0.598
    *d           0.000   0.619

  Using partial waves for O as LCAO basis

Mn-setup:
  name: Manganese
  id: 0d715a8018be061a6e9ea6f2d364ac92
  Z: 25.0
  valence: 15
  core: 10
  charge: 0.0
  Hubbard U: 3.000000 eV (l=2, scale=True)
  file: /home/modules/software/GPAW-setups/0.9.20000/Mn.LDA.gz
  compensation charges: gauss, rc=0.38, lmax=2
  cutoffs: 2.14(filt), 0.86(core),
  valence states:
                energy  radius
    3s(2.00)   -85.387   1.275
    4s(2.00)    -5.282   1.275
    3p(6.00)   -54.493   1.281
    4p(0.00)    -1.471   1.281
    3d(5.00)    -7.009   1.138
    *d          20.203   1.138

  Using partial waves for Mn as LCAO basis

P-setup:
  name: Phosphorus
  id: a5561c299094968922a179ab894d2e2d
  Z: 15.0
  valence: 5
  core: 10
  charge: 0.0
  file: /home/modules/software/GPAW-setups/0.9.20000/P.LDA.gz
  compensation charges: gauss, rc=0.30, lmax=2
  cutoffs: 1.69(filt), 1.81(core),
  valence states:
                energy  radius
    3s(2.00)   -14.015   0.953
    3p(3.00)    -5.596   0.953
    *s          13.197   0.953
    *p          21.615   0.953
    *d           0.000   0.953

  Using partial waves for P as LCAO basis

Li-setup:
  name: Lithium
  id: b73562207f97a71b6967473b66fe8b65
  Z: 3.0
  valence: 1
  core: 2
  charge: 0.0
  file: /home/modules/software/GPAW-setups/0.9.20000/Li.LDA.gz
  compensation charges: gauss, rc=0.33, lmax=2
  cutoffs: 1.91(filt), 2.55(core),
  valence states:
                energy  radius
    2s(1.00)    -2.874   1.058
    2p(0.00)    -1.126   1.058
    *s          24.338   1.058

  Using partial waves for Li as LCAO basis

Reference energy: -196157.275402

Spin-polarized calculation.
Magnetic moment: 0.000000

Convergence criteria:
  Maximum total energy change: 0.0005 eV / electron
  Maximum integral of absolute density change: 0.0001 electrons
  Maximum integral of absolute eigenstate change: 4e-08 eV^2
  Maximum change in atomic force: 1e-06 eV / Ang
  Maximum number of iterations: 333

Symmetries present (total): 1

  ( 1  0  0)
  ( 0  1  0)
  ( 0  0  1)

144 k-points: 6 x 6 x 4 Monkhorst-Pack grid
144 k-points in the irreducible part of the Brillouin zone
       k-points in crystal coordinates                weights
   0:    -0.41666667   -0.41666667   -0.37500000          1/144
   1:    -0.41666667   -0.41666667   -0.12500000          1/144
   2:    -0.41666667   -0.41666667    0.12500000          1/144
   3:    -0.41666667   -0.41666667    0.37500000          1/144
   4:    -0.41666667   -0.25000000   -0.37500000          1/144
   5:    -0.41666667   -0.25000000   -0.12500000          1/144
   6:    -0.41666667   -0.25000000    0.12500000          1/144
   7:    -0.41666667   -0.25000000    0.37500000          1/144
   8:    -0.41666667   -0.08333333   -0.37500000          1/144
   9:    -0.41666667   -0.08333333   -0.12500000          1/144
          ...
 143:     0.41666667    0.41666667    0.37500000          1/144

Wave functions: Plane wave expansion
  Cutoff energy: 600.000 eV
  Number of coefficients (min, max): 9238, 9284
  Pulay-stress correction: 0.000000 eV/Ang^3 (de/decut=0.000000)
  Using FFTW library
  ScaLapack parameters: grid=1x1, blocksize=None
  Wavefunction extrapolation:
    Improved wavefunction reuse through dual PAW basis 

  Fermi-Dirac: width=0.0010 eV

Eigensolver
   Davidson(niter=2, smin=None, normalize=True) 

Densities:
  Coarse grid: 60*35*27 grid
  Fine grid: 120*70*54 grid
  Total Charge: 0.000000 

Density mixing:
  Method: difference
  Backend: pulay
  Linear mixing parameter: 0.05
  Mixing with 5 old densities
  Damping of long wave oscillations: 50 

Hamiltonian:
  XC and Coulomb potentials evaluated on a 120*70*54 grid
  Using the LDA Exchange-Correlation functional
 

Memory estimate:
  Process memory now: 12784.06 MiB
  Calculator: 346.50 MiB
    Density: 19.24 MiB
      Arrays: 7.57 MiB
      Localized functions: 8.64 MiB
      Mixer: 3.03 MiB
    Hamiltonian: 5.87 MiB
      Arrays: 5.62 MiB
      XC: 0.00 MiB
      Poisson: 0.00 MiB
      vbar: 0.25 MiB
    Wavefunctions: 321.38 MiB
      Arrays psit_nG: 285.59 MiB
      Eigensolver: 18.49 MiB
      Projections: 5.41 MiB
      Projectors: 8.92 MiB
      PW-descriptor: 2.96 MiB

Total number of cores used: 32
Parallelization over k-points: 16
Domain decomposition: 2 x 1 x 1

Number of atoms: 28
Number of atomic orbitals: 148
Number of bands in calculation: 112
Number of valence electrons: 180
Bands to converge: occupied

... initialized

Initializing position-dependent things.

Density initialized from atomic densities
Creating initial wave functions:
  112 bands from LCAO basis set

                                           
                                           
                                           
                                           
                                           
               O     O  P  O               
            PO           OMn     O         
                  O          MO            
            O        Li O                  
             Mn  On          OP            
         O         Li O                    
         Li     O P         O              
       Li                                  
                                           
                                           
                                           
                                           

Positions:
   0 O     -1.263197   -2.497779   -1.098475    ( 0.0000,  0.0000,  0.0000)
   1 O     -3.070823    2.922496    1.209491    ( 0.0000,  0.0000,  0.0000)
   2 O      1.985541    0.474863    1.428016    ( 0.0000,  0.0000,  0.0000)
   3 O      3.793120   -0.050100   -0.879950    ( 0.0000,  0.0000,  0.0000)
   4 O      1.985518    2.932485    1.428149    ( 0.0000,  0.0000,  0.0000)
   5 O      3.793144   -2.497790   -0.879818    ( 0.0000,  0.0000,  0.0000)
   6 O     -1.263220   -0.050157   -1.098342    ( 0.0000,  0.0000,  0.0000)
   7 O     -3.070798    0.474805    1.209623    ( 0.0000,  0.0000,  0.0000)
   8 O     -4.167835   -1.273920   -0.862116    ( 0.0000,  0.0000,  0.0000)
   9 O     -0.166037    1.698602    1.445528    ( 0.0000,  0.0000,  0.0000)
  10 O      4.890156    1.698625    1.191790    ( 0.0000,  0.0000,  0.0000)
  11 O      0.888358   -1.273896   -1.115855    ( 0.0000,  0.0000,  0.0000)
  12 Mn    -2.445557   -1.274211    0.312921    ( 0.0000,  0.0000,  1.0000)
  13 Mn    -1.888303    1.698892   -1.994948    ( 0.0000,  0.0000, -1.0000)
  14 Mn     3.167879    1.698917    0.016752    ( 0.0000,  0.0000, -1.0000)
  15 Mn     2.610624   -1.274187    2.324621    ( 0.0000,  0.0000,  1.0000)
  16 P     -0.529549   -1.273917   -1.724376    ( 0.0000,  0.0000,  0.0000)
  17 P     -3.804359    1.698599    0.583463    ( 0.0000,  0.0000,  0.0000)
  18 P      1.251870    1.698623    2.054050    ( 0.0000,  0.0000,  0.0000)
  19 P      4.526680   -1.273894   -0.253789    ( 0.0000,  0.0000,  0.0000)
  20 O     -0.544227   -1.273926    1.365380    ( 0.0000,  0.0000,  0.0000)
  21 O     -3.789411    1.698610   -0.942222    ( 0.0000,  0.0000,  0.0000)
  22 O      1.266548    1.698631   -1.035707    ( 0.0000,  0.0000,  0.0000)
  23 O      4.511733   -1.273905    1.271895    ( 0.0000,  0.0000,  0.0000)
  24 Li    -4.695087   -2.760584   -2.142877    ( 0.0000,  0.0000,  0.0000)
  25 Li     0.361147   -2.760561    0.164836    ( 0.0000,  0.0000,  0.0000)
  26 Li    -4.695074    0.212330   -2.142877    ( 0.0000,  0.0000,  0.0000)
  27 Li     0.361161    0.212353    0.164837    ( 0.0000,  0.0000,  0.0000)

Unit cell:
           periodic     x           y           z      points  spacing
  1. axis:    yes   10.112485    0.000045   -0.000035    60     0.1685
  2. axis:    yes    0.000026    5.945827    0.000001    35     0.1699
  3. axis:    yes   -0.000016    0.000000    4.615463    27     0.1709

  Lengths:  10.112485   5.945827   4.615463
  Angles:   89.999989  90.000396  89.999490

Effective grid spacing dv^(1/3) = 0.1698

                     log10-error:           total        iterations:
           time      wfs    density  force  energy       poisson  magmom
iter:   1  01:19:46                       -221.376618             +0.0000
iter:   2  01:20:23  -0.61  -0.93         -234.817989             +0.0000
iter:   3  01:21:01  -0.37  -0.97         -225.905124             -0.0000
iter:   4  01:21:38  -1.39  -1.29         -225.760559             +0.0000
iter:   5  01:22:16  -1.27  -1.39         -227.320070             +0.0000
iter:   6  01:22:53  -1.47  -1.46         -225.735768             +0.0000
iter:   7  01:23:31  -2.48  -2.04         -225.722493             +0.0000
iter:   8  01:24:08  -2.14  -1.99         -225.594414             +0.0000
iter:   9  01:24:46  -2.45  -2.08         -225.430783             +0.0000
iter:  10  01:25:23  -3.32  -2.55         -225.421293             +0.0000
iter:  11  01:26:01  -3.66  -2.81         -225.410755             +0.0000
iter:  12  01:26:38  -4.11  -3.04         -225.409642             +0.0000
iter:  13  01:27:15  -5.08  -3.29         -225.409509             -0.0000
iter:  14  01:27:53  -5.40  -3.32         -225.409340             -0.0000
iter:  15  01:28:30  -6.05  -3.44         -225.409347             -0.0000
iter:  16  01:29:08  -5.33  -3.48         -225.409624             +0.0000
iter:  17  01:29:45  -5.80  -3.60         -225.409535             -0.0000
iter:  18  01:30:22  -5.39  -3.74         -225.409290             +0.0000
iter:  19  01:31:00  -6.02  -4.00         -225.409297             +0.0000
iter:  20  01:31:37  -7.01  -4.24         -225.409290             -0.0000
iter:  21  01:32:24  -7.63  -4.32         -225.409295             +0.0000
iter:  22  01:33:11  -7.42  -4.42    -2.32-225.409296             +0.0000
iter:  23  01:33:59  -7.67  -4.39    -2.86-225.409293             +0.0000
iter:  24  01:34:46  -8.09  -4.43    -2.61-225.409294             +0.0000
iter:  25  01:35:33  -7.58  -4.55    -2.88-225.409293             +0.0000
iter:  26  01:36:20  -8.33  -4.74    -3.32-225.409293             +0.0000
iter:  27  01:37:07  -8.57  -4.81    -3.21-225.409293             +0.0000
iter:  28  01:37:54  -8.50  -4.90    -2.73-225.409293             +0.0000
iter:  29  01:38:41  -8.99  -5.22    -3.60-225.409293             +0.0000
iter:  30  01:39:29  -8.93  -5.30    -3.28-225.409293             +0.0000
iter:  31  01:40:16  -9.55  -5.39    -3.58-225.409293             +0.0000
iter:  32  01:41:03  -9.67  -5.43    -3.41-225.409293             +0.0000
iter:  33  01:41:50 -10.02  -5.59    -3.90-225.409293             +0.0000
iter:  34  01:42:37  -9.40  -5.64    -3.54-225.409293             +0.0000
iter:  35  01:43:24 -10.32  -5.76    -3.73-225.409293             +0.0000
iter:  36  01:44:12  -9.68  -5.87    -3.99-225.409293             +0.0000
iter:  37  01:44:59 -10.83  -5.99    -4.23-225.409293             +0.0000
iter:  38  01:45:46 -10.05  -6.05    -3.95-225.409293             +0.0000
iter:  39  01:46:33 -10.44  -6.26    -4.07-225.409293             +0.0000
iter:  40  01:47:20 -11.92  -6.51    -4.82-225.409293             +0.0000
iter:  41  01:48:07 -11.72  -6.54    -4.50-225.409293             +0.0000
iter:  42  01:48:54 -11.13  -6.56    -4.53-225.409293             +0.0000
iter:  43  01:49:41 -10.95  -6.58    -4.54-225.409293             +0.0000
iter:  44  01:50:28 -12.21  -6.65    -4.76-225.409293             +0.0000
iter:  45  01:51:15 -11.59  -6.76    -4.29-225.409293             +0.0000
iter:  46  01:52:03 -11.80  -7.03    -4.82-225.409293             +0.0000
iter:  47  01:52:50 -13.25  -7.39    -5.83-225.409293             +0.0000
iter:  48  01:53:37 -12.61  -7.42    -5.50-225.409293             +0.0000
iter:  49  01:54:23 -13.52  -7.65    -5.47-225.409293             +0.0000
iter:  50  01:55:10 -14.52  -7.80    -6.31-225.409293             +0.0000

Converged after 50 iterations.

Dipole moment: (19.053443, -1.431999, -4.181941) |e|*Ang

Total magnetic moment: (0.000000, 0.000000, 0.000000)
Local magnetic moments:
   0 O  ( 0.000000,  0.000000,  0.000655)
   1 O  ( 0.000000,  0.000000, -0.000680)
   2 O  ( 0.000000,  0.000000, -0.000729)
   3 O  ( 0.000000,  0.000000,  0.000521)
   4 O  ( 0.000000,  0.000000, -0.000428)
   5 O  ( 0.000000,  0.000000,  0.000716)
   6 O  ( 0.000000,  0.000000,  0.000655)
   7 O  ( 0.000000,  0.000000, -0.000673)
   8 O  ( 0.000000,  0.000000,  0.022383)
   9 O  ( 0.000000,  0.000000, -0.022199)
  10 O  ( 0.000000,  0.000000, -0.022371)
  11 O  ( 0.000000,  0.000000,  0.022398)
  12 Mn ( 0.000000,  0.000000,  4.575072)
  13 Mn ( 0.000000,  0.000000, -4.574991)
  14 Mn ( 0.000000,  0.000000, -4.575102)
  15 Mn ( 0.000000,  0.000000,  4.573989)
  16 P  ( 0.000000,  0.000000,  0.000826)
  17 P  ( 0.000000,  0.000000, -0.000811)
  18 P  ( 0.000000,  0.000000, -0.000525)
  19 P  ( 0.000000,  0.000000,  0.000832)
  20 O  ( 0.000000,  0.000000,  0.020707)
  21 O  ( 0.000000,  0.000000, -0.020723)
  22 O  ( 0.000000,  0.000000, -0.020608)
  23 O  ( 0.000000,  0.000000,  0.020764)
  24 Li ( 0.000000,  0.000000,  0.000000)
  25 Li ( 0.000000,  0.000000,  0.000026)
  26 Li ( 0.000000,  0.000000,  0.000001)
  27 Li ( 0.000000,  0.000000,  0.000002)

Energy contributions relative to reference atoms: (reference = -196157.275402)

Kinetic:       +296.336851
Potential:     -255.992835
External:        +0.000000
XC:            -267.535055
Entropy (-ST):   -0.000000
Local:           +1.781746
--------------------------
Free energy:   -225.409293
Extrapolated:  -225.409293

Spin contamination: 9.696651 electrons
Showing only first 2 kpts
                      Up                     Down
 Kpt  Band  Eigenvalues  Occupancy  Eigenvalues  Occupancy
  0    88      5.11636    0.00694      5.10578    0.00694
  0    89      5.16865    0.00694      5.15716    0.00694
  0    90      9.64833    0.00000      9.65511    0.00000
  0    91      9.66827    0.00000      9.67999    0.00000

  1    88      5.12779    0.00694      5.11756    0.00694
  1    89      5.17833    0.00694      5.16637    0.00694
  1    90      9.52745    0.00000      9.53648    0.00000
  1    91      9.54225    0.00000      9.55409    0.00000


Fermi level: 6.37078

Gap: 3.785 eV
Transition (v -> c):
  (s=0, k=71, n=89, [-0.08, 0.42, 0.38]) -> (s=0, k=57, n=90, [-0.08, -0.08, -0.12])
Writing to born-0.01-4y+.gpw (mode='all')

Timing:                              incl.     excl.
-----------------------------------------------------------
Hamiltonian:                         0.412     0.002   0.0% |
 Atomic:                             0.067     0.067   0.0% |
  XC Correction:                     0.000     0.000   0.0% |
 Calculate atomic Hamiltonians:      0.165     0.165   0.0% |
 Communicate:                        0.005     0.005   0.0% |
 Initialize Hamiltonian:             0.000     0.000   0.0% |
 Poisson:                            0.001     0.001   0.0% |
 XC 3D grid:                         0.171     0.171   0.0% |
LCAO initialization:               152.167     0.676   0.0% |
 LCAO eigensolver:                  40.250     0.002   0.0% |
  Calculate projections:             0.056     0.056   0.0% |
  DenseAtomicCorrection:             0.083     0.083   0.0% |
  Distribute overlap matrix:         0.007     0.007   0.0% |
  Orbital Layouts:                   0.360     0.360   0.0% |
  Potential matrix:                 39.654    39.654   0.8% |
  Sum over cells:                    0.088     0.088   0.0% |
 LCAO to grid:                     108.837   108.837   2.2% ||
 Set positions (LCAO WFS):           2.403     0.369   0.0% |
  Basic WFS set positions:           0.001     0.001   0.0% |
  Basis functions set positions:     0.000     0.000   0.0% |
  P tci:                             1.070     1.070   0.0% |
  ST tci:                            0.706     0.706   0.0% |
  mktci:                             0.257     0.257   0.0% |
PWDescriptor:                        0.025     0.025   0.0% |
SCF-cycle:                        2163.756     5.595   0.1% |
 Davidson:                        1766.752   559.864  11.2% |---|
  Apply H:                         131.078   126.902   2.5% ||
   HMM T:                            4.176     4.176   0.1% |
  Subspace diag:                   264.669     0.159   0.0% |
   calc_h_matrix:                  174.716    45.525   0.9% |
    Apply H:                       129.191   125.237   2.5% ||
     HMM T:                          3.954     3.954   0.1% |
   diagonalize:                      6.120     6.120   0.1% |
   rotate_psi:                      83.674    83.674   1.7% ||
  calc. matrices:                  557.462   304.311   6.1% |-|
   Apply H:                        253.151   245.927   4.9% |-|
    HMM T:                           7.224     7.224   0.1% |
  diagonalize:                      83.306    83.306   1.7% ||
  rotate_psi:                      170.373   170.373   3.4% ||
 Density:                           73.987     0.001   0.0% |
  Atomic density matrices:           1.319     1.319   0.0% |
  Mix:                              11.352    11.352   0.2% |
  Multipole moments:                 0.029     0.029   0.0% |
  Pseudo density:                   61.286    61.285   1.2% |
   Symmetrize density:               0.001     0.001   0.0% |
 Forces:                           293.080   293.080   5.9% |-|
 Hamiltonian:                       20.285     0.121   0.0% |
  Atomic:                            3.000     3.000   0.1% |
   XC Correction:                    0.000     0.000   0.0% |
  Calculate atomic Hamiltonians:     8.263     8.263   0.2% |
  Communicate:                       0.071     0.071   0.0% |
  Poisson:                           0.073     0.073   0.0% |
  XC 3D grid:                        8.756     8.756   0.2% |
 Orthonormalize:                     4.057     0.004   0.0% |
  calc_s_matrix:                     0.483     0.483   0.0% |
  inverse-cholesky:                  0.054     0.054   0.0% |
  projections:                       2.658     2.658   0.1% |
  rotate_psi_s:                      0.858     0.858   0.0% |
Set symmetry:                        0.000     0.000   0.0% |
Other:                            2687.638  2687.638  53.7% |--------------------|
-----------------------------------------------------------
Total:                                      5003.998 100.0%

Memory usage: 12.50 GiB
Date: Mon Mar 22 02:39:56 2021
