
  ___ ___ ___ _ _ _  
 |   |   |_  | | | | 
 | | | | | . | | | | 
 |__ |  _|___|_____|  20.10.1b1
 |___|_|             

User:   madkru@i018.nifl.fysik.dtu.dk
Date:   Tue Mar 23 12:01:05 2021
Arch:   x86_64
Pid:    26873
Python: 3.7.4
gpaw:   /home/niflheim/madkru/venv_folder/gpaw/gpaw (d0d1ca1c71)
_gpaw:  /home/niflheim/madkru/venv_folder/gpaw/build/lib.linux-x86_64-ivybridge-3.7/
        _gpaw.cpython-37m-x86_64-linux-gnu.so (4fd39e8b1e)
ase:    /home/niflheim/madkru/venv_folder/ase/ase (version 3.21.0b1-7e6c206a91)
numpy:  /home/niflheim/madkru/venv_folder/lib/python3.7/site-packages/numpy (version 1.19.4)
scipy:  /home/niflheim/madkru/venv_folder/lib/python3.7/site-packages/scipy (version 1.5.4)
libxc:  4.3.4
units:  Angstrom and eV
cores: 64
OMP_NUM_THREADS: 1

Input parameters:
  convergence: {bands: occupied,
                density: 0.0001,
                eigenstates: 4e-08,
                energy: 0.0005,
                forces: 1e-06}
  kpts: [6 6 4]
  mode: {ecut: 600.0,
         gammacentered: False,
         name: pw}
  occupations: {fixmagmom: False,
                name: fermi-dirac,
                width: 0.001}
  setups: {Mn: :d,3.0}
  symmetry: {point_group: False,
             time_reversal: False}

System changes: positions, numbers, cell, pbc, initial_charges, initial_magmoms 

Initialize ...

O-setup:
  name: Oxygen
  id: 9b9d51c344dea68c822856295a461509
  Z: 8.0
  valence: 6
  core: 2
  charge: 0.0
  file: /home/modules/software/GPAW-setups/0.9.20000/O.LDA.gz
  compensation charges: gauss, rc=0.21, lmax=2
  cutoffs: 1.17(filt), 0.83(core),
  valence states:
                energy  radius
    2s(2.00)   -23.752   0.688
    2p(4.00)    -9.195   0.598
    *s           3.459   0.688
    *p          18.016   0.598
    *d           0.000   0.619

  Using partial waves for O as LCAO basis

Mn-setup:
  name: Manganese
  id: 0d715a8018be061a6e9ea6f2d364ac92
  Z: 25.0
  valence: 15
  core: 10
  charge: 0.0
  Hubbard U: 3.000000 eV (l=2, scale=True)
  file: /home/modules/software/GPAW-setups/0.9.20000/Mn.LDA.gz
  compensation charges: gauss, rc=0.38, lmax=2
  cutoffs: 2.14(filt), 0.86(core),
  valence states:
                energy  radius
    3s(2.00)   -85.387   1.275
    4s(2.00)    -5.282   1.275
    3p(6.00)   -54.493   1.281
    4p(0.00)    -1.471   1.281
    3d(5.00)    -7.009   1.138
    *d          20.203   1.138

  Using partial waves for Mn as LCAO basis

P-setup:
  name: Phosphorus
  id: a5561c299094968922a179ab894d2e2d
  Z: 15.0
  valence: 5
  core: 10
  charge: 0.0
  file: /home/modules/software/GPAW-setups/0.9.20000/P.LDA.gz
  compensation charges: gauss, rc=0.30, lmax=2
  cutoffs: 1.69(filt), 1.81(core),
  valence states:
                energy  radius
    3s(2.00)   -14.015   0.953
    3p(3.00)    -5.596   0.953
    *s          13.197   0.953
    *p          21.615   0.953
    *d           0.000   0.953

  Using partial waves for P as LCAO basis

Li-setup:
  name: Lithium
  id: b73562207f97a71b6967473b66fe8b65
  Z: 3.0
  valence: 1
  core: 2
  charge: 0.0
  file: /home/modules/software/GPAW-setups/0.9.20000/Li.LDA.gz
  compensation charges: gauss, rc=0.33, lmax=2
  cutoffs: 1.91(filt), 2.55(core),
  valence states:
                energy  radius
    2s(1.00)    -2.874   1.058
    2p(0.00)    -1.126   1.058
    *s          24.338   1.058

  Using partial waves for Li as LCAO basis

Reference energy: -196157.275402

Spin-polarized calculation.
Magnetic moment: 0.000000

Convergence criteria:
  Maximum total energy change: 0.0005 eV / electron
  Maximum integral of absolute density change: 0.0001 electrons
  Maximum integral of absolute eigenstate change: 4e-08 eV^2
  Maximum change in atomic force: 1e-06 eV / Ang
  Maximum number of iterations: 333

Symmetries present (total): 1

  ( 1  0  0)
  ( 0  1  0)
  ( 0  0  1)

144 k-points: 6 x 6 x 4 Monkhorst-Pack grid
144 k-points in the irreducible part of the Brillouin zone
       k-points in crystal coordinates                weights
   0:    -0.41666667   -0.41666667   -0.37500000          1/144
   1:    -0.41666667   -0.41666667   -0.12500000          1/144
   2:    -0.41666667   -0.41666667    0.12500000          1/144
   3:    -0.41666667   -0.41666667    0.37500000          1/144
   4:    -0.41666667   -0.25000000   -0.37500000          1/144
   5:    -0.41666667   -0.25000000   -0.12500000          1/144
   6:    -0.41666667   -0.25000000    0.12500000          1/144
   7:    -0.41666667   -0.25000000    0.37500000          1/144
   8:    -0.41666667   -0.08333333   -0.37500000          1/144
   9:    -0.41666667   -0.08333333   -0.12500000          1/144
          ...
 143:     0.41666667    0.41666667    0.37500000          1/144

Wave functions: Plane wave expansion
  Cutoff energy: 600.000 eV
  Number of coefficients (min, max): 9238, 9284
  Pulay-stress correction: 0.000000 eV/Ang^3 (de/decut=0.000000)
  Using FFTW library
  ScaLapack parameters: grid=1x1, blocksize=None
  Wavefunction extrapolation:
    Improved wavefunction reuse through dual PAW basis 

  Fermi-Dirac: width=0.0010 eV

Eigensolver
   Davidson(niter=2, smin=None, normalize=True) 

Densities:
  Coarse grid: 60*35*27 grid
  Fine grid: 120*70*54 grid
  Total Charge: 0.000000 

Density mixing:
  Method: difference
  Backend: pulay
  Linear mixing parameter: 0.05
  Mixing with 5 old densities
  Damping of long wave oscillations: 50 

Hamiltonian:
  XC and Coulomb potentials evaluated on a 120*70*54 grid
  Using the LDA Exchange-Correlation functional
 

Memory estimate:
  Process memory now: 12061.29 MiB
  Calculator: 326.59 MiB
    Density: 9.67 MiB
      Arrays: 3.79 MiB
      Localized functions: 4.32 MiB
      Mixer: 1.56 MiB
    Hamiltonian: 2.94 MiB
      Arrays: 2.82 MiB
      XC: 0.00 MiB
      Poisson: 0.00 MiB
      vbar: 0.12 MiB
    Wavefunctions: 313.97 MiB
      Arrays psit_nG: 285.59 MiB
      Eigensolver: 18.49 MiB
      Projections: 2.71 MiB
      Projectors: 4.46 MiB
      PW-descriptor: 2.72 MiB

Total number of cores used: 64
Parallelization over k-points: 16
Domain decomposition: 2 x 2 x 1

Number of atoms: 28
Number of atomic orbitals: 148
Number of bands in calculation: 112
Number of valence electrons: 180
Bands to converge: occupied

... initialized

Initializing position-dependent things.

Density initialized from atomic densities
Creating initial wave functions:
  112 bands from LCAO basis set

                                           
                                           
                                           
                                           
                                           
               O     O  P  O               
            PO           OMn     O         
                  O          MO            
            O        Li O                  
             Mn  On          OP            
         O         Li O                    
         Li     O P         O              
       Li                                  
                                           
                                           
                                           
                                           

Positions:
   0 O     -1.263197   -2.497779   -1.098475    ( 0.0000,  0.0000,  0.0000)
   1 O     -3.070823    2.922496    1.209491    ( 0.0000,  0.0000,  0.0000)
   2 O      1.985541    0.474863    1.428016    ( 0.0000,  0.0000,  0.0000)
   3 O      3.793120   -0.050100   -0.879950    ( 0.0000,  0.0000,  0.0000)
   4 O      1.985518    2.922485    1.428149    ( 0.0000,  0.0000,  0.0000)
   5 O      3.793144   -2.497790   -0.879818    ( 0.0000,  0.0000,  0.0000)
   6 O     -1.263220   -0.050157   -1.098342    ( 0.0000,  0.0000,  0.0000)
   7 O     -3.070798    0.474805    1.209623    ( 0.0000,  0.0000,  0.0000)
   8 O     -4.167835   -1.273920   -0.862116    ( 0.0000,  0.0000,  0.0000)
   9 O     -0.166037    1.698602    1.445528    ( 0.0000,  0.0000,  0.0000)
  10 O      4.890156    1.698625    1.191790    ( 0.0000,  0.0000,  0.0000)
  11 O      0.898358   -1.273896   -1.115855    ( 0.0000,  0.0000,  0.0000)
  12 Mn    -2.445557   -1.274211    0.312921    ( 0.0000,  0.0000,  1.0000)
  13 Mn    -1.888303    1.698892   -1.994948    ( 0.0000,  0.0000, -1.0000)
  14 Mn     3.167879    1.698917    0.016752    ( 0.0000,  0.0000, -1.0000)
  15 Mn     2.610624   -1.274187    2.324621    ( 0.0000,  0.0000,  1.0000)
  16 P     -0.529549   -1.273917   -1.724376    ( 0.0000,  0.0000,  0.0000)
  17 P     -3.804359    1.698599    0.583463    ( 0.0000,  0.0000,  0.0000)
  18 P      1.251870    1.698623    2.054050    ( 0.0000,  0.0000,  0.0000)
  19 P      4.526680   -1.273894   -0.253789    ( 0.0000,  0.0000,  0.0000)
  20 O     -0.544227   -1.273926    1.365380    ( 0.0000,  0.0000,  0.0000)
  21 O     -3.789411    1.698610   -0.942222    ( 0.0000,  0.0000,  0.0000)
  22 O      1.266548    1.698631   -1.035707    ( 0.0000,  0.0000,  0.0000)
  23 O      4.511733   -1.273905    1.271895    ( 0.0000,  0.0000,  0.0000)
  24 Li    -4.695087   -2.760584   -2.142877    ( 0.0000,  0.0000,  0.0000)
  25 Li     0.361147   -2.760561    0.164836    ( 0.0000,  0.0000,  0.0000)
  26 Li    -4.695074    0.212330   -2.142877    ( 0.0000,  0.0000,  0.0000)
  27 Li     0.361161    0.212353    0.164837    ( 0.0000,  0.0000,  0.0000)

Unit cell:
           periodic     x           y           z      points  spacing
  1. axis:    yes   10.112485    0.000045   -0.000035    60     0.1685
  2. axis:    yes    0.000026    5.945827    0.000001    35     0.1699
  3. axis:    yes   -0.000016    0.000000    4.615463    27     0.1709

  Lengths:  10.112485   5.945827   4.615463
  Angles:   89.999989  90.000396  89.999490

Effective grid spacing dv^(1/3) = 0.1698

                     log10-error:           total        iterations:
           time      wfs    density  force  energy       poisson  magmom
iter:   1  12:02:37                       -221.367624             +0.0000
iter:   2  12:02:57  -0.61  -0.93         -234.810181             +0.0000
iter:   3  12:03:16  -0.37  -0.97         -225.905312             -0.0000
iter:   4  12:03:36  -1.39  -1.29         -225.760430             +0.0000
iter:   5  12:03:56  -1.27  -1.39         -227.311624             +0.0000
iter:   6  12:04:16  -1.47  -1.46         -225.735515             +0.0000
iter:   7  12:04:36  -2.46  -2.04         -225.720293             +0.0000
iter:   8  12:04:56  -2.03  -1.99         -225.635292             +0.0000
iter:   9  12:05:16  -2.40  -2.03         -225.426755             +0.0000
iter:  10  12:05:36  -3.30  -2.60         -225.418557             +0.0000
iter:  11  12:05:56  -3.79  -2.86         -225.410862             +0.0000
iter:  12  12:06:16  -4.21  -3.00         -225.409233             +0.0000
iter:  13  12:06:36  -5.01  -3.27         -225.409006             +0.0000
iter:  14  12:06:56  -4.99  -3.33         -225.409030             +0.0000
iter:  15  12:07:16  -6.05  -3.42         -225.408894             +0.0000
iter:  16  12:07:36  -4.97  -3.47         -225.409005             -0.0000
iter:  17  12:07:56  -6.45  -3.50         -225.409030             -0.0000
iter:  18  12:08:16  -5.54  -3.51         -225.408976             -0.0000
iter:  19  12:08:35  -5.75  -3.57         -225.408941             -0.0000
iter:  20  12:08:55  -6.90  -3.69         -225.408903             -0.0000
iter:  21  12:09:15  -6.25  -3.73         -225.408842             -0.0000
iter:  22  12:09:35  -7.02  -3.85         -225.408856             -0.0000
iter:  23  12:09:55  -6.59  -3.92         -225.408872             +0.0000
iter:  24  12:10:15  -6.11  -4.00         -225.408809             -0.0000
iter:  25  12:10:35  -7.23  -4.16         -225.408810             -0.0000
iter:  26  12:11:00  -7.47  -4.26         -225.408808             -0.0000
iter:  27  12:11:20  -6.49  -4.37         -225.408808             -0.0000
iter:  28  12:11:40  -7.30  -4.80         -225.408803             -0.0000
iter:  29  12:12:04  -8.28  -5.21    -2.08-225.408803             -0.0000
iter:  30  12:12:29  -8.38  -5.28    -3.23-225.408803             -0.0000
iter:  31  12:12:54  -7.95  -5.31    -2.95-225.408803             -0.0000
iter:  32  12:13:18  -9.08  -5.55    -3.39-225.408803             -0.0000
iter:  33  12:13:43  -8.96  -5.76    -3.85-225.408803             -0.0000
iter:  34  12:14:08  -8.78  -5.80    -3.74-225.408803             -0.0000
iter:  35  12:14:32  -9.39  -5.80    -3.65-225.408803             -0.0000
iter:  36  12:14:57 -10.28  -6.09    -4.71-225.408803             -0.0000
iter:  37  12:15:21 -10.01  -6.10    -3.89-225.408803             -0.0000
iter:  38  12:15:46 -10.71  -6.27    -4.32-225.408803             -0.0000
iter:  39  12:16:11 -10.58  -6.39    -3.95-225.408803             -0.0000
iter:  40  12:16:35 -10.80  -6.51    -4.14-225.408803             -0.0000
iter:  41  12:17:00 -11.02  -6.68    -4.52-225.408803             -0.0000
iter:  42  12:17:25 -12.13  -7.05    -5.15-225.408803             -0.0000
iter:  43  12:17:49 -12.94  -7.11    -5.30-225.408803             -0.0000
iter:  44  12:18:14 -12.53  -7.13    -4.81-225.408803             -0.0000
iter:  45  12:18:39 -12.87  -7.27    -5.31-225.408803             +0.0000
iter:  46  12:19:03 -12.69  -7.32    -5.57-225.408803             -0.0000
iter:  47  12:19:28 -13.55  -7.37    -5.69-225.408803             -0.0000
iter:  48  12:19:53 -12.95  -7.41    -5.33-225.408803             -0.0000
iter:  49  12:20:17 -13.99  -7.46    -5.71-225.408803             +0.0000
iter:  50  12:20:42 -13.84  -7.50    -5.66-225.408803             +0.0000
iter:  51  12:21:07 -14.31  -8.12    -5.98-225.408803             +0.0000
iter:  52  12:21:32 -15.33  -8.22    -6.70-225.408803             +0.0000

Converged after 52 iterations.

Dipole moment: (19.108611, -1.428211, -4.181891) |e|*Ang

Total magnetic moment: (0.000000, 0.000000, 0.000000)
Local magnetic moments:
   0 O  ( 0.000000,  0.000000,  0.000731)
   1 O  ( 0.000000,  0.000000, -0.000673)
   2 O  ( 0.000000,  0.000000, -0.000621)
   3 O  ( 0.000000,  0.000000,  0.000665)
   4 O  ( 0.000000,  0.000000, -0.000626)
   5 O  ( 0.000000,  0.000000,  0.000669)
   6 O  ( 0.000000,  0.000000,  0.000727)
   7 O  ( 0.000000,  0.000000, -0.000669)
   8 O  ( 0.000000,  0.000000,  0.022422)
   9 O  ( 0.000000,  0.000000, -0.022409)
  10 O  ( 0.000000,  0.000000, -0.022322)
  11 O  ( 0.000000,  0.000000,  0.022597)
  12 Mn ( 0.000000,  0.000000,  4.575068)
  13 Mn ( 0.000000,  0.000000, -4.575033)
  14 Mn ( 0.000000,  0.000000, -4.575044)
  15 Mn ( 0.000000,  0.000000,  4.574145)
  16 P  ( 0.000000,  0.000000,  0.000943)
  17 P  ( 0.000000,  0.000000, -0.000825)
  18 P  ( 0.000000,  0.000000, -0.000784)
  19 P  ( 0.000000,  0.000000,  0.000823)
  20 O  ( 0.000000,  0.000000,  0.020675)
  21 O  ( 0.000000,  0.000000, -0.020703)
  22 O  ( 0.000000,  0.000000, -0.020701)
  23 O  ( 0.000000,  0.000000,  0.020583)
  24 Li ( 0.000000,  0.000000, -0.000000)
  25 Li ( 0.000000,  0.000000,  0.000026)
  26 Li ( 0.000000,  0.000000, -0.000000)
  27 Li ( 0.000000,  0.000000,  0.000026)

Energy contributions relative to reference atoms: (reference = -196157.275402)

Kinetic:       +296.223146
Potential:     -255.902177
External:        +0.000000
XC:            -267.511668
Entropy (-ST):   -0.000000
Local:           +1.781897
--------------------------
Free energy:   -225.408803
Extrapolated:  -225.408803

Spin contamination: 9.697114 electrons
Showing only first 2 kpts
                      Up                     Down
 Kpt  Band  Eigenvalues  Occupancy  Eigenvalues  Occupancy
  0    88      5.11484    0.00694      5.10669    0.00694
  0    89      5.18016    0.00694      5.16123    0.00694
  0    90      9.65197    0.00000      9.64619    0.00000
  0    91      9.66779    0.00000      9.68577    0.00000

  1    88      5.12660    0.00694      5.11821    0.00694
  1    89      5.19038    0.00694      5.17060    0.00694
  1    90      9.53315    0.00000      9.52677    0.00000
  1    91      9.54354    0.00000      9.56197    0.00000


Fermi level: 6.37355

Gap: 3.779 eV
Transition (v -> c):
  (s=0, k=72, n=89, [0.08, -0.42, -0.38]) -> (s=0, k=85, n=90, [0.08, 0.08, -0.12])
Writing to born-0.01-11x+.gpw (mode='all')

Timing:                              incl.     excl.
-----------------------------------------------------------
Hamiltonian:                         0.213     0.002   0.0% |
 Atomic:                             0.053     0.053   0.0% |
  XC Correction:                     0.000     0.000   0.0% |
 Calculate atomic Hamiltonians:      0.072     0.072   0.0% |
 Communicate:                        0.002     0.002   0.0% |
 Initialize Hamiltonian:             0.000     0.000   0.0% |
 Poisson:                            0.001     0.001   0.0% |
 XC 3D grid:                         0.084     0.084   0.0% |
LCAO initialization:                69.099     0.648   0.0% |
 LCAO eigensolver:                  19.275     0.002   0.0% |
  Calculate projections:             0.029     0.029   0.0% |
  DenseAtomicCorrection:             0.045     0.045   0.0% |
  Distribute overlap matrix:         0.009     0.009   0.0% |
  Orbital Layouts:                   0.433     0.433   0.0% |
  Potential matrix:                 18.671    18.671   0.6% |
  Sum over cells:                    0.087     0.087   0.0% |
 LCAO to grid:                      47.862    47.862   1.6% ||
 Set positions (LCAO WFS):           1.314     0.192   0.0% |
  Basic WFS set positions:           0.001     0.001   0.0% |
  Basis functions set positions:     0.000     0.000   0.0% |
  P tci:                             0.522     0.522   0.0% |
  ST tci:                            0.384     0.384   0.0% |
  mktci:                             0.215     0.215   0.0% |
PWDescriptor:                        0.023     0.023   0.0% |
SCF-cycle:                        1155.999     0.353   0.0% |
 Davidson:                         985.637   301.054   9.8% |---|
  Apply H:                          68.085    66.177   2.2% ||
   HMM T:                            1.908     1.908   0.1% |
  Subspace diag:                   142.859     0.144   0.0% |
   calc_h_matrix:                   92.074    23.701   0.8% |
    Apply H:                        68.373    66.406   2.2% ||
     HMM T:                          1.967     1.967   0.1% |
   diagonalize:                      7.036     7.036   0.2% |
   rotate_psi:                      43.605    43.605   1.4% ||
  calc. matrices:                  296.780   161.315   5.3% |-|
   Apply H:                        135.465   131.745   4.3% |-|
    HMM T:                           3.719     3.719   0.1% |
  diagonalize:                      82.240    82.240   2.7% ||
  rotate_psi:                       94.620    94.620   3.1% ||
 Density:                           38.772     0.001   0.0% |
  Atomic density matrices:           0.829     0.829   0.0% |
  Mix:                               5.504     5.504   0.2% |
  Multipole moments:                 0.018     0.018   0.0% |
  Pseudo density:                   32.420    32.418   1.1% |
   Symmetrize density:               0.001     0.001   0.0% |
 Forces:                           117.939   117.939   3.8% |-|
 Hamiltonian:                       11.210     0.106   0.0% |
  Atomic:                            2.767     2.766   0.1% |
   XC Correction:                    0.000     0.000   0.0% |
  Calculate atomic Hamiltonians:     3.848     3.848   0.1% |
  Communicate:                       0.099     0.099   0.0% |
  Poisson:                           0.030     0.030   0.0% |
  XC 3D grid:                        4.359     4.359   0.1% |
 Orthonormalize:                     2.088     0.003   0.0% |
  calc_s_matrix:                     0.244     0.244   0.0% |
  inverse-cholesky:                  0.072     0.072   0.0% |
  projections:                       1.335     1.335   0.0% |
  rotate_psi_s:                      0.433     0.433   0.0% |
Set symmetry:                        0.000     0.000   0.0% |
Other:                            1844.275  1844.275  60.1% |-----------------------|
-----------------------------------------------------------
Total:                                      3069.609 100.0%

Memory usage: 11.81 GiB
Date: Tue Mar 23 12:52:15 2021
