
  ___ ___ ___ _ _ _  
 |   |   |_  | | | | 
 | | | | | . | | | | 
 |__ |  _|___|_____|  20.10.1b1
 |___|_|             

User:   madkru@g035.nifl.fysik.dtu.dk
Date:   Sun Mar 21 09:27:10 2021
Arch:   x86_64
Pid:    44316
Python: 3.7.4
gpaw:   /home/niflheim/madkru/venv_folder/gpaw/gpaw (d0d1ca1c71)
_gpaw:  /home/niflheim/madkru/venv_folder/gpaw/build/lib.linux-x86_64-sandybridge-3.7/
        _gpaw.cpython-37m-x86_64-linux-gnu.so (4fd39e8b1e)
ase:    /home/niflheim/madkru/venv_folder/ase/ase (version 3.21.0b1-7e6c206a91)
numpy:  /home/niflheim/madkru/venv_folder/lib/python3.7/site-packages/numpy (version 1.19.4)
scipy:  /home/niflheim/madkru/venv_folder/lib/python3.7/site-packages/scipy (version 1.5.4)
libxc:  4.3.4
units:  Angstrom and eV
cores: 32
OMP_NUM_THREADS: 1

Input parameters:
  convergence: {bands: occupied,
                density: 0.0001,
                eigenstates: 4e-08,
                energy: 0.0005,
                forces: 1e-06}
  kpts: [6 6 4]
  mode: {ecut: 600.0,
         gammacentered: False,
         name: pw}
  occupations: {fixmagmom: False,
                name: fermi-dirac,
                width: 0.001}
  setups: {Mn: :d,3.0}
  symmetry: {point_group: False,
             time_reversal: False}

System changes: positions, numbers, cell, pbc, initial_charges, initial_magmoms 

Initialize ...

O-setup:
  name: Oxygen
  id: 9b9d51c344dea68c822856295a461509
  Z: 8.0
  valence: 6
  core: 2
  charge: 0.0
  file: /home/modules/software/GPAW-setups/0.9.20000/O.LDA.gz
  compensation charges: gauss, rc=0.21, lmax=2
  cutoffs: 1.17(filt), 0.83(core),
  valence states:
                energy  radius
    2s(2.00)   -23.752   0.688
    2p(4.00)    -9.195   0.598
    *s           3.459   0.688
    *p          18.016   0.598
    *d           0.000   0.619

  Using partial waves for O as LCAO basis

Mn-setup:
  name: Manganese
  id: 0d715a8018be061a6e9ea6f2d364ac92
  Z: 25.0
  valence: 15
  core: 10
  charge: 0.0
  Hubbard U: 3.000000 eV (l=2, scale=True)
  file: /home/modules/software/GPAW-setups/0.9.20000/Mn.LDA.gz
  compensation charges: gauss, rc=0.38, lmax=2
  cutoffs: 2.14(filt), 0.86(core),
  valence states:
                energy  radius
    3s(2.00)   -85.387   1.275
    4s(2.00)    -5.282   1.275
    3p(6.00)   -54.493   1.281
    4p(0.00)    -1.471   1.281
    3d(5.00)    -7.009   1.138
    *d          20.203   1.138

  Using partial waves for Mn as LCAO basis

P-setup:
  name: Phosphorus
  id: a5561c299094968922a179ab894d2e2d
  Z: 15.0
  valence: 5
  core: 10
  charge: 0.0
  file: /home/modules/software/GPAW-setups/0.9.20000/P.LDA.gz
  compensation charges: gauss, rc=0.30, lmax=2
  cutoffs: 1.69(filt), 1.81(core),
  valence states:
                energy  radius
    3s(2.00)   -14.015   0.953
    3p(3.00)    -5.596   0.953
    *s          13.197   0.953
    *p          21.615   0.953
    *d           0.000   0.953

  Using partial waves for P as LCAO basis

Li-setup:
  name: Lithium
  id: b73562207f97a71b6967473b66fe8b65
  Z: 3.0
  valence: 1
  core: 2
  charge: 0.0
  file: /home/modules/software/GPAW-setups/0.9.20000/Li.LDA.gz
  compensation charges: gauss, rc=0.33, lmax=2
  cutoffs: 1.91(filt), 2.55(core),
  valence states:
                energy  radius
    2s(1.00)    -2.874   1.058
    2p(0.00)    -1.126   1.058
    *s          24.338   1.058

  Using partial waves for Li as LCAO basis

Reference energy: -196157.275402

Spin-polarized calculation.
Magnetic moment: 0.000000

Convergence criteria:
  Maximum total energy change: 0.0005 eV / electron
  Maximum integral of absolute density change: 0.0001 electrons
  Maximum integral of absolute eigenstate change: 4e-08 eV^2
  Maximum change in atomic force: 1e-06 eV / Ang
  Maximum number of iterations: 333

Symmetries present (total): 1

  ( 1  0  0)
  ( 0  1  0)
  ( 0  0  1)

144 k-points: 6 x 6 x 4 Monkhorst-Pack grid
144 k-points in the irreducible part of the Brillouin zone
       k-points in crystal coordinates                weights
   0:    -0.41666667   -0.41666667   -0.37500000          1/144
   1:    -0.41666667   -0.41666667   -0.12500000          1/144
   2:    -0.41666667   -0.41666667    0.12500000          1/144
   3:    -0.41666667   -0.41666667    0.37500000          1/144
   4:    -0.41666667   -0.25000000   -0.37500000          1/144
   5:    -0.41666667   -0.25000000   -0.12500000          1/144
   6:    -0.41666667   -0.25000000    0.12500000          1/144
   7:    -0.41666667   -0.25000000    0.37500000          1/144
   8:    -0.41666667   -0.08333333   -0.37500000          1/144
   9:    -0.41666667   -0.08333333   -0.12500000          1/144
          ...
 143:     0.41666667    0.41666667    0.37500000          1/144

Wave functions: Plane wave expansion
  Cutoff energy: 600.000 eV
  Number of coefficients (min, max): 9238, 9284
  Pulay-stress correction: 0.000000 eV/Ang^3 (de/decut=0.000000)
  Using FFTW library
  ScaLapack parameters: grid=1x1, blocksize=None
  Wavefunction extrapolation:
    Improved wavefunction reuse through dual PAW basis 

  Fermi-Dirac: width=0.0010 eV

Eigensolver
   Davidson(niter=2, smin=None, normalize=True) 

Densities:
  Coarse grid: 60*35*27 grid
  Fine grid: 120*70*54 grid
  Total Charge: 0.000000 

Density mixing:
  Method: difference
  Backend: pulay
  Linear mixing parameter: 0.05
  Mixing with 5 old densities
  Damping of long wave oscillations: 50 

Hamiltonian:
  XC and Coulomb potentials evaluated on a 120*70*54 grid
  Using the LDA Exchange-Correlation functional
 

Memory estimate:
  Process memory now: 12341.89 MiB
  Calculator: 346.50 MiB
    Density: 19.24 MiB
      Arrays: 7.57 MiB
      Localized functions: 8.64 MiB
      Mixer: 3.03 MiB
    Hamiltonian: 5.87 MiB
      Arrays: 5.62 MiB
      XC: 0.00 MiB
      Poisson: 0.00 MiB
      vbar: 0.25 MiB
    Wavefunctions: 321.38 MiB
      Arrays psit_nG: 285.59 MiB
      Eigensolver: 18.49 MiB
      Projections: 5.41 MiB
      Projectors: 8.92 MiB
      PW-descriptor: 2.96 MiB

Total number of cores used: 32
Parallelization over k-points: 16
Domain decomposition: 2 x 1 x 1

Number of atoms: 28
Number of atomic orbitals: 148
Number of bands in calculation: 112
Number of valence electrons: 180
Bands to converge: occupied

... initialized

Initializing position-dependent things.

Density initialized from atomic densities
Creating initial wave functions:
  112 bands from LCAO basis set

                                           
                                           
                                           
                                           
                                           
               O     O  P  O               
            PO           OMn     O         
                  O          MO            
            O        Li O                  
             Mn  On          OP            
         O         Li O                    
         Li     O P         O              
       Li                                  
                                           
                                           
                                           
                                           

Positions:
   0 O     -1.263197   -2.497779   -1.098475    ( 0.0000,  0.0000,  0.0000)
   1 O     -3.060823    2.922496    1.209491    ( 0.0000,  0.0000,  0.0000)
   2 O      1.985541    0.474863    1.428016    ( 0.0000,  0.0000,  0.0000)
   3 O      3.793120   -0.050100   -0.879950    ( 0.0000,  0.0000,  0.0000)
   4 O      1.985518    2.922485    1.428149    ( 0.0000,  0.0000,  0.0000)
   5 O      3.793144   -2.497790   -0.879818    ( 0.0000,  0.0000,  0.0000)
   6 O     -1.263220   -0.050157   -1.098342    ( 0.0000,  0.0000,  0.0000)
   7 O     -3.070798    0.474805    1.209623    ( 0.0000,  0.0000,  0.0000)
   8 O     -4.167835   -1.273920   -0.862116    ( 0.0000,  0.0000,  0.0000)
   9 O     -0.166037    1.698602    1.445528    ( 0.0000,  0.0000,  0.0000)
  10 O      4.890156    1.698625    1.191790    ( 0.0000,  0.0000,  0.0000)
  11 O      0.888358   -1.273896   -1.115855    ( 0.0000,  0.0000,  0.0000)
  12 Mn    -2.445557   -1.274211    0.312921    ( 0.0000,  0.0000,  1.0000)
  13 Mn    -1.888303    1.698892   -1.994948    ( 0.0000,  0.0000, -1.0000)
  14 Mn     3.167879    1.698917    0.016752    ( 0.0000,  0.0000, -1.0000)
  15 Mn     2.610624   -1.274187    2.324621    ( 0.0000,  0.0000,  1.0000)
  16 P     -0.529549   -1.273917   -1.724376    ( 0.0000,  0.0000,  0.0000)
  17 P     -3.804359    1.698599    0.583463    ( 0.0000,  0.0000,  0.0000)
  18 P      1.251870    1.698623    2.054050    ( 0.0000,  0.0000,  0.0000)
  19 P      4.526680   -1.273894   -0.253789    ( 0.0000,  0.0000,  0.0000)
  20 O     -0.544227   -1.273926    1.365380    ( 0.0000,  0.0000,  0.0000)
  21 O     -3.789411    1.698610   -0.942222    ( 0.0000,  0.0000,  0.0000)
  22 O      1.266548    1.698631   -1.035707    ( 0.0000,  0.0000,  0.0000)
  23 O      4.511733   -1.273905    1.271895    ( 0.0000,  0.0000,  0.0000)
  24 Li    -4.695087   -2.760584   -2.142877    ( 0.0000,  0.0000,  0.0000)
  25 Li     0.361147   -2.760561    0.164836    ( 0.0000,  0.0000,  0.0000)
  26 Li    -4.695074    0.212330   -2.142877    ( 0.0000,  0.0000,  0.0000)
  27 Li     0.361161    0.212353    0.164837    ( 0.0000,  0.0000,  0.0000)

Unit cell:
           periodic     x           y           z      points  spacing
  1. axis:    yes   10.112485    0.000045   -0.000035    60     0.1685
  2. axis:    yes    0.000026    5.945827    0.000001    35     0.1699
  3. axis:    yes   -0.000016    0.000000    4.615463    27     0.1709

  Lengths:  10.112485   5.945827   4.615463
  Angles:   89.999989  90.000396  89.999490

Effective grid spacing dv^(1/3) = 0.1698

                     log10-error:           total        iterations:
           time      wfs    density  force  energy       poisson  magmom
iter:   1  09:30:20                       -221.372036             +0.0000
iter:   2  09:30:57  -0.61  -0.93         -234.815087             +0.0000
iter:   3  09:31:34  -0.37  -0.97         -225.905536             -0.0000
iter:   4  09:32:11  -1.39  -1.29         -225.761056             +0.0000
iter:   5  09:32:48  -1.27  -1.39         -227.318431             +0.0000
iter:   6  09:33:26  -1.47  -1.46         -225.736713             +0.0000
iter:   7  09:34:03  -2.48  -2.04         -225.723183             +0.0000
iter:   8  09:34:40  -2.13  -1.99         -225.600315             +0.0000
iter:   9  09:35:17  -2.44  -2.08         -225.431379             +0.0000
iter:  10  09:35:54  -3.32  -2.55         -225.421959             +0.0000
iter:  11  09:36:31  -3.68  -2.81         -225.411721             +0.0000
iter:  12  09:37:08  -4.12  -3.03         -225.410498             +0.0000
iter:  13  09:37:46  -5.08  -3.29         -225.410347             -0.0000
iter:  14  09:38:23  -5.39  -3.32         -225.410186             -0.0000
iter:  15  09:39:00  -6.08  -3.43         -225.410187             -0.0000
iter:  16  09:39:37  -5.38  -3.47         -225.410419             +0.0000
iter:  17  09:40:14  -5.77  -3.62         -225.410349             -0.0000
iter:  18  09:40:51  -5.59  -3.77         -225.410142             +0.0000
iter:  19  09:41:29  -6.08  -3.92         -225.410137             +0.0000
iter:  20  09:42:06  -6.79  -4.06         -225.410119             -0.0000
iter:  21  09:42:43  -7.07  -4.19         -225.410135             +0.0000
iter:  22  09:43:20  -7.15  -4.30         -225.410136             +0.0000
iter:  23  09:44:07  -7.88  -4.28         -225.410133             +0.0000
iter:  24  09:44:54  -7.71  -4.30    -2.48-225.410135             +0.0000
iter:  25  09:45:41  -7.45  -4.62    -2.76-225.410133             +0.0000
iter:  26  09:46:28  -8.04  -4.80    -3.16-225.410133             +0.0000
iter:  27  09:47:14  -8.69  -4.85    -3.05-225.410133             +0.0000
iter:  28  09:48:01  -8.39  -4.91    -2.69-225.410133             +0.0000
iter:  29  09:48:48  -9.02  -5.13    -3.23-225.410133             +0.0000
iter:  30  09:49:35  -8.65  -5.24    -3.29-225.410133             +0.0000
iter:  31  09:50:22  -9.48  -5.51    -3.38-225.410133             +0.0000
iter:  32  09:51:09  -9.60  -5.74    -3.61-225.410133             +0.0000
iter:  33  09:51:56 -11.13  -6.06    -4.63-225.410133             +0.0000
iter:  34  09:52:43  -9.95  -6.12    -4.10-225.410133             +0.0000
iter:  35  09:53:30 -10.56  -6.24    -4.18-225.410133             +0.0000
iter:  36  09:54:17 -11.34  -6.28    -4.64-225.410133             -0.0000
iter:  37  09:55:04 -11.54  -6.35    -4.36-225.410133             +0.0000
iter:  38  09:55:51 -11.05  -6.43    -4.23-225.410133             +0.0000
iter:  39  09:56:38 -11.72  -6.59    -4.51-225.410133             +0.0000
iter:  40  09:57:25 -11.92  -6.63    -4.86-225.410133             +0.0000
iter:  41  09:58:11 -12.03  -6.69    -4.83-225.410133             +0.0000
iter:  42  09:58:58 -12.29  -6.69    -4.80-225.410133             +0.0000
iter:  43  09:59:45 -11.85  -6.72    -5.02-225.410133             +0.0000
iter:  44  10:00:32 -11.71  -6.80    -4.53-225.410133             +0.0000
iter:  45  10:01:19 -12.68  -6.92    -5.61-225.410133             +0.0000
iter:  46  10:02:06 -12.08  -6.95    -5.04-225.410133             +0.0000
iter:  47  10:02:53 -12.47  -7.01    -5.09-225.410133             +0.0000
iter:  48  10:03:40 -12.01  -7.05    -4.73-225.410133             +0.0000
iter:  49  10:04:27 -13.01  -7.17    -5.16-225.410133             +0.0000
iter:  50  10:05:14 -13.69  -7.26    -5.72-225.410133             +0.0000
iter:  51  10:06:01 -12.33  -7.29    -5.11-225.410133             +0.0000
iter:  52  10:06:48 -13.38  -7.62    -5.61-225.410133             +0.0000
iter:  53  10:07:35 -14.49  -7.80    -6.51-225.410133             +0.0000

Converged after 53 iterations.

Dipole moment: (19.048035, -1.428674, -4.183665) |e|*Ang

Total magnetic moment: (0.000000, 0.000000, 0.000000)
Local magnetic moments:
   0 O  ( 0.000000,  0.000000,  0.000676)
   1 O  ( 0.000000,  0.000000, -0.000701)
   2 O  ( 0.000000,  0.000000, -0.000673)
   3 O  ( 0.000000,  0.000000,  0.000658)
   4 O  ( 0.000000,  0.000000, -0.000677)
   5 O  ( 0.000000,  0.000000,  0.000660)
   6 O  ( 0.000000,  0.000000,  0.000698)
   7 O  ( 0.000000,  0.000000, -0.000688)
   8 O  ( 0.000000,  0.000000,  0.022348)
   9 O  ( 0.000000,  0.000000, -0.022381)
  10 O  ( 0.000000,  0.000000, -0.022277)
  11 O  ( 0.000000,  0.000000,  0.022405)
  12 Mn ( 0.000000,  0.000000,  4.574548)
  13 Mn ( 0.000000,  0.000000, -4.574646)
  14 Mn ( 0.000000,  0.000000, -4.575063)
  15 Mn ( 0.000000,  0.000000,  4.575027)
  16 P  ( 0.000000,  0.000000,  0.000802)
  17 P  ( 0.000000,  0.000000, -0.000834)
  18 P  ( 0.000000,  0.000000, -0.000818)
  19 P  ( 0.000000,  0.000000,  0.000825)
  20 O  ( 0.000000,  0.000000,  0.020751)
  21 O  ( 0.000000,  0.000000, -0.020692)
  22 O  ( 0.000000,  0.000000, -0.020738)
  23 O  ( 0.000000,  0.000000,  0.020692)
  24 Li ( 0.000000,  0.000000, -0.000005)
  25 Li ( 0.000000,  0.000000,  0.000000)
  26 Li ( 0.000000,  0.000000,  0.000004)
  27 Li ( 0.000000,  0.000000, -0.000001)

Energy contributions relative to reference atoms: (reference = -196157.275402)

Kinetic:       +296.582212
Potential:     -256.187630
External:        +0.000000
XC:            -267.585762
Entropy (-ST):   -0.000000
Local:           +1.781047
--------------------------
Free energy:   -225.410133
Extrapolated:  -225.410133

Spin contamination: 9.696714 electrons
Showing only first 2 kpts
                      Up                     Down
 Kpt  Band  Eigenvalues  Occupancy  Eigenvalues  Occupancy
  0    88      5.11262    0.00694      5.10949    0.00694
  0    89      5.16529    0.00694      5.16295    0.00694
  0    90      9.64957    0.00000      9.65667    0.00000
  0    91      9.67816    0.00000      9.67194    0.00000

  1    88      5.12417    0.00694      5.12133    0.00694
  1    89      5.17465    0.00694      5.17199    0.00694
  1    90      9.53049    0.00000      9.53914    0.00000
  1    91      9.55678    0.00000      9.54597    0.00000


Fermi level: 6.37050

Gap: 3.792 eV
Transition (v -> c):
  (s=0, k=68, n=89, [-0.08, 0.42, -0.38]) -> (s=1, k=58, n=90, [-0.08, -0.08, 0.12])
Writing to born-0.01-1x+.gpw (mode='all')

Timing:                              incl.     excl.
-----------------------------------------------------------
Hamiltonian:                         0.427     0.002   0.0% |
 Atomic:                             0.086     0.086   0.0% |
  XC Correction:                     0.000     0.000   0.0% |
 Calculate atomic Hamiltonians:      0.162     0.162   0.0% |
 Communicate:                        0.001     0.001   0.0% |
 Initialize Hamiltonian:             0.000     0.000   0.0% |
 Poisson:                            0.001     0.001   0.0% |
 XC 3D grid:                         0.173     0.173   0.0% |
LCAO initialization:               144.705     0.678   0.0% |
 LCAO eigensolver:                  40.215     0.002   0.0% |
  Calculate projections:             0.056     0.056   0.0% |
  DenseAtomicCorrection:             0.083     0.083   0.0% |
  Distribute overlap matrix:         0.077     0.077   0.0% |
  Orbital Layouts:                   0.362     0.362   0.0% |
  Potential matrix:                 39.543    39.543   0.7% |
  Sum over cells:                    0.091     0.091   0.0% |
 LCAO to grid:                     101.410   101.410   1.9% ||
 Set positions (LCAO WFS):           2.402     0.369   0.0% |
  Basic WFS set positions:           0.001     0.001   0.0% |
  Basis functions set positions:     0.000     0.000   0.0% |
  P tci:                             1.078     1.078   0.0% |
  ST tci:                            0.709     0.709   0.0% |
  mktci:                             0.244     0.244   0.0% |
PWDescriptor:                        0.025     0.025   0.0% |
SCF-cycle:                        2277.727    10.715   0.2% |
 Davidson:                        1861.774   594.170  11.1% |---|
  Apply H:                         135.883   131.452   2.5% ||
   HMM T:                            4.432     4.432   0.1% |
  Subspace diag:                   276.662     0.161   0.0% |
   calc_h_matrix:                  181.677    48.136   0.9% |
    Apply H:                       133.541   129.319   2.4% ||
     HMM T:                          4.222     4.222   0.1% |
   diagonalize:                      6.429     6.429   0.1% |
   rotate_psi:                      88.395    88.395   1.7% ||
  calc. matrices:                  586.896   322.137   6.0% |-|
   Apply H:                        264.759   256.666   4.8% |-|
    HMM T:                           8.093     8.093   0.2% |
  diagonalize:                      88.258    88.258   1.7% ||
  rotate_psi:                      179.904   179.904   3.4% ||
 Density:                           78.024     0.001   0.0% |
  Atomic density matrices:           1.364     1.364   0.0% |
  Mix:                              11.982    11.982   0.2% |
  Multipole moments:                 0.030     0.030   0.0% |
  Pseudo density:                   64.647    64.645   1.2% |
   Symmetrize density:               0.001     0.001   0.0% |
 Forces:                           301.619   301.619   5.6% |-|
 Hamiltonian:                       21.531     0.141   0.0% |
  Atomic:                            3.066     3.065   0.1% |
   XC Correction:                    0.000     0.000   0.0% |
  Calculate atomic Hamiltonians:     8.843     8.843   0.2% |
  Communicate:                       0.098     0.098   0.0% |
  Poisson:                           0.071     0.071   0.0% |
  XC 3D grid:                        9.312     9.312   0.2% |
 Orthonormalize:                     4.064     0.003   0.0% |
  calc_s_matrix:                     0.485     0.485   0.0% |
  inverse-cholesky:                  0.055     0.055   0.0% |
  projections:                       2.660     2.660   0.0% |
  rotate_psi_s:                      0.861     0.861   0.0% |
Set symmetry:                        0.000     0.000   0.0% |
Other:                            2924.890  2924.890  54.7% |---------------------|
-----------------------------------------------------------
Total:                                      5347.774 100.0%

Memory usage: 12.06 GiB
Date: Sun Mar 21 10:56:18 2021
