
  ___ ___ ___ _ _ _  
 |   |   |_  | | | | 
 | | | | | . | | | | 
 |__ |  _|___|_____|  20.10.1b1
 |___|_|             

User:   madkru@i018.nifl.fysik.dtu.dk
Date:   Thu Mar 25 01:46:29 2021
Arch:   x86_64
Pid:    26873
Python: 3.7.4
gpaw:   /home/niflheim/madkru/venv_folder/gpaw/gpaw (d224efde0f)
_gpaw:  /home/niflheim/madkru/venv_folder/gpaw/build/lib.linux-x86_64-ivybridge-3.7/
        _gpaw.cpython-37m-x86_64-linux-gnu.so (4fd39e8b1e)
ase:    /home/niflheim/madkru/venv_folder/ase/ase (version 3.21.0b1-4d5a73cb29)
numpy:  /home/niflheim/madkru/venv_folder/lib/python3.7/site-packages/numpy (version 1.19.4)
scipy:  /home/niflheim/madkru/venv_folder/lib/python3.7/site-packages/scipy (version 1.5.4)
libxc:  4.3.4
units:  Angstrom and eV
cores: 64
OMP_NUM_THREADS: 1

Input parameters:
  convergence: {bands: occupied,
                density: 0.0001,
                eigenstates: 4e-08,
                energy: 0.0005,
                forces: 1e-06}
  kpts: [6 6 4]
  mode: {ecut: 600.0,
         gammacentered: False,
         name: pw}
  occupations: {fixmagmom: False,
                name: fermi-dirac,
                width: 0.001}
  setups: {Mn: :d,3.0}
  symmetry: {point_group: False,
             time_reversal: False}

System changes: positions, numbers, cell, pbc, initial_charges, initial_magmoms 

Initialize ...

O-setup:
  name: Oxygen
  id: 9b9d51c344dea68c822856295a461509
  Z: 8.0
  valence: 6
  core: 2
  charge: 0.0
  file: /home/modules/software/GPAW-setups/0.9.20000/O.LDA.gz
  compensation charges: gauss, rc=0.21, lmax=2
  cutoffs: 1.17(filt), 0.83(core),
  valence states:
                energy  radius
    2s(2.00)   -23.752   0.688
    2p(4.00)    -9.195   0.598
    *s           3.459   0.688
    *p          18.016   0.598
    *d           0.000   0.619

  Using partial waves for O as LCAO basis

Mn-setup:
  name: Manganese
  id: 0d715a8018be061a6e9ea6f2d364ac92
  Z: 25.0
  valence: 15
  core: 10
  charge: 0.0
  Hubbard U: 3.000000 eV (l=2, scale=True)
  file: /home/modules/software/GPAW-setups/0.9.20000/Mn.LDA.gz
  compensation charges: gauss, rc=0.38, lmax=2
  cutoffs: 2.14(filt), 0.86(core),
  valence states:
                energy  radius
    3s(2.00)   -85.387   1.275
    4s(2.00)    -5.282   1.275
    3p(6.00)   -54.493   1.281
    4p(0.00)    -1.471   1.281
    3d(5.00)    -7.009   1.138
    *d          20.203   1.138

  Using partial waves for Mn as LCAO basis

P-setup:
  name: Phosphorus
  id: a5561c299094968922a179ab894d2e2d
  Z: 15.0
  valence: 5
  core: 10
  charge: 0.0
  file: /home/modules/software/GPAW-setups/0.9.20000/P.LDA.gz
  compensation charges: gauss, rc=0.30, lmax=2
  cutoffs: 1.69(filt), 1.81(core),
  valence states:
                energy  radius
    3s(2.00)   -14.015   0.953
    3p(3.00)    -5.596   0.953
    *s          13.197   0.953
    *p          21.615   0.953
    *d           0.000   0.953

  Using partial waves for P as LCAO basis

Li-setup:
  name: Lithium
  id: b73562207f97a71b6967473b66fe8b65
  Z: 3.0
  valence: 1
  core: 2
  charge: 0.0
  file: /home/modules/software/GPAW-setups/0.9.20000/Li.LDA.gz
  compensation charges: gauss, rc=0.33, lmax=2
  cutoffs: 1.91(filt), 2.55(core),
  valence states:
                energy  radius
    2s(1.00)    -2.874   1.058
    2p(0.00)    -1.126   1.058
    *s          24.338   1.058

  Using partial waves for Li as LCAO basis

Reference energy: -196157.275402

Spin-polarized calculation.
Magnetic moment: 0.000000

Convergence criteria:
  Maximum total energy change: 0.0005 eV / electron
  Maximum integral of absolute density change: 0.0001 electrons
  Maximum integral of absolute eigenstate change: 4e-08 eV^2
  Maximum change in atomic force: 1e-06 eV / Ang
  Maximum number of iterations: 333

Symmetries present (total): 1

  ( 1  0  0)
  ( 0  1  0)
  ( 0  0  1)

144 k-points: 6 x 6 x 4 Monkhorst-Pack grid
144 k-points in the irreducible part of the Brillouin zone
       k-points in crystal coordinates                weights
   0:    -0.41666667   -0.41666667   -0.37500000          1/144
   1:    -0.41666667   -0.41666667   -0.12500000          1/144
   2:    -0.41666667   -0.41666667    0.12500000          1/144
   3:    -0.41666667   -0.41666667    0.37500000          1/144
   4:    -0.41666667   -0.25000000   -0.37500000          1/144
   5:    -0.41666667   -0.25000000   -0.12500000          1/144
   6:    -0.41666667   -0.25000000    0.12500000          1/144
   7:    -0.41666667   -0.25000000    0.37500000          1/144
   8:    -0.41666667   -0.08333333   -0.37500000          1/144
   9:    -0.41666667   -0.08333333   -0.12500000          1/144
          ...
 143:     0.41666667    0.41666667    0.37500000          1/144

Wave functions: Plane wave expansion
  Cutoff energy: 600.000 eV
  Number of coefficients (min, max): 9238, 9284
  Pulay-stress correction: 0.000000 eV/Ang^3 (de/decut=0.000000)
  Using FFTW library
  ScaLapack parameters: grid=1x1, blocksize=None
  Wavefunction extrapolation:
    Improved wavefunction reuse through dual PAW basis 

  Fermi-Dirac: width=0.0010 eV

Eigensolver
   Davidson(niter=2, smin=None, normalize=True) 

Densities:
  Coarse grid: 60*35*27 grid
  Fine grid: 120*70*54 grid
  Total Charge: 0.000000 

Density mixing:
  Method: difference
  Backend: pulay
  Linear mixing parameter: 0.05
  Mixing with 5 old densities
  Damping of long wave oscillations: 50 

Hamiltonian:
  XC and Coulomb potentials evaluated on a 120*70*54 grid
  Using the LDA Exchange-Correlation functional
 

Memory estimate:
  Process memory now: 13804.02 MiB
  Calculator: 326.59 MiB
    Density: 9.67 MiB
      Arrays: 3.79 MiB
      Localized functions: 4.32 MiB
      Mixer: 1.56 MiB
    Hamiltonian: 2.94 MiB
      Arrays: 2.82 MiB
      XC: 0.00 MiB
      Poisson: 0.00 MiB
      vbar: 0.12 MiB
    Wavefunctions: 313.97 MiB
      Arrays psit_nG: 285.59 MiB
      Eigensolver: 18.49 MiB
      Projections: 2.71 MiB
      Projectors: 4.46 MiB
      PW-descriptor: 2.72 MiB

Total number of cores used: 64
Parallelization over k-points: 16
Domain decomposition: 2 x 2 x 1

Number of atoms: 28
Number of atomic orbitals: 148
Number of bands in calculation: 112
Number of valence electrons: 180
Bands to converge: occupied

... initialized

Initializing position-dependent things.

Density initialized from atomic densities
Creating initial wave functions:
  112 bands from LCAO basis set

                                           
                                           
                                           
                                           
                                           
               O     O  P  O               
            PO           OMn     O         
                  O          MO            
            O        Li O                  
             Mn  On          OP            
         O         Li O                    
         Li     O P         O              
       Li                                  
                                           
                                           
                                           
                                           

Positions:
   0 O     -1.263197   -2.497779   -1.098475    ( 0.0000,  0.0000,  0.0000)
   1 O     -3.070823    2.922496    1.209491    ( 0.0000,  0.0000,  0.0000)
   2 O      1.985541    0.474863    1.428016    ( 0.0000,  0.0000,  0.0000)
   3 O      3.793120   -0.050100   -0.879950    ( 0.0000,  0.0000,  0.0000)
   4 O      1.985518    2.922485    1.428149    ( 0.0000,  0.0000,  0.0000)
   5 O      3.793144   -2.497790   -0.879818    ( 0.0000,  0.0000,  0.0000)
   6 O     -1.263220   -0.050157   -1.098342    ( 0.0000,  0.0000,  0.0000)
   7 O     -3.070798    0.474805    1.209623    ( 0.0000,  0.0000,  0.0000)
   8 O     -4.167835   -1.273920   -0.862116    ( 0.0000,  0.0000,  0.0000)
   9 O     -0.166037    1.698602    1.445528    ( 0.0000,  0.0000,  0.0000)
  10 O      4.890156    1.698625    1.191790    ( 0.0000,  0.0000,  0.0000)
  11 O      0.888358   -1.273896   -1.115855    ( 0.0000,  0.0000,  0.0000)
  12 Mn    -2.445557   -1.274211    0.312921    ( 0.0000,  0.0000,  1.0000)
  13 Mn    -1.888303    1.698892   -1.994948    ( 0.0000,  0.0000, -1.0000)
  14 Mn     3.167879    1.698917    0.016752    ( 0.0000,  0.0000, -1.0000)
  15 Mn     2.610624   -1.274187    2.324621    ( 0.0000,  0.0000,  1.0000)
  16 P     -0.529549   -1.273917   -1.724376    ( 0.0000,  0.0000,  0.0000)
  17 P     -3.804359    1.698599    0.583463    ( 0.0000,  0.0000,  0.0000)
  18 P      1.251870    1.698623    2.054050    ( 0.0000,  0.0000,  0.0000)
  19 P      4.526680   -1.273894   -0.253789    ( 0.0000,  0.0000,  0.0000)
  20 O     -0.544227   -1.273926    1.365380    ( 0.0000,  0.0000,  0.0000)
  21 O     -3.789411    1.698610   -0.942222    ( 0.0000,  0.0000,  0.0000)
  22 O      1.266548    1.698631   -1.035707    ( 0.0000,  0.0000,  0.0000)
  23 O      4.511733   -1.273905    1.271895    ( 0.0000,  0.0000,  0.0000)
  24 Li    -4.685087   -2.760584   -2.142877    ( 0.0000,  0.0000,  0.0000)
  25 Li     0.361147   -2.760561    0.164836    ( 0.0000,  0.0000,  0.0000)
  26 Li    -4.695074    0.212330   -2.142877    ( 0.0000,  0.0000,  0.0000)
  27 Li     0.361161    0.212353    0.164837    ( 0.0000,  0.0000,  0.0000)

Unit cell:
           periodic     x           y           z      points  spacing
  1. axis:    yes   10.112485    0.000045   -0.000035    60     0.1685
  2. axis:    yes    0.000026    5.945827    0.000001    35     0.1699
  3. axis:    yes   -0.000016    0.000000    4.615463    27     0.1709

  Lengths:  10.112485   5.945827   4.615463
  Angles:   89.999989  90.000396  89.999490

Effective grid spacing dv^(1/3) = 0.1698

                     log10-error:           total        iterations:
           time      wfs    density  force  energy       poisson  magmom
iter:   1  01:48:04                       -221.376818             +0.0000
iter:   2  01:48:24  -0.61  -0.93         -234.836101             +0.0000
iter:   3  01:48:44  -0.37  -0.97         -225.912179             -0.0000
iter:   4  01:49:04  -1.39  -1.29         -225.761720             +0.0000
iter:   5  01:49:24  -1.27  -1.39         -227.329986             +0.0000
iter:   6  01:49:43  -1.46  -1.46         -225.737524             +0.0000
iter:   7  01:50:03  -2.47  -2.04         -225.724942             +0.0000
iter:   8  01:50:23  -2.14  -1.99         -225.590728             +0.0000
iter:   9  01:50:43  -2.46  -2.09         -225.432558             +0.0000
iter:  10  01:51:03  -3.31  -2.55         -225.422623             +0.0000
iter:  11  01:51:23  -3.65  -2.81         -225.412199             +0.0000
iter:  12  01:51:43  -4.12  -3.05         -225.411093             +0.0000
iter:  13  01:52:03  -5.11  -3.29         -225.410972             -0.0000
iter:  14  01:52:22  -5.39  -3.32         -225.410799             -0.0000
iter:  15  01:52:42  -6.04  -3.43         -225.410806             -0.0000
iter:  16  01:53:02  -5.24  -3.47         -225.411147             -0.0000
iter:  17  01:53:22  -5.86  -3.58         -225.411033             -0.0000
iter:  18  01:53:42  -5.21  -3.70         -225.410748             +0.0000
iter:  19  01:54:02  -6.10  -4.14         -225.410752             -0.0000
iter:  20  01:54:21  -7.28  -4.54         -225.410754             -0.0000
iter:  21  01:54:46  -8.05  -4.57         -225.410753             -0.0000
iter:  22  01:55:10  -7.86  -4.63    -2.37-225.410754             -0.0000
iter:  23  01:55:35  -8.17  -4.87    -2.69-225.410753             -0.0000
iter:  24  01:55:59  -8.61  -5.10    -3.03-225.410753             -0.0000
iter:  25  01:56:24  -9.24  -5.20    -3.32-225.410753             -0.0000
iter:  26  01:56:49  -8.87  -5.31    -3.14-225.410753             -0.0000
iter:  27  01:57:13  -9.15  -5.51    -3.32-225.410753             -0.0000
iter:  28  01:57:37 -10.17  -5.59    -4.09-225.410753             -0.0000
iter:  29  01:58:02  -9.77  -5.62    -3.36-225.410753             -0.0000
iter:  30  01:58:26 -10.62  -5.79    -3.84-225.410753             -0.0000
iter:  31  01:58:51 -10.47  -5.83    -3.86-225.410753             -0.0000
iter:  32  01:59:15  -9.64  -5.91    -3.94-225.410753             -0.0000
iter:  33  01:59:40 -11.08  -6.17    -4.30-225.410753             -0.0000
iter:  34  02:00:04  -9.77  -6.19    -3.68-225.410753             -0.0000
iter:  35  02:00:29 -10.52  -6.17    -3.89-225.410753             -0.0000
iter:  36  02:00:53 -11.60  -6.75    -5.11-225.410753             -0.0000
iter:  37  02:01:18 -12.27  -6.80    -4.56-225.410753             -0.0000
iter:  38  02:01:42 -11.54  -6.84    -4.60-225.410753             -0.0000
iter:  39  02:02:07 -12.39  -6.95    -4.71-225.410753             -0.0000
iter:  40  02:02:31 -12.16  -7.10    -4.94-225.410753             -0.0000
iter:  41  02:02:56 -12.59  -7.13    -5.07-225.410753             -0.0000
iter:  42  02:03:21 -13.51  -7.21    -5.55-225.410753             -0.0000
iter:  43  02:03:45 -13.12  -7.26    -5.14-225.410753             -0.0000
iter:  44  02:04:10 -13.91  -7.32    -5.42-225.410753             -0.0000
iter:  45  02:04:34 -12.80  -7.35    -5.60-225.410753             -0.0000
iter:  46  02:04:59 -13.59  -7.44    -5.46-225.410753             -0.0000
iter:  47  02:05:23 -14.05  -7.56    -5.85-225.410753             -0.0000
iter:  48  02:05:48 -12.82  -7.64    -5.34-225.410753             -0.0000
iter:  49  02:06:12 -13.55  -7.85    -5.54-225.410753             -0.0000
iter:  50  02:06:37 -14.38  -8.25    -6.18-225.410753             -0.0000

Converged after 50 iterations.

Dipole moment: (19.055750, -1.426943, -4.182631) |e|*Ang

Total magnetic moment: (0.000000, 0.000000, -0.000000)
Local magnetic moments:
   0 O  ( 0.000000,  0.000000,  0.000662)
   1 O  ( 0.000000,  0.000000, -0.000690)
   2 O  ( 0.000000,  0.000000, -0.000661)
   3 O  ( 0.000000,  0.000000,  0.000665)
   4 O  ( 0.000000,  0.000000, -0.000666)
   5 O  ( 0.000000,  0.000000,  0.000655)
   6 O  ( 0.000000,  0.000000,  0.000659)
   7 O  ( 0.000000,  0.000000, -0.000671)
   8 O  ( 0.000000,  0.000000,  0.022398)
   9 O  ( 0.000000,  0.000000, -0.022392)
  10 O  ( 0.000000,  0.000000, -0.022338)
  11 O  ( 0.000000,  0.000000,  0.022343)
  12 Mn ( 0.000000,  0.000000,  4.575034)
  13 Mn ( 0.000000,  0.000000, -4.574993)
  14 Mn ( 0.000000,  0.000000, -4.575097)
  15 Mn ( 0.000000,  0.000000,  4.575077)
  16 P  ( 0.000000,  0.000000,  0.000816)
  17 P  ( 0.000000,  0.000000, -0.000825)
  18 P  ( 0.000000,  0.000000, -0.000808)
  19 P  ( 0.000000,  0.000000,  0.000808)
  20 O  ( 0.000000,  0.000000,  0.020715)
  21 O  ( 0.000000,  0.000000, -0.020720)
  22 O  ( 0.000000,  0.000000, -0.020703)
  23 O  ( 0.000000,  0.000000,  0.020697)
  24 Li ( 0.000000,  0.000000,  0.000023)
  25 Li ( 0.000000,  0.000000,  0.000000)
  26 Li ( 0.000000,  0.000000, -0.000000)
  27 Li ( 0.000000,  0.000000,  0.000000)

Energy contributions relative to reference atoms: (reference = -196157.275402)

Kinetic:       +296.839605
Potential:     -256.382385
External:        +0.000000
XC:            -267.648735
Entropy (-ST):   -0.000000
Local:           +1.780762
--------------------------
Free energy:   -225.410753
Extrapolated:  -225.410753

Spin contamination: 9.697233 electrons
Showing only first 2 kpts
                      Up                     Down
 Kpt  Band  Eigenvalues  Occupancy  Eigenvalues  Occupancy
  0    88      5.10923    0.00694      5.10903    0.00694
  0    89      5.16114    0.00694      5.16133    0.00694
  0    90      9.65379    0.00000      9.64951    0.00000
  0    91      9.66911    0.00000      9.67398    0.00000

  1    88      5.12082    0.00694      5.12057    0.00694
  1    89      5.17043    0.00694      5.17072    0.00694
  1    90      9.53652    0.00000      9.53075    0.00000
  1    91      9.54313    0.00000      9.54840    0.00000


Fermi level: 6.36998

Gap: 3.795 eV
Transition (v -> c):
  (s=0, k=92, n=89, [0.08, 0.42, -0.38]) -> (s=1, k=82, n=90, [0.08, -0.08, 0.12])
Writing to born-0.01-24x+.gpw (mode='all')

Timing:                              incl.     excl.
-----------------------------------------------------------
Hamiltonian:                         0.216     0.002   0.0% |
 Atomic:                             0.053     0.053   0.0% |
  XC Correction:                     0.000     0.000   0.0% |
 Calculate atomic Hamiltonians:      0.075     0.075   0.0% |
 Communicate:                        0.002     0.002   0.0% |
 Initialize Hamiltonian:             0.000     0.000   0.0% |
 Poisson:                            0.001     0.001   0.0% |
 XC 3D grid:                         0.083     0.083   0.0% |
LCAO initialization:                72.232     0.649   0.0% |
 LCAO eigensolver:                  19.391     0.002   0.0% |
  Calculate projections:             0.029     0.029   0.0% |
  DenseAtomicCorrection:             0.045     0.045   0.0% |
  Distribute overlap matrix:         0.074     0.074   0.0% |
  Orbital Layouts:                   0.432     0.432   0.0% |
  Potential matrix:                 18.721    18.721   0.6% |
  Sum over cells:                    0.088     0.088   0.0% |
 LCAO to grid:                      50.854    50.854   1.7% ||
 Set positions (LCAO WFS):           1.338     0.211   0.0% |
  Basic WFS set positions:           0.001     0.001   0.0% |
  Basis functions set positions:     0.000     0.000   0.0% |
  P tci:                             0.523     0.523   0.0% |
  ST tci:                            0.384     0.384   0.0% |
  mktci:                             0.219     0.219   0.0% |
PWDescriptor:                        0.024     0.024   0.0% |
SCF-cycle:                        1133.601     0.445   0.0% |
 Davidson:                         941.530   289.566   9.4% |---|
  Apply H:                          64.634    62.710   2.0% ||
   HMM T:                            1.924     1.924   0.1% |
  Subspace diag:                   136.403     0.144   0.0% |
   calc_h_matrix:                   87.526    22.845   0.7% |
    Apply H:                        64.681    62.759   2.0% ||
     HMM T:                          1.922     1.922   0.1% |
   diagonalize:                      6.827     6.827   0.2% |
   rotate_psi:                      41.907    41.907   1.4% ||
  calc. matrices:                  281.452   154.747   5.0% |-|
   Apply H:                        126.705   123.160   4.0% |-|
    HMM T:                           3.545     3.545   0.1% |
  diagonalize:                      78.616    78.616   2.6% ||
  rotate_psi:                       90.859    90.859   3.0% ||
 Density:                           37.440     0.001   0.0% |
  Atomic density matrices:           0.768     0.768   0.0% |
  Mix:                               5.235     5.235   0.2% |
  Multipole moments:                 0.017     0.017   0.0% |
  Pseudo density:                   31.418    31.417   1.0% |
   Symmetrize density:               0.001     0.001   0.0% |
 Forces:                           141.364   141.364   4.6% |-|
 Hamiltonian:                       10.732     0.103   0.0% |
  Atomic:                            2.646     2.646   0.1% |
   XC Correction:                    0.000     0.000   0.0% |
  Calculate atomic Hamiltonians:     3.697     3.697   0.1% |
  Communicate:                       0.084     0.084   0.0% |
  Poisson:                           0.030     0.030   0.0% |
  XC 3D grid:                        4.171     4.171   0.1% |
 Orthonormalize:                     2.089     0.003   0.0% |
  calc_s_matrix:                     0.245     0.245   0.0% |
  inverse-cholesky:                  0.074     0.074   0.0% |
  projections:                       1.334     1.334   0.0% |
  rotate_psi_s:                      0.434     0.434   0.0% |
Set symmetry:                        0.000     0.000   0.0% |
Other:                            1869.062  1869.062  60.8% |-----------------------|
-----------------------------------------------------------
Total:                                      3075.135 100.0%

Memory usage: 13.51 GiB
Date: Thu Mar 25 02:37:45 2021
