
  ___ ___ ___ _ _ _  
 |   |   |_  | | | | 
 | | | | | . | | | | 
 |__ |  _|___|_____|  20.10.1b1
 |___|_|             

User:   madkru@i018.nifl.fysik.dtu.dk
Date:   Tue Mar 23 17:47:47 2021
Arch:   x86_64
Pid:    26873
Python: 3.7.4
gpaw:   /home/niflheim/madkru/venv_folder/gpaw/gpaw (d0d1ca1c71)
_gpaw:  /home/niflheim/madkru/venv_folder/gpaw/build/lib.linux-x86_64-ivybridge-3.7/
        _gpaw.cpython-37m-x86_64-linux-gnu.so (4fd39e8b1e)
ase:    /home/niflheim/madkru/venv_folder/ase/ase (version 3.21.0b1-7e6c206a91)
numpy:  /home/niflheim/madkru/venv_folder/lib/python3.7/site-packages/numpy (version 1.19.4)
scipy:  /home/niflheim/madkru/venv_folder/lib/python3.7/site-packages/scipy (version 1.5.4)
libxc:  4.3.4
units:  Angstrom and eV
cores: 64
OMP_NUM_THREADS: 1

Input parameters:
  convergence: {bands: occupied,
                density: 0.0001,
                eigenstates: 4e-08,
                energy: 0.0005,
                forces: 1e-06}
  kpts: [6 6 4]
  mode: {ecut: 600.0,
         gammacentered: False,
         name: pw}
  occupations: {fixmagmom: False,
                name: fermi-dirac,
                width: 0.001}
  setups: {Mn: :d,3.0}
  symmetry: {point_group: False,
             time_reversal: False}

System changes: positions, numbers, cell, pbc, initial_charges, initial_magmoms 

Initialize ...

O-setup:
  name: Oxygen
  id: 9b9d51c344dea68c822856295a461509
  Z: 8.0
  valence: 6
  core: 2
  charge: 0.0
  file: /home/modules/software/GPAW-setups/0.9.20000/O.LDA.gz
  compensation charges: gauss, rc=0.21, lmax=2
  cutoffs: 1.17(filt), 0.83(core),
  valence states:
                energy  radius
    2s(2.00)   -23.752   0.688
    2p(4.00)    -9.195   0.598
    *s           3.459   0.688
    *p          18.016   0.598
    *d           0.000   0.619

  Using partial waves for O as LCAO basis

Mn-setup:
  name: Manganese
  id: 0d715a8018be061a6e9ea6f2d364ac92
  Z: 25.0
  valence: 15
  core: 10
  charge: 0.0
  Hubbard U: 3.000000 eV (l=2, scale=True)
  file: /home/modules/software/GPAW-setups/0.9.20000/Mn.LDA.gz
  compensation charges: gauss, rc=0.38, lmax=2
  cutoffs: 2.14(filt), 0.86(core),
  valence states:
                energy  radius
    3s(2.00)   -85.387   1.275
    4s(2.00)    -5.282   1.275
    3p(6.00)   -54.493   1.281
    4p(0.00)    -1.471   1.281
    3d(5.00)    -7.009   1.138
    *d          20.203   1.138

  Using partial waves for Mn as LCAO basis

P-setup:
  name: Phosphorus
  id: a5561c299094968922a179ab894d2e2d
  Z: 15.0
  valence: 5
  core: 10
  charge: 0.0
  file: /home/modules/software/GPAW-setups/0.9.20000/P.LDA.gz
  compensation charges: gauss, rc=0.30, lmax=2
  cutoffs: 1.69(filt), 1.81(core),
  valence states:
                energy  radius
    3s(2.00)   -14.015   0.953
    3p(3.00)    -5.596   0.953
    *s          13.197   0.953
    *p          21.615   0.953
    *d           0.000   0.953

  Using partial waves for P as LCAO basis

Li-setup:
  name: Lithium
  id: b73562207f97a71b6967473b66fe8b65
  Z: 3.0
  valence: 1
  core: 2
  charge: 0.0
  file: /home/modules/software/GPAW-setups/0.9.20000/Li.LDA.gz
  compensation charges: gauss, rc=0.33, lmax=2
  cutoffs: 1.91(filt), 2.55(core),
  valence states:
                energy  radius
    2s(1.00)    -2.874   1.058
    2p(0.00)    -1.126   1.058
    *s          24.338   1.058

  Using partial waves for Li as LCAO basis

Reference energy: -196157.275402

Spin-polarized calculation.
Magnetic moment: 0.000000

Convergence criteria:
  Maximum total energy change: 0.0005 eV / electron
  Maximum integral of absolute density change: 0.0001 electrons
  Maximum integral of absolute eigenstate change: 4e-08 eV^2
  Maximum change in atomic force: 1e-06 eV / Ang
  Maximum number of iterations: 333

Symmetries present (total): 1

  ( 1  0  0)
  ( 0  1  0)
  ( 0  0  1)

144 k-points: 6 x 6 x 4 Monkhorst-Pack grid
144 k-points in the irreducible part of the Brillouin zone
       k-points in crystal coordinates                weights
   0:    -0.41666667   -0.41666667   -0.37500000          1/144
   1:    -0.41666667   -0.41666667   -0.12500000          1/144
   2:    -0.41666667   -0.41666667    0.12500000          1/144
   3:    -0.41666667   -0.41666667    0.37500000          1/144
   4:    -0.41666667   -0.25000000   -0.37500000          1/144
   5:    -0.41666667   -0.25000000   -0.12500000          1/144
   6:    -0.41666667   -0.25000000    0.12500000          1/144
   7:    -0.41666667   -0.25000000    0.37500000          1/144
   8:    -0.41666667   -0.08333333   -0.37500000          1/144
   9:    -0.41666667   -0.08333333   -0.12500000          1/144
          ...
 143:     0.41666667    0.41666667    0.37500000          1/144

Wave functions: Plane wave expansion
  Cutoff energy: 600.000 eV
  Number of coefficients (min, max): 9238, 9284
  Pulay-stress correction: 0.000000 eV/Ang^3 (de/decut=0.000000)
  Using FFTW library
  ScaLapack parameters: grid=1x1, blocksize=None
  Wavefunction extrapolation:
    Improved wavefunction reuse through dual PAW basis 

  Fermi-Dirac: width=0.0010 eV

Eigensolver
   Davidson(niter=2, smin=None, normalize=True) 

Densities:
  Coarse grid: 60*35*27 grid
  Fine grid: 120*70*54 grid
  Total Charge: 0.000000 

Density mixing:
  Method: difference
  Backend: pulay
  Linear mixing parameter: 0.05
  Mixing with 5 old densities
  Damping of long wave oscillations: 50 

Hamiltonian:
  XC and Coulomb potentials evaluated on a 120*70*54 grid
  Using the LDA Exchange-Correlation functional
 

Memory estimate:
  Process memory now: 12341.12 MiB
  Calculator: 326.59 MiB
    Density: 9.67 MiB
      Arrays: 3.79 MiB
      Localized functions: 4.32 MiB
      Mixer: 1.56 MiB
    Hamiltonian: 2.94 MiB
      Arrays: 2.82 MiB
      XC: 0.00 MiB
      Poisson: 0.00 MiB
      vbar: 0.12 MiB
    Wavefunctions: 313.97 MiB
      Arrays psit_nG: 285.59 MiB
      Eigensolver: 18.49 MiB
      Projections: 2.71 MiB
      Projectors: 4.46 MiB
      PW-descriptor: 2.72 MiB

Total number of cores used: 64
Parallelization over k-points: 16
Domain decomposition: 2 x 2 x 1

Number of atoms: 28
Number of atomic orbitals: 148
Number of bands in calculation: 112
Number of valence electrons: 180
Bands to converge: occupied

... initialized

Initializing position-dependent things.

Density initialized from atomic densities
Creating initial wave functions:
  112 bands from LCAO basis set

                                           
                                           
                                           
                                           
                                           
               O     O  P  O               
            PO           OMn     O         
                  O          MO            
            O        Li O                  
             Mn  On          OP            
         O         Li O                    
         Li     O P         O              
       Li                                  
                                           
                                           
                                           
                                           

Positions:
   0 O     -1.263197   -2.497779   -1.098475    ( 0.0000,  0.0000,  0.0000)
   1 O     -3.070823    2.922496    1.209491    ( 0.0000,  0.0000,  0.0000)
   2 O      1.985541    0.474863    1.428016    ( 0.0000,  0.0000,  0.0000)
   3 O      3.793120   -0.050100   -0.879950    ( 0.0000,  0.0000,  0.0000)
   4 O      1.985518    2.922485    1.428149    ( 0.0000,  0.0000,  0.0000)
   5 O      3.793144   -2.497790   -0.879818    ( 0.0000,  0.0000,  0.0000)
   6 O     -1.263220   -0.050157   -1.098342    ( 0.0000,  0.0000,  0.0000)
   7 O     -3.070798    0.474805    1.209623    ( 0.0000,  0.0000,  0.0000)
   8 O     -4.167835   -1.273920   -0.862116    ( 0.0000,  0.0000,  0.0000)
   9 O     -0.166037    1.698602    1.445528    ( 0.0000,  0.0000,  0.0000)
  10 O      4.890156    1.698625    1.191790    ( 0.0000,  0.0000,  0.0000)
  11 O      0.888358   -1.273896   -1.115855    ( 0.0000,  0.0000,  0.0000)
  12 Mn    -2.445557   -1.274211    0.312921    ( 0.0000,  0.0000,  1.0000)
  13 Mn    -1.878303    1.698892   -1.994948    ( 0.0000,  0.0000, -1.0000)
  14 Mn     3.167879    1.698917    0.016752    ( 0.0000,  0.0000, -1.0000)
  15 Mn     2.610624   -1.274187    2.324621    ( 0.0000,  0.0000,  1.0000)
  16 P     -0.529549   -1.273917   -1.724376    ( 0.0000,  0.0000,  0.0000)
  17 P     -3.804359    1.698599    0.583463    ( 0.0000,  0.0000,  0.0000)
  18 P      1.251870    1.698623    2.054050    ( 0.0000,  0.0000,  0.0000)
  19 P      4.526680   -1.273894   -0.253789    ( 0.0000,  0.0000,  0.0000)
  20 O     -0.544227   -1.273926    1.365380    ( 0.0000,  0.0000,  0.0000)
  21 O     -3.789411    1.698610   -0.942222    ( 0.0000,  0.0000,  0.0000)
  22 O      1.266548    1.698631   -1.035707    ( 0.0000,  0.0000,  0.0000)
  23 O      4.511733   -1.273905    1.271895    ( 0.0000,  0.0000,  0.0000)
  24 Li    -4.695087   -2.760584   -2.142877    ( 0.0000,  0.0000,  0.0000)
  25 Li     0.361147   -2.760561    0.164836    ( 0.0000,  0.0000,  0.0000)
  26 Li    -4.695074    0.212330   -2.142877    ( 0.0000,  0.0000,  0.0000)
  27 Li     0.361161    0.212353    0.164837    ( 0.0000,  0.0000,  0.0000)

Unit cell:
           periodic     x           y           z      points  spacing
  1. axis:    yes   10.112485    0.000045   -0.000035    60     0.1685
  2. axis:    yes    0.000026    5.945827    0.000001    35     0.1699
  3. axis:    yes   -0.000016    0.000000    4.615463    27     0.1709

  Lengths:  10.112485   5.945827   4.615463
  Angles:   89.999989  90.000396  89.999490

Effective grid spacing dv^(1/3) = 0.1698

                     log10-error:           total        iterations:
           time      wfs    density  force  energy       poisson  magmom
iter:   1  17:49:21                       -221.376795             +0.0000
iter:   2  17:49:41  -0.61  -0.93         -234.841848             +0.0000
iter:   3  17:50:01  -0.37  -0.97         -225.914378             -0.0000
iter:   4  17:50:21  -1.39  -1.29         -225.761382             +0.0000
iter:   5  17:50:41  -1.27  -1.39         -227.335408             +0.0000
iter:   6  17:51:01  -1.46  -1.46         -225.736884             +0.0000
iter:   7  17:51:21  -2.47  -2.04         -225.724916             +0.0000
iter:   8  17:51:41  -2.17  -1.99         -225.577922             +0.0000
iter:   9  17:52:01  -2.48  -2.11         -225.433231             +0.0000
iter:  10  17:52:21  -3.30  -2.53         -225.422393             +0.0000
iter:  11  17:52:41  -3.60  -2.80         -225.411481             +0.0000
iter:  12  17:53:01  -4.19  -3.06         -225.410546             +0.0000
iter:  13  17:53:21  -5.14  -3.30         -225.410477             -0.0000
iter:  14  17:53:41  -5.37  -3.32         -225.410285             -0.0000
iter:  15  17:54:01  -5.97  -3.44         -225.410305             -0.0000
iter:  16  17:54:21  -5.19  -3.48         -225.410705             +0.0000
iter:  17  17:54:41  -6.13  -3.56         -225.410548             -0.0000
iter:  18  17:55:01  -5.69  -3.66         -225.410338             +0.0000
iter:  19  17:55:21  -6.72  -3.93         -225.410347             -0.0000
iter:  20  17:55:41  -5.91  -4.05         -225.410270             -0.0000
iter:  21  17:56:01  -6.67  -4.17         -225.410254             +0.0000
iter:  22  17:56:21  -7.18  -4.21         -225.410257             -0.0000
iter:  23  17:56:46  -7.40  -4.25         -225.410253             -0.0000
iter:  24  17:57:10  -7.42  -4.32    -2.45-225.410251             -0.0000
iter:  25  17:57:35  -7.91  -4.35    -2.98-225.410251             -0.0000
iter:  26  17:58:00  -7.77  -4.49    -2.47-225.410252             -0.0000
iter:  27  17:58:24  -8.50  -4.84    -3.28-225.410251             -0.0000
iter:  28  17:58:49  -7.44  -4.90    -2.85-225.410250             -0.0000
iter:  29  17:59:14  -8.68  -5.19    -3.43-225.410250             -0.0000
iter:  30  17:59:39  -9.30  -5.25    -3.70-225.410250             +0.0000
iter:  31  18:00:03  -8.81  -5.29    -3.40-225.410250             -0.0000
iter:  32  18:00:28  -9.64  -5.37    -3.60-225.410250             -0.0000
iter:  33  18:00:53  -9.50  -5.44    -3.49-225.410250             -0.0000
iter:  34  18:01:17  -9.50  -5.50    -3.32-225.410250             -0.0000
iter:  35  18:01:42 -10.22  -5.65    -3.96-225.410250             -0.0000
iter:  36  18:02:07 -10.65  -5.69    -4.03-225.410250             -0.0000
iter:  37  18:02:31 -11.12  -5.77    -4.26-225.410250             -0.0000
iter:  38  18:02:56 -10.77  -5.84    -3.75-225.410250             -0.0000
iter:  39  18:03:21 -11.02  -6.06    -4.61-225.410250             -0.0000
iter:  40  18:03:45 -10.38  -6.08    -4.37-225.410250             -0.0000
iter:  41  18:04:10 -11.31  -6.18    -4.80-225.410250             -0.0000
iter:  42  18:04:35 -10.90  -6.22    -3.84-225.410250             -0.0000
iter:  43  18:05:00 -10.95  -6.52    -4.65-225.410250             -0.0000
iter:  44  18:05:24 -12.15  -6.72    -5.03-225.410250             -0.0000
iter:  45  18:05:49 -11.50  -6.75    -4.63-225.410250             -0.0000
iter:  46  18:06:14 -12.23  -6.83    -5.21-225.410250             -0.0000
iter:  47  18:06:39 -11.86  -6.91    -4.66-225.410250             -0.0000
iter:  48  18:07:03 -12.64  -7.03    -4.91-225.410250             -0.0000
iter:  49  18:07:28 -13.12  -7.16    -5.58-225.410250             -0.0000
iter:  50  18:07:53 -12.51  -7.21    -4.84-225.410250             -0.0000
iter:  51  18:08:17 -12.99  -7.45    -5.27-225.410250             -0.0000
iter:  52  18:08:42 -13.59  -7.65    -5.97-225.410250             -0.0000
iter:  53  18:09:07 -14.19  -7.81    -5.46-225.410250             -0.0000
iter:  54  18:09:31 -14.32  -7.90    -6.23-225.410250             -0.0000

Converged after 54 iterations.

Dipole moment: (19.066063, -1.425950, -4.182695) |e|*Ang

Total magnetic moment: (0.000000, 0.000000, -0.000000)
Local magnetic moments:
   0 O  ( 0.000000,  0.000000,  0.000504)
   1 O  ( 0.000000,  0.000000, -0.000376)
   2 O  ( 0.000000,  0.000000, -0.000678)
   3 O  ( 0.000000,  0.000000,  0.000685)
   4 O  ( 0.000000,  0.000000, -0.000682)
   5 O  ( 0.000000,  0.000000,  0.000689)
   6 O  ( 0.000000,  0.000000,  0.000500)
   7 O  ( 0.000000,  0.000000, -0.000372)
   8 O  ( 0.000000,  0.000000,  0.022389)
   9 O  ( 0.000000,  0.000000, -0.022696)
  10 O  ( 0.000000,  0.000000, -0.022410)
  11 O  ( 0.000000,  0.000000,  0.022348)
  12 Mn ( 0.000000,  0.000000,  4.575127)
  13 Mn ( 0.000000,  0.000000, -4.574779)
  14 Mn ( 0.000000,  0.000000, -4.575080)
  15 Mn ( 0.000000,  0.000000,  4.575035)
  16 P  ( 0.000000,  0.000000,  0.000752)
  17 P  ( 0.000000,  0.000000, -0.000661)
  18 P  ( 0.000000,  0.000000, -0.000917)
  19 P  ( 0.000000,  0.000000,  0.000819)
  20 O  ( 0.000000,  0.000000,  0.020670)
  21 O  ( 0.000000,  0.000000, -0.020451)
  22 O  ( 0.000000,  0.000000, -0.020705)
  23 O  ( 0.000000,  0.000000,  0.020730)
  24 Li ( 0.000000,  0.000000, -0.000003)
  25 Li ( 0.000000,  0.000000, -0.000014)
  26 Li ( 0.000000,  0.000000, -0.000003)
  27 Li ( 0.000000,  0.000000, -0.000014)

Energy contributions relative to reference atoms: (reference = -196157.275402)

Kinetic:       +296.850125
Potential:     -256.396340
External:        +0.000000
XC:            -267.644664
Entropy (-ST):   -0.000000
Local:           +1.780628
--------------------------
Free energy:   -225.410250
Extrapolated:  -225.410250

Spin contamination: 9.697495 electrons
Showing only first 2 kpts
                      Up                     Down
 Kpt  Band  Eigenvalues  Occupancy  Eigenvalues  Occupancy
  0    88      5.10978    0.00694      5.11211    0.00694
  0    89      5.16244    0.00694      5.16271    0.00694
  0    90      9.65189    0.00000      9.65410    0.00000
  0    91      9.67208    0.00000      9.66989    0.00000

  1    88      5.12139    0.00694      5.12337    0.00694
  1    89      5.17156    0.00694      5.17204    0.00694
  1    90      9.53349    0.00000      9.53681    0.00000
  1    91      9.54434    0.00000      9.54358    0.00000


Fermi level: 6.37076

Gap: 3.791 eV
Transition (v -> c):
  (s=1, k=72, n=89, [0.08, -0.42, -0.38]) -> (s=0, k=58, n=90, [-0.08, -0.08, 0.12])
Writing to born-0.01-13x+.gpw (mode='all')

Timing:                              incl.     excl.
-----------------------------------------------------------
Hamiltonian:                         0.216     0.002   0.0% |
 Atomic:                             0.053     0.053   0.0% |
  XC Correction:                     0.000     0.000   0.0% |
 Calculate atomic Hamiltonians:      0.074     0.074   0.0% |
 Communicate:                        0.002     0.002   0.0% |
 Initialize Hamiltonian:             0.000     0.000   0.0% |
 Poisson:                            0.001     0.001   0.0% |
 XC 3D grid:                         0.083     0.083   0.0% |
LCAO initialization:                68.957     0.647   0.0% |
 LCAO eigensolver:                  19.184     0.002   0.0% |
  Calculate projections:             0.029     0.029   0.0% |
  DenseAtomicCorrection:             0.045     0.045   0.0% |
  Distribute overlap matrix:         0.009     0.009   0.0% |
  Orbital Layouts:                   0.435     0.435   0.0% |
  Potential matrix:                 18.578    18.578   0.6% |
  Sum over cells:                    0.087     0.087   0.0% |
 LCAO to grid:                      47.818    47.818   1.6% ||
 Set positions (LCAO WFS):           1.307     0.190   0.0% |
  Basic WFS set positions:           0.001     0.001   0.0% |
  Basis functions set positions:     0.000     0.000   0.0% |
  P tci:                             0.521     0.521   0.0% |
  ST tci:                            0.381     0.381   0.0% |
  mktci:                             0.214     0.214   0.0% |
PWDescriptor:                        0.023     0.023   0.0% |
SCF-cycle:                        1234.215     2.874   0.1% |
 Davidson:                        1024.822   313.155  10.5% |---|
  Apply H:                          70.955    69.012   2.3% ||
   HMM T:                            1.943     1.943   0.1% |
  Subspace diag:                   148.881     0.151   0.0% |
   calc_h_matrix:                   96.205    24.595   0.8% |
    Apply H:                        71.610    69.590   2.3% ||
     HMM T:                          2.020     2.020   0.1% |
   diagonalize:                      7.297     7.297   0.2% |
   rotate_psi:                      45.227    45.227   1.5% ||
  calc. matrices:                  308.589   167.750   5.6% |-|
   Apply H:                        140.839   137.036   4.6% |-|
    HMM T:                           3.803     3.803   0.1% |
  diagonalize:                      85.175    85.175   2.9% ||
  rotate_psi:                       98.067    98.067   3.3% ||
 Density:                           42.340     0.001   0.0% |
  Atomic density matrices:           1.062     1.062   0.0% |
  Mix:                               5.680     5.680   0.2% |
  Multipole moments:                 0.020     0.020   0.0% |
  Pseudo density:                   35.577    35.575   1.2% |
   Symmetrize density:               0.001     0.001   0.0% |
 Forces:                           150.407   150.407   5.1% |-|
 Hamiltonian:                       11.682     0.112   0.0% |
  Atomic:                            2.881     2.880   0.1% |
   XC Correction:                    0.000     0.000   0.0% |
  Calculate atomic Hamiltonians:     4.044     4.044   0.1% |
  Communicate:                       0.106     0.106   0.0% |
  Poisson:                           0.032     0.032   0.0% |
  XC 3D grid:                        4.508     4.508   0.2% |
 Orthonormalize:                     2.090     0.003   0.0% |
  calc_s_matrix:                     0.245     0.245   0.0% |
  inverse-cholesky:                  0.073     0.073   0.0% |
  projections:                       1.335     1.335   0.0% |
  rotate_psi_s:                      0.435     0.435   0.0% |
Set symmetry:                        0.000     0.000   0.0% |
Other:                            1674.107  1674.107  56.2% |---------------------|
-----------------------------------------------------------
Total:                                      2977.518 100.0%

Memory usage: 12.06 GiB
Date: Tue Mar 23 18:37:24 2021
