
  ___ ___ ___ _ _ _  
 |   |   |_  | | | | 
 | | | | | . | | | | 
 |__ |  _|___|_____|  20.10.1b1
 |___|_|             

User:   madkru@i018.nifl.fysik.dtu.dk
Date:   Wed Mar 24 12:48:11 2021
Arch:   x86_64
Pid:    26873
Python: 3.7.4
gpaw:   /home/niflheim/madkru/venv_folder/gpaw/gpaw (d224efde0f)
_gpaw:  /home/niflheim/madkru/venv_folder/gpaw/build/lib.linux-x86_64-ivybridge-3.7/
        _gpaw.cpython-37m-x86_64-linux-gnu.so (4fd39e8b1e)
ase:    /home/niflheim/madkru/venv_folder/ase/ase (version 3.21.0b1-4d5a73cb29)
numpy:  /home/niflheim/madkru/venv_folder/lib/python3.7/site-packages/numpy (version 1.19.4)
scipy:  /home/niflheim/madkru/venv_folder/lib/python3.7/site-packages/scipy (version 1.5.4)
libxc:  4.3.4
units:  Angstrom and eV
cores: 64
OMP_NUM_THREADS: 1

Input parameters:
  convergence: {bands: occupied,
                density: 0.0001,
                eigenstates: 4e-08,
                energy: 0.0005,
                forces: 1e-06}
  kpts: [6 6 4]
  mode: {ecut: 600.0,
         gammacentered: False,
         name: pw}
  occupations: {fixmagmom: False,
                name: fermi-dirac,
                width: 0.001}
  setups: {Mn: :d,3.0}
  symmetry: {point_group: False,
             time_reversal: False}

System changes: positions, numbers, cell, pbc, initial_charges, initial_magmoms 

Initialize ...

O-setup:
  name: Oxygen
  id: 9b9d51c344dea68c822856295a461509
  Z: 8.0
  valence: 6
  core: 2
  charge: 0.0
  file: /home/modules/software/GPAW-setups/0.9.20000/O.LDA.gz
  compensation charges: gauss, rc=0.21, lmax=2
  cutoffs: 1.17(filt), 0.83(core),
  valence states:
                energy  radius
    2s(2.00)   -23.752   0.688
    2p(4.00)    -9.195   0.598
    *s           3.459   0.688
    *p          18.016   0.598
    *d           0.000   0.619

  Using partial waves for O as LCAO basis

Mn-setup:
  name: Manganese
  id: 0d715a8018be061a6e9ea6f2d364ac92
  Z: 25.0
  valence: 15
  core: 10
  charge: 0.0
  Hubbard U: 3.000000 eV (l=2, scale=True)
  file: /home/modules/software/GPAW-setups/0.9.20000/Mn.LDA.gz
  compensation charges: gauss, rc=0.38, lmax=2
  cutoffs: 2.14(filt), 0.86(core),
  valence states:
                energy  radius
    3s(2.00)   -85.387   1.275
    4s(2.00)    -5.282   1.275
    3p(6.00)   -54.493   1.281
    4p(0.00)    -1.471   1.281
    3d(5.00)    -7.009   1.138
    *d          20.203   1.138

  Using partial waves for Mn as LCAO basis

P-setup:
  name: Phosphorus
  id: a5561c299094968922a179ab894d2e2d
  Z: 15.0
  valence: 5
  core: 10
  charge: 0.0
  file: /home/modules/software/GPAW-setups/0.9.20000/P.LDA.gz
  compensation charges: gauss, rc=0.30, lmax=2
  cutoffs: 1.69(filt), 1.81(core),
  valence states:
                energy  radius
    3s(2.00)   -14.015   0.953
    3p(3.00)    -5.596   0.953
    *s          13.197   0.953
    *p          21.615   0.953
    *d           0.000   0.953

  Using partial waves for P as LCAO basis

Li-setup:
  name: Lithium
  id: b73562207f97a71b6967473b66fe8b65
  Z: 3.0
  valence: 1
  core: 2
  charge: 0.0
  file: /home/modules/software/GPAW-setups/0.9.20000/Li.LDA.gz
  compensation charges: gauss, rc=0.33, lmax=2
  cutoffs: 1.91(filt), 2.55(core),
  valence states:
                energy  radius
    2s(1.00)    -2.874   1.058
    2p(0.00)    -1.126   1.058
    *s          24.338   1.058

  Using partial waves for Li as LCAO basis

Reference energy: -196157.275402

Spin-polarized calculation.
Magnetic moment: 0.000000

Convergence criteria:
  Maximum total energy change: 0.0005 eV / electron
  Maximum integral of absolute density change: 0.0001 electrons
  Maximum integral of absolute eigenstate change: 4e-08 eV^2
  Maximum change in atomic force: 1e-06 eV / Ang
  Maximum number of iterations: 333

Symmetries present (total): 1

  ( 1  0  0)
  ( 0  1  0)
  ( 0  0  1)

144 k-points: 6 x 6 x 4 Monkhorst-Pack grid
144 k-points in the irreducible part of the Brillouin zone
       k-points in crystal coordinates                weights
   0:    -0.41666667   -0.41666667   -0.37500000          1/144
   1:    -0.41666667   -0.41666667   -0.12500000          1/144
   2:    -0.41666667   -0.41666667    0.12500000          1/144
   3:    -0.41666667   -0.41666667    0.37500000          1/144
   4:    -0.41666667   -0.25000000   -0.37500000          1/144
   5:    -0.41666667   -0.25000000   -0.12500000          1/144
   6:    -0.41666667   -0.25000000    0.12500000          1/144
   7:    -0.41666667   -0.25000000    0.37500000          1/144
   8:    -0.41666667   -0.08333333   -0.37500000          1/144
   9:    -0.41666667   -0.08333333   -0.12500000          1/144
          ...
 143:     0.41666667    0.41666667    0.37500000          1/144

Wave functions: Plane wave expansion
  Cutoff energy: 600.000 eV
  Number of coefficients (min, max): 9238, 9284
  Pulay-stress correction: 0.000000 eV/Ang^3 (de/decut=0.000000)
  Using FFTW library
  ScaLapack parameters: grid=1x1, blocksize=None
  Wavefunction extrapolation:
    Improved wavefunction reuse through dual PAW basis 

  Fermi-Dirac: width=0.0010 eV

Eigensolver
   Davidson(niter=2, smin=None, normalize=True) 

Densities:
  Coarse grid: 60*35*27 grid
  Fine grid: 120*70*54 grid
  Total Charge: 0.000000 

Density mixing:
  Method: difference
  Backend: pulay
  Linear mixing parameter: 0.05
  Mixing with 5 old densities
  Damping of long wave oscillations: 50 

Hamiltonian:
  XC and Coulomb potentials evaluated on a 120*70*54 grid
  Using the LDA Exchange-Correlation functional
 

Memory estimate:
  Process memory now: 13232.25 MiB
  Calculator: 326.59 MiB
    Density: 9.67 MiB
      Arrays: 3.79 MiB
      Localized functions: 4.32 MiB
      Mixer: 1.56 MiB
    Hamiltonian: 2.94 MiB
      Arrays: 2.82 MiB
      XC: 0.00 MiB
      Poisson: 0.00 MiB
      vbar: 0.12 MiB
    Wavefunctions: 313.97 MiB
      Arrays psit_nG: 285.59 MiB
      Eigensolver: 18.49 MiB
      Projections: 2.71 MiB
      Projectors: 4.46 MiB
      PW-descriptor: 2.72 MiB

Total number of cores used: 64
Parallelization over k-points: 16
Domain decomposition: 2 x 2 x 1

Number of atoms: 28
Number of atomic orbitals: 148
Number of bands in calculation: 112
Number of valence electrons: 180
Bands to converge: occupied

... initialized

Initializing position-dependent things.

Density initialized from atomic densities
Creating initial wave functions:
  112 bands from LCAO basis set

                                           
                                           
                                           
                                           
                                           
               O     O  P  O               
            PO           OMn     O         
                  O          MO            
            O        Li O                  
             Mn  On          OP            
         O         Li O                    
         Li     O P         O              
       Li                                  
                                           
                                           
                                           
                                           

Positions:
   0 O     -1.263197   -2.497779   -1.098475    ( 0.0000,  0.0000,  0.0000)
   1 O     -3.070823    2.922496    1.209491    ( 0.0000,  0.0000,  0.0000)
   2 O      1.985541    0.474863    1.428016    ( 0.0000,  0.0000,  0.0000)
   3 O      3.793120   -0.050100   -0.879950    ( 0.0000,  0.0000,  0.0000)
   4 O      1.985518    2.922485    1.428149    ( 0.0000,  0.0000,  0.0000)
   5 O      3.793144   -2.497790   -0.879818    ( 0.0000,  0.0000,  0.0000)
   6 O     -1.263220   -0.050157   -1.098342    ( 0.0000,  0.0000,  0.0000)
   7 O     -3.070798    0.474805    1.209623    ( 0.0000,  0.0000,  0.0000)
   8 O     -4.167835   -1.273920   -0.862116    ( 0.0000,  0.0000,  0.0000)
   9 O     -0.166037    1.698602    1.445528    ( 0.0000,  0.0000,  0.0000)
  10 O      4.890156    1.698625    1.191790    ( 0.0000,  0.0000,  0.0000)
  11 O      0.888358   -1.273896   -1.115855    ( 0.0000,  0.0000,  0.0000)
  12 Mn    -2.445557   -1.274211    0.312921    ( 0.0000,  0.0000,  1.0000)
  13 Mn    -1.888303    1.698892   -1.994948    ( 0.0000,  0.0000, -1.0000)
  14 Mn     3.167879    1.698917    0.016752    ( 0.0000,  0.0000, -1.0000)
  15 Mn     2.610624   -1.274187    2.324621    ( 0.0000,  0.0000,  1.0000)
  16 P     -0.529549   -1.273917   -1.724376    ( 0.0000,  0.0000,  0.0000)
  17 P     -3.804359    1.698599    0.583463    ( 0.0000,  0.0000,  0.0000)
  18 P      1.251870    1.698623    2.054050    ( 0.0000,  0.0000,  0.0000)
  19 P      4.526680   -1.273894   -0.263789    ( 0.0000,  0.0000,  0.0000)
  20 O     -0.544227   -1.273926    1.365380    ( 0.0000,  0.0000,  0.0000)
  21 O     -3.789411    1.698610   -0.942222    ( 0.0000,  0.0000,  0.0000)
  22 O      1.266548    1.698631   -1.035707    ( 0.0000,  0.0000,  0.0000)
  23 O      4.511733   -1.273905    1.271895    ( 0.0000,  0.0000,  0.0000)
  24 Li    -4.695087   -2.760584   -2.142877    ( 0.0000,  0.0000,  0.0000)
  25 Li     0.361147   -2.760561    0.164836    ( 0.0000,  0.0000,  0.0000)
  26 Li    -4.695074    0.212330   -2.142877    ( 0.0000,  0.0000,  0.0000)
  27 Li     0.361161    0.212353    0.164837    ( 0.0000,  0.0000,  0.0000)

Unit cell:
           periodic     x           y           z      points  spacing
  1. axis:    yes   10.112485    0.000045   -0.000035    60     0.1685
  2. axis:    yes    0.000026    5.945827    0.000001    35     0.1699
  3. axis:    yes   -0.000016    0.000000    4.615463    27     0.1709

  Lengths:  10.112485   5.945827   4.615463
  Angles:   89.999989  90.000396  89.999490

Effective grid spacing dv^(1/3) = 0.1698

                     log10-error:           total        iterations:
           time      wfs    density  force  energy       poisson  magmom
iter:   1  12:49:44                       -221.364597             +0.0000
iter:   2  12:50:04  -0.61  -0.93         -234.829070             +0.0000
iter:   3  12:50:24  -0.37  -0.97         -225.911167             -0.0000
iter:   4  12:50:44  -1.39  -1.29         -225.758147             +0.0000
iter:   5  12:51:04  -1.27  -1.39         -227.322346             +0.0000
iter:   6  12:51:24  -1.46  -1.46         -225.734669             +0.0000
iter:   7  12:51:44  -2.46  -2.04         -225.720915             +0.0000
iter:   8  12:52:04  -2.05  -1.99         -225.623275             +0.0000
iter:   9  12:52:24  -2.43  -2.04         -225.427224             +0.0000
iter:  10  12:52:44  -3.28  -2.56         -225.417619             +0.0000
iter:  11  12:53:03  -3.75  -2.84         -225.409341             +0.0000
iter:  12  12:53:23  -4.16  -3.01         -225.407808             +0.0000
iter:  13  12:53:43  -5.06  -3.28         -225.407649             +0.0000
iter:  14  12:54:03  -5.09  -3.32         -225.407577             +0.0000
iter:  15  12:54:23  -6.00  -3.42         -225.407478             +0.0000
iter:  16  12:54:43  -4.94  -3.47         -225.407629             -0.0000
iter:  17  12:55:03  -5.25  -3.54         -225.407637             +0.0000
iter:  18  12:55:23  -5.79  -3.86         -225.407457             -0.0000
iter:  19  12:55:43  -6.45  -4.01         -225.407445             +0.0000
iter:  20  12:56:02  -6.68  -4.08         -225.407449             +0.0000
iter:  21  12:56:22  -6.13  -4.23         -225.407437             +0.0000
iter:  22  12:56:42  -7.02  -4.45         -225.407433             +0.0000
iter:  23  12:57:07  -7.60  -4.49         -225.407431             +0.0000
iter:  24  12:57:27  -6.90  -4.58         -225.407436             +0.0000
iter:  25  12:57:46  -7.15  -4.52         -225.407432             +0.0000
iter:  26  12:58:11  -7.91  -4.72    -2.63-225.407433             +0.0000
iter:  27  12:58:36  -8.30  -4.81    -3.14-225.407433             +0.0000
iter:  28  12:59:00  -8.03  -4.90    -2.73-225.407434             +0.0000
iter:  29  12:59:25  -7.54  -4.92    -2.45-225.407433             +0.0000
iter:  30  12:59:49  -8.96  -5.02    -3.10-225.407433             +0.0000
iter:  31  13:00:14  -8.03  -5.11    -2.68-225.407433             +0.0000
iter:  32  13:00:38  -8.57  -5.38    -3.03-225.407433             +0.0000
iter:  33  13:01:03  -9.28  -5.58    -3.41-225.407433             +0.0000
iter:  34  13:01:27  -9.60  -5.66    -3.94-225.407433             -0.0000
iter:  35  13:01:52 -10.16  -5.70    -3.74-225.407433             +0.0000
iter:  36  13:02:16  -9.82  -5.78    -3.66-225.407433             +0.0000
iter:  37  13:02:41  -9.76  -5.93    -3.48-225.407433             +0.0000
iter:  38  13:03:06 -11.26  -6.67    -4.43-225.407433             +0.0000
iter:  39  13:03:30 -11.28  -6.82    -4.67-225.407433             +0.0000
iter:  40  13:03:55 -12.10  -6.84    -5.02-225.407433             +0.0000
iter:  41  13:04:19 -12.14  -6.90    -4.71-225.407433             +0.0000
iter:  42  13:04:44 -11.43  -6.92    -4.42-225.407433             +0.0000
iter:  43  13:05:08 -12.62  -7.01    -5.27-225.407433             +0.0000
iter:  44  13:05:33 -12.79  -7.07    -5.23-225.407433             +0.0000
iter:  45  13:05:57 -11.90  -6.94    -4.78-225.407433             +0.0000
iter:  46  13:06:22 -12.75  -7.21    -5.11-225.407433             +0.0000
iter:  47  13:06:46 -13.02  -7.29    -4.73-225.407433             +0.0000
iter:  48  13:07:11 -13.24  -7.48    -5.73-225.407433             +0.0000
iter:  49  13:07:35 -13.08  -7.53    -5.42-225.407433             +0.0000
iter:  50  13:08:00 -13.53  -7.83    -5.96-225.407433             +0.0000
iter:  51  13:08:24 -14.31  -7.92    -6.19-225.407433             -0.0000

Converged after 51 iterations.

Dipole moment: (19.052805, -1.434085, -4.074485) |e|*Ang

Total magnetic moment: (0.000000, 0.000000, -0.000000)
Local magnetic moments:
   0 O  ( 0.000000,  0.000000,  0.000664)
   1 O  ( 0.000000,  0.000000, -0.000697)
   2 O  ( 0.000000,  0.000000, -0.000656)
   3 O  ( 0.000000,  0.000000,  0.000805)
   4 O  ( 0.000000,  0.000000, -0.000660)
   5 O  ( 0.000000,  0.000000,  0.000809)
   6 O  ( 0.000000,  0.000000,  0.000659)
   7 O  ( 0.000000,  0.000000, -0.000693)
   8 O  ( 0.000000,  0.000000,  0.022179)
   9 O  ( 0.000000,  0.000000, -0.022369)
  10 O  ( 0.000000,  0.000000, -0.022368)
  11 O  ( 0.000000,  0.000000,  0.022299)
  12 Mn ( 0.000000,  0.000000,  4.575250)
  13 Mn ( 0.000000,  0.000000, -4.575033)
  14 Mn ( 0.000000,  0.000000, -4.575352)
  15 Mn ( 0.000000,  0.000000,  4.574968)
  16 P  ( 0.000000,  0.000000,  0.000811)
  17 P  ( 0.000000,  0.000000, -0.000816)
  18 P  ( 0.000000,  0.000000, -0.000799)
  19 P  ( 0.000000,  0.000000,  0.000700)
  20 O  ( 0.000000,  0.000000,  0.020738)
  21 O  ( 0.000000,  0.000000, -0.020708)
  22 O  ( 0.000000,  0.000000, -0.020688)
  23 O  ( 0.000000,  0.000000,  0.020941)
  24 Li ( 0.000000,  0.000000,  0.000003)
  25 Li ( 0.000000,  0.000000, -0.000000)
  26 Li ( 0.000000,  0.000000,  0.000003)
  27 Li ( 0.000000,  0.000000, -0.000000)

Energy contributions relative to reference atoms: (reference = -196157.275402)

Kinetic:       +296.886370
Potential:     -256.403713
External:        +0.000000
XC:            -267.670626
Entropy (-ST):   -0.000000
Local:           +1.780536
--------------------------
Free energy:   -225.407433
Extrapolated:  -225.407433

Spin contamination: 9.697361 electrons
Showing only first 2 kpts
                      Up                     Down
 Kpt  Band  Eigenvalues  Occupancy  Eigenvalues  Occupancy
  0    88      5.10812    0.00694      5.10334    0.00694
  0    89      5.16514    0.00694      5.15561    0.00694
  0    90      9.64666    0.00000      9.64987    0.00000
  0    91      9.66838    0.00000      9.67595    0.00000

  1    88      5.12001    0.00694      5.11471    0.00694
  1    89      5.17358    0.00694      5.16501    0.00694
  1    90      9.52894    0.00000      9.53203    0.00000
  1    91      9.54292    0.00000      9.54955    0.00000


Fermi level: 6.37004

Gap: 3.795 eV
Transition (v -> c):
  (s=0, k=68, n=89, [-0.08, 0.42, -0.38]) -> (s=1, k=85, n=90, [0.08, 0.08, -0.12])
Writing to born-0.01-19z-.gpw (mode='all')

Timing:                              incl.     excl.
-----------------------------------------------------------
Hamiltonian:                         0.222     0.002   0.0% |
 Atomic:                             0.058     0.058   0.0% |
  XC Correction:                     0.000     0.000   0.0% |
 Calculate atomic Hamiltonians:      0.075     0.075   0.0% |
 Communicate:                        0.002     0.002   0.0% |
 Initialize Hamiltonian:             0.000     0.000   0.0% |
 Poisson:                            0.001     0.001   0.0% |
 XC 3D grid:                         0.084     0.084   0.0% |
LCAO initialization:                68.437     0.649   0.0% |
 LCAO eigensolver:                  19.306     0.002   0.0% |
  Calculate projections:             0.029     0.029   0.0% |
  DenseAtomicCorrection:             0.045     0.045   0.0% |
  Distribute overlap matrix:         0.009     0.009   0.0% |
  Orbital Layouts:                   0.431     0.431   0.0% |
  Potential matrix:                 18.692    18.692   0.6% |
  Sum over cells:                    0.098     0.098   0.0% |
 LCAO to grid:                      47.134    47.134   1.6% ||
 Set positions (LCAO WFS):           1.348     0.190   0.0% |
  Basic WFS set positions:           0.001     0.001   0.0% |
  Basis functions set positions:     0.000     0.000   0.0% |
  P tci:                             0.521     0.521   0.0% |
  ST tci:                            0.382     0.382   0.0% |
  mktci:                             0.254     0.254   0.0% |
PWDescriptor:                        0.024     0.024   0.0% |
SCF-cycle:                        1143.335     2.963   0.1% |
 Davidson:                         961.105   295.164   9.8% |---|
  Apply H:                          66.199    64.301   2.1% ||
   HMM T:                            1.898     1.898   0.1% |
  Subspace diag:                   139.281     0.143   0.0% |
   calc_h_matrix:                   89.406    23.266   0.8% |
    Apply H:                        66.139    64.225   2.1% ||
     HMM T:                          1.914     1.914   0.1% |
   diagonalize:                      6.904     6.904   0.2% |
   rotate_psi:                      42.828    42.828   1.4% ||
  calc. matrices:                  287.733   157.906   5.2% |-|
   Apply H:                        129.827   126.267   4.2% |-|
    HMM T:                           3.561     3.561   0.1% |
  diagonalize:                      80.159    80.159   2.7% ||
  rotate_psi:                       92.569    92.569   3.1% ||
 Density:                           38.904     0.001   0.0% |
  Atomic density matrices:           0.781     0.781   0.0% |
  Mix:                               5.304     5.304   0.2% |
  Multipole moments:                 0.018     0.018   0.0% |
  Pseudo density:                   32.799    32.798   1.1% |
   Symmetrize density:               0.001     0.001   0.0% |
 Forces:                           127.202   127.202   4.2% |-|
 Hamiltonian:                       11.071     0.106   0.0% |
  Atomic:                            2.809     2.809   0.1% |
   XC Correction:                    0.000     0.000   0.0% |
  Calculate atomic Hamiltonians:     3.774     3.774   0.1% |
  Communicate:                       0.098     0.098   0.0% |
  Poisson:                           0.030     0.030   0.0% |
  XC 3D grid:                        4.255     4.255   0.1% |
 Orthonormalize:                     2.090     0.003   0.0% |
  calc_s_matrix:                     0.245     0.245   0.0% |
  inverse-cholesky:                  0.073     0.073   0.0% |
  projections:                       1.334     1.334   0.0% |
  rotate_psi_s:                      0.435     0.435   0.0% |
Set symmetry:                        0.000     0.000   0.0% |
Other:                            1800.907  1800.907  59.8% |-----------------------|
-----------------------------------------------------------
Total:                                      3012.925 100.0%

Memory usage: 12.93 GiB
Date: Wed Mar 24 13:38:24 2021
