
  ___ ___ ___ _ _ _  
 |   |   |_  | | | | 
 | | | | | . | | | | 
 |__ |  _|___|_____|  20.10.1b1
 |___|_|             

User:   madkru@g035.nifl.fysik.dtu.dk
Date:   Mon Mar 22 11:29:33 2021
Arch:   x86_64
Pid:    44316
Python: 3.7.4
gpaw:   /home/niflheim/madkru/venv_folder/gpaw/gpaw (d0d1ca1c71)
_gpaw:  /home/niflheim/madkru/venv_folder/gpaw/build/lib.linux-x86_64-sandybridge-3.7/
        _gpaw.cpython-37m-x86_64-linux-gnu.so (4fd39e8b1e)
ase:    /home/niflheim/madkru/venv_folder/ase/ase (version 3.21.0b1-7e6c206a91)
numpy:  /home/niflheim/madkru/venv_folder/lib/python3.7/site-packages/numpy (version 1.19.4)
scipy:  /home/niflheim/madkru/venv_folder/lib/python3.7/site-packages/scipy (version 1.5.4)
libxc:  4.3.4
units:  Angstrom and eV
cores: 32
OMP_NUM_THREADS: 1

Input parameters:
  convergence: {bands: occupied,
                density: 0.0001,
                eigenstates: 4e-08,
                energy: 0.0005,
                forces: 1e-06}
  kpts: [6 6 4]
  mode: {ecut: 600.0,
         gammacentered: False,
         name: pw}
  occupations: {fixmagmom: False,
                name: fermi-dirac,
                width: 0.001}
  setups: {Mn: :d,3.0}
  symmetry: {point_group: False,
             time_reversal: False}

System changes: positions, numbers, cell, pbc, initial_charges, initial_magmoms 

Initialize ...

O-setup:
  name: Oxygen
  id: 9b9d51c344dea68c822856295a461509
  Z: 8.0
  valence: 6
  core: 2
  charge: 0.0
  file: /home/modules/software/GPAW-setups/0.9.20000/O.LDA.gz
  compensation charges: gauss, rc=0.21, lmax=2
  cutoffs: 1.17(filt), 0.83(core),
  valence states:
                energy  radius
    2s(2.00)   -23.752   0.688
    2p(4.00)    -9.195   0.598
    *s           3.459   0.688
    *p          18.016   0.598
    *d           0.000   0.619

  Using partial waves for O as LCAO basis

Mn-setup:
  name: Manganese
  id: 0d715a8018be061a6e9ea6f2d364ac92
  Z: 25.0
  valence: 15
  core: 10
  charge: 0.0
  Hubbard U: 3.000000 eV (l=2, scale=True)
  file: /home/modules/software/GPAW-setups/0.9.20000/Mn.LDA.gz
  compensation charges: gauss, rc=0.38, lmax=2
  cutoffs: 2.14(filt), 0.86(core),
  valence states:
                energy  radius
    3s(2.00)   -85.387   1.275
    4s(2.00)    -5.282   1.275
    3p(6.00)   -54.493   1.281
    4p(0.00)    -1.471   1.281
    3d(5.00)    -7.009   1.138
    *d          20.203   1.138

  Using partial waves for Mn as LCAO basis

P-setup:
  name: Phosphorus
  id: a5561c299094968922a179ab894d2e2d
  Z: 15.0
  valence: 5
  core: 10
  charge: 0.0
  file: /home/modules/software/GPAW-setups/0.9.20000/P.LDA.gz
  compensation charges: gauss, rc=0.30, lmax=2
  cutoffs: 1.69(filt), 1.81(core),
  valence states:
                energy  radius
    3s(2.00)   -14.015   0.953
    3p(3.00)    -5.596   0.953
    *s          13.197   0.953
    *p          21.615   0.953
    *d           0.000   0.953

  Using partial waves for P as LCAO basis

Li-setup:
  name: Lithium
  id: b73562207f97a71b6967473b66fe8b65
  Z: 3.0
  valence: 1
  core: 2
  charge: 0.0
  file: /home/modules/software/GPAW-setups/0.9.20000/Li.LDA.gz
  compensation charges: gauss, rc=0.33, lmax=2
  cutoffs: 1.91(filt), 2.55(core),
  valence states:
                energy  radius
    2s(1.00)    -2.874   1.058
    2p(0.00)    -1.126   1.058
    *s          24.338   1.058

  Using partial waves for Li as LCAO basis

Reference energy: -196157.275402

Spin-polarized calculation.
Magnetic moment: 0.000000

Convergence criteria:
  Maximum total energy change: 0.0005 eV / electron
  Maximum integral of absolute density change: 0.0001 electrons
  Maximum integral of absolute eigenstate change: 4e-08 eV^2
  Maximum change in atomic force: 1e-06 eV / Ang
  Maximum number of iterations: 333

Symmetries present (total): 1

  ( 1  0  0)
  ( 0  1  0)
  ( 0  0  1)

144 k-points: 6 x 6 x 4 Monkhorst-Pack grid
144 k-points in the irreducible part of the Brillouin zone
       k-points in crystal coordinates                weights
   0:    -0.41666667   -0.41666667   -0.37500000          1/144
   1:    -0.41666667   -0.41666667   -0.12500000          1/144
   2:    -0.41666667   -0.41666667    0.12500000          1/144
   3:    -0.41666667   -0.41666667    0.37500000          1/144
   4:    -0.41666667   -0.25000000   -0.37500000          1/144
   5:    -0.41666667   -0.25000000   -0.12500000          1/144
   6:    -0.41666667   -0.25000000    0.12500000          1/144
   7:    -0.41666667   -0.25000000    0.37500000          1/144
   8:    -0.41666667   -0.08333333   -0.37500000          1/144
   9:    -0.41666667   -0.08333333   -0.12500000          1/144
          ...
 143:     0.41666667    0.41666667    0.37500000          1/144

Wave functions: Plane wave expansion
  Cutoff energy: 600.000 eV
  Number of coefficients (min, max): 9238, 9284
  Pulay-stress correction: 0.000000 eV/Ang^3 (de/decut=0.000000)
  Using FFTW library
  ScaLapack parameters: grid=1x1, blocksize=None
  Wavefunction extrapolation:
    Improved wavefunction reuse through dual PAW basis 

  Fermi-Dirac: width=0.0010 eV

Eigensolver
   Davidson(niter=2, smin=None, normalize=True) 

Densities:
  Coarse grid: 60*35*27 grid
  Fine grid: 120*70*54 grid
  Total Charge: 0.000000 

Density mixing:
  Method: difference
  Backend: pulay
  Linear mixing parameter: 0.05
  Mixing with 5 old densities
  Damping of long wave oscillations: 50 

Hamiltonian:
  XC and Coulomb potentials evaluated on a 120*70*54 grid
  Using the LDA Exchange-Correlation functional
 

Memory estimate:
  Process memory now: 13062.44 MiB
  Calculator: 346.50 MiB
    Density: 19.24 MiB
      Arrays: 7.57 MiB
      Localized functions: 8.64 MiB
      Mixer: 3.03 MiB
    Hamiltonian: 5.87 MiB
      Arrays: 5.62 MiB
      XC: 0.00 MiB
      Poisson: 0.00 MiB
      vbar: 0.25 MiB
    Wavefunctions: 321.38 MiB
      Arrays psit_nG: 285.59 MiB
      Eigensolver: 18.49 MiB
      Projections: 5.41 MiB
      Projectors: 8.92 MiB
      PW-descriptor: 2.96 MiB

Total number of cores used: 32
Parallelization over k-points: 16
Domain decomposition: 2 x 1 x 1

Number of atoms: 28
Number of atomic orbitals: 148
Number of bands in calculation: 112
Number of valence electrons: 180
Bands to converge: occupied

... initialized

Initializing position-dependent things.

Density initialized from atomic densities
Creating initial wave functions:
  112 bands from LCAO basis set

                                           
                                           
                                           
                                           
                                           
               O     O  P  O               
            PO           OMn     O         
                  O          MO            
            O        Li O                  
             Mn  On          OP            
         O         Li O                    
         Li     O P         O              
       Li                                  
                                           
                                           
                                           
                                           

Positions:
   0 O     -1.263197   -2.497779   -1.098475    ( 0.0000,  0.0000,  0.0000)
   1 O     -3.070823    2.922496    1.209491    ( 0.0000,  0.0000,  0.0000)
   2 O      1.985541    0.474863    1.428016    ( 0.0000,  0.0000,  0.0000)
   3 O      3.793120   -0.050100   -0.879950    ( 0.0000,  0.0000,  0.0000)
   4 O      1.985518    2.922485    1.428149    ( 0.0000,  0.0000,  0.0000)
   5 O      3.793144   -2.497790   -0.879818    ( 0.0000,  0.0000,  0.0000)
   6 O     -1.263220   -0.050157   -1.108342    ( 0.0000,  0.0000,  0.0000)
   7 O     -3.070798    0.474805    1.209623    ( 0.0000,  0.0000,  0.0000)
   8 O     -4.167835   -1.273920   -0.862116    ( 0.0000,  0.0000,  0.0000)
   9 O     -0.166037    1.698602    1.445528    ( 0.0000,  0.0000,  0.0000)
  10 O      4.890156    1.698625    1.191790    ( 0.0000,  0.0000,  0.0000)
  11 O      0.888358   -1.273896   -1.115855    ( 0.0000,  0.0000,  0.0000)
  12 Mn    -2.445557   -1.274211    0.312921    ( 0.0000,  0.0000,  1.0000)
  13 Mn    -1.888303    1.698892   -1.994948    ( 0.0000,  0.0000, -1.0000)
  14 Mn     3.167879    1.698917    0.016752    ( 0.0000,  0.0000, -1.0000)
  15 Mn     2.610624   -1.274187    2.324621    ( 0.0000,  0.0000,  1.0000)
  16 P     -0.529549   -1.273917   -1.724376    ( 0.0000,  0.0000,  0.0000)
  17 P     -3.804359    1.698599    0.583463    ( 0.0000,  0.0000,  0.0000)
  18 P      1.251870    1.698623    2.054050    ( 0.0000,  0.0000,  0.0000)
  19 P      4.526680   -1.273894   -0.253789    ( 0.0000,  0.0000,  0.0000)
  20 O     -0.544227   -1.273926    1.365380    ( 0.0000,  0.0000,  0.0000)
  21 O     -3.789411    1.698610   -0.942222    ( 0.0000,  0.0000,  0.0000)
  22 O      1.266548    1.698631   -1.035707    ( 0.0000,  0.0000,  0.0000)
  23 O      4.511733   -1.273905    1.271895    ( 0.0000,  0.0000,  0.0000)
  24 Li    -4.695087   -2.760584   -2.142877    ( 0.0000,  0.0000,  0.0000)
  25 Li     0.361147   -2.760561    0.164836    ( 0.0000,  0.0000,  0.0000)
  26 Li    -4.695074    0.212330   -2.142877    ( 0.0000,  0.0000,  0.0000)
  27 Li     0.361161    0.212353    0.164837    ( 0.0000,  0.0000,  0.0000)

Unit cell:
           periodic     x           y           z      points  spacing
  1. axis:    yes   10.112485    0.000045   -0.000035    60     0.1685
  2. axis:    yes    0.000026    5.945827    0.000001    35     0.1699
  3. axis:    yes   -0.000016    0.000000    4.615463    27     0.1709

  Lengths:  10.112485   5.945827   4.615463
  Angles:   89.999989  90.000396  89.999490

Effective grid spacing dv^(1/3) = 0.1698

                     log10-error:           total        iterations:
           time      wfs    density  force  energy       poisson  magmom
iter:   1  11:32:47                       -221.373744             +0.0000
iter:   2  11:33:24  -0.61  -0.93         -234.837866             +0.0000
iter:   3  11:34:01  -0.37  -0.97         -225.913618             -0.0000
iter:   4  11:34:39  -1.39  -1.29         -225.761091             +0.0000
iter:   5  11:35:16  -1.27  -1.39         -227.330237             +0.0000
iter:   6  11:35:53  -1.46  -1.46         -225.737043             +0.0000
iter:   7  11:36:31  -2.47  -2.04         -225.724498             +0.0000
iter:   8  11:37:08  -2.14  -1.99         -225.593345             +0.0000
iter:   9  11:37:45  -2.46  -2.08         -225.432004             +0.0000
iter:  10  11:38:23  -3.31  -2.55         -225.422102             +0.0000
iter:  11  11:39:00  -3.66  -2.81         -225.411790             +0.0000
iter:  12  11:39:37  -4.10  -3.04         -225.410603             +0.0000
iter:  13  11:40:15  -5.10  -3.29         -225.410467             -0.0000
iter:  14  11:40:52  -5.39  -3.32         -225.410296             +0.0000
iter:  15  11:41:29  -6.05  -3.43         -225.410300             +0.0000
iter:  16  11:42:07  -5.24  -3.47         -225.410648             -0.0000
iter:  17  11:42:44  -5.91  -3.58         -225.410528             -0.0000
iter:  18  11:43:21  -5.20  -3.70         -225.410239             -0.0000
iter:  19  11:43:59  -6.06  -4.11         -225.410252             -0.0000
iter:  20  11:44:36  -7.21  -4.40         -225.410251             +0.0000
iter:  21  11:45:13  -7.39  -4.44         -225.410250             -0.0000
iter:  22  11:46:00  -7.69  -4.54         -225.410251             -0.0000
iter:  23  11:46:47  -8.65  -4.53    -3.49-225.410250             -0.0000
iter:  24  11:47:24  -7.16  -4.57         -225.410249             -0.0000
iter:  25  11:48:11  -8.35  -4.92    -2.47-225.410249             -0.0000
iter:  26  11:48:58  -7.68  -5.00    -2.66-225.410249             +0.0000
iter:  27  11:49:45  -8.28  -5.12    -2.86-225.410249             +0.0000
iter:  28  11:50:32  -9.24  -5.43    -3.54-225.410249             +0.0000
iter:  29  11:51:19  -8.52  -5.43    -3.02-225.410249             +0.0000
iter:  30  11:52:06  -8.86  -5.66    -3.46-225.410249             -0.0000
iter:  31  11:52:53  -9.64  -5.67    -3.53-225.410249             -0.0000
iter:  32  11:53:40 -10.56  -5.79    -4.45-225.410249             -0.0000
iter:  33  11:54:27  -9.88  -5.86    -4.00-225.410249             -0.0000
iter:  34  11:55:14 -11.12  -6.08    -4.37-225.410249             +0.0000
iter:  35  11:56:01 -10.93  -6.13    -4.38-225.410249             -0.0000
iter:  36  11:56:48 -11.42  -6.26    -4.67-225.410249             -0.0000
iter:  37  11:57:35 -10.51  -6.30    -3.75-225.410249             -0.0000
iter:  38  11:58:22 -11.47  -6.59    -4.46-225.410249             -0.0000
iter:  39  11:59:09 -12.00  -6.71    -4.91-225.410249             +0.0000
iter:  40  11:59:56 -11.30  -6.63    -4.58-225.410249             -0.0000
iter:  41  12:00:43 -12.54  -6.78    -5.57-225.410249             -0.0000
iter:  42  12:01:30 -11.88  -6.82    -4.35-225.410249             -0.0000
iter:  43  12:02:17 -12.14  -6.98    -5.02-225.410249             -0.0000
iter:  44  12:03:04 -12.92  -7.48    -5.33-225.410249             +0.0000
iter:  45  12:03:51 -13.78  -7.83    -6.03-225.410249             +0.0000

Converged after 45 iterations.

Dipole moment: (19.052670, -1.429068, -4.186566) |e|*Ang

Total magnetic moment: (0.000000, 0.000000, 0.000000)
Local magnetic moments:
   0 O  ( 0.000000,  0.000000,  0.000633)
   1 O  ( 0.000000,  0.000000, -0.000579)
   2 O  ( 0.000000,  0.000000, -0.000668)
   3 O  ( 0.000000,  0.000000,  0.000665)
   4 O  ( 0.000000,  0.000000, -0.000674)
   5 O  ( 0.000000,  0.000000,  0.000666)
   6 O  ( 0.000000,  0.000000,  0.000469)
   7 O  ( 0.000000,  0.000000, -0.000721)
   8 O  ( 0.000000,  0.000000,  0.022350)
   9 O  ( 0.000000,  0.000000, -0.022411)
  10 O  ( 0.000000,  0.000000, -0.022365)
  11 O  ( 0.000000,  0.000000,  0.022298)
  12 Mn ( 0.000000,  0.000000,  4.575406)
  13 Mn ( 0.000000,  0.000000, -4.574683)
  14 Mn ( 0.000000,  0.000000, -4.575071)
  15 Mn ( 0.000000,  0.000000,  4.575034)
  16 P  ( 0.000000,  0.000000,  0.000655)
  17 P  ( 0.000000,  0.000000, -0.000824)
  18 P  ( 0.000000,  0.000000, -0.000817)
  19 P  ( 0.000000,  0.000000,  0.000808)
  20 O  ( 0.000000,  0.000000,  0.020705)
  21 O  ( 0.000000,  0.000000, -0.020723)
  22 O  ( 0.000000,  0.000000, -0.020717)
  23 O  ( 0.000000,  0.000000,  0.020706)
  24 Li ( 0.000000,  0.000000, -0.000001)
  25 Li ( 0.000000,  0.000000, -0.000000)
  26 Li ( 0.000000,  0.000000,  0.000001)
  27 Li ( 0.000000,  0.000000, -0.000007)

Energy contributions relative to reference atoms: (reference = -196157.275402)

Kinetic:       +297.090398
Potential:     -256.575837
External:        +0.000000
XC:            -267.704804
Entropy (-ST):   -0.000000
Local:           +1.779995
--------------------------
Free energy:   -225.410249
Extrapolated:  -225.410249

Spin contamination: 9.697307 electrons
Showing only first 2 kpts
                      Up                     Down
 Kpt  Band  Eigenvalues  Occupancy  Eigenvalues  Occupancy
  0    88      5.10698    0.00694      5.11104    0.00694
  0    89      5.15860    0.00694      5.16261    0.00694
  0    90      9.65234    0.00000      9.64880    0.00000
  0    91      9.67039    0.00000      9.66998    0.00000

  1    88      5.11861    0.00694      5.12242    0.00694
  1    89      5.16734    0.00694      5.17184    0.00694
  1    90      9.53460    0.00000      9.53229    0.00000
  1    91      9.54405    0.00000      9.54473    0.00000


Fermi level: 6.36979

Gap: 3.795 eV
Transition (v -> c):
  (s=1, k=71, n=89, [-0.08, 0.42, 0.38]) -> (s=0, k=62, n=90, [-0.08, 0.08, 0.12])
Writing to born-0.01-6z-.gpw (mode='all')

Timing:                              incl.     excl.
-----------------------------------------------------------
Hamiltonian:                         0.412     0.002   0.0% |
 Atomic:                             0.062     0.062   0.0% |
  XC Correction:                     0.000     0.000   0.0% |
 Calculate atomic Hamiltonians:      0.167     0.167   0.0% |
 Communicate:                        0.005     0.005   0.0% |
 Initialize Hamiltonian:             0.000     0.000   0.0% |
 Poisson:                            0.001     0.001   0.0% |
 XC 3D grid:                         0.174     0.174   0.0% |
LCAO initialization:               152.312     0.678   0.0% |
 LCAO eigensolver:                  40.502     0.002   0.0% |
  Calculate projections:             0.057     0.057   0.0% |
  DenseAtomicCorrection:             0.083     0.083   0.0% |
  Distribute overlap matrix:         0.118     0.118   0.0% |
  Orbital Layouts:                   0.361     0.361   0.0% |
  Potential matrix:                 39.781    39.781   0.8% |
  Sum over cells:                    0.100     0.100   0.0% |
 LCAO to grid:                     108.750   108.750   2.2% ||
 Set positions (LCAO WFS):           2.382     0.372   0.0% |
  Basic WFS set positions:           0.001     0.001   0.0% |
  Basis functions set positions:     0.000     0.000   0.0% |
  P tci:                             1.081     1.081   0.0% |
  ST tci:                            0.710     0.710   0.0% |
  mktci:                             0.216     0.216   0.0% |
PWDescriptor:                        0.025     0.025   0.0% |
SCF-cycle:                        1904.053     1.007   0.0% |
 Davidson:                        1590.362   503.808  10.2% |---|
  Apply H:                         117.833   114.313   2.3% ||
   HMM T:                            3.521     3.521   0.1% |
  Subspace diag:                   238.041     0.140   0.0% |
   calc_h_matrix:                  157.085    40.978   0.8% |
    Apply H:                       116.107   112.688   2.3% ||
     HMM T:                          3.419     3.419   0.1% |
   diagonalize:                      5.497     5.497   0.1% |
   rotate_psi:                      75.318    75.318   1.5% ||
  calc. matrices:                  501.686   274.290   5.6% |-|
   Apply H:                        227.396   220.890   4.5% |-|
    HMM T:                           6.506     6.506   0.1% |
  diagonalize:                      75.649    75.649   1.5% ||
  rotate_psi:                      153.344   153.344   3.1% ||
 Density:                           65.863     0.001   0.0% |
  Atomic density matrices:           1.142     1.142   0.0% |
  Mix:                              10.031    10.031   0.2% |
  Multipole moments:                 0.026     0.026   0.0% |
  Pseudo density:                   54.664    54.663   1.1% |
   Symmetrize density:               0.001     0.001   0.0% |
 Forces:                           224.526   224.526   4.6% |-|
 Hamiltonian:                       18.234     0.104   0.0% |
  Atomic:                            2.563     2.562   0.1% |
   XC Correction:                    0.000     0.000   0.0% |
  Calculate atomic Hamiltonians:     7.528     7.528   0.2% |
  Communicate:                       0.085     0.085   0.0% |
  Poisson:                           0.068     0.068   0.0% |
  XC 3D grid:                        7.886     7.886   0.2% |
 Orthonormalize:                     4.061     0.003   0.0% |
  calc_s_matrix:                     0.485     0.485   0.0% |
  inverse-cholesky:                  0.054     0.054   0.0% |
  projections:                       2.658     2.658   0.1% |
  rotate_psi_s:                      0.861     0.861   0.0% |
Set symmetry:                        0.000     0.000   0.0% |
Other:                            2863.768  2863.768  58.2% |----------------------|
-----------------------------------------------------------
Total:                                      4920.570 100.0%

Memory usage: 12.78 GiB
Date: Mon Mar 22 12:51:33 2021
