
  ___ ___ ___ _ _ _  
 |   |   |_  | | | | 
 | | | | | . | | | | 
 |__ |  _|___|_____|  20.10.1b1
 |___|_|             

User:   madkru@i018.nifl.fysik.dtu.dk
Date:   Wed Mar 24 18:36:08 2021
Arch:   x86_64
Pid:    26873
Python: 3.7.4
gpaw:   /home/niflheim/madkru/venv_folder/gpaw/gpaw (d224efde0f)
_gpaw:  /home/niflheim/madkru/venv_folder/gpaw/build/lib.linux-x86_64-ivybridge-3.7/
        _gpaw.cpython-37m-x86_64-linux-gnu.so (4fd39e8b1e)
ase:    /home/niflheim/madkru/venv_folder/ase/ase (version 3.21.0b1-4d5a73cb29)
numpy:  /home/niflheim/madkru/venv_folder/lib/python3.7/site-packages/numpy (version 1.19.4)
scipy:  /home/niflheim/madkru/venv_folder/lib/python3.7/site-packages/scipy (version 1.5.4)
libxc:  4.3.4
units:  Angstrom and eV
cores: 64
OMP_NUM_THREADS: 1

Input parameters:
  convergence: {bands: occupied,
                density: 0.0001,
                eigenstates: 4e-08,
                energy: 0.0005,
                forces: 1e-06}
  kpts: [6 6 4]
  mode: {ecut: 600.0,
         gammacentered: False,
         name: pw}
  occupations: {fixmagmom: False,
                name: fermi-dirac,
                width: 0.001}
  setups: {Mn: :d,3.0}
  symmetry: {point_group: False,
             time_reversal: False}

System changes: positions, numbers, cell, pbc, initial_charges, initial_magmoms 

Initialize ...

O-setup:
  name: Oxygen
  id: 9b9d51c344dea68c822856295a461509
  Z: 8.0
  valence: 6
  core: 2
  charge: 0.0
  file: /home/modules/software/GPAW-setups/0.9.20000/O.LDA.gz
  compensation charges: gauss, rc=0.21, lmax=2
  cutoffs: 1.17(filt), 0.83(core),
  valence states:
                energy  radius
    2s(2.00)   -23.752   0.688
    2p(4.00)    -9.195   0.598
    *s           3.459   0.688
    *p          18.016   0.598
    *d           0.000   0.619

  Using partial waves for O as LCAO basis

Mn-setup:
  name: Manganese
  id: 0d715a8018be061a6e9ea6f2d364ac92
  Z: 25.0
  valence: 15
  core: 10
  charge: 0.0
  Hubbard U: 3.000000 eV (l=2, scale=True)
  file: /home/modules/software/GPAW-setups/0.9.20000/Mn.LDA.gz
  compensation charges: gauss, rc=0.38, lmax=2
  cutoffs: 2.14(filt), 0.86(core),
  valence states:
                energy  radius
    3s(2.00)   -85.387   1.275
    4s(2.00)    -5.282   1.275
    3p(6.00)   -54.493   1.281
    4p(0.00)    -1.471   1.281
    3d(5.00)    -7.009   1.138
    *d          20.203   1.138

  Using partial waves for Mn as LCAO basis

P-setup:
  name: Phosphorus
  id: a5561c299094968922a179ab894d2e2d
  Z: 15.0
  valence: 5
  core: 10
  charge: 0.0
  file: /home/modules/software/GPAW-setups/0.9.20000/P.LDA.gz
  compensation charges: gauss, rc=0.30, lmax=2
  cutoffs: 1.69(filt), 1.81(core),
  valence states:
                energy  radius
    3s(2.00)   -14.015   0.953
    3p(3.00)    -5.596   0.953
    *s          13.197   0.953
    *p          21.615   0.953
    *d           0.000   0.953

  Using partial waves for P as LCAO basis

Li-setup:
  name: Lithium
  id: b73562207f97a71b6967473b66fe8b65
  Z: 3.0
  valence: 1
  core: 2
  charge: 0.0
  file: /home/modules/software/GPAW-setups/0.9.20000/Li.LDA.gz
  compensation charges: gauss, rc=0.33, lmax=2
  cutoffs: 1.91(filt), 2.55(core),
  valence states:
                energy  radius
    2s(1.00)    -2.874   1.058
    2p(0.00)    -1.126   1.058
    *s          24.338   1.058

  Using partial waves for Li as LCAO basis

Reference energy: -196157.275402

Spin-polarized calculation.
Magnetic moment: 0.000000

Convergence criteria:
  Maximum total energy change: 0.0005 eV / electron
  Maximum integral of absolute density change: 0.0001 electrons
  Maximum integral of absolute eigenstate change: 4e-08 eV^2
  Maximum change in atomic force: 1e-06 eV / Ang
  Maximum number of iterations: 333

Symmetries present (total): 1

  ( 1  0  0)
  ( 0  1  0)
  ( 0  0  1)

144 k-points: 6 x 6 x 4 Monkhorst-Pack grid
144 k-points in the irreducible part of the Brillouin zone
       k-points in crystal coordinates                weights
   0:    -0.41666667   -0.41666667   -0.37500000          1/144
   1:    -0.41666667   -0.41666667   -0.12500000          1/144
   2:    -0.41666667   -0.41666667    0.12500000          1/144
   3:    -0.41666667   -0.41666667    0.37500000          1/144
   4:    -0.41666667   -0.25000000   -0.37500000          1/144
   5:    -0.41666667   -0.25000000   -0.12500000          1/144
   6:    -0.41666667   -0.25000000    0.12500000          1/144
   7:    -0.41666667   -0.25000000    0.37500000          1/144
   8:    -0.41666667   -0.08333333   -0.37500000          1/144
   9:    -0.41666667   -0.08333333   -0.12500000          1/144
          ...
 143:     0.41666667    0.41666667    0.37500000          1/144

Wave functions: Plane wave expansion
  Cutoff energy: 600.000 eV
  Number of coefficients (min, max): 9238, 9284
  Pulay-stress correction: 0.000000 eV/Ang^3 (de/decut=0.000000)
  Using FFTW library
  ScaLapack parameters: grid=1x1, blocksize=None
  Wavefunction extrapolation:
    Improved wavefunction reuse through dual PAW basis 

  Fermi-Dirac: width=0.0010 eV

Eigensolver
   Davidson(niter=2, smin=None, normalize=True) 

Densities:
  Coarse grid: 60*35*27 grid
  Fine grid: 120*70*54 grid
  Total Charge: 0.000000 

Density mixing:
  Method: difference
  Backend: pulay
  Linear mixing parameter: 0.05
  Mixing with 5 old densities
  Damping of long wave oscillations: 50 

Hamiltonian:
  XC and Coulomb potentials evaluated on a 120*70*54 grid
  Using the LDA Exchange-Correlation functional
 

Memory estimate:
  Process memory now: 13476.89 MiB
  Calculator: 326.59 MiB
    Density: 9.67 MiB
      Arrays: 3.79 MiB
      Localized functions: 4.32 MiB
      Mixer: 1.56 MiB
    Hamiltonian: 2.94 MiB
      Arrays: 2.82 MiB
      XC: 0.00 MiB
      Poisson: 0.00 MiB
      vbar: 0.12 MiB
    Wavefunctions: 313.97 MiB
      Arrays psit_nG: 285.59 MiB
      Eigensolver: 18.49 MiB
      Projections: 2.71 MiB
      Projectors: 4.46 MiB
      PW-descriptor: 2.72 MiB

Total number of cores used: 64
Parallelization over k-points: 16
Domain decomposition: 2 x 2 x 1

Number of atoms: 28
Number of atomic orbitals: 148
Number of bands in calculation: 112
Number of valence electrons: 180
Bands to converge: occupied

... initialized

Initializing position-dependent things.

Density initialized from atomic densities
Creating initial wave functions:
  112 bands from LCAO basis set

                                           
                                           
                                           
                                           
                                           
               O     O  P  O               
            PO           OMn     O         
                  O          MO            
            O        Li O                  
             Mn  On          OP            
         O         Li O                    
         Li     O P         O              
       Li                                  
                                           
                                           
                                           
                                           

Positions:
   0 O     -1.263197   -2.497779   -1.098475    ( 0.0000,  0.0000,  0.0000)
   1 O     -3.070823    2.922496    1.209491    ( 0.0000,  0.0000,  0.0000)
   2 O      1.985541    0.474863    1.428016    ( 0.0000,  0.0000,  0.0000)
   3 O      3.793120   -0.050100   -0.879950    ( 0.0000,  0.0000,  0.0000)
   4 O      1.985518    2.922485    1.428149    ( 0.0000,  0.0000,  0.0000)
   5 O      3.793144   -2.497790   -0.879818    ( 0.0000,  0.0000,  0.0000)
   6 O     -1.263220   -0.050157   -1.098342    ( 0.0000,  0.0000,  0.0000)
   7 O     -3.070798    0.474805    1.209623    ( 0.0000,  0.0000,  0.0000)
   8 O     -4.167835   -1.273920   -0.862116    ( 0.0000,  0.0000,  0.0000)
   9 O     -0.166037    1.698602    1.445528    ( 0.0000,  0.0000,  0.0000)
  10 O      4.890156    1.698625    1.191790    ( 0.0000,  0.0000,  0.0000)
  11 O      0.888358   -1.273896   -1.115855    ( 0.0000,  0.0000,  0.0000)
  12 Mn    -2.445557   -1.274211    0.312921    ( 0.0000,  0.0000,  1.0000)
  13 Mn    -1.888303    1.698892   -1.994948    ( 0.0000,  0.0000, -1.0000)
  14 Mn     3.167879    1.698917    0.016752    ( 0.0000,  0.0000, -1.0000)
  15 Mn     2.610624   -1.274187    2.324621    ( 0.0000,  0.0000,  1.0000)
  16 P     -0.529549   -1.273917   -1.724376    ( 0.0000,  0.0000,  0.0000)
  17 P     -3.804359    1.698599    0.583463    ( 0.0000,  0.0000,  0.0000)
  18 P      1.251870    1.698623    2.054050    ( 0.0000,  0.0000,  0.0000)
  19 P      4.526680   -1.273894   -0.253789    ( 0.0000,  0.0000,  0.0000)
  20 O     -0.544227   -1.273926    1.365380    ( 0.0000,  0.0000,  0.0000)
  21 O     -3.789411    1.698610   -0.952222    ( 0.0000,  0.0000,  0.0000)
  22 O      1.266548    1.698631   -1.035707    ( 0.0000,  0.0000,  0.0000)
  23 O      4.511733   -1.273905    1.271895    ( 0.0000,  0.0000,  0.0000)
  24 Li    -4.695087   -2.760584   -2.142877    ( 0.0000,  0.0000,  0.0000)
  25 Li     0.361147   -2.760561    0.164836    ( 0.0000,  0.0000,  0.0000)
  26 Li    -4.695074    0.212330   -2.142877    ( 0.0000,  0.0000,  0.0000)
  27 Li     0.361161    0.212353    0.164837    ( 0.0000,  0.0000,  0.0000)

Unit cell:
           periodic     x           y           z      points  spacing
  1. axis:    yes   10.112485    0.000045   -0.000035    60     0.1685
  2. axis:    yes    0.000026    5.945827    0.000001    35     0.1699
  3. axis:    yes   -0.000016    0.000000    4.615463    27     0.1709

  Lengths:  10.112485   5.945827   4.615463
  Angles:   89.999989  90.000396  89.999490

Effective grid spacing dv^(1/3) = 0.1698

                     log10-error:           total        iterations:
           time      wfs    density  force  energy       poisson  magmom
iter:   1  18:37:45                       -221.380327             +0.0000
iter:   2  18:38:04  -0.61  -0.93         -234.826732             +0.0000
iter:   3  18:38:24  -0.37  -0.97         -225.906032             -0.0000
iter:   4  18:38:44  -1.39  -1.29         -225.759992             +0.0000
iter:   5  18:39:04  -1.27  -1.39         -227.320048             +0.0000
iter:   6  18:39:24  -1.47  -1.46         -225.735623             +0.0000
iter:   7  18:39:44  -2.46  -2.04         -225.720939             +0.0000
iter:   8  18:40:04  -2.04  -1.99         -225.630458             +0.0000
iter:   9  18:40:24  -2.41  -2.03         -225.427165             +0.0000
iter:  10  18:40:44  -3.29  -2.58         -225.418278             +0.0000
iter:  11  18:41:04  -3.78  -2.86         -225.410553             +0.0000
iter:  12  18:41:24  -4.19  -3.01         -225.408997             +0.0000
iter:  13  18:41:43  -5.04  -3.28         -225.408819             +0.0000
iter:  14  18:42:03  -5.00  -3.33         -225.408813             +0.0000
iter:  15  18:42:23  -5.99  -3.42         -225.408671             +0.0000
iter:  16  18:42:43  -4.80  -3.47         -225.408820             -0.0000
iter:  17  18:43:03  -6.06  -3.49         -225.408915             -0.0000
iter:  18  18:43:23  -5.04  -3.45         -225.408701             -0.0000
iter:  19  18:43:43  -6.42  -3.74         -225.408673             -0.0000
iter:  20  18:44:03  -7.19  -3.79         -225.408661             -0.0000
iter:  21  18:44:22  -6.65  -3.84         -225.408633             -0.0000
iter:  22  18:44:42  -7.41  -3.96         -225.408625             -0.0000
iter:  23  18:45:02  -6.37  -4.01         -225.408607             -0.0000
iter:  24  18:45:22  -6.82  -4.38         -225.408607             -0.0000
iter:  25  18:45:46  -7.90  -4.58         -225.408610             -0.0000
iter:  26  18:46:06  -6.76  -4.60         -225.408608             -0.0000
iter:  27  18:46:26  -7.37  -4.79         -225.408607             -0.0000
iter:  28  18:46:51  -8.55  -5.08    -2.91-225.408607             -0.0000
iter:  29  18:47:15  -8.34  -5.06    -3.38-225.408607             +0.0000
iter:  30  18:47:40  -8.12  -5.14    -3.10-225.408607             -0.0000
iter:  31  18:48:04  -8.04  -5.13    -3.02-225.408607             -0.0000
iter:  32  18:48:29  -9.08  -5.90    -4.24-225.408607             -0.0000
iter:  33  18:48:53  -9.97  -5.92    -4.13-225.408607             -0.0000
iter:  34  18:49:18 -10.18  -6.01    -4.31-225.408607             -0.0000
iter:  35  18:49:42 -10.87  -6.09    -4.82-225.408607             -0.0000
iter:  36  18:50:07 -10.79  -6.12    -4.12-225.408607             -0.0000
iter:  37  18:50:31 -10.51  -6.17    -4.04-225.408607             -0.0000
iter:  38  18:50:56 -10.54  -6.17    -4.19-225.408607             -0.0000
iter:  39  18:51:21 -11.50  -6.54    -4.82-225.408607             -0.0000
iter:  40  18:51:45 -10.94  -6.62    -4.50-225.408607             -0.0000
iter:  41  18:52:10 -12.06  -6.79    -5.20-225.408607             -0.0000
iter:  42  18:52:34 -12.73  -6.94    -5.39-225.408607             -0.0000
iter:  43  18:52:59 -11.89  -6.99    -5.05-225.408607             -0.0000
iter:  44  18:53:23 -12.20  -7.19    -5.24-225.408607             -0.0000
iter:  45  18:53:48 -13.01  -7.25    -5.82-225.408607             -0.0000
iter:  46  18:54:12 -13.34  -7.28    -5.72-225.408607             -0.0000
iter:  47  18:54:37 -13.12  -7.38    -5.59-225.408607             -0.0000
iter:  48  18:55:01 -12.71  -7.47    -5.42-225.408607             -0.0000
iter:  49  18:55:26 -13.26  -7.55    -5.68-225.408607             -0.0000
iter:  50  18:55:50 -13.75  -7.77    -6.08-225.408607             -0.0000

Converged after 50 iterations.

Dipole moment: (19.052021, -1.425556, -4.198469) |e|*Ang

Total magnetic moment: (0.000000, 0.000000, -0.000000)
Local magnetic moments:
   0 O  ( 0.000000,  0.000000,  0.000644)
   1 O  ( 0.000000,  0.000000, -0.000619)
   2 O  ( 0.000000,  0.000000, -0.000662)
   3 O  ( 0.000000,  0.000000,  0.000659)
   4 O  ( 0.000000,  0.000000, -0.000666)
   5 O  ( 0.000000,  0.000000,  0.000663)
   6 O  ( 0.000000,  0.000000,  0.000639)
   7 O  ( 0.000000,  0.000000, -0.000615)
   8 O  ( 0.000000,  0.000000,  0.022365)
   9 O  ( 0.000000,  0.000000, -0.022277)
  10 O  ( 0.000000,  0.000000, -0.022394)
  11 O  ( 0.000000,  0.000000,  0.022367)
  12 Mn ( 0.000000,  0.000000,  4.575094)
  13 Mn ( 0.000000,  0.000000, -4.574681)
  14 Mn ( 0.000000,  0.000000, -4.575090)
  15 Mn ( 0.000000,  0.000000,  4.575023)
  16 P  ( 0.000000,  0.000000,  0.000789)
  17 P  ( 0.000000,  0.000000, -0.000884)
  18 P  ( 0.000000,  0.000000, -0.000812)
  19 P  ( 0.000000,  0.000000,  0.000818)
  20 O  ( 0.000000,  0.000000,  0.020713)
  21 O  ( 0.000000,  0.000000, -0.020846)
  22 O  ( 0.000000,  0.000000, -0.020717)
  23 O  ( 0.000000,  0.000000,  0.020707)
  24 Li ( 0.000000,  0.000000, -0.000012)
  25 Li ( 0.000000,  0.000000, -0.000000)
  26 Li ( 0.000000,  0.000000, -0.000012)
  27 Li ( 0.000000,  0.000000, -0.000000)

Energy contributions relative to reference atoms: (reference = -196157.275402)

Kinetic:       +296.126030
Potential:     -255.817649
External:        +0.000000
XC:            -267.499670
Entropy (-ST):   -0.000000
Local:           +1.782683
--------------------------
Free energy:   -225.408607
Extrapolated:  -225.408607

Spin contamination: 9.697307 electrons
Showing only first 2 kpts
                      Up                     Down
 Kpt  Band  Eigenvalues  Occupancy  Eigenvalues  Occupancy
  0    88      5.10896    0.00694      5.11490    0.00694
  0    89      5.16052    0.00694      5.17002    0.00694
  0    90      9.65221    0.00000      9.65074    0.00000
  0    91      9.67318    0.00000      9.67089    0.00000

  1    88      5.12047    0.00694      5.12726    0.00694
  1    89      5.16980    0.00694      5.17873    0.00694
  1    90      9.53380    0.00000      9.53269    0.00000
  1    91      9.54734    0.00000      9.54503    0.00000


Fermi level: 6.37161

Gap: 3.784 eV
Transition (v -> c):
  (s=1, k=75, n=89, [0.08, -0.42, 0.38]) -> (s=1, k=86, n=90, [0.08, 0.08, 0.12])
Writing to born-0.01-21z-.gpw (mode='all')

Timing:                              incl.     excl.
-----------------------------------------------------------
Hamiltonian:                         0.218     0.002   0.0% |
 Atomic:                             0.053     0.053   0.0% |
  XC Correction:                     0.000     0.000   0.0% |
 Calculate atomic Hamiltonians:      0.076     0.076   0.0% |
 Communicate:                        0.002     0.002   0.0% |
 Initialize Hamiltonian:             0.000     0.000   0.0% |
 Poisson:                            0.001     0.001   0.0% |
 XC 3D grid:                         0.084     0.084   0.0% |
LCAO initialization:                73.838     0.654   0.0% |
 LCAO eigensolver:                  19.439     0.002   0.0% |
  Calculate projections:             0.029     0.029   0.0% |
  DenseAtomicCorrection:             0.045     0.045   0.0% |
  Distribute overlap matrix:         0.009     0.009   0.0% |
  Orbital Layouts:                   0.433     0.433   0.0% |
  Potential matrix:                 18.827    18.827   0.6% |
  Sum over cells:                    0.093     0.093   0.0% |
 LCAO to grid:                      52.403    52.403   1.7% ||
 Set positions (LCAO WFS):           1.341     0.208   0.0% |
  Basic WFS set positions:           0.001     0.001   0.0% |
  Basis functions set positions:     0.000     0.000   0.0% |
  P tci:                             0.526     0.526   0.0% |
  ST tci:                            0.384     0.384   0.0% |
  mktci:                             0.222     0.222   0.0% |
PWDescriptor:                        0.023     0.023   0.0% |
SCF-cycle:                        1106.747     0.341   0.0% |
 Davidson:                         942.885   290.092   9.5% |---|
  Apply H:                          64.606    62.714   2.0% ||
   HMM T:                            1.892     1.892   0.1% |
  Subspace diag:                   136.726     0.145   0.0% |
   calc_h_matrix:                   87.782    22.866   0.7% |
    Apply H:                        64.916    62.987   2.1% ||
     HMM T:                          1.929     1.929   0.1% |
   diagonalize:                      6.801     6.801   0.2% |
   rotate_psi:                      41.998    41.998   1.4% ||
  calc. matrices:                  281.724   155.090   5.1% |-|
   Apply H:                        126.634   123.050   4.0% |-|
    HMM T:                           3.584     3.584   0.1% |
  diagonalize:                      78.761    78.761   2.6% ||
  rotate_psi:                       90.976    90.976   3.0% ||
 Density:                           37.765     0.001   0.0% |
  Atomic density matrices:           0.776     0.776   0.0% |
  Mix:                               5.272     5.272   0.2% |
  Multipole moments:                 0.019     0.019   0.0% |
  Pseudo density:                   31.697    31.695   1.0% |
   Symmetrize density:               0.001     0.001   0.0% |
 Forces:                           112.903   112.903   3.7% ||
 Hamiltonian:                       10.762     0.105   0.0% |
  Atomic:                            2.631     2.630   0.1% |
   XC Correction:                    0.000     0.000   0.0% |
  Calculate atomic Hamiltonians:     3.730     3.730   0.1% |
  Communicate:                       0.087     0.087   0.0% |
  Poisson:                           0.030     0.030   0.0% |
  XC 3D grid:                        4.179     4.179   0.1% |
 Orthonormalize:                     2.092     0.003   0.0% |
  calc_s_matrix:                     0.245     0.245   0.0% |
  inverse-cholesky:                  0.072     0.072   0.0% |
  projections:                       1.339     1.339   0.0% |
  rotate_psi_s:                      0.434     0.434   0.0% |
Set symmetry:                        0.000     0.000   0.0% |
Other:                            1887.537  1887.537  61.5% |------------------------|
-----------------------------------------------------------
Total:                                      3068.363 100.0%

Memory usage: 13.19 GiB
Date: Wed Mar 24 19:27:17 2021
