
  ___ ___ ___ _ _ _  
 |   |   |_  | | | | 
 | | | | | . | | | | 
 |__ |  _|___|_____|  20.10.1b1
 |___|_|             

User:   madkru@g035.nifl.fysik.dtu.dk
Date:   Mon Mar 22 03:30:43 2021
Arch:   x86_64
Pid:    44316
Python: 3.7.4
gpaw:   /home/niflheim/madkru/venv_folder/gpaw/gpaw (d0d1ca1c71)
_gpaw:  /home/niflheim/madkru/venv_folder/gpaw/build/lib.linux-x86_64-sandybridge-3.7/
        _gpaw.cpython-37m-x86_64-linux-gnu.so (4fd39e8b1e)
ase:    /home/niflheim/madkru/venv_folder/ase/ase (version 3.21.0b1-7e6c206a91)
numpy:  /home/niflheim/madkru/venv_folder/lib/python3.7/site-packages/numpy (version 1.19.4)
scipy:  /home/niflheim/madkru/venv_folder/lib/python3.7/site-packages/scipy (version 1.5.4)
libxc:  4.3.4
units:  Angstrom and eV
cores: 32
OMP_NUM_THREADS: 1

Input parameters:
  convergence: {bands: occupied,
                density: 0.0001,
                eigenstates: 4e-08,
                energy: 0.0005,
                forces: 1e-06}
  kpts: [6 6 4]
  mode: {ecut: 600.0,
         gammacentered: False,
         name: pw}
  occupations: {fixmagmom: False,
                name: fermi-dirac,
                width: 0.001}
  setups: {Mn: :d,3.0}
  symmetry: {point_group: False,
             time_reversal: False}

System changes: positions, numbers, cell, pbc, initial_charges, initial_magmoms 

Initialize ...

O-setup:
  name: Oxygen
  id: 9b9d51c344dea68c822856295a461509
  Z: 8.0
  valence: 6
  core: 2
  charge: 0.0
  file: /home/modules/software/GPAW-setups/0.9.20000/O.LDA.gz
  compensation charges: gauss, rc=0.21, lmax=2
  cutoffs: 1.17(filt), 0.83(core),
  valence states:
                energy  radius
    2s(2.00)   -23.752   0.688
    2p(4.00)    -9.195   0.598
    *s           3.459   0.688
    *p          18.016   0.598
    *d           0.000   0.619

  Using partial waves for O as LCAO basis

Mn-setup:
  name: Manganese
  id: 0d715a8018be061a6e9ea6f2d364ac92
  Z: 25.0
  valence: 15
  core: 10
  charge: 0.0
  Hubbard U: 3.000000 eV (l=2, scale=True)
  file: /home/modules/software/GPAW-setups/0.9.20000/Mn.LDA.gz
  compensation charges: gauss, rc=0.38, lmax=2
  cutoffs: 2.14(filt), 0.86(core),
  valence states:
                energy  radius
    3s(2.00)   -85.387   1.275
    4s(2.00)    -5.282   1.275
    3p(6.00)   -54.493   1.281
    4p(0.00)    -1.471   1.281
    3d(5.00)    -7.009   1.138
    *d          20.203   1.138

  Using partial waves for Mn as LCAO basis

P-setup:
  name: Phosphorus
  id: a5561c299094968922a179ab894d2e2d
  Z: 15.0
  valence: 5
  core: 10
  charge: 0.0
  file: /home/modules/software/GPAW-setups/0.9.20000/P.LDA.gz
  compensation charges: gauss, rc=0.30, lmax=2
  cutoffs: 1.69(filt), 1.81(core),
  valence states:
                energy  radius
    3s(2.00)   -14.015   0.953
    3p(3.00)    -5.596   0.953
    *s          13.197   0.953
    *p          21.615   0.953
    *d           0.000   0.953

  Using partial waves for P as LCAO basis

Li-setup:
  name: Lithium
  id: b73562207f97a71b6967473b66fe8b65
  Z: 3.0
  valence: 1
  core: 2
  charge: 0.0
  file: /home/modules/software/GPAW-setups/0.9.20000/Li.LDA.gz
  compensation charges: gauss, rc=0.33, lmax=2
  cutoffs: 1.91(filt), 2.55(core),
  valence states:
                energy  radius
    2s(1.00)    -2.874   1.058
    2p(0.00)    -1.126   1.058
    *s          24.338   1.058

  Using partial waves for Li as LCAO basis

Reference energy: -196157.275402

Spin-polarized calculation.
Magnetic moment: 0.000000

Convergence criteria:
  Maximum total energy change: 0.0005 eV / electron
  Maximum integral of absolute density change: 0.0001 electrons
  Maximum integral of absolute eigenstate change: 4e-08 eV^2
  Maximum change in atomic force: 1e-06 eV / Ang
  Maximum number of iterations: 333

Symmetries present (total): 1

  ( 1  0  0)
  ( 0  1  0)
  ( 0  0  1)

144 k-points: 6 x 6 x 4 Monkhorst-Pack grid
144 k-points in the irreducible part of the Brillouin zone
       k-points in crystal coordinates                weights
   0:    -0.41666667   -0.41666667   -0.37500000          1/144
   1:    -0.41666667   -0.41666667   -0.12500000          1/144
   2:    -0.41666667   -0.41666667    0.12500000          1/144
   3:    -0.41666667   -0.41666667    0.37500000          1/144
   4:    -0.41666667   -0.25000000   -0.37500000          1/144
   5:    -0.41666667   -0.25000000   -0.12500000          1/144
   6:    -0.41666667   -0.25000000    0.12500000          1/144
   7:    -0.41666667   -0.25000000    0.37500000          1/144
   8:    -0.41666667   -0.08333333   -0.37500000          1/144
   9:    -0.41666667   -0.08333333   -0.12500000          1/144
          ...
 143:     0.41666667    0.41666667    0.37500000          1/144

Wave functions: Plane wave expansion
  Cutoff energy: 600.000 eV
  Number of coefficients (min, max): 9238, 9284
  Pulay-stress correction: 0.000000 eV/Ang^3 (de/decut=0.000000)
  Using FFTW library
  ScaLapack parameters: grid=1x1, blocksize=None
  Wavefunction extrapolation:
    Improved wavefunction reuse through dual PAW basis 

  Fermi-Dirac: width=0.0010 eV

Eigensolver
   Davidson(niter=2, smin=None, normalize=True) 

Densities:
  Coarse grid: 60*35*27 grid
  Fine grid: 120*70*54 grid
  Total Charge: 0.000000 

Density mixing:
  Method: difference
  Backend: pulay
  Linear mixing parameter: 0.05
  Mixing with 5 old densities
  Damping of long wave oscillations: 50 

Hamiltonian:
  XC and Coulomb potentials evaluated on a 120*70*54 grid
  Using the LDA Exchange-Correlation functional
 

Memory estimate:
  Process memory now: 12845.16 MiB
  Calculator: 346.50 MiB
    Density: 19.24 MiB
      Arrays: 7.57 MiB
      Localized functions: 8.64 MiB
      Mixer: 3.03 MiB
    Hamiltonian: 5.87 MiB
      Arrays: 5.62 MiB
      XC: 0.00 MiB
      Poisson: 0.00 MiB
      vbar: 0.25 MiB
    Wavefunctions: 321.38 MiB
      Arrays psit_nG: 285.59 MiB
      Eigensolver: 18.49 MiB
      Projections: 5.41 MiB
      Projectors: 8.92 MiB
      PW-descriptor: 2.96 MiB

Total number of cores used: 32
Parallelization over k-points: 16
Domain decomposition: 2 x 1 x 1

Number of atoms: 28
Number of atomic orbitals: 148
Number of bands in calculation: 112
Number of valence electrons: 180
Bands to converge: occupied

... initialized

Initializing position-dependent things.

Density initialized from atomic densities
Creating initial wave functions:
  112 bands from LCAO basis set

                                           
                                           
                                           
                                           
                                           
               O     O  P  O               
            PO           OMn     O         
                  O          MO            
            O        Li O                  
             Mn  On          OP            
         O         Li O                    
         Li     O P         O              
       Li                                  
                                           
                                           
                                           
                                           

Positions:
   0 O     -1.263197   -2.497779   -1.098475    ( 0.0000,  0.0000,  0.0000)
   1 O     -3.070823    2.922496    1.209491    ( 0.0000,  0.0000,  0.0000)
   2 O      1.985541    0.474863    1.428016    ( 0.0000,  0.0000,  0.0000)
   3 O      3.793120   -0.050100   -0.879950    ( 0.0000,  0.0000,  0.0000)
   4 O      1.985518    2.922485    1.428149    ( 0.0000,  0.0000,  0.0000)
   5 O      3.783144   -2.497790   -0.879818    ( 0.0000,  0.0000,  0.0000)
   6 O     -1.263220   -0.050157   -1.098342    ( 0.0000,  0.0000,  0.0000)
   7 O     -3.070798    0.474805    1.209623    ( 0.0000,  0.0000,  0.0000)
   8 O     -4.167835   -1.273920   -0.862116    ( 0.0000,  0.0000,  0.0000)
   9 O     -0.166037    1.698602    1.445528    ( 0.0000,  0.0000,  0.0000)
  10 O      4.890156    1.698625    1.191790    ( 0.0000,  0.0000,  0.0000)
  11 O      0.888358   -1.273896   -1.115855    ( 0.0000,  0.0000,  0.0000)
  12 Mn    -2.445557   -1.274211    0.312921    ( 0.0000,  0.0000,  1.0000)
  13 Mn    -1.888303    1.698892   -1.994948    ( 0.0000,  0.0000, -1.0000)
  14 Mn     3.167879    1.698917    0.016752    ( 0.0000,  0.0000, -1.0000)
  15 Mn     2.610624   -1.274187    2.324621    ( 0.0000,  0.0000,  1.0000)
  16 P     -0.529549   -1.273917   -1.724376    ( 0.0000,  0.0000,  0.0000)
  17 P     -3.804359    1.698599    0.583463    ( 0.0000,  0.0000,  0.0000)
  18 P      1.251870    1.698623    2.054050    ( 0.0000,  0.0000,  0.0000)
  19 P      4.526680   -1.273894   -0.253789    ( 0.0000,  0.0000,  0.0000)
  20 O     -0.544227   -1.273926    1.365380    ( 0.0000,  0.0000,  0.0000)
  21 O     -3.789411    1.698610   -0.942222    ( 0.0000,  0.0000,  0.0000)
  22 O      1.266548    1.698631   -1.035707    ( 0.0000,  0.0000,  0.0000)
  23 O      4.511733   -1.273905    1.271895    ( 0.0000,  0.0000,  0.0000)
  24 Li    -4.695087   -2.760584   -2.142877    ( 0.0000,  0.0000,  0.0000)
  25 Li     0.361147   -2.760561    0.164836    ( 0.0000,  0.0000,  0.0000)
  26 Li    -4.695074    0.212330   -2.142877    ( 0.0000,  0.0000,  0.0000)
  27 Li     0.361161    0.212353    0.164837    ( 0.0000,  0.0000,  0.0000)

Unit cell:
           periodic     x           y           z      points  spacing
  1. axis:    yes   10.112485    0.000045   -0.000035    60     0.1685
  2. axis:    yes    0.000026    5.945827    0.000001    35     0.1699
  3. axis:    yes   -0.000016    0.000000    4.615463    27     0.1709

  Lengths:  10.112485   5.945827   4.615463
  Angles:   89.999989  90.000396  89.999490

Effective grid spacing dv^(1/3) = 0.1698

                     log10-error:           total        iterations:
           time      wfs    density  force  energy       poisson  magmom
iter:   1  03:34:00                       -221.372051             +0.0000
iter:   2  03:34:37  -0.61  -0.93         -234.815081             +0.0000
iter:   3  03:35:14  -0.37  -0.97         -225.905544             -0.0000
iter:   4  03:35:52  -1.39  -1.29         -225.761060             +0.0000
iter:   5  03:36:29  -1.27  -1.39         -227.318409             +0.0000
iter:   6  03:37:07  -1.47  -1.46         -225.736715             +0.0000
iter:   7  03:37:44  -2.48  -2.04         -225.723183             +0.0000
iter:   8  03:38:21  -2.13  -1.99         -225.600354             +0.0000
iter:   9  03:38:59  -2.44  -2.08         -225.431378             +0.0000
iter:  10  03:39:36  -3.32  -2.55         -225.421959             +0.0000
iter:  11  03:40:14  -3.68  -2.81         -225.411723             +0.0000
iter:  12  03:40:51  -4.12  -3.03         -225.410499             +0.0000
iter:  13  03:41:28  -5.08  -3.29         -225.410347             -0.0000
iter:  14  03:42:06  -5.39  -3.32         -225.410187             -0.0000
iter:  15  03:42:43  -6.08  -3.43         -225.410188             -0.0000
iter:  16  03:43:21  -5.38  -3.47         -225.410420             +0.0000
iter:  17  03:43:58  -5.77  -3.62         -225.410349             -0.0000
iter:  18  03:44:36  -5.60  -3.77         -225.410143             +0.0000
iter:  19  03:45:13  -6.08  -3.92         -225.410138             +0.0000
iter:  20  03:45:50  -6.79  -4.06         -225.410120             -0.0000
iter:  21  03:46:28  -7.06  -4.19         -225.410136             +0.0000
iter:  22  03:47:05  -7.15  -4.30         -225.410137             -0.0000
iter:  23  03:47:52  -7.88  -4.28         -225.410134             +0.0000
iter:  24  03:48:39  -7.70  -4.30    -2.47-225.410136             +0.0000
iter:  25  03:49:26  -7.45  -4.62    -2.76-225.410134             -0.0000
iter:  26  03:50:13  -8.03  -4.79    -3.16-225.410134             -0.0000
iter:  27  03:51:01  -8.70  -4.84    -3.05-225.410134             +0.0000
iter:  28  03:51:48  -8.38  -4.91    -2.68-225.410134             -0.0000
iter:  29  03:52:35  -8.97  -5.13    -3.20-225.410134             -0.0000
iter:  30  03:53:22  -8.65  -5.23    -3.21-225.410134             -0.0000
iter:  31  03:54:09  -9.66  -5.59    -3.61-225.410134             -0.0000
iter:  32  03:54:56  -9.23  -5.72    -3.46-225.410134             -0.0000
iter:  33  03:55:43 -10.29  -6.01    -3.97-225.410134             -0.0000
iter:  34  03:56:30 -10.02  -6.20    -3.90-225.410134             -0.0000
iter:  35  03:57:17 -11.01  -6.41    -4.41-225.410134             -0.0000
iter:  36  03:58:04 -12.07  -6.65    -5.38-225.410134             -0.0000
iter:  37  03:58:51 -11.95  -6.70    -4.58-225.410134             -0.0000
iter:  38  03:59:38 -11.84  -6.88    -4.72-225.410134             -0.0000
iter:  39  04:00:25 -12.68  -7.01    -4.95-225.410134             -0.0000
iter:  40  04:01:12 -12.78  -7.14    -5.20-225.410134             -0.0000
iter:  41  04:01:59 -12.71  -7.31    -5.61-225.410134             -0.0000
iter:  42  04:02:46 -13.19  -7.45    -5.75-225.410134             -0.0000
iter:  43  04:03:33 -12.63  -7.50    -5.51-225.410134             -0.0000
iter:  44  04:04:20 -13.31  -7.65    -6.05-225.410134             -0.0000

Converged after 44 iterations.

Dipole moment: (19.057579, -1.424440, -4.180211) |e|*Ang

Total magnetic moment: (0.000000, 0.000000, -0.000000)
Local magnetic moments:
   0 O  ( 0.000000,  0.000000,  0.000677)
   1 O  ( 0.000000,  0.000000, -0.000660)
   2 O  ( 0.000000,  0.000000, -0.000698)
   3 O  ( 0.000000,  0.000000,  0.000688)
   4 O  ( 0.000000,  0.000000, -0.000676)
   5 O  ( 0.000000,  0.000000,  0.000701)
   6 O  ( 0.000000,  0.000000,  0.000673)
   7 O  ( 0.000000,  0.000000, -0.000658)
   8 O  ( 0.000000,  0.000000,  0.022277)
   9 O  ( 0.000000,  0.000000, -0.022405)
  10 O  ( 0.000000,  0.000000, -0.022348)
  11 O  ( 0.000000,  0.000000,  0.022381)
  12 Mn ( 0.000000,  0.000000,  4.575063)
  13 Mn ( 0.000000,  0.000000, -4.575027)
  14 Mn ( 0.000000,  0.000000, -4.574548)
  15 Mn ( 0.000000,  0.000000,  4.574646)
  16 P  ( 0.000000,  0.000000,  0.000818)
  17 P  ( 0.000000,  0.000000, -0.000826)
  18 P  ( 0.000000,  0.000000, -0.000802)
  19 P  ( 0.000000,  0.000000,  0.000834)
  20 O  ( 0.000000,  0.000000,  0.020738)
  21 O  ( 0.000000,  0.000000, -0.020692)
  22 O  ( 0.000000,  0.000000, -0.020751)
  23 O  ( 0.000000,  0.000000,  0.020692)
  24 Li ( 0.000000,  0.000000,  0.000005)
  25 Li ( 0.000000,  0.000000, -0.000000)
  26 Li ( 0.000000,  0.000000, -0.000004)
  27 Li ( 0.000000,  0.000000,  0.000001)

Energy contributions relative to reference atoms: (reference = -196157.275402)

Kinetic:       +296.582102
Potential:     -256.187543
External:        +0.000000
XC:            -267.585745
Entropy (-ST):   -0.000000
Local:           +1.781052
--------------------------
Free energy:   -225.410134
Extrapolated:  -225.410134

Spin contamination: 9.696716 electrons
Showing only first 2 kpts
                      Up                     Down
 Kpt  Band  Eigenvalues  Occupancy  Eigenvalues  Occupancy
  0    88      5.10947    0.00694      5.11263    0.00694
  0    89      5.16294    0.00694      5.16530    0.00694
  0    90      9.65668    0.00000      9.64956    0.00000
  0    91      9.67195    0.00000      9.67815    0.00000

  1    88      5.12132    0.00694      5.12419    0.00694
  1    89      5.17198    0.00694      5.17467    0.00694
  1    90      9.53915    0.00000      9.53048    0.00000
  1    91      9.54598    0.00000      9.55677    0.00000


Fermi level: 6.37007

Gap: 3.792 eV
Transition (v -> c):
  (s=1, k=68, n=89, [-0.08, 0.42, -0.38]) -> (s=0, k=85, n=90, [0.08, 0.08, -0.12])
Writing to born-0.01-5x-.gpw (mode='all')

Timing:                              incl.     excl.
-----------------------------------------------------------
Hamiltonian:                         0.419     0.002   0.0% |
 Atomic:                             0.076     0.076   0.0% |
  XC Correction:                     0.000     0.000   0.0% |
 Calculate atomic Hamiltonians:      0.163     0.163   0.0% |
 Communicate:                        0.002     0.002   0.0% |
 Initialize Hamiltonian:             0.000     0.000   0.0% |
 Poisson:                            0.001     0.001   0.0% |
 XC 3D grid:                         0.175     0.175   0.0% |
LCAO initialization:               150.776     0.678   0.0% |
 LCAO eigensolver:                  40.291     0.002   0.0% |
  Calculate projections:             0.056     0.056   0.0% |
  DenseAtomicCorrection:             0.083     0.083   0.0% |
  Distribute overlap matrix:         0.007     0.007   0.0% |
  Orbital Layouts:                   0.364     0.364   0.0% |
  Potential matrix:                 39.691    39.691   0.8% |
  Sum over cells:                    0.089     0.089   0.0% |
 LCAO to grid:                     107.429   107.429   2.2% ||
 Set positions (LCAO WFS):           2.379     0.370   0.0% |
  Basic WFS set positions:           0.001     0.001   0.0% |
  Basis functions set positions:     0.000     0.000   0.0% |
  P tci:                             1.083     1.083   0.0% |
  ST tci:                            0.709     0.709   0.0% |
  mktci:                             0.215     0.215   0.0% |
PWDescriptor:                        0.025     0.025   0.0% |
SCF-cycle:                        1864.181    15.252   0.3% |
 Davidson:                        1547.406   494.107  10.0% |---|
  Apply H:                         112.118   108.766   2.2% ||
   HMM T:                            3.352     3.352   0.1% |
  Subspace diag:                   229.208     0.136   0.0% |
   calc_h_matrix:                  150.482    39.851   0.8% |
    Apply H:                       110.632   107.366   2.2% ||
     HMM T:                          3.266     3.266   0.1% |
   diagonalize:                      5.325     5.325   0.1% |
   rotate_psi:                      73.265    73.265   1.5% ||
  calc. matrices:                  489.444   267.675   5.4% |-|
   Apply H:                        221.769   215.231   4.4% |-|
    HMM T:                           6.538     6.538   0.1% |
  diagonalize:                      73.149    73.149   1.5% ||
  rotate_psi:                      149.378   149.378   3.0% ||
 Density:                           65.246     0.001   0.0% |
  Atomic density matrices:           1.172     1.172   0.0% |
  Mix:                               9.921     9.921   0.2% |
  Multipole moments:                 0.026     0.026   0.0% |
  Pseudo density:                   54.126    54.125   1.1% |
   Symmetrize density:               0.001     0.001   0.0% |
 Forces:                           214.441   214.441   4.3% |-|
 Hamiltonian:                       17.786     0.102   0.0% |
  Atomic:                            2.535     2.534   0.1% |
   XC Correction:                    0.000     0.000   0.0% |
  Calculate atomic Hamiltonians:     7.306     7.306   0.1% |
  Communicate:                       0.074     0.074   0.0% |
  Poisson:                           0.068     0.068   0.0% |
  XC 3D grid:                        7.701     7.701   0.2% |
 Orthonormalize:                     4.050     0.003   0.0% |
  calc_s_matrix:                     0.484     0.484   0.0% |
  inverse-cholesky:                  0.054     0.054   0.0% |
  projections:                       2.653     2.653   0.1% |
  rotate_psi_s:                      0.856     0.856   0.0% |
Set symmetry:                        0.000     0.000   0.0% |
Other:                            2922.012  2922.012  59.2% |-----------------------|
-----------------------------------------------------------
Total:                                      4937.414 100.0%

Memory usage: 12.57 GiB
Date: Mon Mar 22 04:53:00 2021
