
  ___ ___ ___ _ _ _  
 |   |   |_  | | | | 
 | | | | | . | | | | 
 |__ |  _|___|_____|  20.10.1b1
 |___|_|             

User:   madkru@i018.nifl.fysik.dtu.dk
Date:   Thu Mar 25 08:06:30 2021
Arch:   x86_64
Pid:    26873
Python: 3.7.4
gpaw:   /home/niflheim/madkru/venv_folder/gpaw/gpaw (d224efde0f)
_gpaw:  /home/niflheim/madkru/venv_folder/gpaw/build/lib.linux-x86_64-ivybridge-3.7/
        _gpaw.cpython-37m-x86_64-linux-gnu.so (4fd39e8b1e)
ase:    /home/niflheim/madkru/venv_folder/ase/ase (version 3.21.0b1-4d5a73cb29)
numpy:  /home/niflheim/madkru/venv_folder/lib/python3.7/site-packages/numpy (version 1.19.4)
scipy:  /home/niflheim/madkru/venv_folder/lib/python3.7/site-packages/scipy (version 1.5.4)
libxc:  4.3.4
units:  Angstrom and eV
cores: 64
OMP_NUM_THREADS: 1

Input parameters:
  convergence: {bands: occupied,
                density: 0.0001,
                eigenstates: 4e-08,
                energy: 0.0005,
                forces: 1e-06}
  kpts: [6 6 4]
  mode: {ecut: 600.0,
         gammacentered: False,
         name: pw}
  occupations: {fixmagmom: False,
                name: fermi-dirac,
                width: 0.001}
  setups: {Mn: :d,3.0}
  symmetry: {point_group: False,
             time_reversal: False}

System changes: positions, numbers, cell, pbc, initial_charges, initial_magmoms 

Initialize ...

O-setup:
  name: Oxygen
  id: 9b9d51c344dea68c822856295a461509
  Z: 8.0
  valence: 6
  core: 2
  charge: 0.0
  file: /home/modules/software/GPAW-setups/0.9.20000/O.LDA.gz
  compensation charges: gauss, rc=0.21, lmax=2
  cutoffs: 1.17(filt), 0.83(core),
  valence states:
                energy  radius
    2s(2.00)   -23.752   0.688
    2p(4.00)    -9.195   0.598
    *s           3.459   0.688
    *p          18.016   0.598
    *d           0.000   0.619

  Using partial waves for O as LCAO basis

Mn-setup:
  name: Manganese
  id: 0d715a8018be061a6e9ea6f2d364ac92
  Z: 25.0
  valence: 15
  core: 10
  charge: 0.0
  Hubbard U: 3.000000 eV (l=2, scale=True)
  file: /home/modules/software/GPAW-setups/0.9.20000/Mn.LDA.gz
  compensation charges: gauss, rc=0.38, lmax=2
  cutoffs: 2.14(filt), 0.86(core),
  valence states:
                energy  radius
    3s(2.00)   -85.387   1.275
    4s(2.00)    -5.282   1.275
    3p(6.00)   -54.493   1.281
    4p(0.00)    -1.471   1.281
    3d(5.00)    -7.009   1.138
    *d          20.203   1.138

  Using partial waves for Mn as LCAO basis

P-setup:
  name: Phosphorus
  id: a5561c299094968922a179ab894d2e2d
  Z: 15.0
  valence: 5
  core: 10
  charge: 0.0
  file: /home/modules/software/GPAW-setups/0.9.20000/P.LDA.gz
  compensation charges: gauss, rc=0.30, lmax=2
  cutoffs: 1.69(filt), 1.81(core),
  valence states:
                energy  radius
    3s(2.00)   -14.015   0.953
    3p(3.00)    -5.596   0.953
    *s          13.197   0.953
    *p          21.615   0.953
    *d           0.000   0.953

  Using partial waves for P as LCAO basis

Li-setup:
  name: Lithium
  id: b73562207f97a71b6967473b66fe8b65
  Z: 3.0
  valence: 1
  core: 2
  charge: 0.0
  file: /home/modules/software/GPAW-setups/0.9.20000/Li.LDA.gz
  compensation charges: gauss, rc=0.33, lmax=2
  cutoffs: 1.91(filt), 2.55(core),
  valence states:
                energy  radius
    2s(1.00)    -2.874   1.058
    2p(0.00)    -1.126   1.058
    *s          24.338   1.058

  Using partial waves for Li as LCAO basis

Reference energy: -196157.275402

Spin-polarized calculation.
Magnetic moment: 0.000000

Convergence criteria:
  Maximum total energy change: 0.0005 eV / electron
  Maximum integral of absolute density change: 0.0001 electrons
  Maximum integral of absolute eigenstate change: 4e-08 eV^2
  Maximum change in atomic force: 1e-06 eV / Ang
  Maximum number of iterations: 333

Symmetries present (total): 1

  ( 1  0  0)
  ( 0  1  0)
  ( 0  0  1)

144 k-points: 6 x 6 x 4 Monkhorst-Pack grid
144 k-points in the irreducible part of the Brillouin zone
       k-points in crystal coordinates                weights
   0:    -0.41666667   -0.41666667   -0.37500000          1/144
   1:    -0.41666667   -0.41666667   -0.12500000          1/144
   2:    -0.41666667   -0.41666667    0.12500000          1/144
   3:    -0.41666667   -0.41666667    0.37500000          1/144
   4:    -0.41666667   -0.25000000   -0.37500000          1/144
   5:    -0.41666667   -0.25000000   -0.12500000          1/144
   6:    -0.41666667   -0.25000000    0.12500000          1/144
   7:    -0.41666667   -0.25000000    0.37500000          1/144
   8:    -0.41666667   -0.08333333   -0.37500000          1/144
   9:    -0.41666667   -0.08333333   -0.12500000          1/144
          ...
 143:     0.41666667    0.41666667    0.37500000          1/144

Wave functions: Plane wave expansion
  Cutoff energy: 600.000 eV
  Number of coefficients (min, max): 9238, 9284
  Pulay-stress correction: 0.000000 eV/Ang^3 (de/decut=0.000000)
  Using FFTW library
  ScaLapack parameters: grid=1x1, blocksize=None
  Wavefunction extrapolation:
    Improved wavefunction reuse through dual PAW basis 

  Fermi-Dirac: width=0.0010 eV

Eigensolver
   Davidson(niter=2, smin=None, normalize=True) 

Densities:
  Coarse grid: 60*35*27 grid
  Fine grid: 120*70*54 grid
  Total Charge: 0.000000 

Density mixing:
  Method: difference
  Backend: pulay
  Linear mixing parameter: 0.05
  Mixing with 5 old densities
  Damping of long wave oscillations: 50 

Hamiltonian:
  XC and Coulomb potentials evaluated on a 120*70*54 grid
  Using the LDA Exchange-Correlation functional
 

Memory estimate:
  Process memory now: 14119.00 MiB
  Calculator: 326.59 MiB
    Density: 9.67 MiB
      Arrays: 3.79 MiB
      Localized functions: 4.32 MiB
      Mixer: 1.56 MiB
    Hamiltonian: 2.94 MiB
      Arrays: 2.82 MiB
      XC: 0.00 MiB
      Poisson: 0.00 MiB
      vbar: 0.12 MiB
    Wavefunctions: 313.97 MiB
      Arrays psit_nG: 285.59 MiB
      Eigensolver: 18.49 MiB
      Projections: 2.71 MiB
      Projectors: 4.46 MiB
      PW-descriptor: 2.72 MiB

Total number of cores used: 64
Parallelization over k-points: 16
Domain decomposition: 2 x 2 x 1

Number of atoms: 28
Number of atomic orbitals: 148
Number of bands in calculation: 112
Number of valence electrons: 180
Bands to converge: occupied

... initialized

Initializing position-dependent things.

Density initialized from atomic densities
Creating initial wave functions:
  112 bands from LCAO basis set

                                           
                                           
                                           
                                           
                                           
               O     O  P  O               
            PO           OMn     O         
                  O          MO            
            O        Li O                  
             Mn  On          OP            
         O         Li O                    
         Li     O P         O              
       Li                                  
                                           
                                           
                                           
                                           

Positions:
   0 O     -1.263197   -2.497779   -1.098475    ( 0.0000,  0.0000,  0.0000)
   1 O     -3.070823    2.922496    1.209491    ( 0.0000,  0.0000,  0.0000)
   2 O      1.985541    0.474863    1.428016    ( 0.0000,  0.0000,  0.0000)
   3 O      3.793120   -0.050100   -0.879950    ( 0.0000,  0.0000,  0.0000)
   4 O      1.985518    2.922485    1.428149    ( 0.0000,  0.0000,  0.0000)
   5 O      3.793144   -2.497790   -0.879818    ( 0.0000,  0.0000,  0.0000)
   6 O     -1.263220   -0.050157   -1.098342    ( 0.0000,  0.0000,  0.0000)
   7 O     -3.070798    0.474805    1.209623    ( 0.0000,  0.0000,  0.0000)
   8 O     -4.167835   -1.273920   -0.862116    ( 0.0000,  0.0000,  0.0000)
   9 O     -0.166037    1.698602    1.445528    ( 0.0000,  0.0000,  0.0000)
  10 O      4.890156    1.698625    1.191790    ( 0.0000,  0.0000,  0.0000)
  11 O      0.888358   -1.273896   -1.115855    ( 0.0000,  0.0000,  0.0000)
  12 Mn    -2.445557   -1.274211    0.312921    ( 0.0000,  0.0000,  1.0000)
  13 Mn    -1.888303    1.698892   -1.994948    ( 0.0000,  0.0000, -1.0000)
  14 Mn     3.167879    1.698917    0.016752    ( 0.0000,  0.0000, -1.0000)
  15 Mn     2.610624   -1.274187    2.324621    ( 0.0000,  0.0000,  1.0000)
  16 P     -0.529549   -1.273917   -1.724376    ( 0.0000,  0.0000,  0.0000)
  17 P     -3.804359    1.698599    0.583463    ( 0.0000,  0.0000,  0.0000)
  18 P      1.251870    1.698623    2.054050    ( 0.0000,  0.0000,  0.0000)
  19 P      4.526680   -1.273894   -0.253789    ( 0.0000,  0.0000,  0.0000)
  20 O     -0.544227   -1.273926    1.365380    ( 0.0000,  0.0000,  0.0000)
  21 O     -3.789411    1.698610   -0.942222    ( 0.0000,  0.0000,  0.0000)
  22 O      1.266548    1.698631   -1.035707    ( 0.0000,  0.0000,  0.0000)
  23 O      4.511733   -1.273905    1.271895    ( 0.0000,  0.0000,  0.0000)
  24 Li    -4.695087   -2.760584   -2.142877    ( 0.0000,  0.0000,  0.0000)
  25 Li     0.361147   -2.760561    0.164836    ( 0.0000,  0.0000,  0.0000)
  26 Li    -4.695074    0.202330   -2.142877    ( 0.0000,  0.0000,  0.0000)
  27 Li     0.361161    0.212353    0.164837    ( 0.0000,  0.0000,  0.0000)

Unit cell:
           periodic     x           y           z      points  spacing
  1. axis:    yes   10.112485    0.000045   -0.000035    60     0.1685
  2. axis:    yes    0.000026    5.945827    0.000001    35     0.1699
  3. axis:    yes   -0.000016    0.000000    4.615463    27     0.1709

  Lengths:  10.112485   5.945827   4.615463
  Angles:   89.999989  90.000396  89.999490

Effective grid spacing dv^(1/3) = 0.1698

                     log10-error:           total        iterations:
           time      wfs    density  force  energy       poisson  magmom
iter:   1  08:08:05                       -221.376779             +0.0000
iter:   2  08:08:25  -0.61  -0.93         -234.836068             +0.0000
iter:   3  08:08:45  -0.37  -0.97         -225.912138             -0.0000
iter:   4  08:09:05  -1.39  -1.29         -225.761658             +0.0000
iter:   5  08:09:25  -1.27  -1.39         -227.329898             +0.0000
iter:   6  08:09:44  -1.46  -1.46         -225.737460             +0.0000
iter:   7  08:10:04  -2.47  -2.04         -225.724883             +0.0000
iter:   8  08:10:24  -2.14  -1.99         -225.590549             +0.0000
iter:   9  08:10:44  -2.46  -2.09         -225.432505             +0.0000
iter:  10  08:11:04  -3.31  -2.55         -225.422569             +0.0000
iter:  11  08:11:24  -3.65  -2.81         -225.412135             +0.0000
iter:  12  08:11:44  -4.12  -3.05         -225.411029             +0.0000
iter:  13  08:12:04  -5.10  -3.29         -225.410908             -0.0000
iter:  14  08:12:23  -5.39  -3.32         -225.410734             -0.0000
iter:  15  08:12:43  -6.04  -3.43         -225.410741             -0.0000
iter:  16  08:13:03  -5.24  -3.47         -225.411084             +0.0000
iter:  17  08:13:23  -5.87  -3.58         -225.410969             -0.0000
iter:  18  08:13:43  -5.21  -3.70         -225.410684             +0.0000
iter:  19  08:14:03  -6.10  -4.14         -225.410687             -0.0000
iter:  20  08:14:22  -7.28  -4.54         -225.410689             -0.0000
iter:  21  08:14:47  -8.08  -4.57         -225.410689             -0.0000
iter:  22  08:15:12  -7.86  -4.63    -2.34-225.410689             -0.0000
iter:  23  08:15:36  -8.18  -4.89    -2.70-225.410689             -0.0000
iter:  24  08:16:01  -8.76  -5.12    -3.05-225.410688             -0.0000
iter:  25  08:16:25  -9.33  -5.21    -3.30-225.410688             +0.0000
iter:  26  08:16:50  -9.08  -5.33    -3.23-225.410688             -0.0000
iter:  27  08:17:14  -9.48  -5.55    -3.41-225.410688             +0.0000
iter:  28  08:17:39 -10.04  -5.61    -3.95-225.410688             -0.0000
iter:  29  08:18:03  -9.95  -5.64    -3.63-225.410688             -0.0000
iter:  30  08:18:28 -10.45  -5.73    -3.60-225.410688             -0.0000
iter:  31  08:18:52 -10.08  -5.78    -4.29-225.410688             -0.0000
iter:  32  08:19:17  -9.34  -5.86    -3.79-225.410688             -0.0000
iter:  33  08:19:42  -9.94  -5.90    -3.66-225.410688             -0.0000
iter:  34  08:20:06 -10.78  -6.01    -4.56-225.410688             -0.0000
iter:  35  08:20:31 -10.63  -6.03    -3.92-225.410688             -0.0000
iter:  36  08:20:55 -10.72  -6.18    -4.27-225.410688             -0.0000
iter:  37  08:21:20 -10.56  -6.20    -3.83-225.410688             -0.0000
iter:  38  08:21:44 -10.66  -6.37    -4.62-225.410688             -0.0000
iter:  39  08:22:09 -11.16  -6.71    -4.45-225.410688             -0.0000
iter:  40  08:22:33 -12.20  -6.81    -4.79-225.410688             -0.0000
iter:  41  08:22:58 -12.82  -6.82    -5.52-225.410688             -0.0000
iter:  42  08:23:22 -11.67  -6.86    -4.73-225.410688             -0.0000
iter:  43  08:23:47 -12.93  -6.97    -5.78-225.410688             -0.0000
iter:  44  08:24:11 -11.72  -6.98    -4.94-225.410688             -0.0000
iter:  45  08:24:36 -12.01  -6.98    -4.71-225.410688             -0.0000
iter:  46  08:25:00 -12.35  -7.07    -5.49-225.410688             -0.0000
iter:  47  08:25:25 -11.87  -7.16    -4.94-225.410688             -0.0000
iter:  48  08:25:49 -12.12  -7.12    -5.20-225.410688             -0.0000
iter:  49  08:26:14 -13.32  -7.63    -5.80-225.410688             -0.0000
iter:  50  08:26:38 -13.35  -7.70    -5.34-225.410688             -0.0000
iter:  51  08:27:03 -13.83  -7.72    -5.97-225.410688             -0.0000
iter:  52  08:27:27 -14.38  -7.88    -6.36-225.410688             -0.0000

Converged after 52 iterations.

Dipole moment: (19.051997, -1.375066, -4.182818) |e|*Ang

Total magnetic moment: (0.000000, 0.000000, -0.000000)
Local magnetic moments:
   0 O  ( 0.000000,  0.000000,  0.000675)
   1 O  ( 0.000000,  0.000000, -0.000652)
   2 O  ( 0.000000,  0.000000, -0.000648)
   3 O  ( 0.000000,  0.000000,  0.000709)
   4 O  ( 0.000000,  0.000000, -0.000653)
   5 O  ( 0.000000,  0.000000,  0.000692)
   6 O  ( 0.000000,  0.000000,  0.000672)
   7 O  ( 0.000000,  0.000000, -0.000627)
   8 O  ( 0.000000,  0.000000,  0.022330)
   9 O  ( 0.000000,  0.000000, -0.022353)
  10 O  ( 0.000000,  0.000000, -0.022405)
  11 O  ( 0.000000,  0.000000,  0.022383)
  12 Mn ( 0.000000,  0.000000,  4.575029)
  13 Mn ( 0.000000,  0.000000, -4.575048)
  14 Mn ( 0.000000,  0.000000, -4.575102)
  15 Mn ( 0.000000,  0.000000,  4.575022)
  16 P  ( 0.000000,  0.000000,  0.000808)
  17 P  ( 0.000000,  0.000000, -0.000819)
  18 P  ( 0.000000,  0.000000, -0.000815)
  19 P  ( 0.000000,  0.000000,  0.000814)
  20 O  ( 0.000000,  0.000000,  0.020719)
  21 O  ( 0.000000,  0.000000, -0.020721)
  22 O  ( 0.000000,  0.000000, -0.020699)
  23 O  ( 0.000000,  0.000000,  0.020696)
  24 Li ( 0.000000,  0.000000, -0.000001)
  25 Li ( 0.000000,  0.000000,  0.000000)
  26 Li ( 0.000000,  0.000000,  0.000007)
  27 Li ( 0.000000,  0.000000,  0.000000)

Energy contributions relative to reference atoms: (reference = -196157.275402)

Kinetic:       +296.840119
Potential:     -256.382739
External:        +0.000000
XC:            -267.648835
Entropy (-ST):   -0.000000
Local:           +1.780767
--------------------------
Free energy:   -225.410688
Extrapolated:  -225.410688

Spin contamination: 9.697235 electrons
Showing only first 2 kpts
                      Up                     Down
 Kpt  Band  Eigenvalues  Occupancy  Eigenvalues  Occupancy
  0    88      5.10735    0.00694      5.11139    0.00694
  0    89      5.15885    0.00694      5.16313    0.00694
  0    90      9.65378    0.00000      9.65075    0.00000
  0    91      9.67322    0.00000      9.66874    0.00000

  1    88      5.11899    0.00694      5.12295    0.00694
  1    89      5.16807    0.00694      5.17253    0.00694
  1    90      9.53595    0.00000      9.53313    0.00000
  1    91      9.54695    0.00000      9.54284    0.00000


Fermi level: 6.36995

Gap: 3.793 eV
Transition (v -> c):
  (s=1, k=72, n=89, [0.08, -0.42, -0.38]) -> (s=1, k=62, n=90, [-0.08, 0.08, 0.12])
Writing to born-0.01-26y-.gpw (mode='all')

Timing:                              incl.     excl.
-----------------------------------------------------------
Hamiltonian:                         0.216     0.002   0.0% |
 Atomic:                             0.054     0.054   0.0% |
  XC Correction:                     0.000     0.000   0.0% |
 Calculate atomic Hamiltonians:      0.074     0.074   0.0% |
 Communicate:                        0.002     0.002   0.0% |
 Initialize Hamiltonian:             0.000     0.000   0.0% |
 Poisson:                            0.001     0.001   0.0% |
 XC 3D grid:                         0.083     0.083   0.0% |
LCAO initialization:                68.677     0.649   0.0% |
 LCAO eigensolver:                  19.167     0.002   0.0% |
  Calculate projections:             0.029     0.029   0.0% |
  DenseAtomicCorrection:             0.045     0.045   0.0% |
  Distribute overlap matrix:         0.130     0.130   0.0% |
  Orbital Layouts:                   0.432     0.432   0.0% |
  Potential matrix:                 18.442    18.442   0.6% |
  Sum over cells:                    0.086     0.086   0.0% |
 LCAO to grid:                      47.506    47.506   1.5% ||
 Set positions (LCAO WFS):           1.354     0.191   0.0% |
  Basic WFS set positions:           0.001     0.001   0.0% |
  Basis functions set positions:     0.000     0.000   0.0% |
  P tci:                             0.521     0.521   0.0% |
  ST tci:                            0.383     0.383   0.0% |
  mktci:                             0.258     0.258   0.0% |
PWDescriptor:                        0.023     0.023   0.0% |
SCF-cycle:                        1187.621     4.490   0.1% |
 Davidson:                         980.308   300.943   9.7% |---|
  Apply H:                          67.656    65.668   2.1% ||
   HMM T:                            1.989     1.989   0.1% |
  Subspace diag:                   142.329     0.150   0.0% |
   calc_h_matrix:                   91.372    23.765   0.8% |
    Apply H:                        67.607    65.600   2.1% ||
     HMM T:                          2.006     2.006   0.1% |
   diagonalize:                      7.127     7.127   0.2% |
   rotate_psi:                      43.680    43.680   1.4% ||
  calc. matrices:                  292.902   161.009   5.2% |-|
   Apply H:                        131.893   128.194   4.1% |-|
    HMM T:                           3.699     3.699   0.1% |
  diagonalize:                      81.929    81.929   2.6% ||
  rotate_psi:                       94.548    94.548   3.1% ||
 Density:                           39.044     0.001   0.0% |
  Atomic density matrices:           0.885     0.885   0.0% |
  Mix:                               5.474     5.474   0.2% |
  Multipole moments:                 0.019     0.019   0.0% |
  Pseudo density:                   32.664    32.663   1.1% |
   Symmetrize density:               0.001     0.001   0.0% |
 Forces:                           150.490   150.490   4.9% |-|
 Hamiltonian:                       11.195     0.110   0.0% |
  Atomic:                            2.775     2.775   0.1% |
   XC Correction:                    0.000     0.000   0.0% |
  Calculate atomic Hamiltonians:     3.842     3.842   0.1% |
  Communicate:                       0.086     0.086   0.0% |
  Poisson:                           0.033     0.033   0.0% |
  XC 3D grid:                        4.349     4.349   0.1% |
 Orthonormalize:                     2.094     0.003   0.0% |
  calc_s_matrix:                     0.245     0.245   0.0% |
  inverse-cholesky:                  0.073     0.073   0.0% |
  projections:                       1.338     1.338   0.0% |
  rotate_psi_s:                      0.435     0.435   0.0% |
Set symmetry:                        0.000     0.000   0.0% |
Other:                            1837.734  1837.734  59.4% |-----------------------|
-----------------------------------------------------------
Total:                                      3094.272 100.0%

Memory usage: 13.79 GiB
Date: Thu Mar 25 08:58:04 2021
