
  ___ ___ ___ _ _ _  
 |   |   |_  | | | | 
 | | | | | . | | | | 
 |__ |  _|___|_____|  20.10.1b1
 |___|_|             

User:   madkru@i018.nifl.fysik.dtu.dk
Date:   Wed Mar 24 21:30:00 2021
Arch:   x86_64
Pid:    26873
Python: 3.7.4
gpaw:   /home/niflheim/madkru/venv_folder/gpaw/gpaw (d224efde0f)
_gpaw:  /home/niflheim/madkru/venv_folder/gpaw/build/lib.linux-x86_64-ivybridge-3.7/
        _gpaw.cpython-37m-x86_64-linux-gnu.so (4fd39e8b1e)
ase:    /home/niflheim/madkru/venv_folder/ase/ase (version 3.21.0b1-4d5a73cb29)
numpy:  /home/niflheim/madkru/venv_folder/lib/python3.7/site-packages/numpy (version 1.19.4)
scipy:  /home/niflheim/madkru/venv_folder/lib/python3.7/site-packages/scipy (version 1.5.4)
libxc:  4.3.4
units:  Angstrom and eV
cores: 64
OMP_NUM_THREADS: 1

Input parameters:
  convergence: {bands: occupied,
                density: 0.0001,
                eigenstates: 4e-08,
                energy: 0.0005,
                forces: 1e-06}
  kpts: [6 6 4]
  mode: {ecut: 600.0,
         gammacentered: False,
         name: pw}
  occupations: {fixmagmom: False,
                name: fermi-dirac,
                width: 0.001}
  setups: {Mn: :d,3.0}
  symmetry: {point_group: False,
             time_reversal: False}

System changes: positions, numbers, cell, pbc, initial_charges, initial_magmoms 

Initialize ...

O-setup:
  name: Oxygen
  id: 9b9d51c344dea68c822856295a461509
  Z: 8.0
  valence: 6
  core: 2
  charge: 0.0
  file: /home/modules/software/GPAW-setups/0.9.20000/O.LDA.gz
  compensation charges: gauss, rc=0.21, lmax=2
  cutoffs: 1.17(filt), 0.83(core),
  valence states:
                energy  radius
    2s(2.00)   -23.752   0.688
    2p(4.00)    -9.195   0.598
    *s           3.459   0.688
    *p          18.016   0.598
    *d           0.000   0.619

  Using partial waves for O as LCAO basis

Mn-setup:
  name: Manganese
  id: 0d715a8018be061a6e9ea6f2d364ac92
  Z: 25.0
  valence: 15
  core: 10
  charge: 0.0
  Hubbard U: 3.000000 eV (l=2, scale=True)
  file: /home/modules/software/GPAW-setups/0.9.20000/Mn.LDA.gz
  compensation charges: gauss, rc=0.38, lmax=2
  cutoffs: 2.14(filt), 0.86(core),
  valence states:
                energy  radius
    3s(2.00)   -85.387   1.275
    4s(2.00)    -5.282   1.275
    3p(6.00)   -54.493   1.281
    4p(0.00)    -1.471   1.281
    3d(5.00)    -7.009   1.138
    *d          20.203   1.138

  Using partial waves for Mn as LCAO basis

P-setup:
  name: Phosphorus
  id: a5561c299094968922a179ab894d2e2d
  Z: 15.0
  valence: 5
  core: 10
  charge: 0.0
  file: /home/modules/software/GPAW-setups/0.9.20000/P.LDA.gz
  compensation charges: gauss, rc=0.30, lmax=2
  cutoffs: 1.69(filt), 1.81(core),
  valence states:
                energy  radius
    3s(2.00)   -14.015   0.953
    3p(3.00)    -5.596   0.953
    *s          13.197   0.953
    *p          21.615   0.953
    *d           0.000   0.953

  Using partial waves for P as LCAO basis

Li-setup:
  name: Lithium
  id: b73562207f97a71b6967473b66fe8b65
  Z: 3.0
  valence: 1
  core: 2
  charge: 0.0
  file: /home/modules/software/GPAW-setups/0.9.20000/Li.LDA.gz
  compensation charges: gauss, rc=0.33, lmax=2
  cutoffs: 1.91(filt), 2.55(core),
  valence states:
                energy  radius
    2s(1.00)    -2.874   1.058
    2p(0.00)    -1.126   1.058
    *s          24.338   1.058

  Using partial waves for Li as LCAO basis

Reference energy: -196157.275402

Spin-polarized calculation.
Magnetic moment: 0.000000

Convergence criteria:
  Maximum total energy change: 0.0005 eV / electron
  Maximum integral of absolute density change: 0.0001 electrons
  Maximum integral of absolute eigenstate change: 4e-08 eV^2
  Maximum change in atomic force: 1e-06 eV / Ang
  Maximum number of iterations: 333

Symmetries present (total): 1

  ( 1  0  0)
  ( 0  1  0)
  ( 0  0  1)

144 k-points: 6 x 6 x 4 Monkhorst-Pack grid
144 k-points in the irreducible part of the Brillouin zone
       k-points in crystal coordinates                weights
   0:    -0.41666667   -0.41666667   -0.37500000          1/144
   1:    -0.41666667   -0.41666667   -0.12500000          1/144
   2:    -0.41666667   -0.41666667    0.12500000          1/144
   3:    -0.41666667   -0.41666667    0.37500000          1/144
   4:    -0.41666667   -0.25000000   -0.37500000          1/144
   5:    -0.41666667   -0.25000000   -0.12500000          1/144
   6:    -0.41666667   -0.25000000    0.12500000          1/144
   7:    -0.41666667   -0.25000000    0.37500000          1/144
   8:    -0.41666667   -0.08333333   -0.37500000          1/144
   9:    -0.41666667   -0.08333333   -0.12500000          1/144
          ...
 143:     0.41666667    0.41666667    0.37500000          1/144

Wave functions: Plane wave expansion
  Cutoff energy: 600.000 eV
  Number of coefficients (min, max): 9238, 9284
  Pulay-stress correction: 0.000000 eV/Ang^3 (de/decut=0.000000)
  Using FFTW library
  ScaLapack parameters: grid=1x1, blocksize=None
  Wavefunction extrapolation:
    Improved wavefunction reuse through dual PAW basis 

  Fermi-Dirac: width=0.0010 eV

Eigensolver
   Davidson(niter=2, smin=None, normalize=True) 

Densities:
  Coarse grid: 60*35*27 grid
  Fine grid: 120*70*54 grid
  Total Charge: 0.000000 

Density mixing:
  Method: difference
  Backend: pulay
  Linear mixing parameter: 0.05
  Mixing with 5 old densities
  Damping of long wave oscillations: 50 

Hamiltonian:
  XC and Coulomb potentials evaluated on a 120*70*54 grid
  Using the LDA Exchange-Correlation functional
 

Memory estimate:
  Process memory now: 13616.40 MiB
  Calculator: 326.59 MiB
    Density: 9.67 MiB
      Arrays: 3.79 MiB
      Localized functions: 4.32 MiB
      Mixer: 1.56 MiB
    Hamiltonian: 2.94 MiB
      Arrays: 2.82 MiB
      XC: 0.00 MiB
      Poisson: 0.00 MiB
      vbar: 0.12 MiB
    Wavefunctions: 313.97 MiB
      Arrays psit_nG: 285.59 MiB
      Eigensolver: 18.49 MiB
      Projections: 2.71 MiB
      Projectors: 4.46 MiB
      PW-descriptor: 2.72 MiB

Total number of cores used: 64
Parallelization over k-points: 16
Domain decomposition: 2 x 2 x 1

Number of atoms: 28
Number of atomic orbitals: 148
Number of bands in calculation: 112
Number of valence electrons: 180
Bands to converge: occupied

... initialized

Initializing position-dependent things.

Density initialized from atomic densities
Creating initial wave functions:
  112 bands from LCAO basis set

                                           
                                           
                                           
                                           
                                           
               O     O  P  O               
            PO           OMn     O         
                  O          MO            
            O        Li O                  
             Mn  On          OP            
         O         Li O                    
         Li     O P         O              
       Li                                  
                                           
                                           
                                           
                                           

Positions:
   0 O     -1.263197   -2.497779   -1.098475    ( 0.0000,  0.0000,  0.0000)
   1 O     -3.070823    2.922496    1.209491    ( 0.0000,  0.0000,  0.0000)
   2 O      1.985541    0.474863    1.428016    ( 0.0000,  0.0000,  0.0000)
   3 O      3.793120   -0.050100   -0.879950    ( 0.0000,  0.0000,  0.0000)
   4 O      1.985518    2.922485    1.428149    ( 0.0000,  0.0000,  0.0000)
   5 O      3.793144   -2.497790   -0.879818    ( 0.0000,  0.0000,  0.0000)
   6 O     -1.263220   -0.050157   -1.098342    ( 0.0000,  0.0000,  0.0000)
   7 O     -3.070798    0.474805    1.209623    ( 0.0000,  0.0000,  0.0000)
   8 O     -4.167835   -1.273920   -0.862116    ( 0.0000,  0.0000,  0.0000)
   9 O     -0.166037    1.698602    1.445528    ( 0.0000,  0.0000,  0.0000)
  10 O      4.890156    1.698625    1.191790    ( 0.0000,  0.0000,  0.0000)
  11 O      0.888358   -1.273896   -1.115855    ( 0.0000,  0.0000,  0.0000)
  12 Mn    -2.445557   -1.274211    0.312921    ( 0.0000,  0.0000,  1.0000)
  13 Mn    -1.888303    1.698892   -1.994948    ( 0.0000,  0.0000, -1.0000)
  14 Mn     3.167879    1.698917    0.016752    ( 0.0000,  0.0000, -1.0000)
  15 Mn     2.610624   -1.274187    2.324621    ( 0.0000,  0.0000,  1.0000)
  16 P     -0.529549   -1.273917   -1.724376    ( 0.0000,  0.0000,  0.0000)
  17 P     -3.804359    1.698599    0.583463    ( 0.0000,  0.0000,  0.0000)
  18 P      1.251870    1.698623    2.054050    ( 0.0000,  0.0000,  0.0000)
  19 P      4.526680   -1.273894   -0.253789    ( 0.0000,  0.0000,  0.0000)
  20 O     -0.544227   -1.273926    1.365380    ( 0.0000,  0.0000,  0.0000)
  21 O     -3.789411    1.698610   -0.942222    ( 0.0000,  0.0000,  0.0000)
  22 O      1.266548    1.698631   -1.045707    ( 0.0000,  0.0000,  0.0000)
  23 O      4.511733   -1.273905    1.271895    ( 0.0000,  0.0000,  0.0000)
  24 Li    -4.695087   -2.760584   -2.142877    ( 0.0000,  0.0000,  0.0000)
  25 Li     0.361147   -2.760561    0.164836    ( 0.0000,  0.0000,  0.0000)
  26 Li    -4.695074    0.212330   -2.142877    ( 0.0000,  0.0000,  0.0000)
  27 Li     0.361161    0.212353    0.164837    ( 0.0000,  0.0000,  0.0000)

Unit cell:
           periodic     x           y           z      points  spacing
  1. axis:    yes   10.112485    0.000045   -0.000035    60     0.1685
  2. axis:    yes    0.000026    5.945827    0.000001    35     0.1699
  3. axis:    yes   -0.000016    0.000000    4.615463    27     0.1709

  Lengths:  10.112485   5.945827   4.615463
  Angles:   89.999989  90.000396  89.999490

Effective grid spacing dv^(1/3) = 0.1698

                     log10-error:           total        iterations:
           time      wfs    density  force  energy       poisson  magmom
iter:   1  21:31:35                       -221.370196             +0.0000
iter:   2  21:31:55  -0.61  -0.93         -234.841662             +0.0000
iter:   3  21:32:14  -0.37  -0.97         -225.914043             -0.0000
iter:   4  21:32:34  -1.39  -1.29         -225.759160             +0.0000
iter:   5  21:32:54  -1.26  -1.39         -227.334899             +0.0000
iter:   6  21:33:14  -1.46  -1.46         -225.735032             +0.0000
iter:   7  21:33:34  -2.48  -2.04         -225.724170             +0.0000
iter:   8  21:33:54  -2.30  -2.00         -225.540274             +0.0000
iter:   9  21:34:14  -2.52  -2.17         -225.433789             +0.0000
iter:  10  21:34:34  -3.27  -2.52         -225.421001             +0.0000
iter:  11  21:34:54  -3.37  -2.82         -225.410623             +0.0000
iter:  12  21:35:13  -4.32  -3.00         -225.408605             -0.0000
iter:  13  21:35:33  -5.18  -3.30         -225.408758             -0.0000
iter:  14  21:35:53  -5.10  -3.31         -225.408599             -0.0000
iter:  15  21:36:13  -6.00  -3.47         -225.408644             -0.0000
iter:  16  21:36:33  -5.67  -3.50         -225.408720             -0.0000
iter:  17  21:36:53  -6.57  -3.61         -225.408625             +0.0000
iter:  18  21:37:13  -5.23  -3.63         -225.408541             -0.0000
iter:  19  21:37:32  -5.81  -3.72         -225.408613             +0.0000
iter:  20  21:37:52  -6.89  -3.81         -225.408611             -0.0000
iter:  21  21:38:12  -6.02  -3.83         -225.408526             -0.0000
iter:  22  21:38:32  -6.66  -4.02         -225.408523             -0.0000
iter:  23  21:38:52  -7.21  -4.08         -225.408519             -0.0000
iter:  24  21:39:12  -6.36  -4.12         -225.408514             -0.0000
iter:  25  21:39:32  -6.74  -4.46         -225.408524             -0.0000
iter:  26  21:39:56  -7.89  -4.61         -225.408523             -0.0000
iter:  27  21:40:16  -7.22  -4.64         -225.408514             -0.0000
iter:  28  21:40:41  -7.79  -4.83    -2.53-225.408515             -0.0000
iter:  29  21:41:05  -7.44  -4.88    -2.62-225.408513             -0.0000
iter:  30  21:41:30  -8.24  -5.38    -3.26-225.408513             -0.0000
iter:  31  21:41:54  -9.39  -5.44    -3.59-225.408513             -0.0000
iter:  32  21:42:19  -9.67  -5.61    -3.99-225.408513             -0.0000
iter:  33  21:42:43  -9.43  -5.68    -3.89-225.408513             -0.0000
iter:  34  21:43:08  -9.93  -5.86    -3.63-225.408513             -0.0000
iter:  35  21:43:32  -9.92  -6.10    -3.87-225.408513             -0.0000
iter:  36  21:43:57 -10.76  -6.09    -4.77-225.408513             +0.0000
iter:  37  21:44:21 -10.39  -6.08    -4.16-225.408513             -0.0000
iter:  38  21:44:46 -11.06  -6.18    -3.86-225.408513             +0.0000
iter:  39  21:45:10 -11.86  -6.23    -4.39-225.408513             -0.0000
iter:  40  21:45:35 -10.52  -6.33    -4.24-225.408513             -0.0000
iter:  41  21:45:59 -10.76  -6.55    -4.52-225.408513             +0.0000
iter:  42  21:46:24 -12.15  -6.55    -4.96-225.408513             +0.0000
iter:  43  21:46:48 -11.09  -6.64    -4.37-225.408513             -0.0000
iter:  44  21:47:13 -11.74  -6.96    -4.74-225.408513             +0.0000
iter:  45  21:47:37 -13.08  -7.07    -5.27-225.408513             +0.0000
iter:  46  21:48:02 -12.96  -7.11    -5.67-225.408513             -0.0000
iter:  47  21:48:27 -12.07  -7.14    -4.88-225.408513             +0.0000
iter:  48  21:48:51 -12.97  -7.20    -5.21-225.408513             +0.0000
iter:  49  21:49:16 -13.52  -7.33    -5.62-225.408513             +0.0000
iter:  50  21:49:40 -12.58  -7.36    -5.25-225.408513             +0.0000
iter:  51  21:50:05 -13.74  -7.46    -5.68-225.408513             +0.0000
iter:  52  21:50:29 -13.63  -7.49    -5.97-225.408513             +0.0000
iter:  53  21:50:54 -14.14  -7.53    -5.73-225.408513             +0.0000
iter:  54  21:51:18 -14.00  -7.59    -5.93-225.408513             +0.0000
iter:  55  21:51:43 -15.10  -7.71    -6.15-225.408513             +0.0000

Converged after 55 iterations.

Dipole moment: (19.047320, -1.427508, -4.184456) |e|*Ang

Total magnetic moment: (0.000000, 0.000000, 0.000000)
Local magnetic moments:
   0 O  ( 0.000000,  0.000000,  0.000673)
   1 O  ( 0.000000,  0.000000, -0.000670)
   2 O  ( 0.000000,  0.000000, -0.000713)
   3 O  ( 0.000000,  0.000000,  0.000689)
   4 O  ( 0.000000,  0.000000, -0.000718)
   5 O  ( 0.000000,  0.000000,  0.000693)
   6 O  ( 0.000000,  0.000000,  0.000668)
   7 O  ( 0.000000,  0.000000, -0.000666)
   8 O  ( 0.000000,  0.000000,  0.022368)
   9 O  ( 0.000000,  0.000000, -0.022342)
  10 O  ( 0.000000,  0.000000, -0.022458)
  11 O  ( 0.000000,  0.000000,  0.022370)
  12 Mn ( 0.000000,  0.000000,  4.575078)
  13 Mn ( 0.000000,  0.000000, -4.575009)
  14 Mn ( 0.000000,  0.000000, -4.575404)
  15 Mn ( 0.000000,  0.000000,  4.575004)
  16 P  ( 0.000000,  0.000000,  0.000810)
  17 P  ( 0.000000,  0.000000, -0.000816)
  18 P  ( 0.000000,  0.000000, -0.000746)
  19 P  ( 0.000000,  0.000000,  0.000839)
  20 O  ( 0.000000,  0.000000,  0.020711)
  21 O  ( 0.000000,  0.000000, -0.020700)
  22 O  ( 0.000000,  0.000000, -0.020570)
  23 O  ( 0.000000,  0.000000,  0.020704)
  24 Li ( 0.000000,  0.000000,  0.000000)
  25 Li ( 0.000000,  0.000000,  0.000012)
  26 Li ( 0.000000,  0.000000,  0.000000)
  27 Li ( 0.000000,  0.000000,  0.000012)

Energy contributions relative to reference atoms: (reference = -196157.275402)

Kinetic:       +297.592797
Potential:     -256.977818
External:        +0.000000
XC:            -267.802279
Entropy (-ST):   -0.000000
Local:           +1.778787
--------------------------
Free energy:   -225.408513
Extrapolated:  -225.408513

Spin contamination: 9.697159 electrons
Showing only first 2 kpts
                      Up                     Down
 Kpt  Band  Eigenvalues  Occupancy  Eigenvalues  Occupancy
  0    88      5.10991    0.00694      5.10045    0.00694
  0    89      5.16133    0.00694      5.15536    0.00694
  0    90      9.65001    0.00000      9.65244    0.00000
  0    91      9.67099    0.00000      9.67259    0.00000

  1    88      5.12152    0.00694      5.11211    0.00694
  1    89      5.17073    0.00694      5.16445    0.00694
  1    90      9.53220    0.00000      9.53435    0.00000
  1    91      9.54544    0.00000      9.54685    0.00000


Fermi level: 6.36986

Gap: 3.797 eV
Transition (v -> c):
  (s=0, k=71, n=89, [-0.08, 0.42, 0.38]) -> (s=0, k=85, n=90, [0.08, 0.08, -0.12])
Writing to born-0.01-22z-.gpw (mode='all')

Timing:                              incl.     excl.
-----------------------------------------------------------
Hamiltonian:                         0.216     0.002   0.0% |
 Atomic:                             0.053     0.053   0.0% |
  XC Correction:                     0.000     0.000   0.0% |
 Calculate atomic Hamiltonians:      0.074     0.074   0.0% |
 Communicate:                        0.001     0.001   0.0% |
 Initialize Hamiltonian:             0.000     0.000   0.0% |
 Poisson:                            0.001     0.001   0.0% |
 XC 3D grid:                         0.085     0.085   0.0% |
LCAO initialization:                72.555     0.648   0.0% |
 LCAO eigensolver:                  19.390     0.002   0.0% |
  Calculate projections:             0.029     0.029   0.0% |
  DenseAtomicCorrection:             0.045     0.045   0.0% |
  Distribute overlap matrix:         0.009     0.009   0.0% |
  Orbital Layouts:                   0.433     0.433   0.0% |
  Potential matrix:                 18.785    18.785   0.7% |
  Sum over cells:                    0.087     0.087   0.0% |
 LCAO to grid:                      51.209    51.209   1.8% ||
 Set positions (LCAO WFS):           1.308     0.190   0.0% |
  Basic WFS set positions:           0.001     0.001   0.0% |
  Basis functions set positions:     0.000     0.000   0.0% |
  P tci:                             0.522     0.522   0.0% |
  ST tci:                            0.381     0.381   0.0% |
  mktci:                             0.214     0.214   0.0% |
PWDescriptor:                        0.024     0.024   0.0% |
SCF-cycle:                        1229.234     0.492   0.0% |
 Davidson:                        1036.999   317.954  11.0% |---|
  Apply H:                          71.784    69.761   2.4% ||
   HMM T:                            2.022     2.022   0.1% |
  Subspace diag:                   150.625     0.157   0.0% |
   calc_h_matrix:                   96.821    25.084   0.9% |
    Apply H:                        71.736    69.702   2.4% ||
     HMM T:                          2.034     2.034   0.1% |
   diagonalize:                      7.498     7.498   0.3% |
   rotate_psi:                      46.149    46.149   1.6% ||
  calc. matrices:                  310.435   170.158   5.9% |-|
   Apply H:                        140.277   136.481   4.7% |-|
    HMM T:                           3.796     3.796   0.1% |
  diagonalize:                      86.414    86.414   3.0% ||
  rotate_psi:                       99.787    99.787   3.5% ||
 Density:                           41.275     0.001   0.0% |
  Atomic density matrices:           0.857     0.857   0.0% |
  Mix:                               5.745     5.745   0.2% |
  Multipole moments:                 0.019     0.019   0.0% |
  Pseudo density:                   34.653    34.652   1.2% |
   Symmetrize density:               0.002     0.002   0.0% |
 Forces:                           136.491   136.491   4.7% |-|
 Hamiltonian:                       11.893     0.113   0.0% |
  Atomic:                            2.969     2.969   0.1% |
   XC Correction:                    0.000     0.000   0.0% |
  Calculate atomic Hamiltonians:     4.098     4.098   0.1% |
  Communicate:                       0.094     0.094   0.0% |
  Poisson:                           0.031     0.031   0.0% |
  XC 3D grid:                        4.588     4.588   0.2% |
 Orthonormalize:                     2.084     0.003   0.0% |
  calc_s_matrix:                     0.244     0.244   0.0% |
  inverse-cholesky:                  0.072     0.072   0.0% |
  projections:                       1.331     1.331   0.0% |
  rotate_psi_s:                      0.434     0.434   0.0% |
Set symmetry:                        0.000     0.000   0.0% |
Other:                            1585.037  1585.037  54.9% |---------------------|
-----------------------------------------------------------
Total:                                      2887.066 100.0%

Memory usage: 13.34 GiB
Date: Wed Mar 24 22:18:07 2021
