
  ___ ___ ___ _ _ _  
 |   |   |_  | | | | 
 | | | | | . | | | | 
 |__ |  _|___|_____|  20.10.1b1
 |___|_|             

User:   madkru@g035.nifl.fysik.dtu.dk
Date:   Mon Mar 22 02:47:31 2021
Arch:   x86_64
Pid:    44316
Python: 3.7.4
gpaw:   /home/niflheim/madkru/venv_folder/gpaw/gpaw (d0d1ca1c71)
_gpaw:  /home/niflheim/madkru/venv_folder/gpaw/build/lib.linux-x86_64-sandybridge-3.7/
        _gpaw.cpython-37m-x86_64-linux-gnu.so (4fd39e8b1e)
ase:    /home/niflheim/madkru/venv_folder/ase/ase (version 3.21.0b1-7e6c206a91)
numpy:  /home/niflheim/madkru/venv_folder/lib/python3.7/site-packages/numpy (version 1.19.4)
scipy:  /home/niflheim/madkru/venv_folder/lib/python3.7/site-packages/scipy (version 1.5.4)
libxc:  4.3.4
units:  Angstrom and eV
cores: 32
OMP_NUM_THREADS: 1

Input parameters:
  convergence: {bands: occupied,
                density: 0.0001,
                eigenstates: 4e-08,
                energy: 0.0005,
                forces: 1e-06}
  kpts: [6 6 4]
  mode: {ecut: 600.0,
         gammacentered: False,
         name: pw}
  occupations: {fixmagmom: False,
                name: fermi-dirac,
                width: 0.001}
  setups: {Mn: :d,3.0}
  symmetry: {point_group: False,
             time_reversal: False}

System changes: positions, numbers, cell, pbc, initial_charges, initial_magmoms 

Initialize ...

O-setup:
  name: Oxygen
  id: 9b9d51c344dea68c822856295a461509
  Z: 8.0
  valence: 6
  core: 2
  charge: 0.0
  file: /home/modules/software/GPAW-setups/0.9.20000/O.LDA.gz
  compensation charges: gauss, rc=0.21, lmax=2
  cutoffs: 1.17(filt), 0.83(core),
  valence states:
                energy  radius
    2s(2.00)   -23.752   0.688
    2p(4.00)    -9.195   0.598
    *s           3.459   0.688
    *p          18.016   0.598
    *d           0.000   0.619

  Using partial waves for O as LCAO basis

Mn-setup:
  name: Manganese
  id: 0d715a8018be061a6e9ea6f2d364ac92
  Z: 25.0
  valence: 15
  core: 10
  charge: 0.0
  Hubbard U: 3.000000 eV (l=2, scale=True)
  file: /home/modules/software/GPAW-setups/0.9.20000/Mn.LDA.gz
  compensation charges: gauss, rc=0.38, lmax=2
  cutoffs: 2.14(filt), 0.86(core),
  valence states:
                energy  radius
    3s(2.00)   -85.387   1.275
    4s(2.00)    -5.282   1.275
    3p(6.00)   -54.493   1.281
    4p(0.00)    -1.471   1.281
    3d(5.00)    -7.009   1.138
    *d          20.203   1.138

  Using partial waves for Mn as LCAO basis

P-setup:
  name: Phosphorus
  id: a5561c299094968922a179ab894d2e2d
  Z: 15.0
  valence: 5
  core: 10
  charge: 0.0
  file: /home/modules/software/GPAW-setups/0.9.20000/P.LDA.gz
  compensation charges: gauss, rc=0.30, lmax=2
  cutoffs: 1.69(filt), 1.81(core),
  valence states:
                energy  radius
    3s(2.00)   -14.015   0.953
    3p(3.00)    -5.596   0.953
    *s          13.197   0.953
    *p          21.615   0.953
    *d           0.000   0.953

  Using partial waves for P as LCAO basis

Li-setup:
  name: Lithium
  id: b73562207f97a71b6967473b66fe8b65
  Z: 3.0
  valence: 1
  core: 2
  charge: 0.0
  file: /home/modules/software/GPAW-setups/0.9.20000/Li.LDA.gz
  compensation charges: gauss, rc=0.33, lmax=2
  cutoffs: 1.91(filt), 2.55(core),
  valence states:
                energy  radius
    2s(1.00)    -2.874   1.058
    2p(0.00)    -1.126   1.058
    *s          24.338   1.058

  Using partial waves for Li as LCAO basis

Reference energy: -196157.275402

Spin-polarized calculation.
Magnetic moment: 0.000000

Convergence criteria:
  Maximum total energy change: 0.0005 eV / electron
  Maximum integral of absolute density change: 0.0001 electrons
  Maximum integral of absolute eigenstate change: 4e-08 eV^2
  Maximum change in atomic force: 1e-06 eV / Ang
  Maximum number of iterations: 333

Symmetries present (total): 1

  ( 1  0  0)
  ( 0  1  0)
  ( 0  0  1)

144 k-points: 6 x 6 x 4 Monkhorst-Pack grid
144 k-points in the irreducible part of the Brillouin zone
       k-points in crystal coordinates                weights
   0:    -0.41666667   -0.41666667   -0.37500000          1/144
   1:    -0.41666667   -0.41666667   -0.12500000          1/144
   2:    -0.41666667   -0.41666667    0.12500000          1/144
   3:    -0.41666667   -0.41666667    0.37500000          1/144
   4:    -0.41666667   -0.25000000   -0.37500000          1/144
   5:    -0.41666667   -0.25000000   -0.12500000          1/144
   6:    -0.41666667   -0.25000000    0.12500000          1/144
   7:    -0.41666667   -0.25000000    0.37500000          1/144
   8:    -0.41666667   -0.08333333   -0.37500000          1/144
   9:    -0.41666667   -0.08333333   -0.12500000          1/144
          ...
 143:     0.41666667    0.41666667    0.37500000          1/144

Wave functions: Plane wave expansion
  Cutoff energy: 600.000 eV
  Number of coefficients (min, max): 9238, 9284
  Pulay-stress correction: 0.000000 eV/Ang^3 (de/decut=0.000000)
  Using FFTW library
  ScaLapack parameters: grid=1x1, blocksize=None
  Wavefunction extrapolation:
    Improved wavefunction reuse through dual PAW basis 

  Fermi-Dirac: width=0.0010 eV

Eigensolver
   Davidson(niter=2, smin=None, normalize=True) 

Densities:
  Coarse grid: 60*35*27 grid
  Fine grid: 120*70*54 grid
  Total Charge: 0.000000 

Density mixing:
  Method: difference
  Backend: pulay
  Linear mixing parameter: 0.05
  Mixing with 5 old densities
  Damping of long wave oscillations: 50 

Hamiltonian:
  XC and Coulomb potentials evaluated on a 120*70*54 grid
  Using the LDA Exchange-Correlation functional
 

Memory estimate:
  Process memory now: 12826.32 MiB
  Calculator: 346.50 MiB
    Density: 19.24 MiB
      Arrays: 7.57 MiB
      Localized functions: 8.64 MiB
      Mixer: 3.03 MiB
    Hamiltonian: 5.87 MiB
      Arrays: 5.62 MiB
      XC: 0.00 MiB
      Poisson: 0.00 MiB
      vbar: 0.25 MiB
    Wavefunctions: 321.38 MiB
      Arrays psit_nG: 285.59 MiB
      Eigensolver: 18.49 MiB
      Projections: 5.41 MiB
      Projectors: 8.92 MiB
      PW-descriptor: 2.96 MiB

Total number of cores used: 32
Parallelization over k-points: 16
Domain decomposition: 2 x 1 x 1

Number of atoms: 28
Number of atomic orbitals: 148
Number of bands in calculation: 112
Number of valence electrons: 180
Bands to converge: occupied

... initialized

Initializing position-dependent things.

Density initialized from atomic densities
Creating initial wave functions:
  112 bands from LCAO basis set

                                           
                                           
                                           
                                           
                                           
               O     O  P  O               
            PO           OMn     O         
                  O          MO            
            O        Li O                  
             Mn  On          OP            
         O         Li O                    
         Li     O P         O              
       Li                                  
                                           
                                           
                                           
                                           

Positions:
   0 O     -1.263197   -2.497779   -1.098475    ( 0.0000,  0.0000,  0.0000)
   1 O     -3.070823    2.922496    1.209491    ( 0.0000,  0.0000,  0.0000)
   2 O      1.985541    0.474863    1.428016    ( 0.0000,  0.0000,  0.0000)
   3 O      3.793120   -0.050100   -0.879950    ( 0.0000,  0.0000,  0.0000)
   4 O      1.985518    2.922485    1.438149    ( 0.0000,  0.0000,  0.0000)
   5 O      3.793144   -2.497790   -0.879818    ( 0.0000,  0.0000,  0.0000)
   6 O     -1.263220   -0.050157   -1.098342    ( 0.0000,  0.0000,  0.0000)
   7 O     -3.070798    0.474805    1.209623    ( 0.0000,  0.0000,  0.0000)
   8 O     -4.167835   -1.273920   -0.862116    ( 0.0000,  0.0000,  0.0000)
   9 O     -0.166037    1.698602    1.445528    ( 0.0000,  0.0000,  0.0000)
  10 O      4.890156    1.698625    1.191790    ( 0.0000,  0.0000,  0.0000)
  11 O      0.888358   -1.273896   -1.115855    ( 0.0000,  0.0000,  0.0000)
  12 Mn    -2.445557   -1.274211    0.312921    ( 0.0000,  0.0000,  1.0000)
  13 Mn    -1.888303    1.698892   -1.994948    ( 0.0000,  0.0000, -1.0000)
  14 Mn     3.167879    1.698917    0.016752    ( 0.0000,  0.0000, -1.0000)
  15 Mn     2.610624   -1.274187    2.324621    ( 0.0000,  0.0000,  1.0000)
  16 P     -0.529549   -1.273917   -1.724376    ( 0.0000,  0.0000,  0.0000)
  17 P     -3.804359    1.698599    0.583463    ( 0.0000,  0.0000,  0.0000)
  18 P      1.251870    1.698623    2.054050    ( 0.0000,  0.0000,  0.0000)
  19 P      4.526680   -1.273894   -0.253789    ( 0.0000,  0.0000,  0.0000)
  20 O     -0.544227   -1.273926    1.365380    ( 0.0000,  0.0000,  0.0000)
  21 O     -3.789411    1.698610   -0.942222    ( 0.0000,  0.0000,  0.0000)
  22 O      1.266548    1.698631   -1.035707    ( 0.0000,  0.0000,  0.0000)
  23 O      4.511733   -1.273905    1.271895    ( 0.0000,  0.0000,  0.0000)
  24 Li    -4.695087   -2.760584   -2.142877    ( 0.0000,  0.0000,  0.0000)
  25 Li     0.361147   -2.760561    0.164836    ( 0.0000,  0.0000,  0.0000)
  26 Li    -4.695074    0.212330   -2.142877    ( 0.0000,  0.0000,  0.0000)
  27 Li     0.361161    0.212353    0.164837    ( 0.0000,  0.0000,  0.0000)

Unit cell:
           periodic     x           y           z      points  spacing
  1. axis:    yes   10.112485    0.000045   -0.000035    60     0.1685
  2. axis:    yes    0.000026    5.945827    0.000001    35     0.1699
  3. axis:    yes   -0.000016    0.000000    4.615463    27     0.1709

  Lengths:  10.112485   5.945827   4.615463
  Angles:   89.999989  90.000396  89.999490

Effective grid spacing dv^(1/3) = 0.1698

                     log10-error:           total        iterations:
           time      wfs    density  force  energy       poisson  magmom
iter:   1  02:50:45                       -221.373749             +0.0000
iter:   2  02:51:23  -0.61  -0.93         -234.837842             +0.0000
iter:   3  02:52:00  -0.37  -0.97         -225.913627             -0.0000
iter:   4  02:52:37  -1.39  -1.29         -225.761090             +0.0000
iter:   5  02:53:14  -1.27  -1.39         -227.330171             +0.0000
iter:   6  02:53:51  -1.46  -1.46         -225.737038             +0.0000
iter:   7  02:54:29  -2.47  -2.04         -225.724490             +0.0000
iter:   8  02:55:06  -2.14  -1.99         -225.593385             +0.0000
iter:   9  02:55:43  -2.46  -2.08         -225.431995             +0.0000
iter:  10  02:56:20  -3.31  -2.55         -225.422094             +0.0000
iter:  11  02:56:57  -3.66  -2.81         -225.411784             +0.0000
iter:  12  02:57:34  -4.10  -3.04         -225.410596             +0.0000
iter:  13  02:58:12  -5.10  -3.29         -225.410460             -0.0000
iter:  14  02:58:49  -5.39  -3.32         -225.410289             +0.0000
iter:  15  02:59:26  -6.05  -3.43         -225.410294             +0.0000
iter:  16  03:00:03  -5.24  -3.47         -225.410641             +0.0000
iter:  17  03:00:40  -5.91  -3.58         -225.410521             +0.0000
iter:  18  03:01:17  -5.20  -3.70         -225.410232             +0.0000
iter:  19  03:01:54  -6.06  -4.11         -225.410245             +0.0000
iter:  20  03:02:32  -7.21  -4.40         -225.410244             +0.0000
iter:  21  03:03:09  -7.39  -4.44         -225.410243             +0.0000
iter:  22  03:03:56  -7.69  -4.54         -225.410244             +0.0000
iter:  23  03:04:43  -8.63  -4.53    -3.51-225.410243             +0.0000
iter:  24  03:05:20  -7.16  -4.57         -225.410242             +0.0000
iter:  25  03:06:07  -8.35  -4.90    -2.47-225.410242             +0.0000
iter:  26  03:06:54  -7.86  -4.97    -2.78-225.410242             +0.0000
iter:  27  03:07:41  -8.48  -5.12    -2.95-225.410242             +0.0000
iter:  28  03:08:28  -9.38  -5.34    -3.45-225.410242             +0.0000
iter:  29  03:09:15  -8.76  -5.34    -3.21-225.410242             +0.0000
iter:  30  03:10:02  -9.66  -5.50    -3.80-225.410242             +0.0000
iter:  31  03:10:49 -10.16  -5.53    -3.63-225.410242             +0.0000
iter:  32  03:11:36  -9.75  -5.60    -3.40-225.410242             +0.0000
iter:  33  03:12:23 -10.30  -5.74    -4.09-225.410242             +0.0000
iter:  34  03:13:09  -9.98  -5.83    -3.55-225.410242             +0.0000
iter:  35  03:13:56 -10.15  -6.12    -4.21-225.410242             +0.0000
iter:  36  03:14:43 -11.19  -6.42    -4.32-225.410242             +0.0000
iter:  37  03:15:30 -10.66  -6.52    -4.57-225.410242             +0.0000
iter:  38  03:16:17 -11.94  -6.66    -4.90-225.410242             +0.0000
iter:  39  03:17:04 -12.65  -6.78    -5.31-225.410242             +0.0000
iter:  40  03:17:51 -11.69  -6.83    -4.49-225.410242             +0.0000
iter:  41  03:18:38 -12.74  -7.28    -5.55-225.410242             +0.0000
iter:  42  03:19:25 -13.37  -7.43    -5.56-225.410242             +0.0000
iter:  43  03:20:12 -12.62  -7.46    -5.17-225.410242             +0.0000
iter:  44  03:20:59 -13.38  -7.64    -5.88-225.410242             +0.0000
iter:  45  03:21:46 -13.61  -7.65    -6.21-225.410242             +0.0000

Converged after 45 iterations.

Dipole moment: (19.053429, -1.425680, -4.186831) |e|*Ang

Total magnetic moment: (0.000000, 0.000000, 0.000000)
Local magnetic moments:
   0 O  ( 0.000000,  0.000000,  0.000672)
   1 O  ( 0.000000,  0.000000, -0.000669)
   2 O  ( 0.000000,  0.000000, -0.000629)
   3 O  ( 0.000000,  0.000000,  0.000575)
   4 O  ( 0.000000,  0.000000, -0.000473)
   5 O  ( 0.000000,  0.000000,  0.000725)
   6 O  ( 0.000000,  0.000000,  0.000670)
   7 O  ( 0.000000,  0.000000, -0.000662)
   8 O  ( 0.000000,  0.000000,  0.022365)
   9 O  ( 0.000000,  0.000000, -0.022298)
  10 O  ( 0.000000,  0.000000, -0.022350)
  11 O  ( 0.000000,  0.000000,  0.022411)
  12 Mn ( 0.000000,  0.000000,  4.575071)
  13 Mn ( 0.000000,  0.000000, -4.575034)
  14 Mn ( 0.000000,  0.000000, -4.575406)
  15 Mn ( 0.000000,  0.000000,  4.574684)
  16 P  ( 0.000000,  0.000000,  0.000817)
  17 P  ( 0.000000,  0.000000, -0.000808)
  18 P  ( 0.000000,  0.000000, -0.000655)
  19 P  ( 0.000000,  0.000000,  0.000824)
  20 O  ( 0.000000,  0.000000,  0.020717)
  21 O  ( 0.000000,  0.000000, -0.020706)
  22 O  ( 0.000000,  0.000000, -0.020704)
  23 O  ( 0.000000,  0.000000,  0.020723)
  24 Li ( 0.000000,  0.000000, -0.000001)
  25 Li ( 0.000000,  0.000000,  0.000007)
  26 Li ( 0.000000,  0.000000,  0.000001)
  27 Li ( 0.000000,  0.000000,  0.000000)

Energy contributions relative to reference atoms: (reference = -196157.275402)

Kinetic:       +297.090401
Potential:     -256.575891
External:        +0.000000
XC:            -267.704779
Entropy (-ST):   -0.000000
Local:           +1.780027
--------------------------
Free energy:   -225.410242
Extrapolated:  -225.410242

Spin contamination: 9.697306 electrons
Showing only first 2 kpts
                      Up                     Down
 Kpt  Band  Eigenvalues  Occupancy  Eigenvalues  Occupancy
  0    88      5.11100    0.00694      5.10711    0.00694
  0    89      5.16257    0.00694      5.15836    0.00694
  0    90      9.64889    0.00000      9.65235    0.00000
  0    91      9.67004    0.00000      9.67027    0.00000

  1    88      5.12252    0.00694      5.11840    0.00694
  1    89      5.17170    0.00694      5.16734    0.00694
  1    90      9.53231    0.00000      9.53462    0.00000
  1    91      9.54478    0.00000      9.54386    0.00000


Fermi level: 6.37009

Gap: 3.795 eV
Transition (v -> c):
  (s=0, k=51, n=89, [-0.08, -0.42, 0.38]) -> (s=1, k=85, n=90, [0.08, 0.08, -0.12])
Writing to born-0.01-4z+.gpw (mode='all')

Timing:                              incl.     excl.
-----------------------------------------------------------
Hamiltonian:                         0.421     0.002   0.0% |
 Atomic:                             0.059     0.059   0.0% |
  XC Correction:                     0.000     0.000   0.0% |
 Calculate atomic Hamiltonians:      0.164     0.164   0.0% |
 Communicate:                        0.024     0.024   0.0% |
 Initialize Hamiltonian:             0.000     0.000   0.0% |
 Poisson:                            0.002     0.002   0.0% |
 XC 3D grid:                         0.170     0.170   0.0% |
LCAO initialization:               150.943     0.682   0.0% |
 LCAO eigensolver:                  40.212     0.003   0.0% |
  Calculate projections:             0.057     0.057   0.0% |
  DenseAtomicCorrection:             0.083     0.083   0.0% |
  Distribute overlap matrix:         0.213     0.213   0.0% |
  Orbital Layouts:                   0.363     0.363   0.0% |
  Potential matrix:                 39.404    39.404   0.8% |
  Sum over cells:                    0.091     0.091   0.0% |
 LCAO to grid:                     107.648   107.648   2.3% ||
 Set positions (LCAO WFS):           2.400     0.369   0.0% |
  Basic WFS set positions:           0.001     0.001   0.0% |
  Basis functions set positions:     0.000     0.000   0.0% |
  P tci:                             1.076     1.076   0.0% |
  ST tci:                            0.705     0.705   0.0% |
  mktci:                             0.248     0.248   0.0% |
PWDescriptor:                        0.025     0.025   0.0% |
SCF-cycle:                        1901.434     6.098   0.1% |
 Davidson:                        1582.478   504.205  10.7% |---|
  Apply H:                         115.708   112.553   2.4% ||
   HMM T:                            3.155     3.155   0.1% |
  Subspace diag:                   235.810     0.143   0.0% |
   calc_h_matrix:                  154.916    40.940   0.9% |
    Apply H:                       113.977   110.948   2.4% ||
     HMM T:                          3.029     3.029   0.1% |
   diagonalize:                      5.496     5.496   0.1% |
   rotate_psi:                      75.254    75.254   1.6% ||
  calc. matrices:                  498.761   273.972   5.8% |-|
   Apply H:                        224.788   218.909   4.7% |-|
    HMM T:                           5.879     5.879   0.1% |
  diagonalize:                      74.845    74.845   1.6% ||
  rotate_psi:                      153.150   153.150   3.3% ||
 Density:                           65.882     0.001   0.0% |
  Atomic density matrices:           1.195     1.195   0.0% |
  Mix:                              10.116    10.116   0.2% |
  Multipole moments:                 0.026     0.026   0.0% |
  Pseudo density:                   54.543    54.541   1.2% |
   Symmetrize density:               0.001     0.001   0.0% |
 Forces:                           224.620   224.620   4.8% |-|
 Hamiltonian:                       18.302     0.104   0.0% |
  Atomic:                            2.661     2.661   0.1% |
   XC Correction:                    0.000     0.000   0.0% |
  Calculate atomic Hamiltonians:     7.504     7.504   0.2% |
  Communicate:                       0.090     0.090   0.0% |
  Poisson:                           0.068     0.068   0.0% |
  XC 3D grid:                        7.874     7.874   0.2% |
 Orthonormalize:                     4.054     0.003   0.0% |
  calc_s_matrix:                     0.483     0.483   0.0% |
  inverse-cholesky:                  0.055     0.055   0.0% |
  projections:                       2.653     2.653   0.1% |
  rotate_psi_s:                      0.859     0.859   0.0% |
Set symmetry:                        0.000     0.000   0.0% |
Other:                            2638.247  2638.247  56.2% |---------------------|
-----------------------------------------------------------
Total:                                      4691.069 100.0%

Memory usage: 12.54 GiB
Date: Mon Mar 22 04:05:43 2021
