
  ___ ___ ___ _ _ _  
 |   |   |_  | | | | 
 | | | | | . | | | | 
 |__ |  _|___|_____|  20.10.1b1
 |___|_|             

User:   madkru@g035.nifl.fysik.dtu.dk
Date:   Sun Mar 21 14:57:44 2021
Arch:   x86_64
Pid:    44316
Python: 3.7.4
gpaw:   /home/niflheim/madkru/venv_folder/gpaw/gpaw (d0d1ca1c71)
_gpaw:  /home/niflheim/madkru/venv_folder/gpaw/build/lib.linux-x86_64-sandybridge-3.7/
        _gpaw.cpython-37m-x86_64-linux-gnu.so (4fd39e8b1e)
ase:    /home/niflheim/madkru/venv_folder/ase/ase (version 3.21.0b1-7e6c206a91)
numpy:  /home/niflheim/madkru/venv_folder/lib/python3.7/site-packages/numpy (version 1.19.4)
scipy:  /home/niflheim/madkru/venv_folder/lib/python3.7/site-packages/scipy (version 1.5.4)
libxc:  4.3.4
units:  Angstrom and eV
cores: 32
OMP_NUM_THREADS: 1

Input parameters:
  convergence: {bands: occupied,
                density: 0.0001,
                eigenstates: 4e-08,
                energy: 0.0005,
                forces: 1e-06}
  kpts: [6 6 4]
  mode: {ecut: 600.0,
         gammacentered: False,
         name: pw}
  occupations: {fixmagmom: False,
                name: fermi-dirac,
                width: 0.001}
  setups: {Mn: :d,3.0}
  symmetry: {point_group: False,
             time_reversal: False}

System changes: positions, numbers, cell, pbc, initial_charges, initial_magmoms 

Initialize ...

O-setup:
  name: Oxygen
  id: 9b9d51c344dea68c822856295a461509
  Z: 8.0
  valence: 6
  core: 2
  charge: 0.0
  file: /home/modules/software/GPAW-setups/0.9.20000/O.LDA.gz
  compensation charges: gauss, rc=0.21, lmax=2
  cutoffs: 1.17(filt), 0.83(core),
  valence states:
                energy  radius
    2s(2.00)   -23.752   0.688
    2p(4.00)    -9.195   0.598
    *s           3.459   0.688
    *p          18.016   0.598
    *d           0.000   0.619

  Using partial waves for O as LCAO basis

Mn-setup:
  name: Manganese
  id: 0d715a8018be061a6e9ea6f2d364ac92
  Z: 25.0
  valence: 15
  core: 10
  charge: 0.0
  Hubbard U: 3.000000 eV (l=2, scale=True)
  file: /home/modules/software/GPAW-setups/0.9.20000/Mn.LDA.gz
  compensation charges: gauss, rc=0.38, lmax=2
  cutoffs: 2.14(filt), 0.86(core),
  valence states:
                energy  radius
    3s(2.00)   -85.387   1.275
    4s(2.00)    -5.282   1.275
    3p(6.00)   -54.493   1.281
    4p(0.00)    -1.471   1.281
    3d(5.00)    -7.009   1.138
    *d          20.203   1.138

  Using partial waves for Mn as LCAO basis

P-setup:
  name: Phosphorus
  id: a5561c299094968922a179ab894d2e2d
  Z: 15.0
  valence: 5
  core: 10
  charge: 0.0
  file: /home/modules/software/GPAW-setups/0.9.20000/P.LDA.gz
  compensation charges: gauss, rc=0.30, lmax=2
  cutoffs: 1.69(filt), 1.81(core),
  valence states:
                energy  radius
    3s(2.00)   -14.015   0.953
    3p(3.00)    -5.596   0.953
    *s          13.197   0.953
    *p          21.615   0.953
    *d           0.000   0.953

  Using partial waves for P as LCAO basis

Li-setup:
  name: Lithium
  id: b73562207f97a71b6967473b66fe8b65
  Z: 3.0
  valence: 1
  core: 2
  charge: 0.0
  file: /home/modules/software/GPAW-setups/0.9.20000/Li.LDA.gz
  compensation charges: gauss, rc=0.33, lmax=2
  cutoffs: 1.91(filt), 2.55(core),
  valence states:
                energy  radius
    2s(1.00)    -2.874   1.058
    2p(0.00)    -1.126   1.058
    *s          24.338   1.058

  Using partial waves for Li as LCAO basis

Reference energy: -196157.275402

Spin-polarized calculation.
Magnetic moment: 0.000000

Convergence criteria:
  Maximum total energy change: 0.0005 eV / electron
  Maximum integral of absolute density change: 0.0001 electrons
  Maximum integral of absolute eigenstate change: 4e-08 eV^2
  Maximum change in atomic force: 1e-06 eV / Ang
  Maximum number of iterations: 333

Symmetries present (total): 1

  ( 1  0  0)
  ( 0  1  0)
  ( 0  0  1)

144 k-points: 6 x 6 x 4 Monkhorst-Pack grid
144 k-points in the irreducible part of the Brillouin zone
       k-points in crystal coordinates                weights
   0:    -0.41666667   -0.41666667   -0.37500000          1/144
   1:    -0.41666667   -0.41666667   -0.12500000          1/144
   2:    -0.41666667   -0.41666667    0.12500000          1/144
   3:    -0.41666667   -0.41666667    0.37500000          1/144
   4:    -0.41666667   -0.25000000   -0.37500000          1/144
   5:    -0.41666667   -0.25000000   -0.12500000          1/144
   6:    -0.41666667   -0.25000000    0.12500000          1/144
   7:    -0.41666667   -0.25000000    0.37500000          1/144
   8:    -0.41666667   -0.08333333   -0.37500000          1/144
   9:    -0.41666667   -0.08333333   -0.12500000          1/144
          ...
 143:     0.41666667    0.41666667    0.37500000          1/144

Wave functions: Plane wave expansion
  Cutoff energy: 600.000 eV
  Number of coefficients (min, max): 9238, 9284
  Pulay-stress correction: 0.000000 eV/Ang^3 (de/decut=0.000000)
  Using FFTW library
  ScaLapack parameters: grid=1x1, blocksize=None
  Wavefunction extrapolation:
    Improved wavefunction reuse through dual PAW basis 

  Fermi-Dirac: width=0.0010 eV

Eigensolver
   Davidson(niter=2, smin=None, normalize=True) 

Densities:
  Coarse grid: 60*35*27 grid
  Fine grid: 120*70*54 grid
  Total Charge: 0.000000 

Density mixing:
  Method: difference
  Backend: pulay
  Linear mixing parameter: 0.05
  Mixing with 5 old densities
  Damping of long wave oscillations: 50 

Hamiltonian:
  XC and Coulomb potentials evaluated on a 120*70*54 grid
  Using the LDA Exchange-Correlation functional
 

Memory estimate:
  Process memory now: 12490.65 MiB
  Calculator: 346.50 MiB
    Density: 19.24 MiB
      Arrays: 7.57 MiB
      Localized functions: 8.64 MiB
      Mixer: 3.03 MiB
    Hamiltonian: 5.87 MiB
      Arrays: 5.62 MiB
      XC: 0.00 MiB
      Poisson: 0.00 MiB
      vbar: 0.25 MiB
    Wavefunctions: 321.38 MiB
      Arrays psit_nG: 285.59 MiB
      Eigensolver: 18.49 MiB
      Projections: 5.41 MiB
      Projectors: 8.92 MiB
      PW-descriptor: 2.96 MiB

Total number of cores used: 32
Parallelization over k-points: 16
Domain decomposition: 2 x 1 x 1

Number of atoms: 28
Number of atomic orbitals: 148
Number of bands in calculation: 112
Number of valence electrons: 180
Bands to converge: occupied

... initialized

Initializing position-dependent things.

Density initialized from atomic densities
Creating initial wave functions:
  112 bands from LCAO basis set

                                           
                                           
                                           
                                           
                                           
               O     O  P  O               
            PO           OMn     O         
                  O          MO            
            O        Li O                  
             Mn  On          OP            
         O         Li O                    
         Li     O P         O              
       Li                                  
                                           
                                           
                                           
                                           

Positions:
   0 O     -1.263197   -2.497779   -1.098475    ( 0.0000,  0.0000,  0.0000)
   1 O     -3.070823    2.922496    1.209491    ( 0.0000,  0.0000,  0.0000)
   2 O      1.985541    0.464863    1.428016    ( 0.0000,  0.0000,  0.0000)
   3 O      3.793120   -0.050100   -0.879950    ( 0.0000,  0.0000,  0.0000)
   4 O      1.985518    2.922485    1.428149    ( 0.0000,  0.0000,  0.0000)
   5 O      3.793144   -2.497790   -0.879818    ( 0.0000,  0.0000,  0.0000)
   6 O     -1.263220   -0.050157   -1.098342    ( 0.0000,  0.0000,  0.0000)
   7 O     -3.070798    0.474805    1.209623    ( 0.0000,  0.0000,  0.0000)
   8 O     -4.167835   -1.273920   -0.862116    ( 0.0000,  0.0000,  0.0000)
   9 O     -0.166037    1.698602    1.445528    ( 0.0000,  0.0000,  0.0000)
  10 O      4.890156    1.698625    1.191790    ( 0.0000,  0.0000,  0.0000)
  11 O      0.888358   -1.273896   -1.115855    ( 0.0000,  0.0000,  0.0000)
  12 Mn    -2.445557   -1.274211    0.312921    ( 0.0000,  0.0000,  1.0000)
  13 Mn    -1.888303    1.698892   -1.994948    ( 0.0000,  0.0000, -1.0000)
  14 Mn     3.167879    1.698917    0.016752    ( 0.0000,  0.0000, -1.0000)
  15 Mn     2.610624   -1.274187    2.324621    ( 0.0000,  0.0000,  1.0000)
  16 P     -0.529549   -1.273917   -1.724376    ( 0.0000,  0.0000,  0.0000)
  17 P     -3.804359    1.698599    0.583463    ( 0.0000,  0.0000,  0.0000)
  18 P      1.251870    1.698623    2.054050    ( 0.0000,  0.0000,  0.0000)
  19 P      4.526680   -1.273894   -0.253789    ( 0.0000,  0.0000,  0.0000)
  20 O     -0.544227   -1.273926    1.365380    ( 0.0000,  0.0000,  0.0000)
  21 O     -3.789411    1.698610   -0.942222    ( 0.0000,  0.0000,  0.0000)
  22 O      1.266548    1.698631   -1.035707    ( 0.0000,  0.0000,  0.0000)
  23 O      4.511733   -1.273905    1.271895    ( 0.0000,  0.0000,  0.0000)
  24 Li    -4.695087   -2.760584   -2.142877    ( 0.0000,  0.0000,  0.0000)
  25 Li     0.361147   -2.760561    0.164836    ( 0.0000,  0.0000,  0.0000)
  26 Li    -4.695074    0.212330   -2.142877    ( 0.0000,  0.0000,  0.0000)
  27 Li     0.361161    0.212353    0.164837    ( 0.0000,  0.0000,  0.0000)

Unit cell:
           periodic     x           y           z      points  spacing
  1. axis:    yes   10.112485    0.000045   -0.000035    60     0.1685
  2. axis:    yes    0.000026    5.945827    0.000001    35     0.1699
  3. axis:    yes   -0.000016    0.000000    4.615463    27     0.1709

  Lengths:  10.112485   5.945827   4.615463
  Angles:   89.999989  90.000396  89.999490

Effective grid spacing dv^(1/3) = 0.1698

                     log10-error:           total        iterations:
           time      wfs    density  force  energy       poisson  magmom
iter:   1  15:00:58                       -221.376615             +0.0000
iter:   2  15:01:35  -0.61  -0.93         -234.817980             +0.0000
iter:   3  15:02:12  -0.37  -0.97         -225.905116             -0.0000
iter:   4  15:02:49  -1.39  -1.29         -225.760551             +0.0000
iter:   5  15:03:27  -1.27  -1.39         -227.320055             +0.0000
iter:   6  15:04:04  -1.47  -1.46         -225.735759             +0.0000
iter:   7  15:04:41  -2.48  -2.04         -225.722481             +0.0000
iter:   8  15:05:19  -2.14  -1.99         -225.594481             +0.0000
iter:   9  15:05:56  -2.45  -2.08         -225.430769             +0.0000
iter:  10  15:06:33  -3.32  -2.55         -225.421281             +0.0000
iter:  11  15:07:11  -3.66  -2.81         -225.410748             +0.0000
iter:  12  15:07:48  -4.11  -3.04         -225.409634             +0.0000
iter:  13  15:08:25  -5.08  -3.29         -225.409500             -0.0000
iter:  14  15:09:02  -5.40  -3.32         -225.409331             -0.0000
iter:  15  15:09:40  -6.05  -3.44         -225.409339             -0.0000
iter:  16  15:10:17  -5.33  -3.48         -225.409614             +0.0000
iter:  17  15:10:54  -5.80  -3.60         -225.409525             -0.0000
iter:  18  15:11:31  -5.39  -3.74         -225.409281             +0.0000
iter:  19  15:12:09  -6.02  -4.00         -225.409288             -0.0000
iter:  20  15:12:46  -7.01  -4.24         -225.409281             -0.0000
iter:  21  15:13:33  -7.62  -4.31         -225.409286             -0.0000
iter:  22  15:14:20  -7.42  -4.41    -2.32-225.409287             -0.0000
iter:  23  15:15:07  -7.66  -4.39    -2.86-225.409284             -0.0000
iter:  24  15:15:54  -8.03  -4.43    -2.60-225.409286             -0.0000
iter:  25  15:16:41  -7.55  -4.55    -2.85-225.409284             -0.0000
iter:  26  15:17:28  -8.33  -4.77    -3.36-225.409284             +0.0000
iter:  27  15:18:15  -8.47  -4.83    -3.17-225.409284             -0.0000
iter:  28  15:19:03  -8.67  -4.93    -2.84-225.409284             +0.0000
iter:  29  15:19:50  -9.04  -5.15    -3.41-225.409284             +0.0000
iter:  30  15:20:36  -8.82  -5.23    -3.18-225.409284             -0.0000
iter:  31  15:21:24  -9.42  -5.33    -3.61-225.409284             -0.0000
iter:  32  15:22:11  -9.76  -5.38    -3.48-225.409284             -0.0000
iter:  33  15:22:58  -9.77  -5.50    -3.75-225.409284             -0.0000
iter:  34  15:23:45  -9.27  -5.57    -3.42-225.409284             -0.0000
iter:  35  15:24:32 -10.19  -5.78    -3.64-225.409284             -0.0000
iter:  36  15:25:19 -10.68  -5.93    -3.95-225.409284             -0.0000
iter:  37  15:26:06 -10.55  -6.19    -3.87-225.409284             +0.0000
iter:  38  15:26:53 -11.54  -6.41    -5.15-225.409284             +0.0000
iter:  39  15:27:41 -10.51  -6.45    -4.10-225.409284             +0.0000
iter:  40  15:28:28 -11.82  -6.61    -4.54-225.409284             +0.0000
iter:  41  15:29:15 -11.22  -6.73    -4.14-225.409284             +0.0000
iter:  42  15:30:02 -11.65  -6.72    -4.40-225.409284             +0.0000
iter:  43  15:30:49 -13.02  -6.97    -5.60-225.409284             +0.0000
iter:  44  15:31:36 -12.02  -7.04    -4.92-225.409284             +0.0000
iter:  45  15:32:23 -12.33  -7.22    -4.70-225.409284             +0.0000
iter:  46  15:33:10 -12.18  -7.17    -4.71-225.409284             +0.0000
iter:  47  15:33:57 -13.29  -7.51    -5.41-225.409284             +0.0000
iter:  48  15:34:44 -13.22  -7.57    -5.25-225.409284             +0.0000
iter:  49  15:35:31 -13.93  -7.95    -5.94-225.409284             +0.0000
iter:  50  15:36:19 -15.05  -8.12    -6.90-225.409284             +0.0000

Converged after 50 iterations.

Dipole moment: (19.053441, -1.588165, -4.181941) |e|*Ang

Total magnetic moment: (0.000000, 0.000000, 0.000000)
Local magnetic moments:
   0 O  ( 0.000000,  0.000000,  0.000659)
   1 O  ( 0.000000,  0.000000, -0.000677)
   2 O  ( 0.000000,  0.000000, -0.000424)
   3 O  ( 0.000000,  0.000000,  0.000712)
   4 O  ( 0.000000,  0.000000, -0.000733)
   5 O  ( 0.000000,  0.000000,  0.000525)
   6 O  ( 0.000000,  0.000000,  0.000650)
   7 O  ( 0.000000,  0.000000, -0.000675)
   8 O  ( 0.000000,  0.000000,  0.022383)
   9 O  ( 0.000000,  0.000000, -0.022199)
  10 O  ( 0.000000,  0.000000, -0.022371)
  11 O  ( 0.000000,  0.000000,  0.022398)
  12 Mn ( 0.000000,  0.000000,  4.575072)
  13 Mn ( 0.000000,  0.000000, -4.574991)
  14 Mn ( 0.000000,  0.000000, -4.575102)
  15 Mn ( 0.000000,  0.000000,  4.573988)
  16 P  ( 0.000000,  0.000000,  0.000826)
  17 P  ( 0.000000,  0.000000, -0.000811)
  18 P  ( 0.000000,  0.000000, -0.000525)
  19 P  ( 0.000000,  0.000000,  0.000832)
  20 O  ( 0.000000,  0.000000,  0.020707)
  21 O  ( 0.000000,  0.000000, -0.020723)
  22 O  ( 0.000000,  0.000000, -0.020608)
  23 O  ( 0.000000,  0.000000,  0.020764)
  24 Li ( 0.000000,  0.000000,  0.000001)
  25 Li ( 0.000000,  0.000000,  0.000002)
  26 Li ( 0.000000,  0.000000,  0.000000)
  27 Li ( 0.000000,  0.000000,  0.000026)

Energy contributions relative to reference atoms: (reference = -196157.275402)

Kinetic:       +296.336595
Potential:     -255.992565
External:        +0.000000
XC:            -267.535046
Entropy (-ST):   -0.000000
Local:           +1.781732
--------------------------
Free energy:   -225.409284
Extrapolated:  -225.409284

Spin contamination: 9.696651 electrons
Showing only first 2 kpts
                      Up                     Down
 Kpt  Band  Eigenvalues  Occupancy  Eigenvalues  Occupancy
  0    88      5.11589    0.00694      5.10570    0.00694
  0    89      5.16880    0.00694      5.15708    0.00694
  0    90      9.64822    0.00000      9.65521    0.00000
  0    91      9.66824    0.00000      9.68002    0.00000

  1    88      5.12769    0.00694      5.11741    0.00694
  1    89      5.17807    0.00694      5.16638    0.00694
  1    90      9.52740    0.00000      9.53653    0.00000
  1    91      9.54220    0.00000      9.55420    0.00000


Fermi level: 6.37078

Gap: 3.785 eV
Transition (v -> c):
  (s=0, k=92, n=89, [0.08, 0.42, -0.38]) -> (s=0, k=82, n=90, [0.08, -0.08, 0.12])
Writing to born-0.01-2y-.gpw (mode='all')

Timing:                              incl.     excl.
-----------------------------------------------------------
Hamiltonian:                         0.428     0.002   0.0% |
 Atomic:                             0.081     0.081   0.0% |
  XC Correction:                     0.000     0.000   0.0% |
 Calculate atomic Hamiltonians:      0.167     0.167   0.0% |
 Communicate:                        0.001     0.001   0.0% |
 Initialize Hamiltonian:             0.000     0.000   0.0% |
 Poisson:                            0.001     0.001   0.0% |
 XC 3D grid:                         0.174     0.174   0.0% |
LCAO initialization:               150.023     0.676   0.0% |
 LCAO eigensolver:                  40.206     0.002   0.0% |
  Calculate projections:             0.057     0.057   0.0% |
  DenseAtomicCorrection:             0.083     0.083   0.0% |
  Distribute overlap matrix:         0.382     0.382   0.0% |
  Orbital Layouts:                   0.362     0.362   0.0% |
  Potential matrix:                 39.232    39.232   0.7% |
  Sum over cells:                    0.088     0.088   0.0% |
 LCAO to grid:                     106.755   106.755   2.0% ||
 Set positions (LCAO WFS):           2.386     0.370   0.0% |
  Basic WFS set positions:           0.001     0.001   0.0% |
  Basis functions set positions:     0.000     0.000   0.0% |
  P tci:                             1.073     1.073   0.0% |
  ST tci:                            0.703     0.703   0.0% |
  mktci:                             0.239     0.239   0.0% |
PWDescriptor:                        0.025     0.025   0.0% |
SCF-cycle:                        2162.749    12.557   0.2% |
 Davidson:                        1758.176   560.597  10.7% |---|
  Apply H:                         128.208   123.952   2.4% ||
   HMM T:                            4.257     4.257   0.1% |
  Subspace diag:                   261.305     0.154   0.0% |
   calc_h_matrix:                  171.714    45.350   0.9% |
    Apply H:                       126.365   122.251   2.3% ||
     HMM T:                          4.114     4.114   0.1% |
   diagonalize:                      6.070     6.070   0.1% |
   rotate_psi:                      83.368    83.368   1.6% ||
  calc. matrices:                  555.166   304.018   5.8% |-|
   Apply H:                        251.147   243.187   4.6% |-|
    HMM T:                           7.960     7.960   0.2% |
  diagonalize:                      83.061    83.061   1.6% ||
  rotate_psi:                      169.838   169.838   3.2% ||
 Density:                           75.089     0.001   0.0% |
  Atomic density matrices:           1.372     1.372   0.0% |
  Mix:                              11.259    11.259   0.2% |
  Multipole moments:                 0.029     0.029   0.0% |
  Pseudo density:                   62.428    62.426   1.2% |
   Symmetrize density:               0.001     0.001   0.0% |
 Forces:                           292.567   292.567   5.6% |-|
 Hamiltonian:                       20.314     0.124   0.0% |
  Atomic:                            2.986     2.986   0.1% |
   XC Correction:                    0.000     0.000   0.0% |
  Calculate atomic Hamiltonians:     8.307     8.307   0.2% |
  Communicate:                       0.076     0.076   0.0% |
  Poisson:                           0.075     0.075   0.0% |
  XC 3D grid:                        8.746     8.746   0.2% |
 Orthonormalize:                     4.046     0.003   0.0% |
  calc_s_matrix:                     0.483     0.483   0.0% |
  inverse-cholesky:                  0.055     0.055   0.0% |
  projections:                       2.649     2.649   0.1% |
  rotate_psi_s:                      0.856     0.856   0.0% |
Set symmetry:                        0.000     0.000   0.0% |
Other:                            2949.115  2949.115  56.0% |---------------------|
-----------------------------------------------------------
Total:                                      5262.341 100.0%

Memory usage: 12.22 GiB
Date: Sun Mar 21 16:25:26 2021
