
  ___ ___ ___ _ _ _  
 |   |   |_  | | | | 
 | | | | | . | | | | 
 |__ |  _|___|_____|  20.10.1b1
 |___|_|             

User:   madkru@i018.nifl.fysik.dtu.dk
Date:   Wed Mar 24 01:08:15 2021
Arch:   x86_64
Pid:    26873
Python: 3.7.4
gpaw:   /home/niflheim/madkru/venv_folder/gpaw/gpaw (d0d1ca1c71)
_gpaw:  /home/niflheim/madkru/venv_folder/gpaw/build/lib.linux-x86_64-ivybridge-3.7/
        _gpaw.cpython-37m-x86_64-linux-gnu.so (4fd39e8b1e)
ase:    /home/niflheim/madkru/venv_folder/ase/ase (version 3.21.0b1-7e6c206a91)
numpy:  /home/niflheim/madkru/venv_folder/lib/python3.7/site-packages/numpy (version 1.19.4)
scipy:  /home/niflheim/madkru/venv_folder/lib/python3.7/site-packages/scipy (version 1.5.4)
libxc:  4.3.4
units:  Angstrom and eV
cores: 64
OMP_NUM_THREADS: 1

Input parameters:
  convergence: {bands: occupied,
                density: 0.0001,
                eigenstates: 4e-08,
                energy: 0.0005,
                forces: 1e-06}
  kpts: [6 6 4]
  mode: {ecut: 600.0,
         gammacentered: False,
         name: pw}
  occupations: {fixmagmom: False,
                name: fermi-dirac,
                width: 0.001}
  setups: {Mn: :d,3.0}
  symmetry: {point_group: False,
             time_reversal: False}

System changes: positions, numbers, cell, pbc, initial_charges, initial_magmoms 

Initialize ...

O-setup:
  name: Oxygen
  id: 9b9d51c344dea68c822856295a461509
  Z: 8.0
  valence: 6
  core: 2
  charge: 0.0
  file: /home/modules/software/GPAW-setups/0.9.20000/O.LDA.gz
  compensation charges: gauss, rc=0.21, lmax=2
  cutoffs: 1.17(filt), 0.83(core),
  valence states:
                energy  radius
    2s(2.00)   -23.752   0.688
    2p(4.00)    -9.195   0.598
    *s           3.459   0.688
    *p          18.016   0.598
    *d           0.000   0.619

  Using partial waves for O as LCAO basis

Mn-setup:
  name: Manganese
  id: 0d715a8018be061a6e9ea6f2d364ac92
  Z: 25.0
  valence: 15
  core: 10
  charge: 0.0
  Hubbard U: 3.000000 eV (l=2, scale=True)
  file: /home/modules/software/GPAW-setups/0.9.20000/Mn.LDA.gz
  compensation charges: gauss, rc=0.38, lmax=2
  cutoffs: 2.14(filt), 0.86(core),
  valence states:
                energy  radius
    3s(2.00)   -85.387   1.275
    4s(2.00)    -5.282   1.275
    3p(6.00)   -54.493   1.281
    4p(0.00)    -1.471   1.281
    3d(5.00)    -7.009   1.138
    *d          20.203   1.138

  Using partial waves for Mn as LCAO basis

P-setup:
  name: Phosphorus
  id: a5561c299094968922a179ab894d2e2d
  Z: 15.0
  valence: 5
  core: 10
  charge: 0.0
  file: /home/modules/software/GPAW-setups/0.9.20000/P.LDA.gz
  compensation charges: gauss, rc=0.30, lmax=2
  cutoffs: 1.69(filt), 1.81(core),
  valence states:
                energy  radius
    3s(2.00)   -14.015   0.953
    3p(3.00)    -5.596   0.953
    *s          13.197   0.953
    *p          21.615   0.953
    *d           0.000   0.953

  Using partial waves for P as LCAO basis

Li-setup:
  name: Lithium
  id: b73562207f97a71b6967473b66fe8b65
  Z: 3.0
  valence: 1
  core: 2
  charge: 0.0
  file: /home/modules/software/GPAW-setups/0.9.20000/Li.LDA.gz
  compensation charges: gauss, rc=0.33, lmax=2
  cutoffs: 1.91(filt), 2.55(core),
  valence states:
                energy  radius
    2s(1.00)    -2.874   1.058
    2p(0.00)    -1.126   1.058
    *s          24.338   1.058

  Using partial waves for Li as LCAO basis

Reference energy: -196157.275402

Spin-polarized calculation.
Magnetic moment: 0.000000

Convergence criteria:
  Maximum total energy change: 0.0005 eV / electron
  Maximum integral of absolute density change: 0.0001 electrons
  Maximum integral of absolute eigenstate change: 4e-08 eV^2
  Maximum change in atomic force: 1e-06 eV / Ang
  Maximum number of iterations: 333

Symmetries present (total): 1

  ( 1  0  0)
  ( 0  1  0)
  ( 0  0  1)

144 k-points: 6 x 6 x 4 Monkhorst-Pack grid
144 k-points in the irreducible part of the Brillouin zone
       k-points in crystal coordinates                weights
   0:    -0.41666667   -0.41666667   -0.37500000          1/144
   1:    -0.41666667   -0.41666667   -0.12500000          1/144
   2:    -0.41666667   -0.41666667    0.12500000          1/144
   3:    -0.41666667   -0.41666667    0.37500000          1/144
   4:    -0.41666667   -0.25000000   -0.37500000          1/144
   5:    -0.41666667   -0.25000000   -0.12500000          1/144
   6:    -0.41666667   -0.25000000    0.12500000          1/144
   7:    -0.41666667   -0.25000000    0.37500000          1/144
   8:    -0.41666667   -0.08333333   -0.37500000          1/144
   9:    -0.41666667   -0.08333333   -0.12500000          1/144
          ...
 143:     0.41666667    0.41666667    0.37500000          1/144

Wave functions: Plane wave expansion
  Cutoff energy: 600.000 eV
  Number of coefficients (min, max): 9238, 9284
  Pulay-stress correction: 0.000000 eV/Ang^3 (de/decut=0.000000)
  Using FFTW library
  ScaLapack parameters: grid=1x1, blocksize=None
  Wavefunction extrapolation:
    Improved wavefunction reuse through dual PAW basis 

  Fermi-Dirac: width=0.0010 eV

Eigensolver
   Davidson(niter=2, smin=None, normalize=True) 

Densities:
  Coarse grid: 60*35*27 grid
  Fine grid: 120*70*54 grid
  Total Charge: 0.000000 

Density mixing:
  Method: difference
  Backend: pulay
  Linear mixing parameter: 0.05
  Mixing with 5 old densities
  Damping of long wave oscillations: 50 

Hamiltonian:
  XC and Coulomb potentials evaluated on a 120*70*54 grid
  Using the LDA Exchange-Correlation functional
 

Memory estimate:
  Process memory now: 12676.71 MiB
  Calculator: 326.59 MiB
    Density: 9.67 MiB
      Arrays: 3.79 MiB
      Localized functions: 4.32 MiB
      Mixer: 1.56 MiB
    Hamiltonian: 2.94 MiB
      Arrays: 2.82 MiB
      XC: 0.00 MiB
      Poisson: 0.00 MiB
      vbar: 0.12 MiB
    Wavefunctions: 313.97 MiB
      Arrays psit_nG: 285.59 MiB
      Eigensolver: 18.49 MiB
      Projections: 2.71 MiB
      Projectors: 4.46 MiB
      PW-descriptor: 2.72 MiB

Total number of cores used: 64
Parallelization over k-points: 16
Domain decomposition: 2 x 2 x 1

Number of atoms: 28
Number of atomic orbitals: 148
Number of bands in calculation: 112
Number of valence electrons: 180
Bands to converge: occupied

... initialized

Initializing position-dependent things.

Density initialized from atomic densities
Creating initial wave functions:
  112 bands from LCAO basis set

                                           
                                           
                                           
                                           
                                           
               O     O  P  O               
            PO           OMn     O         
                  O          MO            
            O        Li O                  
             Mn  On          OP            
         O         Li O                    
         Li     O P         O              
       Li                                  
                                           
                                           
                                           
                                           

Positions:
   0 O     -1.263197   -2.497779   -1.098475    ( 0.0000,  0.0000,  0.0000)
   1 O     -3.070823    2.922496    1.209491    ( 0.0000,  0.0000,  0.0000)
   2 O      1.985541    0.474863    1.428016    ( 0.0000,  0.0000,  0.0000)
   3 O      3.793120   -0.050100   -0.879950    ( 0.0000,  0.0000,  0.0000)
   4 O      1.985518    2.922485    1.428149    ( 0.0000,  0.0000,  0.0000)
   5 O      3.793144   -2.497790   -0.879818    ( 0.0000,  0.0000,  0.0000)
   6 O     -1.263220   -0.050157   -1.098342    ( 0.0000,  0.0000,  0.0000)
   7 O     -3.070798    0.474805    1.209623    ( 0.0000,  0.0000,  0.0000)
   8 O     -4.167835   -1.273920   -0.862116    ( 0.0000,  0.0000,  0.0000)
   9 O     -0.166037    1.698602    1.445528    ( 0.0000,  0.0000,  0.0000)
  10 O      4.890156    1.698625    1.191790    ( 0.0000,  0.0000,  0.0000)
  11 O      0.888358   -1.273896   -1.115855    ( 0.0000,  0.0000,  0.0000)
  12 Mn    -2.445557   -1.274211    0.312921    ( 0.0000,  0.0000,  1.0000)
  13 Mn    -1.888303    1.698892   -1.994948    ( 0.0000,  0.0000, -1.0000)
  14 Mn     3.167879    1.698917    0.016752    ( 0.0000,  0.0000, -1.0000)
  15 Mn     2.610624   -1.274187    2.314621    ( 0.0000,  0.0000,  1.0000)
  16 P     -0.529549   -1.273917   -1.724376    ( 0.0000,  0.0000,  0.0000)
  17 P     -3.804359    1.698599    0.583463    ( 0.0000,  0.0000,  0.0000)
  18 P      1.251870    1.698623    2.054050    ( 0.0000,  0.0000,  0.0000)
  19 P      4.526680   -1.273894   -0.253789    ( 0.0000,  0.0000,  0.0000)
  20 O     -0.544227   -1.273926    1.365380    ( 0.0000,  0.0000,  0.0000)
  21 O     -3.789411    1.698610   -0.942222    ( 0.0000,  0.0000,  0.0000)
  22 O      1.266548    1.698631   -1.035707    ( 0.0000,  0.0000,  0.0000)
  23 O      4.511733   -1.273905    1.271895    ( 0.0000,  0.0000,  0.0000)
  24 Li    -4.695087   -2.760584   -2.142877    ( 0.0000,  0.0000,  0.0000)
  25 Li     0.361147   -2.760561    0.164836    ( 0.0000,  0.0000,  0.0000)
  26 Li    -4.695074    0.212330   -2.142877    ( 0.0000,  0.0000,  0.0000)
  27 Li     0.361161    0.212353    0.164837    ( 0.0000,  0.0000,  0.0000)

Unit cell:
           periodic     x           y           z      points  spacing
  1. axis:    yes   10.112485    0.000045   -0.000035    60     0.1685
  2. axis:    yes    0.000026    5.945827    0.000001    35     0.1699
  3. axis:    yes   -0.000016    0.000000    4.615463    27     0.1709

  Lengths:  10.112485   5.945827   4.615463
  Angles:   89.999989  90.000396  89.999490

Effective grid spacing dv^(1/3) = 0.1698

                     log10-error:           total        iterations:
           time      wfs    density  force  energy       poisson  magmom
iter:   1  01:09:48                       -221.377181             +0.0000
iter:   2  01:10:08  -0.61  -0.93         -234.842484             +0.0000
iter:   3  01:10:28  -0.37  -0.97         -225.913145             -0.0000
iter:   4  01:10:48  -1.39  -1.29         -225.761558             +0.0000
iter:   5  01:11:08  -1.27  -1.39         -227.335706             +0.0000
iter:   6  01:11:28  -1.46  -1.46         -225.737027             +0.0000
iter:   7  01:11:48  -2.47  -2.04         -225.725050             +0.0000
iter:   8  01:12:08  -2.17  -1.99         -225.579279             +0.0000
iter:   9  01:12:27  -2.47  -2.11         -225.432670             +0.0000
iter:  10  01:12:47  -3.31  -2.55         -225.422518             +0.0000
iter:  11  01:13:07  -3.61  -2.81         -225.411768             +0.0000
iter:  12  01:13:27  -4.18  -3.06         -225.410797             +0.0000
iter:  13  01:13:47  -5.13  -3.30         -225.410703             -0.0000
iter:  14  01:14:07  -5.39  -3.32         -225.410518             -0.0000
iter:  15  01:14:27  -6.01  -3.44         -225.410535             -0.0000
iter:  16  01:14:47  -5.23  -3.48         -225.410896             +0.0000
iter:  17  01:15:07  -6.00  -3.58         -225.410770             -0.0000
iter:  18  01:15:27  -5.39  -3.69         -225.410500             +0.0000
iter:  19  01:15:47  -6.50  -4.03         -225.410509             -0.0000
iter:  20  01:16:07  -6.59  -4.22         -225.410502             -0.0000
iter:  21  01:16:27  -6.86  -4.25         -225.410488             -0.0000
iter:  22  01:16:46  -7.28  -4.28         -225.410483             -0.0000
iter:  23  01:17:11  -7.58  -4.31         -225.410481             -0.0000
iter:  24  01:17:36  -7.87  -4.39    -2.74-225.410480             -0.0000
iter:  25  01:18:00  -8.24  -4.44    -2.75-225.410480             +0.0000
iter:  26  01:18:25  -7.69  -4.54    -2.27-225.410480             +0.0000
iter:  27  01:18:49  -8.22  -4.89    -3.19-225.410479             +0.0000
iter:  28  01:19:14  -9.16  -5.02    -3.59-225.410479             +0.0000
iter:  29  01:19:39  -8.00  -5.04    -2.69-225.410479             +0.0000
iter:  30  01:20:03  -9.10  -5.17    -3.41-225.410479             +0.0000
iter:  31  01:20:28  -8.49  -5.21    -2.83-225.410479             +0.0000
iter:  32  01:20:52  -8.44  -5.20    -2.70-225.410479             +0.0000
iter:  33  01:21:17  -9.81  -5.66    -3.43-225.410479             +0.0000
iter:  34  01:21:42  -9.34  -5.94    -3.47-225.410479             +0.0000
iter:  35  01:22:06  -9.95  -5.85    -3.55-225.410479             +0.0000
iter:  36  01:22:31 -10.47  -6.25    -3.52-225.410479             +0.0000
iter:  37  01:22:55 -11.02  -6.29    -3.98-225.410479             +0.0000
iter:  38  01:23:20 -12.14  -6.78    -4.94-225.410479             +0.0000
iter:  39  01:23:45 -12.56  -6.83    -4.71-225.410479             +0.0000
iter:  40  01:24:09 -12.92  -6.86    -5.24-225.410479             +0.0000
iter:  41  01:24:34 -13.35  -6.92    -5.03-225.410479             +0.0000
iter:  42  01:24:58 -13.44  -6.98    -5.14-225.410479             +0.0000
iter:  43  01:25:23 -12.92  -7.05    -4.98-225.410479             +0.0000
iter:  44  01:25:48 -13.35  -7.20    -5.41-225.410479             +0.0000
iter:  45  01:26:12 -13.65  -7.25    -5.24-225.410479             +0.0000
iter:  46  01:26:37 -13.20  -7.31    -4.78-225.410479             +0.0000
iter:  47  01:27:02 -14.31  -7.64    -5.87-225.410479             +0.0000
iter:  48  01:27:26 -13.65  -7.71    -5.47-225.410479             +0.0000
iter:  49  01:27:51 -14.70  -8.00    -5.54-225.410479             +0.0000
iter:  50  01:28:15 -14.79  -8.19    -5.89-225.410479             +0.0000
iter:  51  01:28:40 -15.76  -8.32    -6.68-225.410479             +0.0000

Converged after 51 iterations.

Dipole moment: (19.052145, -1.426831, -4.194871) |e|*Ang

Total magnetic moment: (0.000000, 0.000000, 0.000000)
Local magnetic moments:
   0 O  ( 0.000000,  0.000000,  0.000639)
   1 O  ( 0.000000,  0.000000, -0.000669)
   2 O  ( 0.000000,  0.000000, -0.000540)
   3 O  ( 0.000000,  0.000000,  0.000379)
   4 O  ( 0.000000,  0.000000, -0.000544)
   5 O  ( 0.000000,  0.000000,  0.000383)
   6 O  ( 0.000000,  0.000000,  0.000635)
   7 O  ( 0.000000,  0.000000, -0.000665)
   8 O  ( 0.000000,  0.000000,  0.022361)
   9 O  ( 0.000000,  0.000000, -0.022311)
  10 O  ( 0.000000,  0.000000, -0.022383)
  11 O  ( 0.000000,  0.000000,  0.022238)
  12 Mn ( 0.000000,  0.000000,  4.575050)
  13 Mn ( 0.000000,  0.000000, -4.575036)
  14 Mn ( 0.000000,  0.000000, -4.575128)
  15 Mn ( 0.000000,  0.000000,  4.575065)
  16 P  ( 0.000000,  0.000000,  0.000712)
  17 P  ( 0.000000,  0.000000, -0.000817)
  18 P  ( 0.000000,  0.000000, -0.000663)
  19 P  ( 0.000000,  0.000000,  0.000805)
  20 O  ( 0.000000,  0.000000,  0.020715)
  21 O  ( 0.000000,  0.000000, -0.020720)
  22 O  ( 0.000000,  0.000000, -0.020668)
  23 O  ( 0.000000,  0.000000,  0.020873)
  24 Li ( 0.000000,  0.000000, -0.000003)
  25 Li ( 0.000000,  0.000000, -0.000003)
  26 Li ( 0.000000,  0.000000, -0.000003)
  27 Li ( 0.000000,  0.000000, -0.000003)

Energy contributions relative to reference atoms: (reference = -196157.275402)

Kinetic:       +296.781004
Potential:     -256.336994
External:        +0.000000
XC:            -267.635413
Entropy (-ST):   -0.000000
Local:           +1.780924
--------------------------
Free energy:   -225.410479
Extrapolated:  -225.410479

Spin contamination: 9.697513 electrons
Showing only first 2 kpts
                      Up                     Down
 Kpt  Band  Eigenvalues  Occupancy  Eigenvalues  Occupancy
  0    88      5.10890    0.00694      5.11011    0.00694
  0    89      5.16135    0.00694      5.16168    0.00694
  0    90      9.65249    0.00000      9.64940    0.00000
  0    91      9.67133    0.00000      9.66382    0.00000

  1    88      5.11980    0.00694      5.12162    0.00694
  1    89      5.16957    0.00694      5.17067    0.00694
  1    90      9.53434    0.00000      9.53379    0.00000
  1    91      9.54526    0.00000      9.54081    0.00000


Fermi level: 6.37003

Gap: 3.792 eV
Transition (v -> c):
  (s=1, k=72, n=89, [0.08, -0.42, -0.38]) -> (s=1, k=85, n=90, [0.08, 0.08, -0.12])
Writing to born-0.01-15z-.gpw (mode='all')

Timing:                              incl.     excl.
-----------------------------------------------------------
Hamiltonian:                         0.220     0.002   0.0% |
 Atomic:                             0.057     0.057   0.0% |
  XC Correction:                     0.000     0.000   0.0% |
 Calculate atomic Hamiltonians:      0.074     0.074   0.0% |
 Communicate:                        0.002     0.002   0.0% |
 Initialize Hamiltonian:             0.000     0.000   0.0% |
 Poisson:                            0.001     0.001   0.0% |
 XC 3D grid:                         0.083     0.083   0.0% |
LCAO initialization:                69.319     0.651   0.0% |
 LCAO eigensolver:                  19.208     0.002   0.0% |
  Calculate projections:             0.029     0.029   0.0% |
  DenseAtomicCorrection:             0.045     0.045   0.0% |
  Distribute overlap matrix:         0.067     0.067   0.0% |
  Orbital Layouts:                   0.433     0.433   0.0% |
  Potential matrix:                 18.539    18.539   0.6% |
  Sum over cells:                    0.093     0.093   0.0% |
 LCAO to grid:                      48.146    48.146   1.6% ||
 Set positions (LCAO WFS):           1.315     0.190   0.0% |
  Basic WFS set positions:           0.001     0.001   0.0% |
  Basis functions set positions:     0.000     0.000   0.0% |
  P tci:                             0.524     0.524   0.0% |
  ST tci:                            0.384     0.384   0.0% |
  mktci:                             0.215     0.215   0.0% |
PWDescriptor:                        0.023     0.023   0.0% |
SCF-cycle:                        1154.790     2.349   0.1% |
 Davidson:                         964.133   295.153  10.0% |---|
  Apply H:                          66.570    64.672   2.2% ||
   HMM T:                            1.898     1.898   0.1% |
  Subspace diag:                   139.893     0.145   0.0% |
   calc_h_matrix:                   89.957    23.293   0.8% |
    Apply H:                        66.664    64.732   2.2% ||
     HMM T:                          1.932     1.932   0.1% |
   diagonalize:                      6.912     6.912   0.2% |
   rotate_psi:                      42.880    42.880   1.4% ||
  calc. matrices:                  289.152   158.218   5.3% |-|
   Apply H:                        130.934   127.314   4.3% |-|
    HMM T:                           3.620     3.620   0.1% |
  diagonalize:                      80.447    80.447   2.7% ||
  rotate_psi:                       92.917    92.917   3.1% ||
 Density:                           38.781     0.001   0.0% |
  Atomic density matrices:           0.791     0.791   0.0% |
  Mix:                               5.327     5.327   0.2% |
  Multipole moments:                 0.021     0.021   0.0% |
  Pseudo density:                   32.640    32.639   1.1% |
   Symmetrize density:               0.001     0.001   0.0% |
 Forces:                           136.422   136.422   4.6% |-|
 Hamiltonian:                       11.011     0.105   0.0% |
  Atomic:                            2.729     2.728   0.1% |
   XC Correction:                    0.000     0.000   0.0% |
  Calculate atomic Hamiltonians:     3.803     3.803   0.1% |
  Communicate:                       0.090     0.090   0.0% |
  Poisson:                           0.031     0.031   0.0% |
  XC 3D grid:                        4.255     4.255   0.1% |
 Orthonormalize:                     2.094     0.003   0.0% |
  calc_s_matrix:                     0.245     0.245   0.0% |
  inverse-cholesky:                  0.072     0.072   0.0% |
  projections:                       1.337     1.337   0.0% |
  rotate_psi_s:                      0.436     0.436   0.0% |
Set symmetry:                        0.000     0.000   0.0% |
Other:                            1735.039  1735.039  58.6% |----------------------|
-----------------------------------------------------------
Total:                                      2959.391 100.0%

Memory usage: 12.42 GiB
Date: Wed Mar 24 01:57:34 2021
