
  ___ ___ ___ _ _ _  
 |   |   |_  | | | | 
 | | | | | . | | | | 
 |__ |  _|___|_____|  20.10.1b1
 |___|_|             

User:   madkru@i018.nifl.fysik.dtu.dk
Date:   Tue Mar 23 21:13:21 2021
Arch:   x86_64
Pid:    26873
Python: 3.7.4
gpaw:   /home/niflheim/madkru/venv_folder/gpaw/gpaw (d0d1ca1c71)
_gpaw:  /home/niflheim/madkru/venv_folder/gpaw/build/lib.linux-x86_64-ivybridge-3.7/
        _gpaw.cpython-37m-x86_64-linux-gnu.so (4fd39e8b1e)
ase:    /home/niflheim/madkru/venv_folder/ase/ase (version 3.21.0b1-7e6c206a91)
numpy:  /home/niflheim/madkru/venv_folder/lib/python3.7/site-packages/numpy (version 1.19.4)
scipy:  /home/niflheim/madkru/venv_folder/lib/python3.7/site-packages/scipy (version 1.5.4)
libxc:  4.3.4
units:  Angstrom and eV
cores: 64
OMP_NUM_THREADS: 1

Input parameters:
  convergence: {bands: occupied,
                density: 0.0001,
                eigenstates: 4e-08,
                energy: 0.0005,
                forces: 1e-06}
  kpts: [6 6 4]
  mode: {ecut: 600.0,
         gammacentered: False,
         name: pw}
  occupations: {fixmagmom: False,
                name: fermi-dirac,
                width: 0.001}
  setups: {Mn: :d,3.0}
  symmetry: {point_group: False,
             time_reversal: False}

System changes: positions, numbers, cell, pbc, initial_charges, initial_magmoms 

Initialize ...

O-setup:
  name: Oxygen
  id: 9b9d51c344dea68c822856295a461509
  Z: 8.0
  valence: 6
  core: 2
  charge: 0.0
  file: /home/modules/software/GPAW-setups/0.9.20000/O.LDA.gz
  compensation charges: gauss, rc=0.21, lmax=2
  cutoffs: 1.17(filt), 0.83(core),
  valence states:
                energy  radius
    2s(2.00)   -23.752   0.688
    2p(4.00)    -9.195   0.598
    *s           3.459   0.688
    *p          18.016   0.598
    *d           0.000   0.619

  Using partial waves for O as LCAO basis

Mn-setup:
  name: Manganese
  id: 0d715a8018be061a6e9ea6f2d364ac92
  Z: 25.0
  valence: 15
  core: 10
  charge: 0.0
  Hubbard U: 3.000000 eV (l=2, scale=True)
  file: /home/modules/software/GPAW-setups/0.9.20000/Mn.LDA.gz
  compensation charges: gauss, rc=0.38, lmax=2
  cutoffs: 2.14(filt), 0.86(core),
  valence states:
                energy  radius
    3s(2.00)   -85.387   1.275
    4s(2.00)    -5.282   1.275
    3p(6.00)   -54.493   1.281
    4p(0.00)    -1.471   1.281
    3d(5.00)    -7.009   1.138
    *d          20.203   1.138

  Using partial waves for Mn as LCAO basis

P-setup:
  name: Phosphorus
  id: a5561c299094968922a179ab894d2e2d
  Z: 15.0
  valence: 5
  core: 10
  charge: 0.0
  file: /home/modules/software/GPAW-setups/0.9.20000/P.LDA.gz
  compensation charges: gauss, rc=0.30, lmax=2
  cutoffs: 1.69(filt), 1.81(core),
  valence states:
                energy  radius
    3s(2.00)   -14.015   0.953
    3p(3.00)    -5.596   0.953
    *s          13.197   0.953
    *p          21.615   0.953
    *d           0.000   0.953

  Using partial waves for P as LCAO basis

Li-setup:
  name: Lithium
  id: b73562207f97a71b6967473b66fe8b65
  Z: 3.0
  valence: 1
  core: 2
  charge: 0.0
  file: /home/modules/software/GPAW-setups/0.9.20000/Li.LDA.gz
  compensation charges: gauss, rc=0.33, lmax=2
  cutoffs: 1.91(filt), 2.55(core),
  valence states:
                energy  radius
    2s(1.00)    -2.874   1.058
    2p(0.00)    -1.126   1.058
    *s          24.338   1.058

  Using partial waves for Li as LCAO basis

Reference energy: -196157.275402

Spin-polarized calculation.
Magnetic moment: 0.000000

Convergence criteria:
  Maximum total energy change: 0.0005 eV / electron
  Maximum integral of absolute density change: 0.0001 electrons
  Maximum integral of absolute eigenstate change: 4e-08 eV^2
  Maximum change in atomic force: 1e-06 eV / Ang
  Maximum number of iterations: 333

Symmetries present (total): 1

  ( 1  0  0)
  ( 0  1  0)
  ( 0  0  1)

144 k-points: 6 x 6 x 4 Monkhorst-Pack grid
144 k-points in the irreducible part of the Brillouin zone
       k-points in crystal coordinates                weights
   0:    -0.41666667   -0.41666667   -0.37500000          1/144
   1:    -0.41666667   -0.41666667   -0.12500000          1/144
   2:    -0.41666667   -0.41666667    0.12500000          1/144
   3:    -0.41666667   -0.41666667    0.37500000          1/144
   4:    -0.41666667   -0.25000000   -0.37500000          1/144
   5:    -0.41666667   -0.25000000   -0.12500000          1/144
   6:    -0.41666667   -0.25000000    0.12500000          1/144
   7:    -0.41666667   -0.25000000    0.37500000          1/144
   8:    -0.41666667   -0.08333333   -0.37500000          1/144
   9:    -0.41666667   -0.08333333   -0.12500000          1/144
          ...
 143:     0.41666667    0.41666667    0.37500000          1/144

Wave functions: Plane wave expansion
  Cutoff energy: 600.000 eV
  Number of coefficients (min, max): 9238, 9284
  Pulay-stress correction: 0.000000 eV/Ang^3 (de/decut=0.000000)
  Using FFTW library
  ScaLapack parameters: grid=1x1, blocksize=None
  Wavefunction extrapolation:
    Improved wavefunction reuse through dual PAW basis 

  Fermi-Dirac: width=0.0010 eV

Eigensolver
   Davidson(niter=2, smin=None, normalize=True) 

Densities:
  Coarse grid: 60*35*27 grid
  Fine grid: 120*70*54 grid
  Total Charge: 0.000000 

Density mixing:
  Method: difference
  Backend: pulay
  Linear mixing parameter: 0.05
  Mixing with 5 old densities
  Damping of long wave oscillations: 50 

Hamiltonian:
  XC and Coulomb potentials evaluated on a 120*70*54 grid
  Using the LDA Exchange-Correlation functional
 

Memory estimate:
  Process memory now: 12495.22 MiB
  Calculator: 326.59 MiB
    Density: 9.67 MiB
      Arrays: 3.79 MiB
      Localized functions: 4.32 MiB
      Mixer: 1.56 MiB
    Hamiltonian: 2.94 MiB
      Arrays: 2.82 MiB
      XC: 0.00 MiB
      Poisson: 0.00 MiB
      vbar: 0.12 MiB
    Wavefunctions: 313.97 MiB
      Arrays psit_nG: 285.59 MiB
      Eigensolver: 18.49 MiB
      Projections: 2.71 MiB
      Projectors: 4.46 MiB
      PW-descriptor: 2.72 MiB

Total number of cores used: 64
Parallelization over k-points: 16
Domain decomposition: 2 x 2 x 1

Number of atoms: 28
Number of atomic orbitals: 148
Number of bands in calculation: 112
Number of valence electrons: 180
Bands to converge: occupied

... initialized

Initializing position-dependent things.

Density initialized from atomic densities
Creating initial wave functions:
  112 bands from LCAO basis set

                                           
                                           
                                           
                                           
                                           
               O     O  P  O               
            PO           OMn     O         
                  O          MO            
            O        Li O                  
             Mn  On          OP            
         O         Li O                    
         Li     O P         O              
       Li                                  
                                           
                                           
                                           
                                           

Positions:
   0 O     -1.263197   -2.497779   -1.098475    ( 0.0000,  0.0000,  0.0000)
   1 O     -3.070823    2.922496    1.209491    ( 0.0000,  0.0000,  0.0000)
   2 O      1.985541    0.474863    1.428016    ( 0.0000,  0.0000,  0.0000)
   3 O      3.793120   -0.050100   -0.879950    ( 0.0000,  0.0000,  0.0000)
   4 O      1.985518    2.922485    1.428149    ( 0.0000,  0.0000,  0.0000)
   5 O      3.793144   -2.497790   -0.879818    ( 0.0000,  0.0000,  0.0000)
   6 O     -1.263220   -0.050157   -1.098342    ( 0.0000,  0.0000,  0.0000)
   7 O     -3.070798    0.474805    1.209623    ( 0.0000,  0.0000,  0.0000)
   8 O     -4.167835   -1.273920   -0.862116    ( 0.0000,  0.0000,  0.0000)
   9 O     -0.166037    1.698602    1.445528    ( 0.0000,  0.0000,  0.0000)
  10 O      4.890156    1.698625    1.191790    ( 0.0000,  0.0000,  0.0000)
  11 O      0.888358   -1.273896   -1.115855    ( 0.0000,  0.0000,  0.0000)
  12 Mn    -2.445557   -1.274211    0.312921    ( 0.0000,  0.0000,  1.0000)
  13 Mn    -1.888303    1.698892   -1.994948    ( 0.0000,  0.0000, -1.0000)
  14 Mn     3.167879    1.688917    0.016752    ( 0.0000,  0.0000, -1.0000)
  15 Mn     2.610624   -1.274187    2.324621    ( 0.0000,  0.0000,  1.0000)
  16 P     -0.529549   -1.273917   -1.724376    ( 0.0000,  0.0000,  0.0000)
  17 P     -3.804359    1.698599    0.583463    ( 0.0000,  0.0000,  0.0000)
  18 P      1.251870    1.698623    2.054050    ( 0.0000,  0.0000,  0.0000)
  19 P      4.526680   -1.273894   -0.253789    ( 0.0000,  0.0000,  0.0000)
  20 O     -0.544227   -1.273926    1.365380    ( 0.0000,  0.0000,  0.0000)
  21 O     -3.789411    1.698610   -0.942222    ( 0.0000,  0.0000,  0.0000)
  22 O      1.266548    1.698631   -1.035707    ( 0.0000,  0.0000,  0.0000)
  23 O      4.511733   -1.273905    1.271895    ( 0.0000,  0.0000,  0.0000)
  24 Li    -4.695087   -2.760584   -2.142877    ( 0.0000,  0.0000,  0.0000)
  25 Li     0.361147   -2.760561    0.164836    ( 0.0000,  0.0000,  0.0000)
  26 Li    -4.695074    0.212330   -2.142877    ( 0.0000,  0.0000,  0.0000)
  27 Li     0.361161    0.212353    0.164837    ( 0.0000,  0.0000,  0.0000)

Unit cell:
           periodic     x           y           z      points  spacing
  1. axis:    yes   10.112485    0.000045   -0.000035    60     0.1685
  2. axis:    yes    0.000026    5.945827    0.000001    35     0.1699
  3. axis:    yes   -0.000016    0.000000    4.615463    27     0.1709

  Lengths:  10.112485   5.945827   4.615463
  Angles:   89.999989  90.000396  89.999490

Effective grid spacing dv^(1/3) = 0.1698

                     log10-error:           total        iterations:
           time      wfs    density  force  energy       poisson  magmom
iter:   1  21:14:53                       -221.376639             +0.0000
iter:   2  21:15:13  -0.61  -0.93         -234.835505             +0.0000
iter:   3  21:15:33  -0.37  -0.97         -225.911779             -0.0000
iter:   4  21:15:53  -1.39  -1.29         -225.761307             +0.0000
iter:   5  21:16:13  -1.27  -1.39         -227.329246             +0.0000
iter:   6  21:16:33  -1.46  -1.46         -225.737122             +0.0000
iter:   7  21:16:52  -2.47  -2.04         -225.724505             +0.0000
iter:   8  21:17:12  -2.14  -1.99         -225.591081             +0.0000
iter:   9  21:17:32  -2.46  -2.09         -225.432084             +0.0000
iter:  10  21:17:52  -3.31  -2.55         -225.422161             +0.0000
iter:  11  21:18:12  -3.65  -2.81         -225.411779             +0.0000
iter:  12  21:18:32  -4.12  -3.05         -225.410670             +0.0000
iter:  13  21:18:52  -5.11  -3.29         -225.410549             -0.0000
iter:  14  21:19:12  -5.39  -3.32         -225.410377             -0.0000
iter:  15  21:19:32  -6.04  -3.43         -225.410382             -0.0000
iter:  16  21:19:52  -5.24  -3.47         -225.410719             +0.0000
iter:  17  21:20:11  -5.83  -3.58         -225.410608             -0.0000
iter:  18  21:20:31  -5.22  -3.71         -225.410325             +0.0000
iter:  19  21:20:51  -6.10  -4.13         -225.410329             +0.0000
iter:  20  21:21:11  -7.28  -4.53         -225.410330             -0.0000
iter:  21  21:21:36  -7.80  -4.55         -225.410330             +0.0000
iter:  22  21:22:00  -7.79  -4.64    -2.53-225.410330             +0.0000
iter:  23  21:22:25  -8.27  -4.81    -2.75-225.410330             +0.0000
iter:  24  21:22:50  -7.55  -4.94    -2.75-225.410330             +0.0000
iter:  25  21:23:14  -8.40  -4.93    -3.10-225.410330             +0.0000
iter:  26  21:23:39  -8.42  -5.24    -3.04-225.410330             +0.0000
iter:  27  21:24:03  -9.72  -5.69    -3.31-225.410330             +0.0000
iter:  28  21:24:28 -10.02  -5.80    -4.09-225.410330             +0.0000
iter:  29  21:24:53 -10.28  -5.89    -3.67-225.410330             +0.0000
iter:  30  21:25:17 -10.94  -5.99    -3.99-225.410330             +0.0000
iter:  31  21:25:42 -10.90  -6.02    -3.95-225.410330             +0.0000
iter:  32  21:26:06 -11.52  -6.12    -4.46-225.410330             +0.0000
iter:  33  21:26:31 -10.80  -6.16    -4.16-225.410330             +0.0000
iter:  34  21:26:55 -11.10  -6.33    -4.05-225.410330             +0.0000
iter:  35  21:27:20 -11.90  -6.47    -4.55-225.410330             +0.0000
iter:  36  21:27:45 -10.85  -6.50    -4.14-225.410330             +0.0000
iter:  37  21:28:09 -12.05  -6.86    -4.64-225.410330             +0.0000
iter:  38  21:28:34 -12.60  -7.17    -5.40-225.410330             +0.0000
iter:  39  21:28:59 -12.96  -7.23    -5.04-225.410330             +0.0000
iter:  40  21:29:23 -13.11  -7.30    -5.47-225.410330             +0.0000
iter:  41  21:29:48 -13.53  -7.35    -5.22-225.410330             +0.0000
iter:  42  21:30:12 -13.47  -7.53    -5.64-225.410330             +0.0000
iter:  43  21:30:37 -13.11  -7.63    -5.12-225.410330             +0.0000
iter:  44  21:31:02 -13.45  -7.65    -5.34-225.410330             +0.0000
iter:  45  21:31:26 -14.64  -8.23    -6.95-225.410330             +0.0000

Converged after 45 iterations.

Dipole moment: (19.052655, -1.439555, -4.182758) |e|*Ang

Total magnetic moment: (0.000000, 0.000000, 0.000000)
Local magnetic moments:
   0 O  ( 0.000000,  0.000000,  0.000662)
   1 O  ( 0.000000,  0.000000, -0.000683)
   2 O  ( 0.000000,  0.000000, -0.000915)
   3 O  ( 0.000000,  0.000000,  0.000340)
   4 O  ( 0.000000,  0.000000, -0.000407)
   5 O  ( 0.000000,  0.000000,  0.000996)
   6 O  ( 0.000000,  0.000000,  0.000661)
   7 O  ( 0.000000,  0.000000, -0.000657)
   8 O  ( 0.000000,  0.000000,  0.022367)
   9 O  ( 0.000000,  0.000000, -0.022368)
  10 O  ( 0.000000,  0.000000, -0.022369)
  11 O  ( 0.000000,  0.000000,  0.022368)
  12 Mn ( 0.000000,  0.000000,  4.575066)
  13 Mn ( 0.000000,  0.000000, -4.575035)
  14 Mn ( 0.000000,  0.000000, -4.575028)
  15 Mn ( 0.000000,  0.000000,  4.575032)
  16 P  ( 0.000000,  0.000000,  0.000812)
  17 P  ( 0.000000,  0.000000, -0.000816)
  18 P  ( 0.000000,  0.000000, -0.000813)
  19 P  ( 0.000000,  0.000000,  0.000814)
  20 O  ( 0.000000,  0.000000,  0.020709)
  21 O  ( 0.000000,  0.000000, -0.020708)
  22 O  ( 0.000000,  0.000000, -0.020711)
  23 O  ( 0.000000,  0.000000,  0.020708)
  24 Li ( 0.000000,  0.000000,  0.000005)
  25 Li ( 0.000000,  0.000000, -0.000006)
  26 Li ( 0.000000,  0.000000, -0.000005)
  27 Li ( 0.000000,  0.000000,  0.000006)

Energy contributions relative to reference atoms: (reference = -196157.275402)

Kinetic:       +296.843740
Potential:     -256.385776
External:        +0.000000
XC:            -267.649025
Entropy (-ST):   -0.000000
Local:           +1.780731
--------------------------
Free energy:   -225.410330
Extrapolated:  -225.410330

Spin contamination: 9.697231 electrons
Showing only first 2 kpts
                      Up                     Down
 Kpt  Band  Eigenvalues  Occupancy  Eigenvalues  Occupancy
  0    88      5.10932    0.00694      5.10935    0.00694
  0    89      5.16106    0.00694      5.16146    0.00694
  0    90      9.65233    0.00000      9.65225    0.00000
  0    91      9.67100    0.00000      9.67087    0.00000

  1    88      5.12093    0.00694      5.12139    0.00694
  1    89      5.17031    0.00694      5.17049    0.00694
  1    90      9.53462    0.00000      9.53452    0.00000
  1    91      9.54487    0.00000      9.54480    0.00000


Fermi level: 6.36990

Gap: 3.795 eV
Transition (v -> c):
  (s=1, k=51, n=89, [-0.08, -0.42, 0.38]) -> (s=0, k=62, n=90, [-0.08, 0.08, 0.12])
Writing to born-0.01-14y-.gpw (mode='all')

Timing:                              incl.     excl.
-----------------------------------------------------------
Hamiltonian:                         0.220     0.002   0.0% |
 Atomic:                             0.058     0.058   0.0% |
  XC Correction:                     0.000     0.000   0.0% |
 Calculate atomic Hamiltonians:      0.073     0.073   0.0% |
 Communicate:                        0.002     0.002   0.0% |
 Initialize Hamiltonian:             0.000     0.000   0.0% |
 Poisson:                            0.001     0.001   0.0% |
 XC 3D grid:                         0.084     0.084   0.0% |
LCAO initialization:                69.654     0.649   0.0% |
 LCAO eigensolver:                  19.387     0.002   0.0% |
  Calculate projections:             0.029     0.029   0.0% |
  DenseAtomicCorrection:             0.045     0.045   0.0% |
  Distribute overlap matrix:         0.008     0.008   0.0% |
  Orbital Layouts:                   0.431     0.431   0.0% |
  Potential matrix:                 18.779    18.779   0.7% |
  Sum over cells:                    0.093     0.093   0.0% |
 LCAO to grid:                      48.292    48.292   1.7% ||
 Set positions (LCAO WFS):           1.326     0.199   0.0% |
  Basic WFS set positions:           0.001     0.001   0.0% |
  Basis functions set positions:     0.000     0.000   0.0% |
  P tci:                             0.526     0.526   0.0% |
  ST tci:                            0.383     0.383   0.0% |
  mktci:                             0.216     0.216   0.0% |
PWDescriptor:                        0.023     0.023   0.0% |
SCF-cycle:                        1014.326     0.588   0.0% |
 Davidson:                         850.407   260.590   9.4% |---|
  Apply H:                          58.685    56.993   2.1% ||
   HMM T:                            1.692     1.692   0.1% |
  Subspace diag:                   123.296     0.128   0.0% |
   calc_h_matrix:                   79.251    20.545   0.7% |
    Apply H:                        58.706    56.975   2.1% ||
     HMM T:                          1.730     1.730   0.1% |
   diagonalize:                      6.127     6.127   0.2% |
   rotate_psi:                      37.791    37.791   1.4% ||
  calc. matrices:                  254.774   139.555   5.0% |-|
   Apply H:                        115.219   112.016   4.0% |-|
    HMM T:                           3.203     3.203   0.1% |
  diagonalize:                      71.177    71.177   2.6% ||
  rotate_psi:                       81.884    81.884   3.0% ||
 Density:                           33.871     0.001   0.0% |
  Atomic density matrices:           0.803     0.803   0.0% |
  Mix:                               4.684     4.684   0.2% |
  Multipole moments:                 0.016     0.016   0.0% |
  Pseudo density:                   28.368    28.367   1.0% |
   Symmetrize density:               0.001     0.001   0.0% |
 Forces:                           117.721   117.721   4.2% |-|
 Hamiltonian:                        9.652     0.092   0.0% |
  Atomic:                            2.369     2.369   0.1% |
   XC Correction:                    0.000     0.000   0.0% |
  Calculate atomic Hamiltonians:     3.320     3.320   0.1% |
  Communicate:                       0.070     0.070   0.0% |
  Poisson:                           0.026     0.026   0.0% |
  XC 3D grid:                        3.773     3.773   0.1% |
 Orthonormalize:                     2.086     0.003   0.0% |
  calc_s_matrix:                     0.245     0.245   0.0% |
  inverse-cholesky:                  0.072     0.072   0.0% |
  projections:                       1.331     1.331   0.0% |
  rotate_psi_s:                      0.435     0.435   0.0% |
Set symmetry:                        0.000     0.000   0.0% |
Other:                            1691.414  1691.414  60.9% |-----------------------|
-----------------------------------------------------------
Total:                                      2775.637 100.0%

Memory usage: 12.24 GiB
Date: Tue Mar 23 21:59:37 2021
