
  ___ ___ ___ _ _ _  
 |   |   |_  | | | | 
 | | | | | . | | | | 
 |__ |  _|___|_____|  20.10.1b1
 |___|_|             

User:   madkru@g035.nifl.fysik.dtu.dk
Date:   Sun Mar 21 23:40:57 2021
Arch:   x86_64
Pid:    44316
Python: 3.7.4
gpaw:   /home/niflheim/madkru/venv_folder/gpaw/gpaw (d0d1ca1c71)
_gpaw:  /home/niflheim/madkru/venv_folder/gpaw/build/lib.linux-x86_64-sandybridge-3.7/
        _gpaw.cpython-37m-x86_64-linux-gnu.so (4fd39e8b1e)
ase:    /home/niflheim/madkru/venv_folder/ase/ase (version 3.21.0b1-7e6c206a91)
numpy:  /home/niflheim/madkru/venv_folder/lib/python3.7/site-packages/numpy (version 1.19.4)
scipy:  /home/niflheim/madkru/venv_folder/lib/python3.7/site-packages/scipy (version 1.5.4)
libxc:  4.3.4
units:  Angstrom and eV
cores: 32
OMP_NUM_THREADS: 1

Input parameters:
  convergence: {bands: occupied,
                density: 0.0001,
                eigenstates: 4e-08,
                energy: 0.0005,
                forces: 1e-06}
  kpts: [6 6 4]
  mode: {ecut: 600.0,
         gammacentered: False,
         name: pw}
  occupations: {fixmagmom: False,
                name: fermi-dirac,
                width: 0.001}
  setups: {Mn: :d,3.0}
  symmetry: {point_group: False,
             time_reversal: False}

System changes: positions, numbers, cell, pbc, initial_charges, initial_magmoms 

Initialize ...

O-setup:
  name: Oxygen
  id: 9b9d51c344dea68c822856295a461509
  Z: 8.0
  valence: 6
  core: 2
  charge: 0.0
  file: /home/modules/software/GPAW-setups/0.9.20000/O.LDA.gz
  compensation charges: gauss, rc=0.21, lmax=2
  cutoffs: 1.17(filt), 0.83(core),
  valence states:
                energy  radius
    2s(2.00)   -23.752   0.688
    2p(4.00)    -9.195   0.598
    *s           3.459   0.688
    *p          18.016   0.598
    *d           0.000   0.619

  Using partial waves for O as LCAO basis

Mn-setup:
  name: Manganese
  id: 0d715a8018be061a6e9ea6f2d364ac92
  Z: 25.0
  valence: 15
  core: 10
  charge: 0.0
  Hubbard U: 3.000000 eV (l=2, scale=True)
  file: /home/modules/software/GPAW-setups/0.9.20000/Mn.LDA.gz
  compensation charges: gauss, rc=0.38, lmax=2
  cutoffs: 2.14(filt), 0.86(core),
  valence states:
                energy  radius
    3s(2.00)   -85.387   1.275
    4s(2.00)    -5.282   1.275
    3p(6.00)   -54.493   1.281
    4p(0.00)    -1.471   1.281
    3d(5.00)    -7.009   1.138
    *d          20.203   1.138

  Using partial waves for Mn as LCAO basis

P-setup:
  name: Phosphorus
  id: a5561c299094968922a179ab894d2e2d
  Z: 15.0
  valence: 5
  core: 10
  charge: 0.0
  file: /home/modules/software/GPAW-setups/0.9.20000/P.LDA.gz
  compensation charges: gauss, rc=0.30, lmax=2
  cutoffs: 1.69(filt), 1.81(core),
  valence states:
                energy  radius
    3s(2.00)   -14.015   0.953
    3p(3.00)    -5.596   0.953
    *s          13.197   0.953
    *p          21.615   0.953
    *d           0.000   0.953

  Using partial waves for P as LCAO basis

Li-setup:
  name: Lithium
  id: b73562207f97a71b6967473b66fe8b65
  Z: 3.0
  valence: 1
  core: 2
  charge: 0.0
  file: /home/modules/software/GPAW-setups/0.9.20000/Li.LDA.gz
  compensation charges: gauss, rc=0.33, lmax=2
  cutoffs: 1.91(filt), 2.55(core),
  valence states:
                energy  radius
    2s(1.00)    -2.874   1.058
    2p(0.00)    -1.126   1.058
    *s          24.338   1.058

  Using partial waves for Li as LCAO basis

Reference energy: -196157.275402

Spin-polarized calculation.
Magnetic moment: 0.000000

Convergence criteria:
  Maximum total energy change: 0.0005 eV / electron
  Maximum integral of absolute density change: 0.0001 electrons
  Maximum integral of absolute eigenstate change: 4e-08 eV^2
  Maximum change in atomic force: 1e-06 eV / Ang
  Maximum number of iterations: 333

Symmetries present (total): 1

  ( 1  0  0)
  ( 0  1  0)
  ( 0  0  1)

144 k-points: 6 x 6 x 4 Monkhorst-Pack grid
144 k-points in the irreducible part of the Brillouin zone
       k-points in crystal coordinates                weights
   0:    -0.41666667   -0.41666667   -0.37500000          1/144
   1:    -0.41666667   -0.41666667   -0.12500000          1/144
   2:    -0.41666667   -0.41666667    0.12500000          1/144
   3:    -0.41666667   -0.41666667    0.37500000          1/144
   4:    -0.41666667   -0.25000000   -0.37500000          1/144
   5:    -0.41666667   -0.25000000   -0.12500000          1/144
   6:    -0.41666667   -0.25000000    0.12500000          1/144
   7:    -0.41666667   -0.25000000    0.37500000          1/144
   8:    -0.41666667   -0.08333333   -0.37500000          1/144
   9:    -0.41666667   -0.08333333   -0.12500000          1/144
          ...
 143:     0.41666667    0.41666667    0.37500000          1/144

Wave functions: Plane wave expansion
  Cutoff energy: 600.000 eV
  Number of coefficients (min, max): 9238, 9284
  Pulay-stress correction: 0.000000 eV/Ang^3 (de/decut=0.000000)
  Using FFTW library
  ScaLapack parameters: grid=1x1, blocksize=None
  Wavefunction extrapolation:
    Improved wavefunction reuse through dual PAW basis 

  Fermi-Dirac: width=0.0010 eV

Eigensolver
   Davidson(niter=2, smin=None, normalize=True) 

Densities:
  Coarse grid: 60*35*27 grid
  Fine grid: 120*70*54 grid
  Total Charge: 0.000000 

Density mixing:
  Method: difference
  Backend: pulay
  Linear mixing parameter: 0.05
  Mixing with 5 old densities
  Damping of long wave oscillations: 50 

Hamiltonian:
  XC and Coulomb potentials evaluated on a 120*70*54 grid
  Using the LDA Exchange-Correlation functional
 

Memory estimate:
  Process memory now: 12739.60 MiB
  Calculator: 346.50 MiB
    Density: 19.24 MiB
      Arrays: 7.57 MiB
      Localized functions: 8.64 MiB
      Mixer: 3.03 MiB
    Hamiltonian: 5.87 MiB
      Arrays: 5.62 MiB
      XC: 0.00 MiB
      Poisson: 0.00 MiB
      vbar: 0.25 MiB
    Wavefunctions: 321.38 MiB
      Arrays psit_nG: 285.59 MiB
      Eigensolver: 18.49 MiB
      Projections: 5.41 MiB
      Projectors: 8.92 MiB
      PW-descriptor: 2.96 MiB

Total number of cores used: 32
Parallelization over k-points: 16
Domain decomposition: 2 x 1 x 1

Number of atoms: 28
Number of atomic orbitals: 148
Number of bands in calculation: 112
Number of valence electrons: 180
Bands to converge: occupied

... initialized

Initializing position-dependent things.

Density initialized from atomic densities
Creating initial wave functions:
  112 bands from LCAO basis set

                                           
                                           
                                           
                                           
                                           
               O     O  P  O               
            PO           OMn     O         
                  O          MO            
            O        Li O                  
             Mn  On          OP            
         O         Li O                    
         Li     O P         O              
       Li                                  
                                           
                                           
                                           
                                           

Positions:
   0 O     -1.263197   -2.497779   -1.098475    ( 0.0000,  0.0000,  0.0000)
   1 O     -3.070823    2.922496    1.209491    ( 0.0000,  0.0000,  0.0000)
   2 O      1.985541    0.474863    1.428016    ( 0.0000,  0.0000,  0.0000)
   3 O      3.793120   -0.050100   -0.879950    ( 0.0000,  0.0000,  0.0000)
   4 O      1.995518    2.922485    1.428149    ( 0.0000,  0.0000,  0.0000)
   5 O      3.793144   -2.497790   -0.879818    ( 0.0000,  0.0000,  0.0000)
   6 O     -1.263220   -0.050157   -1.098342    ( 0.0000,  0.0000,  0.0000)
   7 O     -3.070798    0.474805    1.209623    ( 0.0000,  0.0000,  0.0000)
   8 O     -4.167835   -1.273920   -0.862116    ( 0.0000,  0.0000,  0.0000)
   9 O     -0.166037    1.698602    1.445528    ( 0.0000,  0.0000,  0.0000)
  10 O      4.890156    1.698625    1.191790    ( 0.0000,  0.0000,  0.0000)
  11 O      0.888358   -1.273896   -1.115855    ( 0.0000,  0.0000,  0.0000)
  12 Mn    -2.445557   -1.274211    0.312921    ( 0.0000,  0.0000,  1.0000)
  13 Mn    -1.888303    1.698892   -1.994948    ( 0.0000,  0.0000, -1.0000)
  14 Mn     3.167879    1.698917    0.016752    ( 0.0000,  0.0000, -1.0000)
  15 Mn     2.610624   -1.274187    2.324621    ( 0.0000,  0.0000,  1.0000)
  16 P     -0.529549   -1.273917   -1.724376    ( 0.0000,  0.0000,  0.0000)
  17 P     -3.804359    1.698599    0.583463    ( 0.0000,  0.0000,  0.0000)
  18 P      1.251870    1.698623    2.054050    ( 0.0000,  0.0000,  0.0000)
  19 P      4.526680   -1.273894   -0.253789    ( 0.0000,  0.0000,  0.0000)
  20 O     -0.544227   -1.273926    1.365380    ( 0.0000,  0.0000,  0.0000)
  21 O     -3.789411    1.698610   -0.942222    ( 0.0000,  0.0000,  0.0000)
  22 O      1.266548    1.698631   -1.035707    ( 0.0000,  0.0000,  0.0000)
  23 O      4.511733   -1.273905    1.271895    ( 0.0000,  0.0000,  0.0000)
  24 Li    -4.695087   -2.760584   -2.142877    ( 0.0000,  0.0000,  0.0000)
  25 Li     0.361147   -2.760561    0.164836    ( 0.0000,  0.0000,  0.0000)
  26 Li    -4.695074    0.212330   -2.142877    ( 0.0000,  0.0000,  0.0000)
  27 Li     0.361161    0.212353    0.164837    ( 0.0000,  0.0000,  0.0000)

Unit cell:
           periodic     x           y           z      points  spacing
  1. axis:    yes   10.112485    0.000045   -0.000035    60     0.1685
  2. axis:    yes    0.000026    5.945827    0.000001    35     0.1699
  3. axis:    yes   -0.000016    0.000000    4.615463    27     0.1709

  Lengths:  10.112485   5.945827   4.615463
  Angles:   89.999989  90.000396  89.999490

Effective grid spacing dv^(1/3) = 0.1698

                     log10-error:           total        iterations:
           time      wfs    density  force  energy       poisson  magmom
iter:   1  23:44:11                       -221.372044             +0.0000
iter:   2  23:44:48  -0.61  -0.93         -234.815115             +0.0000
iter:   3  23:45:26  -0.37  -0.97         -225.905538             -0.0000
iter:   4  23:46:03  -1.39  -1.29         -225.761053             +0.0000
iter:   5  23:46:41  -1.27  -1.39         -227.318433             +0.0000
iter:   6  23:47:18  -1.47  -1.46         -225.736709             +0.0000
iter:   7  23:47:55  -2.48  -2.04         -225.723181             +0.0000
iter:   8  23:48:33  -2.13  -1.99         -225.600219             +0.0000
iter:   9  23:49:10  -2.44  -2.08         -225.431383             +0.0000
iter:  10  23:49:47  -3.32  -2.55         -225.421960             +0.0000
iter:  11  23:50:24  -3.68  -2.81         -225.411717             +0.0000
iter:  12  23:51:02  -4.12  -3.03         -225.410495             +0.0000
iter:  13  23:51:39  -5.08  -3.29         -225.410344             -0.0000
iter:  14  23:52:17  -5.39  -3.32         -225.410184             -0.0000
iter:  15  23:52:54  -6.08  -3.43         -225.410185             -0.0000
iter:  16  23:53:31  -5.37  -3.47         -225.410418             +0.0000
iter:  17  23:54:09  -5.77  -3.62         -225.410347             -0.0000
iter:  18  23:54:46  -5.59  -3.77         -225.410139             +0.0000
iter:  19  23:55:23  -6.08  -3.93         -225.410135             -0.0000
iter:  20  23:56:00  -6.79  -4.06         -225.410116             -0.0000
iter:  21  23:56:38  -7.08  -4.19         -225.410133             -0.0000
iter:  22  23:57:15  -7.14  -4.30         -225.410133             -0.0000
iter:  23  23:58:02  -7.87  -4.28         -225.410130             -0.0000
iter:  24  23:58:49  -7.71  -4.30    -2.49-225.410133             -0.0000
iter:  25  23:59:36  -7.44  -4.62    -2.75-225.410131             -0.0000
iter:  26  00:00:23  -8.03  -4.82    -3.15-225.410130             -0.0000
iter:  27  00:01:10  -8.64  -4.87    -3.05-225.410130             -0.0000
iter:  28  00:01:57  -8.42  -4.93    -2.72-225.410130             -0.0000
iter:  29  00:02:44  -8.86  -5.14    -3.18-225.410130             +0.0000
iter:  30  00:03:31  -8.59  -5.27    -3.38-225.410130             -0.0000
iter:  31  00:04:18  -9.34  -5.48    -3.65-225.410130             -0.0000
iter:  32  00:05:05 -10.21  -5.57    -3.96-225.410130             +0.0000
iter:  33  00:05:52  -9.20  -5.62    -3.64-225.410130             +0.0000
iter:  34  00:06:39  -9.75  -5.77    -3.63-225.410130             -0.0000
iter:  35  00:07:27 -10.17  -5.91    -4.02-225.410130             -0.0000
iter:  36  00:08:14  -9.79  -6.19    -4.08-225.410130             -0.0000
iter:  37  00:09:01 -10.41  -6.24    -4.37-225.410130             +0.0000
iter:  38  00:09:48 -10.74  -6.33    -4.18-225.410130             -0.0000
iter:  39  00:10:35 -11.49  -6.40    -4.75-225.410130             +0.0000
iter:  40  00:11:22 -11.19  -6.45    -4.36-225.410130             +0.0000
iter:  41  00:12:08 -11.46  -6.61    -4.59-225.410130             -0.0000
iter:  42  00:12:56 -10.96  -6.69    -4.47-225.410130             -0.0000
iter:  43  00:13:43 -11.78  -6.80    -4.49-225.410130             -0.0000
iter:  44  00:14:30 -11.94  -7.12    -5.24-225.410130             -0.0000
iter:  45  00:15:17 -12.36  -7.03    -4.64-225.410130             -0.0000
iter:  46  00:16:04 -13.34  -7.41    -5.38-225.410130             -0.0000
iter:  47  00:16:51 -13.39  -7.48    -5.57-225.410130             -0.0000
iter:  48  00:17:38 -14.10  -7.52    -5.27-225.410130             +0.0000
iter:  49  00:18:25 -14.14  -7.71    -5.75-225.410130             +0.0000
iter:  50  00:19:12 -13.48  -7.86    -5.77-225.410130             +0.0000
iter:  51  00:19:59 -14.37  -8.25    -5.98-225.410130             +0.0000
iter:  52  00:20:46 -15.35  -8.40    -6.60-225.410130             +0.0000

Converged after 52 iterations.

Dipole moment: (19.051961, -1.428674, -4.183113) |e|*Ang

Total magnetic moment: (0.000000, 0.000000, 0.000000)
Local magnetic moments:
   0 O  ( 0.000000,  0.000000,  0.000652)
   1 O  ( 0.000000,  0.000000, -0.000685)
   2 O  ( 0.000000,  0.000000, -0.000680)
   3 O  ( 0.000000,  0.000000,  0.000706)
   4 O  ( 0.000000,  0.000000, -0.000693)
   5 O  ( 0.000000,  0.000000,  0.000684)
   6 O  ( 0.000000,  0.000000,  0.000650)
   7 O  ( 0.000000,  0.000000, -0.000681)
   8 O  ( 0.000000,  0.000000,  0.022405)
   9 O  ( 0.000000,  0.000000, -0.022277)
  10 O  ( 0.000000,  0.000000, -0.022381)
  11 O  ( 0.000000,  0.000000,  0.022348)
  12 Mn ( 0.000000,  0.000000,  4.575058)
  13 Mn ( 0.000000,  0.000000, -4.575033)
  14 Mn ( 0.000000,  0.000000, -4.574677)
  15 Mn ( 0.000000,  0.000000,  4.574517)
  16 P  ( 0.000000,  0.000000,  0.000821)
  17 P  ( 0.000000,  0.000000, -0.000822)
  18 P  ( 0.000000,  0.000000, -0.000829)
  19 P  ( 0.000000,  0.000000,  0.000807)
  20 O  ( 0.000000,  0.000000,  0.020693)
  21 O  ( 0.000000,  0.000000, -0.020737)
  22 O  ( 0.000000,  0.000000, -0.020693)
  23 O  ( 0.000000,  0.000000,  0.020750)
  24 Li ( 0.000000,  0.000000,  0.000000)
  25 Li ( 0.000000,  0.000000, -0.000005)
  26 Li ( 0.000000,  0.000000, -0.000001)
  27 Li ( 0.000000,  0.000000,  0.000004)

Energy contributions relative to reference atoms: (reference = -196157.275402)

Kinetic:       +296.582056
Potential:     -256.187482
External:        +0.000000
XC:            -267.585740
Entropy (-ST):   -0.000000
Local:           +1.781036
--------------------------
Free energy:   -225.410130
Extrapolated:  -225.410130

Spin contamination: 9.696713 electrons
Showing only first 2 kpts
                      Up                     Down
 Kpt  Band  Eigenvalues  Occupancy  Eigenvalues  Occupancy
  0    88      5.11293    0.00694      5.10923    0.00694
  0    89      5.16506    0.00694      5.16323    0.00694
  0    90      9.65575    0.00000      9.65210    0.00000
  0    91      9.67086    0.00000      9.67739    0.00000

  1    88      5.12452    0.00694      5.12057    0.00694
  1    89      5.17437    0.00694      5.17286    0.00694
  1    90      9.53781    0.00000      9.53358    0.00000
  1    91      9.54904    0.00000      9.55176    0.00000


Fermi level: 6.37052

Gap: 3.792 eV
Transition (v -> c):
  (s=0, k=72, n=89, [0.08, -0.42, -0.38]) -> (s=1, k=57, n=90, [-0.08, -0.08, -0.12])
Writing to born-0.01-4x+.gpw (mode='all')

Timing:                              incl.     excl.
-----------------------------------------------------------
Hamiltonian:                         0.422     0.002   0.0% |
 Atomic:                             0.080     0.080   0.0% |
  XC Correction:                     0.000     0.000   0.0% |
 Calculate atomic Hamiltonians:      0.162     0.162   0.0% |
 Communicate:                        0.001     0.001   0.0% |
 Initialize Hamiltonian:             0.000     0.000   0.0% |
 Poisson:                            0.002     0.002   0.0% |
 XC 3D grid:                         0.174     0.174   0.0% |
LCAO initialization:               150.431     0.678   0.0% |
 LCAO eigensolver:                  40.019     0.003   0.0% |
  Calculate projections:             0.057     0.057   0.0% |
  DenseAtomicCorrection:             0.083     0.083   0.0% |
  Distribute overlap matrix:         0.271     0.271   0.0% |
  Orbital Layouts:                   0.361     0.361   0.0% |
  Potential matrix:                 39.145    39.145   0.7% |
  Sum over cells:                    0.100     0.100   0.0% |
 LCAO to grid:                     107.330   107.330   2.0% ||
 Set positions (LCAO WFS):           2.404     0.370   0.0% |
  Basic WFS set positions:           0.001     0.001   0.0% |
  Basis functions set positions:     0.000     0.000   0.0% |
  P tci:                             1.081     1.081   0.0% |
  ST tci:                            0.704     0.704   0.0% |
  mktci:                             0.247     0.247   0.0% |
PWDescriptor:                        0.025     0.025   0.0% |
SCF-cycle:                        2235.935     2.075   0.0% |
 Davidson:                        1839.797   580.876  11.0% |---|
  Apply H:                         136.679   132.902   2.5% ||
   HMM T:                            3.777     3.777   0.1% |
  Subspace diag:                   276.696     0.168   0.0% |
   calc_h_matrix:                  183.330    47.429   0.9% |
    Apply H:                       135.901   132.181   2.5% ||
     HMM T:                          3.720     3.720   0.1% |
   diagonalize:                      6.359     6.359   0.1% |
   rotate_psi:                      86.838    86.838   1.6% ||
  calc. matrices:                  581.373   317.225   6.0% |-|
   Apply H:                        264.148   257.277   4.9% |-|
    HMM T:                           6.871     6.871   0.1% |
  diagonalize:                      86.870    86.870   1.6% ||
  rotate_psi:                      177.303   177.303   3.4% ||
 Density:                           76.319     0.001   0.0% |
  Atomic density matrices:           1.394     1.394   0.0% |
  Mix:                              11.673    11.673   0.2% |
  Multipole moments:                 0.030     0.030   0.0% |
  Pseudo density:                   63.220    63.219   1.2% |
   Symmetrize density:               0.001     0.001   0.0% |
 Forces:                           292.545   292.545   5.5% |-|
 Hamiltonian:                       21.144     0.126   0.0% |
  Atomic:                            3.077     3.076   0.1% |
   XC Correction:                    0.000     0.000   0.0% |
  Calculate atomic Hamiltonians:     8.677     8.677   0.2% |
  Communicate:                       0.076     0.076   0.0% |
  Poisson:                           0.084     0.084   0.0% |
  XC 3D grid:                        9.105     9.105   0.2% |
 Orthonormalize:                     4.054     0.004   0.0% |
  calc_s_matrix:                     0.484     0.484   0.0% |
  inverse-cholesky:                  0.054     0.054   0.0% |
  projections:                       2.652     2.652   0.1% |
  rotate_psi_s:                      0.861     0.861   0.0% |
Set symmetry:                        0.000     0.000   0.0% |
Other:                            2892.436  2892.436  54.8% |---------------------|
-----------------------------------------------------------
Total:                                      5279.249 100.0%

Memory usage: 12.46 GiB
Date: Mon Mar 22 01:08:56 2021
