
  ___ ___ ___ _ _ _  
 |   |   |_  | | | | 
 | | | | | . | | | | 
 |__ |  _|___|_____|  20.10.1b1
 |___|_|             

User:   madkru@i018.nifl.fysik.dtu.dk
Date:   Tue Mar 23 16:18:09 2021
Arch:   x86_64
Pid:    26873
Python: 3.7.4
gpaw:   /home/niflheim/madkru/venv_folder/gpaw/gpaw (d0d1ca1c71)
_gpaw:  /home/niflheim/madkru/venv_folder/gpaw/build/lib.linux-x86_64-ivybridge-3.7/
        _gpaw.cpython-37m-x86_64-linux-gnu.so (4fd39e8b1e)
ase:    /home/niflheim/madkru/venv_folder/ase/ase (version 3.21.0b1-7e6c206a91)
numpy:  /home/niflheim/madkru/venv_folder/lib/python3.7/site-packages/numpy (version 1.19.4)
scipy:  /home/niflheim/madkru/venv_folder/lib/python3.7/site-packages/scipy (version 1.5.4)
libxc:  4.3.4
units:  Angstrom and eV
cores: 64
OMP_NUM_THREADS: 1

Input parameters:
  convergence: {bands: occupied,
                density: 0.0001,
                eigenstates: 4e-08,
                energy: 0.0005,
                forces: 1e-06}
  kpts: [6 6 4]
  mode: {ecut: 600.0,
         gammacentered: False,
         name: pw}
  occupations: {fixmagmom: False,
                name: fermi-dirac,
                width: 0.001}
  setups: {Mn: :d,3.0}
  symmetry: {point_group: False,
             time_reversal: False}

System changes: positions, numbers, cell, pbc, initial_charges, initial_magmoms 

Initialize ...

O-setup:
  name: Oxygen
  id: 9b9d51c344dea68c822856295a461509
  Z: 8.0
  valence: 6
  core: 2
  charge: 0.0
  file: /home/modules/software/GPAW-setups/0.9.20000/O.LDA.gz
  compensation charges: gauss, rc=0.21, lmax=2
  cutoffs: 1.17(filt), 0.83(core),
  valence states:
                energy  radius
    2s(2.00)   -23.752   0.688
    2p(4.00)    -9.195   0.598
    *s           3.459   0.688
    *p          18.016   0.598
    *d           0.000   0.619

  Using partial waves for O as LCAO basis

Mn-setup:
  name: Manganese
  id: 0d715a8018be061a6e9ea6f2d364ac92
  Z: 25.0
  valence: 15
  core: 10
  charge: 0.0
  Hubbard U: 3.000000 eV (l=2, scale=True)
  file: /home/modules/software/GPAW-setups/0.9.20000/Mn.LDA.gz
  compensation charges: gauss, rc=0.38, lmax=2
  cutoffs: 2.14(filt), 0.86(core),
  valence states:
                energy  radius
    3s(2.00)   -85.387   1.275
    4s(2.00)    -5.282   1.275
    3p(6.00)   -54.493   1.281
    4p(0.00)    -1.471   1.281
    3d(5.00)    -7.009   1.138
    *d          20.203   1.138

  Using partial waves for Mn as LCAO basis

P-setup:
  name: Phosphorus
  id: a5561c299094968922a179ab894d2e2d
  Z: 15.0
  valence: 5
  core: 10
  charge: 0.0
  file: /home/modules/software/GPAW-setups/0.9.20000/P.LDA.gz
  compensation charges: gauss, rc=0.30, lmax=2
  cutoffs: 1.69(filt), 1.81(core),
  valence states:
                energy  radius
    3s(2.00)   -14.015   0.953
    3p(3.00)    -5.596   0.953
    *s          13.197   0.953
    *p          21.615   0.953
    *d           0.000   0.953

  Using partial waves for P as LCAO basis

Li-setup:
  name: Lithium
  id: b73562207f97a71b6967473b66fe8b65
  Z: 3.0
  valence: 1
  core: 2
  charge: 0.0
  file: /home/modules/software/GPAW-setups/0.9.20000/Li.LDA.gz
  compensation charges: gauss, rc=0.33, lmax=2
  cutoffs: 1.91(filt), 2.55(core),
  valence states:
                energy  radius
    2s(1.00)    -2.874   1.058
    2p(0.00)    -1.126   1.058
    *s          24.338   1.058

  Using partial waves for Li as LCAO basis

Reference energy: -196157.275402

Spin-polarized calculation.
Magnetic moment: 0.000000

Convergence criteria:
  Maximum total energy change: 0.0005 eV / electron
  Maximum integral of absolute density change: 0.0001 electrons
  Maximum integral of absolute eigenstate change: 4e-08 eV^2
  Maximum change in atomic force: 1e-06 eV / Ang
  Maximum number of iterations: 333

Symmetries present (total): 1

  ( 1  0  0)
  ( 0  1  0)
  ( 0  0  1)

144 k-points: 6 x 6 x 4 Monkhorst-Pack grid
144 k-points in the irreducible part of the Brillouin zone
       k-points in crystal coordinates                weights
   0:    -0.41666667   -0.41666667   -0.37500000          1/144
   1:    -0.41666667   -0.41666667   -0.12500000          1/144
   2:    -0.41666667   -0.41666667    0.12500000          1/144
   3:    -0.41666667   -0.41666667    0.37500000          1/144
   4:    -0.41666667   -0.25000000   -0.37500000          1/144
   5:    -0.41666667   -0.25000000   -0.12500000          1/144
   6:    -0.41666667   -0.25000000    0.12500000          1/144
   7:    -0.41666667   -0.25000000    0.37500000          1/144
   8:    -0.41666667   -0.08333333   -0.37500000          1/144
   9:    -0.41666667   -0.08333333   -0.12500000          1/144
          ...
 143:     0.41666667    0.41666667    0.37500000          1/144

Wave functions: Plane wave expansion
  Cutoff energy: 600.000 eV
  Number of coefficients (min, max): 9238, 9284
  Pulay-stress correction: 0.000000 eV/Ang^3 (de/decut=0.000000)
  Using FFTW library
  ScaLapack parameters: grid=1x1, blocksize=None
  Wavefunction extrapolation:
    Improved wavefunction reuse through dual PAW basis 

  Fermi-Dirac: width=0.0010 eV

Eigensolver
   Davidson(niter=2, smin=None, normalize=True) 

Densities:
  Coarse grid: 60*35*27 grid
  Fine grid: 120*70*54 grid
  Total Charge: 0.000000 

Density mixing:
  Method: difference
  Backend: pulay
  Linear mixing parameter: 0.05
  Mixing with 5 old densities
  Damping of long wave oscillations: 50 

Hamiltonian:
  XC and Coulomb potentials evaluated on a 120*70*54 grid
  Using the LDA Exchange-Correlation functional
 

Memory estimate:
  Process memory now: 12283.32 MiB
  Calculator: 326.59 MiB
    Density: 9.67 MiB
      Arrays: 3.79 MiB
      Localized functions: 4.32 MiB
      Mixer: 1.56 MiB
    Hamiltonian: 2.94 MiB
      Arrays: 2.82 MiB
      XC: 0.00 MiB
      Poisson: 0.00 MiB
      vbar: 0.12 MiB
    Wavefunctions: 313.97 MiB
      Arrays psit_nG: 285.59 MiB
      Eigensolver: 18.49 MiB
      Projections: 2.71 MiB
      Projectors: 4.46 MiB
      PW-descriptor: 2.72 MiB

Total number of cores used: 64
Parallelization over k-points: 16
Domain decomposition: 2 x 2 x 1

Number of atoms: 28
Number of atomic orbitals: 148
Number of bands in calculation: 112
Number of valence electrons: 180
Bands to converge: occupied

... initialized

Initializing position-dependent things.

Density initialized from atomic densities
Creating initial wave functions:
  112 bands from LCAO basis set

                                           
                                           
                                           
                                           
                                           
               O     O  P  O               
            PO           OMn     O         
                  O          MO            
            O        Li O                  
             Mn  On          OP            
         O         Li O                    
         Li     O P         O              
       Li                                  
                                           
                                           
                                           
                                           

Positions:
   0 O     -1.263197   -2.497779   -1.098475    ( 0.0000,  0.0000,  0.0000)
   1 O     -3.070823    2.922496    1.209491    ( 0.0000,  0.0000,  0.0000)
   2 O      1.985541    0.474863    1.428016    ( 0.0000,  0.0000,  0.0000)
   3 O      3.793120   -0.050100   -0.879950    ( 0.0000,  0.0000,  0.0000)
   4 O      1.985518    2.922485    1.428149    ( 0.0000,  0.0000,  0.0000)
   5 O      3.793144   -2.497790   -0.879818    ( 0.0000,  0.0000,  0.0000)
   6 O     -1.263220   -0.050157   -1.098342    ( 0.0000,  0.0000,  0.0000)
   7 O     -3.070798    0.474805    1.209623    ( 0.0000,  0.0000,  0.0000)
   8 O     -4.167835   -1.273920   -0.862116    ( 0.0000,  0.0000,  0.0000)
   9 O     -0.166037    1.698602    1.445528    ( 0.0000,  0.0000,  0.0000)
  10 O      4.890156    1.698625    1.191790    ( 0.0000,  0.0000,  0.0000)
  11 O      0.888358   -1.273896   -1.115855    ( 0.0000,  0.0000,  0.0000)
  12 Mn    -2.445557   -1.274211    0.302921    ( 0.0000,  0.0000,  1.0000)
  13 Mn    -1.888303    1.698892   -1.994948    ( 0.0000,  0.0000, -1.0000)
  14 Mn     3.167879    1.698917    0.016752    ( 0.0000,  0.0000, -1.0000)
  15 Mn     2.610624   -1.274187    2.324621    ( 0.0000,  0.0000,  1.0000)
  16 P     -0.529549   -1.273917   -1.724376    ( 0.0000,  0.0000,  0.0000)
  17 P     -3.804359    1.698599    0.583463    ( 0.0000,  0.0000,  0.0000)
  18 P      1.251870    1.698623    2.054050    ( 0.0000,  0.0000,  0.0000)
  19 P      4.526680   -1.273894   -0.253789    ( 0.0000,  0.0000,  0.0000)
  20 O     -0.544227   -1.273926    1.365380    ( 0.0000,  0.0000,  0.0000)
  21 O     -3.789411    1.698610   -0.942222    ( 0.0000,  0.0000,  0.0000)
  22 O      1.266548    1.698631   -1.035707    ( 0.0000,  0.0000,  0.0000)
  23 O      4.511733   -1.273905    1.271895    ( 0.0000,  0.0000,  0.0000)
  24 Li    -4.695087   -2.760584   -2.142877    ( 0.0000,  0.0000,  0.0000)
  25 Li     0.361147   -2.760561    0.164836    ( 0.0000,  0.0000,  0.0000)
  26 Li    -4.695074    0.212330   -2.142877    ( 0.0000,  0.0000,  0.0000)
  27 Li     0.361161    0.212353    0.164837    ( 0.0000,  0.0000,  0.0000)

Unit cell:
           periodic     x           y           z      points  spacing
  1. axis:    yes   10.112485    0.000045   -0.000035    60     0.1685
  2. axis:    yes    0.000026    5.945827    0.000001    35     0.1699
  3. axis:    yes   -0.000016    0.000000    4.615463    27     0.1709

  Lengths:  10.112485   5.945827   4.615463
  Angles:   89.999989  90.000396  89.999490

Effective grid spacing dv^(1/3) = 0.1698

                     log10-error:           total        iterations:
           time      wfs    density  force  energy       poisson  magmom
iter:   1  16:19:45                       -221.376087             +0.0000
iter:   2  16:20:05  -0.61  -0.93         -234.829233             +0.0000
iter:   3  16:20:25  -0.37  -0.97         -225.910826             -0.0000
iter:   4  16:20:45  -1.39  -1.29         -225.761352             +0.0000
iter:   5  16:21:05  -1.27  -1.39         -227.323090             +0.0000
iter:   6  16:21:25  -1.47  -1.46         -225.737494             +0.0000
iter:   7  16:21:45  -2.47  -2.04         -225.724299             +0.0000
iter:   8  16:22:05  -2.12  -1.99         -225.602040             +0.0000
iter:   9  16:22:25  -2.45  -2.07         -225.431870             +0.0000
iter:  10  16:22:45  -3.31  -2.55         -225.422090             +0.0000
iter:  11  16:23:05  -3.68  -2.81         -225.412082             +0.0000
iter:  12  16:23:25  -4.13  -3.03         -225.410832             +0.0000
iter:  13  16:23:45  -5.10  -3.29         -225.410688             -0.0000
iter:  14  16:24:05  -5.36  -3.32         -225.410531             +0.0000
iter:  15  16:24:25  -6.06  -3.43         -225.410524             +0.0000
iter:  16  16:24:45  -5.31  -3.47         -225.410802             -0.0000
iter:  17  16:25:05  -5.78  -3.59         -225.410729             +0.0000
iter:  18  16:25:25  -5.37  -3.73         -225.410471             -0.0000
iter:  19  16:25:45  -6.01  -3.99         -225.410476             +0.0000
iter:  20  16:26:04  -6.96  -4.29         -225.410466             +0.0000
iter:  21  16:26:29  -7.52  -4.35         -225.410474             +0.0000
iter:  22  16:26:49  -7.22  -4.46         -225.410477             +0.0000
iter:  23  16:27:14  -8.22  -4.44    -2.14-225.410478             +0.0000
iter:  24  16:27:38  -8.90  -4.46    -3.69-225.410478             +0.0000
iter:  25  16:27:58  -7.16  -4.50         -225.410473             -0.0000
iter:  26  16:28:23  -8.04  -4.69    -2.47-225.410473             +0.0000
iter:  27  16:28:47  -8.83  -4.81    -3.30-225.410473             +0.0000
iter:  28  16:29:12  -8.98  -4.85    -3.13-225.410473             +0.0000
iter:  29  16:29:37  -9.16  -4.87    -3.25-225.410473             +0.0000
iter:  30  16:30:01  -9.60  -4.94    -3.59-225.410473             +0.0000
iter:  31  16:30:26  -9.29  -4.99    -3.36-225.410473             +0.0000
iter:  32  16:30:51  -8.24  -5.06    -2.71-225.410473             +0.0000
iter:  33  16:31:15  -9.17  -5.42    -3.67-225.410473             +0.0000
iter:  34  16:31:40 -10.08  -5.54    -3.95-225.410473             +0.0000
iter:  35  16:32:05  -8.90  -5.59    -3.72-225.410473             +0.0000
iter:  36  16:32:29  -9.83  -5.82    -3.59-225.410473             +0.0000
iter:  37  16:32:54 -10.70  -5.95    -4.14-225.410473             +0.0000
iter:  38  16:33:19 -11.11  -5.97    -4.36-225.410473             +0.0000
iter:  39  16:33:43 -11.70  -6.03    -4.90-225.410473             +0.0000
iter:  40  16:34:08 -10.62  -6.07    -3.76-225.410473             +0.0000
iter:  41  16:34:32 -11.91  -6.64    -4.57-225.410473             +0.0000
iter:  42  16:34:57 -12.48  -6.81    -5.24-225.410473             +0.0000
iter:  43  16:35:22 -11.95  -6.86    -4.25-225.410473             +0.0000
iter:  44  16:35:46 -12.62  -6.86    -5.08-225.410473             +0.0000
iter:  45  16:36:11 -12.58  -7.02    -5.18-225.410473             +0.0000
iter:  46  16:36:36 -12.57  -7.09    -5.17-225.410473             +0.0000
iter:  47  16:37:00 -12.57  -7.22    -4.96-225.410473             +0.0000
iter:  48  16:37:25 -12.69  -7.35    -5.28-225.410473             +0.0000
iter:  49  16:37:49 -13.03  -7.32    -5.28-225.410473             +0.0000
iter:  50  16:38:14 -14.10  -7.85    -6.23-225.410473             +0.0000

Converged after 50 iterations.

Dipole moment: (19.054896, -1.426228, -4.122111) |e|*Ang

Total magnetic moment: (0.000000, 0.000000, 0.000000)
Local magnetic moments:
   0 O  ( 0.000000,  0.000000,  0.000957)
   1 O  ( 0.000000,  0.000000, -0.000794)
   2 O  ( 0.000000,  0.000000, -0.000663)
   3 O  ( 0.000000,  0.000000,  0.000694)
   4 O  ( 0.000000,  0.000000, -0.000667)
   5 O  ( 0.000000,  0.000000,  0.000698)
   6 O  ( 0.000000,  0.000000,  0.000953)
   7 O  ( 0.000000,  0.000000, -0.000790)
   8 O  ( 0.000000,  0.000000,  0.022499)
   9 O  ( 0.000000,  0.000000, -0.022353)
  10 O  ( 0.000000,  0.000000, -0.022424)
  11 O  ( 0.000000,  0.000000,  0.022375)
  12 Mn ( 0.000000,  0.000000,  4.574989)
  13 Mn ( 0.000000,  0.000000, -4.574968)
  14 Mn ( 0.000000,  0.000000, -4.575065)
  15 Mn ( 0.000000,  0.000000,  4.575052)
  16 P  ( 0.000000,  0.000000,  0.000824)
  17 P  ( 0.000000,  0.000000, -0.000965)
  18 P  ( 0.000000,  0.000000, -0.000812)
  19 P  ( 0.000000,  0.000000,  0.000918)
  20 O  ( 0.000000,  0.000000,  0.020546)
  21 O  ( 0.000000,  0.000000, -0.020749)
  22 O  ( 0.000000,  0.000000, -0.020697)
  23 O  ( 0.000000,  0.000000,  0.020704)
  24 Li ( 0.000000,  0.000000,  0.000003)
  25 Li ( 0.000000,  0.000000,  0.000003)
  26 Li ( 0.000000,  0.000000,  0.000003)
  27 Li ( 0.000000,  0.000000,  0.000003)

Energy contributions relative to reference atoms: (reference = -196157.275402)

Kinetic:       +296.902309
Potential:     -256.431123
External:        +0.000000
XC:            -267.662215
Entropy (-ST):   -0.000000
Local:           +1.780557
--------------------------
Free energy:   -225.410473
Extrapolated:  -225.410473

Spin contamination: 9.696951 electrons
Showing only first 2 kpts
                      Up                     Down
 Kpt  Band  Eigenvalues  Occupancy  Eigenvalues  Occupancy
  0    88      5.10919    0.00694      5.10867    0.00694
  0    89      5.16131    0.00694      5.16032    0.00694
  0    90      9.65199    0.00000      9.65865    0.00000
  0    91      9.67069    0.00000      9.67363    0.00000

  1    88      5.12127    0.00694      5.12049    0.00694
  1    89      5.17185    0.00694      5.16980    0.00694
  1    90      9.53422    0.00000      9.53832    0.00000
  1    91      9.54507    0.00000      9.54550    0.00000


Fermi level: 6.36991

Gap: 3.796 eV
Transition (v -> c):
  (s=0, k=68, n=89, [-0.08, 0.42, -0.38]) -> (s=0, k=86, n=90, [0.08, 0.08, 0.12])
Writing to born-0.01-12z-.gpw (mode='all')

Timing:                              incl.     excl.
-----------------------------------------------------------
Hamiltonian:                         0.210     0.002   0.0% |
 Atomic:                             0.053     0.053   0.0% |
  XC Correction:                     0.000     0.000   0.0% |
 Calculate atomic Hamiltonians:      0.066     0.066   0.0% |
 Communicate:                        0.002     0.002   0.0% |
 Initialize Hamiltonian:             0.000     0.000   0.0% |
 Poisson:                            0.001     0.001   0.0% |
 XC 3D grid:                         0.087     0.087   0.0% |
LCAO initialization:                71.360     0.648   0.0% |
 LCAO eigensolver:                  19.347     0.002   0.0% |
  Calculate projections:             0.029     0.029   0.0% |
  DenseAtomicCorrection:             0.045     0.045   0.0% |
  Distribute overlap matrix:         0.011     0.011   0.0% |
  Orbital Layouts:                   0.432     0.432   0.0% |
  Potential matrix:                 18.730    18.730   0.6% |
  Sum over cells:                    0.099     0.099   0.0% |
 LCAO to grid:                      50.025    50.025   1.5% ||
 Set positions (LCAO WFS):           1.340     0.190   0.0% |
  Basic WFS set positions:           0.001     0.001   0.0% |
  Basis functions set positions:     0.000     0.000   0.0% |
  P tci:                             0.519     0.519   0.0% |
  ST tci:                            0.381     0.381   0.0% |
  mktci:                             0.248     0.248   0.0% |
PWDescriptor:                        0.023     0.023   0.0% |
SCF-cycle:                        1132.121     2.367   0.1% |
 Davidson:                         947.312   289.503   8.9% |---|
  Apply H:                          65.515    63.648   2.0% ||
   HMM T:                            1.867     1.867   0.1% |
  Subspace diag:                   137.427     0.140   0.0% |
   calc_h_matrix:                   88.581    22.776   0.7% |
    Apply H:                        65.805    63.881   2.0% ||
     HMM T:                          1.923     1.923   0.1% |
   diagonalize:                      6.813     6.813   0.2% |
   rotate_psi:                      41.893    41.893   1.3% ||
  calc. matrices:                  285.155   155.121   4.8% |-|
   Apply H:                        130.033   126.395   3.9% |-|
    HMM T:                           3.638     3.638   0.1% |
  diagonalize:                      78.809    78.809   2.4% ||
  rotate_psi:                       90.903    90.903   2.8% ||
 Density:                           37.916     0.001   0.0% |
  Atomic density matrices:           0.791     0.791   0.0% |
  Mix:                               5.267     5.267   0.2% |
  Multipole moments:                 0.018     0.018   0.0% |
  Pseudo density:                   31.839    31.838   1.0% |
   Symmetrize density:               0.001     0.001   0.0% |
 Forces:                           131.627   131.627   4.1% |-|
 Hamiltonian:                       10.807     0.103   0.0% |
  Atomic:                            2.679     2.678   0.1% |
   XC Correction:                    0.000     0.000   0.0% |
  Calculate atomic Hamiltonians:     3.732     3.732   0.1% |
  Communicate:                       0.103     0.103   0.0% |
  Poisson:                           0.029     0.029   0.0% |
  XC 3D grid:                        4.161     4.161   0.1% |
 Orthonormalize:                     2.092     0.003   0.0% |
  calc_s_matrix:                     0.245     0.245   0.0% |
  inverse-cholesky:                  0.073     0.073   0.0% |
  projections:                       1.337     1.337   0.0% |
  rotate_psi_s:                      0.434     0.434   0.0% |
Set symmetry:                        0.000     0.000   0.0% |
Other:                            2046.080  2046.080  63.0% |------------------------|
-----------------------------------------------------------
Total:                                      3249.794 100.0%

Memory usage: 12.00 GiB
Date: Tue Mar 23 17:12:19 2021
