
  ___ ___ ___ _ _ _  
 |   |   |_  | | | | 
 | | | | | . | | | | 
 |__ |  _|___|_____|  20.10.1b1
 |___|_|             

User:   madkru@i018.nifl.fysik.dtu.dk
Date:   Wed Mar 24 03:32:57 2021
Arch:   x86_64
Pid:    26873
Python: 3.7.4
gpaw:   /home/niflheim/madkru/venv_folder/gpaw/gpaw (d0d1ca1c71)
_gpaw:  /home/niflheim/madkru/venv_folder/gpaw/build/lib.linux-x86_64-ivybridge-3.7/
        _gpaw.cpython-37m-x86_64-linux-gnu.so (4fd39e8b1e)
ase:    /home/niflheim/madkru/venv_folder/ase/ase (version 3.21.0b1-7e6c206a91)
numpy:  /home/niflheim/madkru/venv_folder/lib/python3.7/site-packages/numpy (version 1.19.4)
scipy:  /home/niflheim/madkru/venv_folder/lib/python3.7/site-packages/scipy (version 1.5.4)
libxc:  4.3.4
units:  Angstrom and eV
cores: 64
OMP_NUM_THREADS: 1

Input parameters:
  convergence: {bands: occupied,
                density: 0.0001,
                eigenstates: 4e-08,
                energy: 0.0005,
                forces: 1e-06}
  kpts: [6 6 4]
  mode: {ecut: 600.0,
         gammacentered: False,
         name: pw}
  occupations: {fixmagmom: False,
                name: fermi-dirac,
                width: 0.001}
  setups: {Mn: :d,3.0}
  symmetry: {point_group: False,
             time_reversal: False}

System changes: positions, numbers, cell, pbc, initial_charges, initial_magmoms 

Initialize ...

O-setup:
  name: Oxygen
  id: 9b9d51c344dea68c822856295a461509
  Z: 8.0
  valence: 6
  core: 2
  charge: 0.0
  file: /home/modules/software/GPAW-setups/0.9.20000/O.LDA.gz
  compensation charges: gauss, rc=0.21, lmax=2
  cutoffs: 1.17(filt), 0.83(core),
  valence states:
                energy  radius
    2s(2.00)   -23.752   0.688
    2p(4.00)    -9.195   0.598
    *s           3.459   0.688
    *p          18.016   0.598
    *d           0.000   0.619

  Using partial waves for O as LCAO basis

Mn-setup:
  name: Manganese
  id: 0d715a8018be061a6e9ea6f2d364ac92
  Z: 25.0
  valence: 15
  core: 10
  charge: 0.0
  Hubbard U: 3.000000 eV (l=2, scale=True)
  file: /home/modules/software/GPAW-setups/0.9.20000/Mn.LDA.gz
  compensation charges: gauss, rc=0.38, lmax=2
  cutoffs: 2.14(filt), 0.86(core),
  valence states:
                energy  radius
    3s(2.00)   -85.387   1.275
    4s(2.00)    -5.282   1.275
    3p(6.00)   -54.493   1.281
    4p(0.00)    -1.471   1.281
    3d(5.00)    -7.009   1.138
    *d          20.203   1.138

  Using partial waves for Mn as LCAO basis

P-setup:
  name: Phosphorus
  id: a5561c299094968922a179ab894d2e2d
  Z: 15.0
  valence: 5
  core: 10
  charge: 0.0
  file: /home/modules/software/GPAW-setups/0.9.20000/P.LDA.gz
  compensation charges: gauss, rc=0.30, lmax=2
  cutoffs: 1.69(filt), 1.81(core),
  valence states:
                energy  radius
    3s(2.00)   -14.015   0.953
    3p(3.00)    -5.596   0.953
    *s          13.197   0.953
    *p          21.615   0.953
    *d           0.000   0.953

  Using partial waves for P as LCAO basis

Li-setup:
  name: Lithium
  id: b73562207f97a71b6967473b66fe8b65
  Z: 3.0
  valence: 1
  core: 2
  charge: 0.0
  file: /home/modules/software/GPAW-setups/0.9.20000/Li.LDA.gz
  compensation charges: gauss, rc=0.33, lmax=2
  cutoffs: 1.91(filt), 2.55(core),
  valence states:
                energy  radius
    2s(1.00)    -2.874   1.058
    2p(0.00)    -1.126   1.058
    *s          24.338   1.058

  Using partial waves for Li as LCAO basis

Reference energy: -196157.275402

Spin-polarized calculation.
Magnetic moment: 0.000000

Convergence criteria:
  Maximum total energy change: 0.0005 eV / electron
  Maximum integral of absolute density change: 0.0001 electrons
  Maximum integral of absolute eigenstate change: 4e-08 eV^2
  Maximum change in atomic force: 1e-06 eV / Ang
  Maximum number of iterations: 333

Symmetries present (total): 1

  ( 1  0  0)
  ( 0  1  0)
  ( 0  0  1)

144 k-points: 6 x 6 x 4 Monkhorst-Pack grid
144 k-points in the irreducible part of the Brillouin zone
       k-points in crystal coordinates                weights
   0:    -0.41666667   -0.41666667   -0.37500000          1/144
   1:    -0.41666667   -0.41666667   -0.12500000          1/144
   2:    -0.41666667   -0.41666667    0.12500000          1/144
   3:    -0.41666667   -0.41666667    0.37500000          1/144
   4:    -0.41666667   -0.25000000   -0.37500000          1/144
   5:    -0.41666667   -0.25000000   -0.12500000          1/144
   6:    -0.41666667   -0.25000000    0.12500000          1/144
   7:    -0.41666667   -0.25000000    0.37500000          1/144
   8:    -0.41666667   -0.08333333   -0.37500000          1/144
   9:    -0.41666667   -0.08333333   -0.12500000          1/144
          ...
 143:     0.41666667    0.41666667    0.37500000          1/144

Wave functions: Plane wave expansion
  Cutoff energy: 600.000 eV
  Number of coefficients (min, max): 9238, 9284
  Pulay-stress correction: 0.000000 eV/Ang^3 (de/decut=0.000000)
  Using FFTW library
  ScaLapack parameters: grid=1x1, blocksize=None
  Wavefunction extrapolation:
    Improved wavefunction reuse through dual PAW basis 

  Fermi-Dirac: width=0.0010 eV

Eigensolver
   Davidson(niter=2, smin=None, normalize=True) 

Densities:
  Coarse grid: 60*35*27 grid
  Fine grid: 120*70*54 grid
  Total Charge: 0.000000 

Density mixing:
  Method: difference
  Backend: pulay
  Linear mixing parameter: 0.05
  Mixing with 5 old densities
  Damping of long wave oscillations: 50 

Hamiltonian:
  XC and Coulomb potentials evaluated on a 120*70*54 grid
  Using the LDA Exchange-Correlation functional
 

Memory estimate:
  Process memory now: 12804.35 MiB
  Calculator: 326.59 MiB
    Density: 9.67 MiB
      Arrays: 3.79 MiB
      Localized functions: 4.32 MiB
      Mixer: 1.56 MiB
    Hamiltonian: 2.94 MiB
      Arrays: 2.82 MiB
      XC: 0.00 MiB
      Poisson: 0.00 MiB
      vbar: 0.12 MiB
    Wavefunctions: 313.97 MiB
      Arrays psit_nG: 285.59 MiB
      Eigensolver: 18.49 MiB
      Projections: 2.71 MiB
      Projectors: 4.46 MiB
      PW-descriptor: 2.72 MiB

Total number of cores used: 64
Parallelization over k-points: 16
Domain decomposition: 2 x 2 x 1

Number of atoms: 28
Number of atomic orbitals: 148
Number of bands in calculation: 112
Number of valence electrons: 180
Bands to converge: occupied

... initialized

Initializing position-dependent things.

Density initialized from atomic densities
Creating initial wave functions:
  112 bands from LCAO basis set

                                           
                                           
                                           
                                           
                                           
               O     O  P  O               
            PO           OMn     O         
                  O          MO            
            O        Li O                  
             Mn  On          OP            
         O         Li O                    
         Li     O P         O              
       Li                                  
                                           
                                           
                                           
                                           

Positions:
   0 O     -1.263197   -2.497779   -1.098475    ( 0.0000,  0.0000,  0.0000)
   1 O     -3.070823    2.922496    1.209491    ( 0.0000,  0.0000,  0.0000)
   2 O      1.985541    0.474863    1.428016    ( 0.0000,  0.0000,  0.0000)
   3 O      3.793120   -0.050100   -0.879950    ( 0.0000,  0.0000,  0.0000)
   4 O      1.985518    2.922485    1.428149    ( 0.0000,  0.0000,  0.0000)
   5 O      3.793144   -2.497790   -0.879818    ( 0.0000,  0.0000,  0.0000)
   6 O     -1.263220   -0.050157   -1.098342    ( 0.0000,  0.0000,  0.0000)
   7 O     -3.070798    0.474805    1.209623    ( 0.0000,  0.0000,  0.0000)
   8 O     -4.167835   -1.273920   -0.862116    ( 0.0000,  0.0000,  0.0000)
   9 O     -0.166037    1.698602    1.445528    ( 0.0000,  0.0000,  0.0000)
  10 O      4.890156    1.698625    1.191790    ( 0.0000,  0.0000,  0.0000)
  11 O      0.888358   -1.273896   -1.115855    ( 0.0000,  0.0000,  0.0000)
  12 Mn    -2.445557   -1.274211    0.312921    ( 0.0000,  0.0000,  1.0000)
  13 Mn    -1.888303    1.698892   -1.994948    ( 0.0000,  0.0000, -1.0000)
  14 Mn     3.167879    1.698917    0.016752    ( 0.0000,  0.0000, -1.0000)
  15 Mn     2.610624   -1.274187    2.324621    ( 0.0000,  0.0000,  1.0000)
  16 P     -0.529549   -1.263917   -1.724376    ( 0.0000,  0.0000,  0.0000)
  17 P     -3.804359    1.698599    0.583463    ( 0.0000,  0.0000,  0.0000)
  18 P      1.251870    1.698623    2.054050    ( 0.0000,  0.0000,  0.0000)
  19 P      4.526680   -1.273894   -0.253789    ( 0.0000,  0.0000,  0.0000)
  20 O     -0.544227   -1.273926    1.365380    ( 0.0000,  0.0000,  0.0000)
  21 O     -3.789411    1.698610   -0.942222    ( 0.0000,  0.0000,  0.0000)
  22 O      1.266548    1.698631   -1.035707    ( 0.0000,  0.0000,  0.0000)
  23 O      4.511733   -1.273905    1.271895    ( 0.0000,  0.0000,  0.0000)
  24 Li    -4.695087   -2.760584   -2.142877    ( 0.0000,  0.0000,  0.0000)
  25 Li     0.361147   -2.760561    0.164836    ( 0.0000,  0.0000,  0.0000)
  26 Li    -4.695074    0.212330   -2.142877    ( 0.0000,  0.0000,  0.0000)
  27 Li     0.361161    0.212353    0.164837    ( 0.0000,  0.0000,  0.0000)

Unit cell:
           periodic     x           y           z      points  spacing
  1. axis:    yes   10.112485    0.000045   -0.000035    60     0.1685
  2. axis:    yes    0.000026    5.945827    0.000001    35     0.1699
  3. axis:    yes   -0.000016    0.000000    4.615463    27     0.1709

  Lengths:  10.112485   5.945827   4.615463
  Angles:   89.999989  90.000396  89.999490

Effective grid spacing dv^(1/3) = 0.1698

                     log10-error:           total        iterations:
           time      wfs    density  force  energy       poisson  magmom
iter:   1  03:34:29                       -221.374688             +0.0000
iter:   2  03:34:49  -0.61  -0.93         -234.833888             +0.0000
iter:   3  03:35:09  -0.37  -0.97         -225.909717             -0.0000
iter:   4  03:35:29  -1.39  -1.29         -225.759203             +0.0000
iter:   5  03:35:49  -1.27  -1.39         -227.327115             +0.0000
iter:   6  03:36:09  -1.46  -1.46         -225.734885             +0.0000
iter:   7  03:36:29  -2.47  -2.04         -225.722006             +0.0000
iter:   8  03:36:49  -2.13  -1.99         -225.594944             +0.0000
iter:   9  03:37:09  -2.45  -2.08         -225.429550             +0.0000
iter:  10  03:37:29  -3.31  -2.55         -225.419772             +0.0000
iter:  11  03:37:49  -3.67  -2.81         -225.409715             +0.0000
iter:  12  03:38:09  -4.12  -3.04         -225.408528             +0.0000
iter:  13  03:38:29  -5.11  -3.29         -225.408392             +0.0000
iter:  14  03:38:49  -5.37  -3.32         -225.408229             +0.0000
iter:  15  03:39:08  -6.05  -3.43         -225.408226             +0.0000
iter:  16  03:39:28  -5.28  -3.47         -225.408525             -0.0000
iter:  17  03:39:48  -5.79  -3.59         -225.408438             +0.0000
iter:  18  03:40:08  -5.32  -3.72         -225.408170             -0.0000
iter:  19  03:40:28  -6.04  -4.03         -225.408179             +0.0000
iter:  20  03:40:48  -7.09  -4.31         -225.408174             +0.0000
iter:  21  03:41:13  -7.59  -4.36         -225.408177             +0.0000
iter:  22  03:41:37  -7.42  -4.47    -2.32-225.408179             +0.0000
iter:  23  03:42:02  -8.22  -4.45    -3.18-225.408177             +0.0000
iter:  24  03:42:22  -7.35  -4.49         -225.408175             +0.0000
iter:  25  03:42:46  -8.33  -4.64    -2.66-225.408175             +0.0000
iter:  26  03:43:11  -7.95  -4.67    -2.57-225.408175             +0.0000
iter:  27  03:43:35  -8.60  -5.00    -2.86-225.408175             +0.0000
iter:  28  03:44:00  -8.99  -5.21    -3.38-225.408175             +0.0000
iter:  29  03:44:25  -8.41  -5.24    -2.71-225.408175             +0.0000
iter:  30  03:44:49  -8.96  -5.42    -3.17-225.408175             +0.0000
iter:  31  03:45:14  -9.98  -5.62    -3.79-225.408175             +0.0000
iter:  32  03:45:38  -9.53  -5.76    -3.60-225.408175             +0.0000
iter:  33  03:46:03 -10.49  -5.90    -3.89-225.408175             +0.0000
iter:  34  03:46:28 -11.21  -6.07    -4.50-225.408175             +0.0000
iter:  35  03:46:52 -10.82  -6.12    -3.71-225.408175             +0.0000
iter:  36  03:47:17 -11.08  -6.34    -4.41-225.408175             +0.0000
iter:  37  03:47:42 -12.18  -6.73    -5.15-225.408175             +0.0000
iter:  38  03:48:06 -11.86  -6.77    -4.53-225.408175             +0.0000
iter:  39  03:48:31 -12.35  -6.80    -5.15-225.408175             +0.0000
iter:  40  03:48:55 -12.37  -6.88    -4.81-225.408175             +0.0000
iter:  41  03:49:20 -12.28  -6.98    -5.12-225.408175             +0.0000
iter:  42  03:49:44 -13.23  -7.06    -5.04-225.408175             +0.0000
iter:  43  03:50:09 -13.65  -7.10    -5.49-225.408175             +0.0000
iter:  44  03:50:34 -12.80  -7.12    -4.83-225.408175             +0.0000
iter:  45  03:50:58 -12.66  -7.39    -5.15-225.408175             +0.0000
iter:  46  03:51:23 -13.95  -7.94    -5.92-225.408175             +0.0000
iter:  47  03:51:47 -14.97  -7.94    -6.69-225.408175             +0.0000

Converged after 47 iterations.

Dipole moment: (19.052631, -1.399889, -4.182754) |e|*Ang

Total magnetic moment: (0.000000, 0.000000, 0.000000)
Local magnetic moments:
   0 O  ( 0.000000,  0.000000,  0.000762)
   1 O  ( 0.000000,  0.000000, -0.000662)
   2 O  ( 0.000000,  0.000000, -0.000645)
   3 O  ( 0.000000,  0.000000,  0.000665)
   4 O  ( 0.000000,  0.000000, -0.000679)
   5 O  ( 0.000000,  0.000000,  0.000675)
   6 O  ( 0.000000,  0.000000,  0.000555)
   7 O  ( 0.000000,  0.000000, -0.000679)
   8 O  ( 0.000000,  0.000000,  0.022368)
   9 O  ( 0.000000,  0.000000, -0.022368)
  10 O  ( 0.000000,  0.000000, -0.022368)
  11 O  ( 0.000000,  0.000000,  0.022368)
  12 Mn ( 0.000000,  0.000000,  4.575058)
  13 Mn ( 0.000000,  0.000000, -4.575025)
  14 Mn ( 0.000000,  0.000000, -4.575065)
  15 Mn ( 0.000000,  0.000000,  4.575034)
  16 P  ( 0.000000,  0.000000,  0.000814)
  17 P  ( 0.000000,  0.000000, -0.000817)
  18 P  ( 0.000000,  0.000000, -0.000812)
  19 P  ( 0.000000,  0.000000,  0.000817)
  20 O  ( 0.000000,  0.000000,  0.020709)
  21 O  ( 0.000000,  0.000000, -0.020708)
  22 O  ( 0.000000,  0.000000, -0.020708)
  23 O  ( 0.000000,  0.000000,  0.020708)
  24 Li ( 0.000000,  0.000000, -0.000000)
  25 Li ( 0.000000,  0.000000, -0.000006)
  26 Li ( 0.000000,  0.000000,  0.000000)
  27 Li ( 0.000000,  0.000000,  0.000006)

Energy contributions relative to reference atoms: (reference = -196157.275402)

Kinetic:       +296.851786
Potential:     -256.391362
External:        +0.000000
XC:            -267.649326
Entropy (-ST):   -0.000000
Local:           +1.780727
--------------------------
Free energy:   -225.408175
Extrapolated:  -225.408175

Spin contamination: 9.697228 electrons
Showing only first 2 kpts
                      Up                     Down
 Kpt  Band  Eigenvalues  Occupancy  Eigenvalues  Occupancy
  0    88      5.10934    0.00694      5.10961    0.00694
  0    89      5.16130    0.00694      5.16097    0.00694
  0    90      9.65224    0.00000      9.65232    0.00000
  0    91      9.67098    0.00000      9.67098    0.00000

  1    88      5.12128    0.00694      5.12107    0.00694
  1    89      5.17044    0.00694      5.17041    0.00694
  1    90      9.53450    0.00000      9.53461    0.00000
  1    91      9.54484    0.00000      9.54479    0.00000


Fermi level: 6.36989

Gap: 3.795 eV
Transition (v -> c):
  (s=0, k=95, n=89, [0.08, 0.42, 0.38]) -> (s=1, k=81, n=90, [0.08, -0.08, -0.12])
Writing to born-0.01-16y+.gpw (mode='all')

Timing:                              incl.     excl.
-----------------------------------------------------------
Hamiltonian:                         0.225     0.002   0.0% |
 Atomic:                             0.062     0.062   0.0% |
  XC Correction:                     0.000     0.000   0.0% |
 Calculate atomic Hamiltonians:      0.075     0.075   0.0% |
 Communicate:                        0.002     0.002   0.0% |
 Initialize Hamiltonian:             0.000     0.000   0.0% |
 Poisson:                            0.001     0.001   0.0% |
 XC 3D grid:                         0.083     0.083   0.0% |
LCAO initialization:                67.247     0.650   0.0% |
 LCAO eigensolver:                  19.171     0.002   0.0% |
  Calculate projections:             0.029     0.029   0.0% |
  DenseAtomicCorrection:             0.045     0.045   0.0% |
  Distribute overlap matrix:         0.009     0.009   0.0% |
  Orbital Layouts:                   0.433     0.433   0.0% |
  Potential matrix:                 18.554    18.554   0.6% |
  Sum over cells:                    0.101     0.101   0.0% |
 LCAO to grid:                      46.067    46.067   1.6% ||
 Set positions (LCAO WFS):           1.358     0.190   0.0% |
  Basic WFS set positions:           0.001     0.001   0.0% |
  Basis functions set positions:     0.000     0.000   0.0% |
  P tci:                             0.525     0.525   0.0% |
  ST tci:                            0.384     0.384   0.0% |
  mktci:                             0.257     0.257   0.0% |
PWDescriptor:                        0.023     0.023   0.0% |
SCF-cycle:                        1061.992     2.825   0.1% |
 Davidson:                         888.807   272.613   9.2% |---|
  Apply H:                          61.206    59.411   2.0% ||
   HMM T:                            1.795     1.795   0.1% |
  Subspace diag:                   128.817     0.135   0.0% |
   calc_h_matrix:                   82.841    21.472   0.7% |
    Apply H:                        61.369    59.542   2.0% ||
     HMM T:                          1.827     1.827   0.1% |
   diagonalize:                      6.419     6.419   0.2% |
   rotate_psi:                      39.422    39.422   1.3% ||
  calc. matrices:                  266.270   145.866   4.9% |-|
   Apply H:                        120.403   117.044   4.0% |-|
    HMM T:                           3.360     3.360   0.1% |
  diagonalize:                      74.480    74.480   2.5% ||
  rotate_psi:                       85.423    85.423   2.9% ||
 Density:                           36.022     0.001   0.0% |
  Atomic density matrices:           0.789     0.789   0.0% |
  Mix:                               4.917     4.917   0.2% |
  Multipole moments:                 0.017     0.017   0.0% |
  Pseudo density:                   30.298    30.297   1.0% |
   Symmetrize density:               0.001     0.001   0.0% |
 Forces:                           122.078   122.078   4.1% |-|
 Hamiltonian:                       10.168     0.099   0.0% |
  Atomic:                            2.497     2.497   0.1% |
   XC Correction:                    0.000     0.000   0.0% |
  Calculate atomic Hamiltonians:     3.517     3.517   0.1% |
  Communicate:                       0.093     0.093   0.0% |
  Poisson:                           0.028     0.028   0.0% |
  XC 3D grid:                        3.933     3.933   0.1% |
 Orthonormalize:                     2.092     0.003   0.0% |
  calc_s_matrix:                     0.245     0.245   0.0% |
  inverse-cholesky:                  0.074     0.074   0.0% |
  projections:                       1.335     1.335   0.0% |
  rotate_psi_s:                      0.435     0.435   0.0% |
Set symmetry:                        0.000     0.000   0.0% |
Other:                            1826.379  1826.379  61.8% |------------------------|
-----------------------------------------------------------
Total:                                      2955.866 100.0%

Memory usage: 12.51 GiB
Date: Wed Mar 24 04:22:13 2021
