
  ___ ___ ___ _ _ _  
 |   |   |_  | | | | 
 | | | | | . | | | | 
 |__ |  _|___|_____|  20.10.1b1
 |___|_|             

User:   madkru@i018.nifl.fysik.dtu.dk
Date:   Tue Mar 23 20:40:42 2021
Arch:   x86_64
Pid:    26873
Python: 3.7.4
gpaw:   /home/niflheim/madkru/venv_folder/gpaw/gpaw (d0d1ca1c71)
_gpaw:  /home/niflheim/madkru/venv_folder/gpaw/build/lib.linux-x86_64-ivybridge-3.7/
        _gpaw.cpython-37m-x86_64-linux-gnu.so (4fd39e8b1e)
ase:    /home/niflheim/madkru/venv_folder/ase/ase (version 3.21.0b1-7e6c206a91)
numpy:  /home/niflheim/madkru/venv_folder/lib/python3.7/site-packages/numpy (version 1.19.4)
scipy:  /home/niflheim/madkru/venv_folder/lib/python3.7/site-packages/scipy (version 1.5.4)
libxc:  4.3.4
units:  Angstrom and eV
cores: 64
OMP_NUM_THREADS: 1

Input parameters:
  convergence: {bands: occupied,
                density: 0.0001,
                eigenstates: 4e-08,
                energy: 0.0005,
                forces: 1e-06}
  kpts: [6 6 4]
  mode: {ecut: 600.0,
         gammacentered: False,
         name: pw}
  occupations: {fixmagmom: False,
                name: fermi-dirac,
                width: 0.001}
  setups: {Mn: :d,3.0}
  symmetry: {point_group: False,
             time_reversal: False}

System changes: positions, numbers, cell, pbc, initial_charges, initial_magmoms 

Initialize ...

O-setup:
  name: Oxygen
  id: 9b9d51c344dea68c822856295a461509
  Z: 8.0
  valence: 6
  core: 2
  charge: 0.0
  file: /home/modules/software/GPAW-setups/0.9.20000/O.LDA.gz
  compensation charges: gauss, rc=0.21, lmax=2
  cutoffs: 1.17(filt), 0.83(core),
  valence states:
                energy  radius
    2s(2.00)   -23.752   0.688
    2p(4.00)    -9.195   0.598
    *s           3.459   0.688
    *p          18.016   0.598
    *d           0.000   0.619

  Using partial waves for O as LCAO basis

Mn-setup:
  name: Manganese
  id: 0d715a8018be061a6e9ea6f2d364ac92
  Z: 25.0
  valence: 15
  core: 10
  charge: 0.0
  Hubbard U: 3.000000 eV (l=2, scale=True)
  file: /home/modules/software/GPAW-setups/0.9.20000/Mn.LDA.gz
  compensation charges: gauss, rc=0.38, lmax=2
  cutoffs: 2.14(filt), 0.86(core),
  valence states:
                energy  radius
    3s(2.00)   -85.387   1.275
    4s(2.00)    -5.282   1.275
    3p(6.00)   -54.493   1.281
    4p(0.00)    -1.471   1.281
    3d(5.00)    -7.009   1.138
    *d          20.203   1.138

  Using partial waves for Mn as LCAO basis

P-setup:
  name: Phosphorus
  id: a5561c299094968922a179ab894d2e2d
  Z: 15.0
  valence: 5
  core: 10
  charge: 0.0
  file: /home/modules/software/GPAW-setups/0.9.20000/P.LDA.gz
  compensation charges: gauss, rc=0.30, lmax=2
  cutoffs: 1.69(filt), 1.81(core),
  valence states:
                energy  radius
    3s(2.00)   -14.015   0.953
    3p(3.00)    -5.596   0.953
    *s          13.197   0.953
    *p          21.615   0.953
    *d           0.000   0.953

  Using partial waves for P as LCAO basis

Li-setup:
  name: Lithium
  id: b73562207f97a71b6967473b66fe8b65
  Z: 3.0
  valence: 1
  core: 2
  charge: 0.0
  file: /home/modules/software/GPAW-setups/0.9.20000/Li.LDA.gz
  compensation charges: gauss, rc=0.33, lmax=2
  cutoffs: 1.91(filt), 2.55(core),
  valence states:
                energy  radius
    2s(1.00)    -2.874   1.058
    2p(0.00)    -1.126   1.058
    *s          24.338   1.058

  Using partial waves for Li as LCAO basis

Reference energy: -196157.275402

Spin-polarized calculation.
Magnetic moment: 0.000000

Convergence criteria:
  Maximum total energy change: 0.0005 eV / electron
  Maximum integral of absolute density change: 0.0001 electrons
  Maximum integral of absolute eigenstate change: 4e-08 eV^2
  Maximum change in atomic force: 1e-06 eV / Ang
  Maximum number of iterations: 333

Symmetries present (total): 1

  ( 1  0  0)
  ( 0  1  0)
  ( 0  0  1)

144 k-points: 6 x 6 x 4 Monkhorst-Pack grid
144 k-points in the irreducible part of the Brillouin zone
       k-points in crystal coordinates                weights
   0:    -0.41666667   -0.41666667   -0.37500000          1/144
   1:    -0.41666667   -0.41666667   -0.12500000          1/144
   2:    -0.41666667   -0.41666667    0.12500000          1/144
   3:    -0.41666667   -0.41666667    0.37500000          1/144
   4:    -0.41666667   -0.25000000   -0.37500000          1/144
   5:    -0.41666667   -0.25000000   -0.12500000          1/144
   6:    -0.41666667   -0.25000000    0.12500000          1/144
   7:    -0.41666667   -0.25000000    0.37500000          1/144
   8:    -0.41666667   -0.08333333   -0.37500000          1/144
   9:    -0.41666667   -0.08333333   -0.12500000          1/144
          ...
 143:     0.41666667    0.41666667    0.37500000          1/144

Wave functions: Plane wave expansion
  Cutoff energy: 600.000 eV
  Number of coefficients (min, max): 9238, 9284
  Pulay-stress correction: 0.000000 eV/Ang^3 (de/decut=0.000000)
  Using FFTW library
  ScaLapack parameters: grid=1x1, blocksize=None
  Wavefunction extrapolation:
    Improved wavefunction reuse through dual PAW basis 

  Fermi-Dirac: width=0.0010 eV

Eigensolver
   Davidson(niter=2, smin=None, normalize=True) 

Densities:
  Coarse grid: 60*35*27 grid
  Fine grid: 120*70*54 grid
  Total Charge: 0.000000 

Density mixing:
  Method: difference
  Backend: pulay
  Linear mixing parameter: 0.05
  Mixing with 5 old densities
  Damping of long wave oscillations: 50 

Hamiltonian:
  XC and Coulomb potentials evaluated on a 120*70*54 grid
  Using the LDA Exchange-Correlation functional
 

Memory estimate:
  Process memory now: 12473.29 MiB
  Calculator: 326.59 MiB
    Density: 9.67 MiB
      Arrays: 3.79 MiB
      Localized functions: 4.32 MiB
      Mixer: 1.56 MiB
    Hamiltonian: 2.94 MiB
      Arrays: 2.82 MiB
      XC: 0.00 MiB
      Poisson: 0.00 MiB
      vbar: 0.12 MiB
    Wavefunctions: 313.97 MiB
      Arrays psit_nG: 285.59 MiB
      Eigensolver: 18.49 MiB
      Projections: 2.71 MiB
      Projectors: 4.46 MiB
      PW-descriptor: 2.72 MiB

Total number of cores used: 64
Parallelization over k-points: 16
Domain decomposition: 2 x 2 x 1

Number of atoms: 28
Number of atomic orbitals: 148
Number of bands in calculation: 112
Number of valence electrons: 180
Bands to converge: occupied

... initialized

Initializing position-dependent things.

Density initialized from atomic densities
Creating initial wave functions:
  112 bands from LCAO basis set

                                           
                                           
                                           
                                           
                                           
               O     O  P  O               
            PO           OMn     O         
                  O          MO            
            O        Li O                  
             Mn  On          OP            
         O         Li O                    
         Li     O P         O              
       Li                                  
                                           
                                           
                                           
                                           

Positions:
   0 O     -1.263197   -2.497779   -1.098475    ( 0.0000,  0.0000,  0.0000)
   1 O     -3.070823    2.922496    1.209491    ( 0.0000,  0.0000,  0.0000)
   2 O      1.985541    0.474863    1.428016    ( 0.0000,  0.0000,  0.0000)
   3 O      3.793120   -0.050100   -0.879950    ( 0.0000,  0.0000,  0.0000)
   4 O      1.985518    2.922485    1.428149    ( 0.0000,  0.0000,  0.0000)
   5 O      3.793144   -2.497790   -0.879818    ( 0.0000,  0.0000,  0.0000)
   6 O     -1.263220   -0.050157   -1.098342    ( 0.0000,  0.0000,  0.0000)
   7 O     -3.070798    0.474805    1.209623    ( 0.0000,  0.0000,  0.0000)
   8 O     -4.167835   -1.273920   -0.862116    ( 0.0000,  0.0000,  0.0000)
   9 O     -0.166037    1.698602    1.445528    ( 0.0000,  0.0000,  0.0000)
  10 O      4.890156    1.698625    1.191790    ( 0.0000,  0.0000,  0.0000)
  11 O      0.888358   -1.273896   -1.115855    ( 0.0000,  0.0000,  0.0000)
  12 Mn    -2.445557   -1.274211    0.312921    ( 0.0000,  0.0000,  1.0000)
  13 Mn    -1.888303    1.698892   -1.994948    ( 0.0000,  0.0000, -1.0000)
  14 Mn     3.177879    1.698917    0.016752    ( 0.0000,  0.0000, -1.0000)
  15 Mn     2.610624   -1.274187    2.324621    ( 0.0000,  0.0000,  1.0000)
  16 P     -0.529549   -1.273917   -1.724376    ( 0.0000,  0.0000,  0.0000)
  17 P     -3.804359    1.698599    0.583463    ( 0.0000,  0.0000,  0.0000)
  18 P      1.251870    1.698623    2.054050    ( 0.0000,  0.0000,  0.0000)
  19 P      4.526680   -1.273894   -0.253789    ( 0.0000,  0.0000,  0.0000)
  20 O     -0.544227   -1.273926    1.365380    ( 0.0000,  0.0000,  0.0000)
  21 O     -3.789411    1.698610   -0.942222    ( 0.0000,  0.0000,  0.0000)
  22 O      1.266548    1.698631   -1.035707    ( 0.0000,  0.0000,  0.0000)
  23 O      4.511733   -1.273905    1.271895    ( 0.0000,  0.0000,  0.0000)
  24 Li    -4.695087   -2.760584   -2.142877    ( 0.0000,  0.0000,  0.0000)
  25 Li     0.361147   -2.760561    0.164836    ( 0.0000,  0.0000,  0.0000)
  26 Li    -4.695074    0.212330   -2.142877    ( 0.0000,  0.0000,  0.0000)
  27 Li     0.361161    0.212353    0.164837    ( 0.0000,  0.0000,  0.0000)

Unit cell:
           periodic     x           y           z      points  spacing
  1. axis:    yes   10.112485    0.000045   -0.000035    60     0.1685
  2. axis:    yes    0.000026    5.945827    0.000001    35     0.1699
  3. axis:    yes   -0.000016    0.000000    4.615463    27     0.1709

  Lengths:  10.112485   5.945827   4.615463
  Angles:   89.999989  90.000396  89.999490

Effective grid spacing dv^(1/3) = 0.1698

                     log10-error:           total        iterations:
           time      wfs    density  force  energy       poisson  magmom
iter:   1  20:42:16                       -221.376819             +0.0000
iter:   2  20:42:36  -0.61  -0.93         -234.841845             +0.0000
iter:   3  20:42:56  -0.37  -0.97         -225.914335             -0.0000
iter:   4  20:43:16  -1.39  -1.29         -225.761380             +0.0000
iter:   5  20:43:36  -1.27  -1.39         -227.335546             +0.0000
iter:   6  20:43:56  -1.46  -1.46         -225.736876             +0.0000
iter:   7  20:44:16  -2.47  -2.04         -225.724913             +0.0000
iter:   8  20:44:36  -2.17  -1.99         -225.577871             +0.0000
iter:   9  20:44:56  -2.48  -2.11         -225.433229             +0.0000
iter:  10  20:45:16  -3.30  -2.53         -225.422391             +0.0000
iter:  11  20:45:36  -3.60  -2.80         -225.411478             +0.0000
iter:  12  20:45:55  -4.19  -3.06         -225.410544             +0.0000
iter:  13  20:46:15  -5.14  -3.30         -225.410475             -0.0000
iter:  14  20:46:35  -5.37  -3.32         -225.410283             -0.0000
iter:  15  20:46:55  -5.97  -3.44         -225.410302             -0.0000
iter:  16  20:47:15  -5.19  -3.48         -225.410703             +0.0000
iter:  17  20:47:35  -6.13  -3.56         -225.410545             -0.0000
iter:  18  20:47:55  -5.69  -3.66         -225.410335             +0.0000
iter:  19  20:48:15  -6.72  -3.93         -225.410344             -0.0000
iter:  20  20:48:35  -5.91  -4.05         -225.410267             -0.0000
iter:  21  20:48:55  -6.67  -4.17         -225.410251             -0.0000
iter:  22  20:49:15  -7.18  -4.21         -225.410254             -0.0000
iter:  23  20:49:40  -7.40  -4.25         -225.410251             -0.0000
iter:  24  20:50:04  -7.42  -4.32    -2.45-225.410248             -0.0000
iter:  25  20:50:29  -7.90  -4.35    -2.98-225.410248             -0.0000
iter:  26  20:50:54  -7.78  -4.50    -2.47-225.410249             -0.0000
iter:  27  20:51:18  -8.51  -4.84    -3.29-225.410248             -0.0000
iter:  28  20:51:43  -7.44  -4.90    -2.85-225.410247             -0.0000
iter:  29  20:52:07  -8.68  -5.19    -3.43-225.410247             -0.0000
iter:  30  20:52:32  -9.31  -5.25    -3.70-225.410247             -0.0000
iter:  31  20:52:56  -8.81  -5.29    -3.40-225.410247             -0.0000
iter:  32  20:53:21  -9.64  -5.37    -3.61-225.410247             -0.0000
iter:  33  20:53:45  -9.51  -5.44    -3.49-225.410247             -0.0000
iter:  34  20:54:10  -9.49  -5.50    -3.32-225.410247             -0.0000
iter:  35  20:54:34 -10.18  -5.65    -3.95-225.410247             -0.0000
iter:  36  20:54:59 -10.66  -5.69    -4.06-225.410247             -0.0000
iter:  37  20:55:23 -11.11  -5.77    -4.23-225.410247             -0.0000
iter:  38  20:55:48 -10.74  -5.84    -3.73-225.410247             -0.0000
iter:  39  20:56:13 -10.88  -6.07    -4.47-225.410247             -0.0000
iter:  40  20:56:37 -10.27  -6.09    -4.25-225.410247             -0.0000
iter:  41  20:57:01 -11.51  -6.21    -4.79-225.410247             -0.0000
iter:  42  20:57:26 -10.97  -6.25    -3.91-225.410247             -0.0000
iter:  43  20:57:50 -11.29  -6.53    -4.71-225.410247             -0.0000
iter:  44  20:58:15 -12.49  -6.71    -5.23-225.410247             -0.0000
iter:  45  20:58:39 -12.21  -6.75    -4.86-225.410247             -0.0000
iter:  46  20:59:04 -12.45  -6.83    -5.34-225.410247             -0.0000
iter:  47  20:59:28 -12.62  -6.91    -5.01-225.410247             -0.0000
iter:  48  20:59:53 -12.63  -6.97    -4.78-225.410247             -0.0000
iter:  49  21:00:18 -13.08  -6.99    -5.52-225.410247             -0.0000
iter:  50  21:00:42 -12.83  -7.00    -4.78-225.410247             -0.0000
iter:  51  21:01:06 -13.55  -7.15    -5.72-225.410247             -0.0000
iter:  52  21:01:31 -13.66  -7.18    -5.45-225.410247             -0.0000
iter:  53  21:01:55 -12.93  -7.25    -5.01-225.410247             -0.0000
iter:  54  21:02:20 -12.90  -7.37    -5.17-225.410247             -0.0000
iter:  55  21:02:44 -14.05  -7.45    -5.44-225.410247             -0.0000
iter:  56  21:03:09 -13.72  -7.49    -5.47-225.410247             -0.0000
iter:  57  21:03:34 -13.94  -7.61    -5.34-225.410247             -0.0000
iter:  58  21:03:58 -13.61  -7.82    -5.99-225.410247             -0.0000
iter:  59  21:04:23 -14.16  -8.03    -6.23-225.410247             -0.0000

Converged after 59 iterations.

Dipole moment: (19.062275, -1.425949, -4.183110) |e|*Ang

Total magnetic moment: (0.000000, 0.000000, -0.000000)
Local magnetic moments:
   0 O  ( 0.000000,  0.000000,  0.000681)
   1 O  ( 0.000000,  0.000000, -0.000690)
   2 O  ( 0.000000,  0.000000, -0.000364)
   3 O  ( 0.000000,  0.000000,  0.000508)
   4 O  ( 0.000000,  0.000000, -0.000368)
   5 O  ( 0.000000,  0.000000,  0.000512)
   6 O  ( 0.000000,  0.000000,  0.000677)
   7 O  ( 0.000000,  0.000000, -0.000686)
   8 O  ( 0.000000,  0.000000,  0.022349)
   9 O  ( 0.000000,  0.000000, -0.022410)
  10 O  ( 0.000000,  0.000000, -0.022696)
  11 O  ( 0.000000,  0.000000,  0.022389)
  12 Mn ( 0.000000,  0.000000,  4.575066)
  13 Mn ( 0.000000,  0.000000, -4.575049)
  14 Mn ( 0.000000,  0.000000, -4.574810)
  15 Mn ( 0.000000,  0.000000,  4.575097)
  16 P  ( 0.000000,  0.000000,  0.000814)
  17 P  ( 0.000000,  0.000000, -0.000922)
  18 P  ( 0.000000,  0.000000, -0.000656)
  19 P  ( 0.000000,  0.000000,  0.000757)
  20 O  ( 0.000000,  0.000000,  0.020730)
  21 O  ( 0.000000,  0.000000, -0.020704)
  22 O  ( 0.000000,  0.000000, -0.020451)
  23 O  ( 0.000000,  0.000000,  0.020670)
  24 Li ( 0.000000,  0.000000, -0.000014)
  25 Li ( 0.000000,  0.000000, -0.000003)
  26 Li ( 0.000000,  0.000000, -0.000014)
  27 Li ( 0.000000,  0.000000, -0.000003)

Energy contributions relative to reference atoms: (reference = -196157.275402)

Kinetic:       +296.850240
Potential:     -256.396430
External:        +0.000000
XC:            -267.644684
Entropy (-ST):   -0.000000
Local:           +1.780627
--------------------------
Free energy:   -225.410247
Extrapolated:  -225.410247

Spin contamination: 9.697500 electrons
Showing only first 2 kpts
                      Up                     Down
 Kpt  Band  Eigenvalues  Occupancy  Eigenvalues  Occupancy
  0    88      5.11028    0.00694      5.11085    0.00694
  0    89      5.16193    0.00694      5.16385    0.00694
  0    90      9.65339    0.00000      9.65104    0.00000
  0    91      9.67022    0.00000      9.67359    0.00000

  1    88      5.12167    0.00694      5.12225    0.00694
  1    89      5.17125    0.00694      5.17307    0.00694
  1    90      9.53408    0.00000      9.53273    0.00000
  1    91      9.54362    0.00000      9.54791    0.00000


Fermi level: 6.37071

Gap: 3.791 eV
Transition (v -> c):
  (s=1, k=75, n=89, [0.08, -0.42, 0.38]) -> (s=0, k=57, n=90, [-0.08, -0.08, -0.12])
Writing to born-0.01-14x+.gpw (mode='all')

Timing:                              incl.     excl.
-----------------------------------------------------------
Hamiltonian:                         0.222     0.002   0.0% |
 Atomic:                             0.059     0.059   0.0% |
  XC Correction:                     0.000     0.000   0.0% |
 Calculate atomic Hamiltonians:      0.074     0.074   0.0% |
 Communicate:                        0.001     0.001   0.0% |
 Initialize Hamiltonian:             0.000     0.000   0.0% |
 Poisson:                            0.001     0.001   0.0% |
 XC 3D grid:                         0.083     0.083   0.0% |
LCAO initialization:                70.215     0.651   0.0% |
 LCAO eigensolver:                  19.427     0.002   0.0% |
  Calculate projections:             0.029     0.029   0.0% |
  DenseAtomicCorrection:             0.045     0.045   0.0% |
  Distribute overlap matrix:         0.214     0.214   0.0% |
  Orbital Layouts:                   0.433     0.433   0.0% |
  Potential matrix:                 18.605    18.605   0.6% |
  Sum over cells:                    0.099     0.099   0.0% |
 LCAO to grid:                      48.802    48.802   1.6% ||
 Set positions (LCAO WFS):           1.335     0.189   0.0% |
  Basic WFS set positions:           0.001     0.001   0.0% |
  Basis functions set positions:     0.000     0.000   0.0% |
  P tci:                             0.549     0.549   0.0% |
  ST tci:                            0.381     0.381   0.0% |
  mktci:                             0.215     0.215   0.0% |
PWDescriptor:                        0.023     0.023   0.0% |
SCF-cycle:                        1348.884     1.428   0.0% |
 Davidson:                        1113.430   341.839  11.0% |---|
  Apply H:                          76.515    74.259   2.4% ||
   HMM T:                            2.256     2.256   0.1% |
  Subspace diag:                   161.509     0.167   0.0% |
   calc_h_matrix:                  103.948    26.919   0.9% |
    Apply H:                        77.030    74.722   2.4% ||
     HMM T:                          2.307     2.307   0.1% |
   diagonalize:                      7.987     7.987   0.3% |
   rotate_psi:                      49.406    49.406   1.6% ||
  calc. matrices:                  333.432   182.995   5.9% |-|
   Apply H:                        150.437   146.124   4.7% |-|
    HMM T:                           4.313     4.313   0.1% |
  diagonalize:                      93.044    93.044   3.0% ||
  rotate_psi:                      107.091   107.091   3.4% ||
 Density:                           44.864     0.001   0.0% |
  Atomic density matrices:           1.032     1.032   0.0% |
  Mix:                               6.191     6.191   0.2% |
  Multipole moments:                 0.022     0.022   0.0% |
  Pseudo density:                   37.618    37.617   1.2% |
   Symmetrize density:               0.001     0.001   0.0% |
 Forces:                           174.273   174.273   5.6% |-|
 Hamiltonian:                       12.799     0.123   0.0% |
  Atomic:                            3.151     3.151   0.1% |
   XC Correction:                    0.000     0.000   0.0% |
  Calculate atomic Hamiltonians:     4.430     4.430   0.1% |
  Communicate:                       0.109     0.109   0.0% |
  Poisson:                           0.035     0.035   0.0% |
  XC 3D grid:                        4.950     4.950   0.2% |
 Orthonormalize:                     2.089     0.003   0.0% |
  calc_s_matrix:                     0.245     0.245   0.0% |
  inverse-cholesky:                  0.073     0.073   0.0% |
  projections:                       1.333     1.333   0.0% |
  rotate_psi_s:                      0.435     0.435   0.0% |
Set symmetry:                        0.000     0.000   0.0% |
Other:                            1702.007  1702.007  54.5% |---------------------|
-----------------------------------------------------------
Total:                                      3121.350 100.0%

Memory usage: 12.20 GiB
Date: Tue Mar 23 21:32:44 2021
