
  ___ ___ ___ _ _ _  
 |   |   |_  | | | | 
 | | | | | . | | | | 
 |__ |  _|___|_____|  20.10.1b1
 |___|_|             

User:   madkru@i018.nifl.fysik.dtu.dk
Date:   Wed Mar 24 12:20:58 2021
Arch:   x86_64
Pid:    26873
Python: 3.7.4
gpaw:   /home/niflheim/madkru/venv_folder/gpaw/gpaw (d224efde0f)
_gpaw:  /home/niflheim/madkru/venv_folder/gpaw/build/lib.linux-x86_64-ivybridge-3.7/
        _gpaw.cpython-37m-x86_64-linux-gnu.so (4fd39e8b1e)
ase:    /home/niflheim/madkru/venv_folder/ase/ase (version 3.21.0b1-4d5a73cb29)
numpy:  /home/niflheim/madkru/venv_folder/lib/python3.7/site-packages/numpy (version 1.19.4)
scipy:  /home/niflheim/madkru/venv_folder/lib/python3.7/site-packages/scipy (version 1.5.4)
libxc:  4.3.4
units:  Angstrom and eV
cores: 64
OMP_NUM_THREADS: 1

Input parameters:
  convergence: {bands: occupied,
                density: 0.0001,
                eigenstates: 4e-08,
                energy: 0.0005,
                forces: 1e-06}
  kpts: [6 6 4]
  mode: {ecut: 600.0,
         gammacentered: False,
         name: pw}
  occupations: {fixmagmom: False,
                name: fermi-dirac,
                width: 0.001}
  setups: {Mn: :d,3.0}
  symmetry: {point_group: False,
             time_reversal: False}

System changes: positions, numbers, cell, pbc, initial_charges, initial_magmoms 

Initialize ...

O-setup:
  name: Oxygen
  id: 9b9d51c344dea68c822856295a461509
  Z: 8.0
  valence: 6
  core: 2
  charge: 0.0
  file: /home/modules/software/GPAW-setups/0.9.20000/O.LDA.gz
  compensation charges: gauss, rc=0.21, lmax=2
  cutoffs: 1.17(filt), 0.83(core),
  valence states:
                energy  radius
    2s(2.00)   -23.752   0.688
    2p(4.00)    -9.195   0.598
    *s           3.459   0.688
    *p          18.016   0.598
    *d           0.000   0.619

  Using partial waves for O as LCAO basis

Mn-setup:
  name: Manganese
  id: 0d715a8018be061a6e9ea6f2d364ac92
  Z: 25.0
  valence: 15
  core: 10
  charge: 0.0
  Hubbard U: 3.000000 eV (l=2, scale=True)
  file: /home/modules/software/GPAW-setups/0.9.20000/Mn.LDA.gz
  compensation charges: gauss, rc=0.38, lmax=2
  cutoffs: 2.14(filt), 0.86(core),
  valence states:
                energy  radius
    3s(2.00)   -85.387   1.275
    4s(2.00)    -5.282   1.275
    3p(6.00)   -54.493   1.281
    4p(0.00)    -1.471   1.281
    3d(5.00)    -7.009   1.138
    *d          20.203   1.138

  Using partial waves for Mn as LCAO basis

P-setup:
  name: Phosphorus
  id: a5561c299094968922a179ab894d2e2d
  Z: 15.0
  valence: 5
  core: 10
  charge: 0.0
  file: /home/modules/software/GPAW-setups/0.9.20000/P.LDA.gz
  compensation charges: gauss, rc=0.30, lmax=2
  cutoffs: 1.69(filt), 1.81(core),
  valence states:
                energy  radius
    3s(2.00)   -14.015   0.953
    3p(3.00)    -5.596   0.953
    *s          13.197   0.953
    *p          21.615   0.953
    *d           0.000   0.953

  Using partial waves for P as LCAO basis

Li-setup:
  name: Lithium
  id: b73562207f97a71b6967473b66fe8b65
  Z: 3.0
  valence: 1
  core: 2
  charge: 0.0
  file: /home/modules/software/GPAW-setups/0.9.20000/Li.LDA.gz
  compensation charges: gauss, rc=0.33, lmax=2
  cutoffs: 1.91(filt), 2.55(core),
  valence states:
                energy  radius
    2s(1.00)    -2.874   1.058
    2p(0.00)    -1.126   1.058
    *s          24.338   1.058

  Using partial waves for Li as LCAO basis

Reference energy: -196157.275402

Spin-polarized calculation.
Magnetic moment: 0.000000

Convergence criteria:
  Maximum total energy change: 0.0005 eV / electron
  Maximum integral of absolute density change: 0.0001 electrons
  Maximum integral of absolute eigenstate change: 4e-08 eV^2
  Maximum change in atomic force: 1e-06 eV / Ang
  Maximum number of iterations: 333

Symmetries present (total): 1

  ( 1  0  0)
  ( 0  1  0)
  ( 0  0  1)

144 k-points: 6 x 6 x 4 Monkhorst-Pack grid
144 k-points in the irreducible part of the Brillouin zone
       k-points in crystal coordinates                weights
   0:    -0.41666667   -0.41666667   -0.37500000          1/144
   1:    -0.41666667   -0.41666667   -0.12500000          1/144
   2:    -0.41666667   -0.41666667    0.12500000          1/144
   3:    -0.41666667   -0.41666667    0.37500000          1/144
   4:    -0.41666667   -0.25000000   -0.37500000          1/144
   5:    -0.41666667   -0.25000000   -0.12500000          1/144
   6:    -0.41666667   -0.25000000    0.12500000          1/144
   7:    -0.41666667   -0.25000000    0.37500000          1/144
   8:    -0.41666667   -0.08333333   -0.37500000          1/144
   9:    -0.41666667   -0.08333333   -0.12500000          1/144
          ...
 143:     0.41666667    0.41666667    0.37500000          1/144

Wave functions: Plane wave expansion
  Cutoff energy: 600.000 eV
  Number of coefficients (min, max): 9238, 9284
  Pulay-stress correction: 0.000000 eV/Ang^3 (de/decut=0.000000)
  Using FFTW library
  ScaLapack parameters: grid=1x1, blocksize=None
  Wavefunction extrapolation:
    Improved wavefunction reuse through dual PAW basis 

  Fermi-Dirac: width=0.0010 eV

Eigensolver
   Davidson(niter=2, smin=None, normalize=True) 

Densities:
  Coarse grid: 60*35*27 grid
  Fine grid: 120*70*54 grid
  Total Charge: 0.000000 

Density mixing:
  Method: difference
  Backend: pulay
  Linear mixing parameter: 0.05
  Mixing with 5 old densities
  Damping of long wave oscillations: 50 

Hamiltonian:
  XC and Coulomb potentials evaluated on a 120*70*54 grid
  Using the LDA Exchange-Correlation functional
 

Memory estimate:
  Process memory now: 13195.41 MiB
  Calculator: 326.59 MiB
    Density: 9.67 MiB
      Arrays: 3.79 MiB
      Localized functions: 4.32 MiB
      Mixer: 1.56 MiB
    Hamiltonian: 2.94 MiB
      Arrays: 2.82 MiB
      XC: 0.00 MiB
      Poisson: 0.00 MiB
      vbar: 0.12 MiB
    Wavefunctions: 313.97 MiB
      Arrays psit_nG: 285.59 MiB
      Eigensolver: 18.49 MiB
      Projections: 2.71 MiB
      Projectors: 4.46 MiB
      PW-descriptor: 2.72 MiB

Total number of cores used: 64
Parallelization over k-points: 16
Domain decomposition: 2 x 2 x 1

Number of atoms: 28
Number of atomic orbitals: 148
Number of bands in calculation: 112
Number of valence electrons: 180
Bands to converge: occupied

... initialized

Initializing position-dependent things.

Density initialized from atomic densities
Creating initial wave functions:
  112 bands from LCAO basis set

                                           
                                           
                                           
                                           
                                           
               O     O  P  O               
            PO           OMn     O         
                  O          MO            
            O        Li O                  
             Mn  On          OP            
         O         Li O                    
         Li     O P         O              
       Li                                  
                                           
                                           
                                           
                                           

Positions:
   0 O     -1.263197   -2.497779   -1.098475    ( 0.0000,  0.0000,  0.0000)
   1 O     -3.070823    2.922496    1.209491    ( 0.0000,  0.0000,  0.0000)
   2 O      1.985541    0.474863    1.428016    ( 0.0000,  0.0000,  0.0000)
   3 O      3.793120   -0.050100   -0.879950    ( 0.0000,  0.0000,  0.0000)
   4 O      1.985518    2.922485    1.428149    ( 0.0000,  0.0000,  0.0000)
   5 O      3.793144   -2.497790   -0.879818    ( 0.0000,  0.0000,  0.0000)
   6 O     -1.263220   -0.050157   -1.098342    ( 0.0000,  0.0000,  0.0000)
   7 O     -3.070798    0.474805    1.209623    ( 0.0000,  0.0000,  0.0000)
   8 O     -4.167835   -1.273920   -0.862116    ( 0.0000,  0.0000,  0.0000)
   9 O     -0.166037    1.698602    1.445528    ( 0.0000,  0.0000,  0.0000)
  10 O      4.890156    1.698625    1.191790    ( 0.0000,  0.0000,  0.0000)
  11 O      0.888358   -1.273896   -1.115855    ( 0.0000,  0.0000,  0.0000)
  12 Mn    -2.445557   -1.274211    0.312921    ( 0.0000,  0.0000,  1.0000)
  13 Mn    -1.888303    1.698892   -1.994948    ( 0.0000,  0.0000, -1.0000)
  14 Mn     3.167879    1.698917    0.016752    ( 0.0000,  0.0000, -1.0000)
  15 Mn     2.610624   -1.274187    2.324621    ( 0.0000,  0.0000,  1.0000)
  16 P     -0.529549   -1.273917   -1.724376    ( 0.0000,  0.0000,  0.0000)
  17 P     -3.804359    1.698599    0.583463    ( 0.0000,  0.0000,  0.0000)
  18 P      1.251870    1.698623    2.054050    ( 0.0000,  0.0000,  0.0000)
  19 P      4.526680   -1.263894   -0.253789    ( 0.0000,  0.0000,  0.0000)
  20 O     -0.544227   -1.273926    1.365380    ( 0.0000,  0.0000,  0.0000)
  21 O     -3.789411    1.698610   -0.942222    ( 0.0000,  0.0000,  0.0000)
  22 O      1.266548    1.698631   -1.035707    ( 0.0000,  0.0000,  0.0000)
  23 O      4.511733   -1.273905    1.271895    ( 0.0000,  0.0000,  0.0000)
  24 Li    -4.695087   -2.760584   -2.142877    ( 0.0000,  0.0000,  0.0000)
  25 Li     0.361147   -2.760561    0.164836    ( 0.0000,  0.0000,  0.0000)
  26 Li    -4.695074    0.212330   -2.142877    ( 0.0000,  0.0000,  0.0000)
  27 Li     0.361161    0.212353    0.164837    ( 0.0000,  0.0000,  0.0000)

Unit cell:
           periodic     x           y           z      points  spacing
  1. axis:    yes   10.112485    0.000045   -0.000035    60     0.1685
  2. axis:    yes    0.000026    5.945827    0.000001    35     0.1699
  3. axis:    yes   -0.000016    0.000000    4.615463    27     0.1709

  Lengths:  10.112485   5.945827   4.615463
  Angles:   89.999989  90.000396  89.999490

Effective grid spacing dv^(1/3) = 0.1698

                     log10-error:           total        iterations:
           time      wfs    density  force  energy       poisson  magmom
iter:   1  12:22:33                       -221.374689             +0.0000
iter:   2  12:22:53  -0.61  -0.93         -234.833888             +0.0000
iter:   3  12:23:13  -0.37  -0.97         -225.909717             -0.0000
iter:   4  12:23:32  -1.39  -1.29         -225.759204             +0.0000
iter:   5  12:23:52  -1.27  -1.39         -227.327116             +0.0000
iter:   6  12:24:12  -1.46  -1.46         -225.734885             +0.0000
iter:   7  12:24:32  -2.47  -2.04         -225.722007             +0.0000
iter:   8  12:24:52  -2.13  -1.99         -225.594964             +0.0000
iter:   9  12:25:11  -2.45  -2.08         -225.429549             +0.0000
iter:  10  12:25:31  -3.31  -2.55         -225.419772             +0.0000
iter:  11  12:25:51  -3.67  -2.81         -225.409716             +0.0000
iter:  12  12:26:11  -4.12  -3.04         -225.408528             +0.0000
iter:  13  12:26:30  -5.11  -3.29         -225.408392             +0.0000
iter:  14  12:26:50  -5.37  -3.32         -225.408229             +0.0000
iter:  15  12:27:10  -6.05  -3.43         -225.408226             +0.0000
iter:  16  12:27:30  -5.28  -3.47         -225.408525             -0.0000
iter:  17  12:27:50  -5.79  -3.59         -225.408438             +0.0000
iter:  18  12:28:09  -5.32  -3.72         -225.408171             -0.0000
iter:  19  12:28:29  -6.04  -4.03         -225.408179             -0.0000
iter:  20  12:28:49  -7.09  -4.31         -225.408174             +0.0000
iter:  21  12:29:13  -7.59  -4.36         -225.408177             -0.0000
iter:  22  12:29:38  -7.42  -4.47    -2.31-225.408179             -0.0000
iter:  23  12:30:02  -8.23  -4.45    -3.18-225.408177             -0.0000
iter:  24  12:30:22  -7.34  -4.49         -225.408175             -0.0000
iter:  25  12:30:47  -8.33  -4.64    -2.66-225.408175             -0.0000
iter:  26  12:31:11  -7.94  -4.67    -2.56-225.408176             -0.0000
iter:  27  12:31:36  -8.59  -5.00    -2.85-225.408175             -0.0000
iter:  28  12:32:00  -8.91  -5.21    -3.37-225.408175             -0.0000
iter:  29  12:32:25  -8.44  -5.25    -2.72-225.408175             -0.0000
iter:  30  12:32:49  -8.99  -5.43    -3.20-225.408175             -0.0000
iter:  31  12:33:14  -9.99  -5.64    -3.74-225.408175             -0.0000
iter:  32  12:33:38  -9.52  -5.75    -3.61-225.408175             -0.0000
iter:  33  12:34:03 -10.63  -5.94    -3.93-225.408175             -0.0000
iter:  34  12:34:27 -11.30  -6.09    -4.55-225.408175             -0.0000
iter:  35  12:34:52 -10.66  -6.14    -3.70-225.408175             -0.0000
iter:  36  12:35:16 -10.80  -6.33    -4.49-225.408175             -0.0000
iter:  37  12:35:41 -11.92  -6.58    -5.16-225.408175             -0.0000
iter:  38  12:36:05 -11.07  -6.63    -4.43-225.408175             -0.0000
iter:  39  12:36:30 -11.97  -6.80    -5.11-225.408175             -0.0000
iter:  40  12:36:54 -12.73  -7.02    -5.37-225.408175             -0.0000
iter:  41  12:37:19 -13.27  -7.01    -5.07-225.408175             -0.0000
iter:  42  12:37:43 -12.39  -7.11    -5.10-225.408175             -0.0000
iter:  43  12:38:08 -12.97  -7.34    -5.46-225.408175             -0.0000
iter:  44  12:38:32 -13.14  -7.41    -5.56-225.408175             -0.0000
iter:  45  12:38:57 -12.84  -7.60    -5.39-225.408175             +0.0000
iter:  46  12:39:21 -14.00  -7.97    -6.11-225.408175             +0.0000

Converged after 46 iterations.

Dipole moment: (19.052660, -1.399889, -4.182778) |e|*Ang

Total magnetic moment: (0.000000, 0.000000, 0.000000)
Local magnetic moments:
   0 O  ( 0.000000,  0.000000,  0.000667)
   1 O  ( 0.000000,  0.000000, -0.000687)
   2 O  ( 0.000000,  0.000000, -0.000671)
   3 O  ( 0.000000,  0.000000,  0.000564)
   4 O  ( 0.000000,  0.000000, -0.000654)
   5 O  ( 0.000000,  0.000000,  0.000771)
   6 O  ( 0.000000,  0.000000,  0.000657)
   7 O  ( 0.000000,  0.000000, -0.000654)
   8 O  ( 0.000000,  0.000000,  0.022368)
   9 O  ( 0.000000,  0.000000, -0.022368)
  10 O  ( 0.000000,  0.000000, -0.022368)
  11 O  ( 0.000000,  0.000000,  0.022367)
  12 Mn ( 0.000000,  0.000000,  4.575065)
  13 Mn ( 0.000000,  0.000000, -4.575035)
  14 Mn ( 0.000000,  0.000000, -4.575056)
  15 Mn ( 0.000000,  0.000000,  4.575027)
  16 P  ( 0.000000,  0.000000,  0.000812)
  17 P  ( 0.000000,  0.000000, -0.000817)
  18 P  ( 0.000000,  0.000000, -0.000812)
  19 P  ( 0.000000,  0.000000,  0.000819)
  20 O  ( 0.000000,  0.000000,  0.020709)
  21 O  ( 0.000000,  0.000000, -0.020708)
  22 O  ( 0.000000,  0.000000, -0.020709)
  23 O  ( 0.000000,  0.000000,  0.020709)
  24 Li ( 0.000000,  0.000000, -0.000006)
  25 Li ( 0.000000,  0.000000, -0.000000)
  26 Li ( 0.000000,  0.000000,  0.000006)
  27 Li ( 0.000000,  0.000000,  0.000000)

Energy contributions relative to reference atoms: (reference = -196157.275402)

Kinetic:       +296.851722
Potential:     -256.391303
External:        +0.000000
XC:            -267.649321
Entropy (-ST):   -0.000000
Local:           +1.780726
--------------------------
Free energy:   -225.408175
Extrapolated:  -225.408175

Spin contamination: 9.697227 electrons
Showing only first 2 kpts
                      Up                     Down
 Kpt  Band  Eigenvalues  Occupancy  Eigenvalues  Occupancy
  0    88      5.10920    0.00694      5.10942    0.00694
  0    89      5.16116    0.00694      5.16089    0.00694
  0    90      9.65217    0.00000      9.65224    0.00000
  0    91      9.67096    0.00000      9.67097    0.00000

  1    88      5.12111    0.00694      5.12086    0.00694
  1    89      5.17014    0.00694      5.17031    0.00694
  1    90      9.53454    0.00000      9.53453    0.00000
  1    91      9.54492    0.00000      9.54495    0.00000


Fermi level: 6.36990

Gap: 3.795 eV
Transition (v -> c):
  (s=0, k=92, n=89, [0.08, 0.42, -0.38]) -> (s=1, k=61, n=90, [-0.08, 0.08, -0.12])
Writing to born-0.01-19y+.gpw (mode='all')

Timing:                              incl.     excl.
-----------------------------------------------------------
Hamiltonian:                         0.218     0.002   0.0% |
 Atomic:                             0.053     0.053   0.0% |
  XC Correction:                     0.000     0.000   0.0% |
 Calculate atomic Hamiltonians:      0.075     0.075   0.0% |
 Communicate:                        0.002     0.002   0.0% |
 Initialize Hamiltonian:             0.000     0.000   0.0% |
 Poisson:                            0.001     0.001   0.0% |
 XC 3D grid:                         0.084     0.084   0.0% |
LCAO initialization:                69.941     0.648   0.0% |
 LCAO eigensolver:                  19.146     0.002   0.0% |
  Calculate projections:             0.029     0.029   0.0% |
  DenseAtomicCorrection:             0.045     0.045   0.0% |
  Distribute overlap matrix:         0.009     0.009   0.0% |
  Orbital Layouts:                   0.432     0.432   0.0% |
  Potential matrix:                 18.531    18.531   0.6% |
  Sum over cells:                    0.098     0.098   0.0% |
 LCAO to grid:                      48.832    48.832   1.7% ||
 Set positions (LCAO WFS):           1.314     0.192   0.0% |
  Basic WFS set positions:           0.001     0.001   0.0% |
  Basis functions set positions:     0.000     0.000   0.0% |
  P tci:                             0.523     0.523   0.0% |
  ST tci:                            0.381     0.381   0.0% |
  mktci:                             0.216     0.216   0.0% |
PWDescriptor:                        0.024     0.024   0.0% |
SCF-cycle:                        1031.523     2.798   0.1% |
 Davidson:                         864.662   266.574   9.1% |---|
  Apply H:                          59.155    57.406   2.0% ||
   HMM T:                            1.749     1.749   0.1% |
  Subspace diag:                   125.187     0.131   0.0% |
   calc_h_matrix:                   80.146    21.034   0.7% |
    Apply H:                        59.112    57.354   2.0% ||
     HMM T:                          1.757     1.757   0.1% |
   diagonalize:                      6.277     6.277   0.2% |
   rotate_psi:                      38.634    38.634   1.3% ||
  calc. matrices:                  257.525   142.410   4.9% |-|
   Apply H:                        115.115   111.843   3.8% |-|
    HMM T:                           3.272     3.272   0.1% |
  diagonalize:                      72.683    72.683   2.5% ||
  rotate_psi:                       83.537    83.537   2.9% ||
 Density:                           34.276     0.001   0.0% |
  Atomic density matrices:           0.731     0.731   0.0% |
  Mix:                               4.811     4.811   0.2% |
  Multipole moments:                 0.017     0.017   0.0% |
  Pseudo density:                   28.716    28.714   1.0% |
   Symmetrize density:               0.001     0.001   0.0% |
 Forces:                           117.792   117.792   4.0% |-|
 Hamiltonian:                        9.909     0.096   0.0% |
  Atomic:                            2.465     2.465   0.1% |
   XC Correction:                    0.000     0.000   0.0% |
  Calculate atomic Hamiltonians:     3.387     3.387   0.1% |
  Communicate:                       0.086     0.086   0.0% |
  Poisson:                           0.028     0.028   0.0% |
  XC 3D grid:                        3.847     3.847   0.1% |
 Orthonormalize:                     2.087     0.003   0.0% |
  calc_s_matrix:                     0.245     0.245   0.0% |
  inverse-cholesky:                  0.072     0.072   0.0% |
  projections:                       1.332     1.332   0.0% |
  rotate_psi_s:                      0.435     0.435   0.0% |
Set symmetry:                        0.000     0.000   0.0% |
Other:                            1822.019  1822.019  62.3% |------------------------|
-----------------------------------------------------------
Total:                                      2923.725 100.0%

Memory usage: 12.92 GiB
Date: Wed Mar 24 13:09:42 2021
