
  ___ ___ ___ _ _ _  
 |   |   |_  | | | | 
 | | | | | . | | | | 
 |__ |  _|___|_____|  20.10.1b1
 |___|_|             

User:   madkru@g035.nifl.fysik.dtu.dk
Date:   Sun Mar 21 22:03:10 2021
Arch:   x86_64
Pid:    44316
Python: 3.7.4
gpaw:   /home/niflheim/madkru/venv_folder/gpaw/gpaw (d0d1ca1c71)
_gpaw:  /home/niflheim/madkru/venv_folder/gpaw/build/lib.linux-x86_64-sandybridge-3.7/
        _gpaw.cpython-37m-x86_64-linux-gnu.so (4fd39e8b1e)
ase:    /home/niflheim/madkru/venv_folder/ase/ase (version 3.21.0b1-7e6c206a91)
numpy:  /home/niflheim/madkru/venv_folder/lib/python3.7/site-packages/numpy (version 1.19.4)
scipy:  /home/niflheim/madkru/venv_folder/lib/python3.7/site-packages/scipy (version 1.5.4)
libxc:  4.3.4
units:  Angstrom and eV
cores: 32
OMP_NUM_THREADS: 1

Input parameters:
  convergence: {bands: occupied,
                density: 0.0001,
                eigenstates: 4e-08,
                energy: 0.0005,
                forces: 1e-06}
  kpts: [6 6 4]
  mode: {ecut: 600.0,
         gammacentered: False,
         name: pw}
  occupations: {fixmagmom: False,
                name: fermi-dirac,
                width: 0.001}
  setups: {Mn: :d,3.0}
  symmetry: {point_group: False,
             time_reversal: False}

System changes: positions, numbers, cell, pbc, initial_charges, initial_magmoms 

Initialize ...

O-setup:
  name: Oxygen
  id: 9b9d51c344dea68c822856295a461509
  Z: 8.0
  valence: 6
  core: 2
  charge: 0.0
  file: /home/modules/software/GPAW-setups/0.9.20000/O.LDA.gz
  compensation charges: gauss, rc=0.21, lmax=2
  cutoffs: 1.17(filt), 0.83(core),
  valence states:
                energy  radius
    2s(2.00)   -23.752   0.688
    2p(4.00)    -9.195   0.598
    *s           3.459   0.688
    *p          18.016   0.598
    *d           0.000   0.619

  Using partial waves for O as LCAO basis

Mn-setup:
  name: Manganese
  id: 0d715a8018be061a6e9ea6f2d364ac92
  Z: 25.0
  valence: 15
  core: 10
  charge: 0.0
  Hubbard U: 3.000000 eV (l=2, scale=True)
  file: /home/modules/software/GPAW-setups/0.9.20000/Mn.LDA.gz
  compensation charges: gauss, rc=0.38, lmax=2
  cutoffs: 2.14(filt), 0.86(core),
  valence states:
                energy  radius
    3s(2.00)   -85.387   1.275
    4s(2.00)    -5.282   1.275
    3p(6.00)   -54.493   1.281
    4p(0.00)    -1.471   1.281
    3d(5.00)    -7.009   1.138
    *d          20.203   1.138

  Using partial waves for Mn as LCAO basis

P-setup:
  name: Phosphorus
  id: a5561c299094968922a179ab894d2e2d
  Z: 15.0
  valence: 5
  core: 10
  charge: 0.0
  file: /home/modules/software/GPAW-setups/0.9.20000/P.LDA.gz
  compensation charges: gauss, rc=0.30, lmax=2
  cutoffs: 1.69(filt), 1.81(core),
  valence states:
                energy  radius
    3s(2.00)   -14.015   0.953
    3p(3.00)    -5.596   0.953
    *s          13.197   0.953
    *p          21.615   0.953
    *d           0.000   0.953

  Using partial waves for P as LCAO basis

Li-setup:
  name: Lithium
  id: b73562207f97a71b6967473b66fe8b65
  Z: 3.0
  valence: 1
  core: 2
  charge: 0.0
  file: /home/modules/software/GPAW-setups/0.9.20000/Li.LDA.gz
  compensation charges: gauss, rc=0.33, lmax=2
  cutoffs: 1.91(filt), 2.55(core),
  valence states:
                energy  radius
    2s(1.00)    -2.874   1.058
    2p(0.00)    -1.126   1.058
    *s          24.338   1.058

  Using partial waves for Li as LCAO basis

Reference energy: -196157.275402

Spin-polarized calculation.
Magnetic moment: 0.000000

Convergence criteria:
  Maximum total energy change: 0.0005 eV / electron
  Maximum integral of absolute density change: 0.0001 electrons
  Maximum integral of absolute eigenstate change: 4e-08 eV^2
  Maximum change in atomic force: 1e-06 eV / Ang
  Maximum number of iterations: 333

Symmetries present (total): 1

  ( 1  0  0)
  ( 0  1  0)
  ( 0  0  1)

144 k-points: 6 x 6 x 4 Monkhorst-Pack grid
144 k-points in the irreducible part of the Brillouin zone
       k-points in crystal coordinates                weights
   0:    -0.41666667   -0.41666667   -0.37500000          1/144
   1:    -0.41666667   -0.41666667   -0.12500000          1/144
   2:    -0.41666667   -0.41666667    0.12500000          1/144
   3:    -0.41666667   -0.41666667    0.37500000          1/144
   4:    -0.41666667   -0.25000000   -0.37500000          1/144
   5:    -0.41666667   -0.25000000   -0.12500000          1/144
   6:    -0.41666667   -0.25000000    0.12500000          1/144
   7:    -0.41666667   -0.25000000    0.37500000          1/144
   8:    -0.41666667   -0.08333333   -0.37500000          1/144
   9:    -0.41666667   -0.08333333   -0.12500000          1/144
          ...
 143:     0.41666667    0.41666667    0.37500000          1/144

Wave functions: Plane wave expansion
  Cutoff energy: 600.000 eV
  Number of coefficients (min, max): 9238, 9284
  Pulay-stress correction: 0.000000 eV/Ang^3 (de/decut=0.000000)
  Using FFTW library
  ScaLapack parameters: grid=1x1, blocksize=None
  Wavefunction extrapolation:
    Improved wavefunction reuse through dual PAW basis 

  Fermi-Dirac: width=0.0010 eV

Eigensolver
   Davidson(niter=2, smin=None, normalize=True) 

Densities:
  Coarse grid: 60*35*27 grid
  Fine grid: 120*70*54 grid
  Total Charge: 0.000000 

Density mixing:
  Method: difference
  Backend: pulay
  Linear mixing parameter: 0.05
  Mixing with 5 old densities
  Damping of long wave oscillations: 50 

Hamiltonian:
  XC and Coulomb potentials evaluated on a 120*70*54 grid
  Using the LDA Exchange-Correlation functional
 

Memory estimate:
  Process memory now: 12693.72 MiB
  Calculator: 346.50 MiB
    Density: 19.24 MiB
      Arrays: 7.57 MiB
      Localized functions: 8.64 MiB
      Mixer: 3.03 MiB
    Hamiltonian: 5.87 MiB
      Arrays: 5.62 MiB
      XC: 0.00 MiB
      Poisson: 0.00 MiB
      vbar: 0.25 MiB
    Wavefunctions: 321.38 MiB
      Arrays psit_nG: 285.59 MiB
      Eigensolver: 18.49 MiB
      Projections: 5.41 MiB
      Projectors: 8.92 MiB
      PW-descriptor: 2.96 MiB

Total number of cores used: 32
Parallelization over k-points: 16
Domain decomposition: 2 x 1 x 1

Number of atoms: 28
Number of atomic orbitals: 148
Number of bands in calculation: 112
Number of valence electrons: 180
Bands to converge: occupied

... initialized

Initializing position-dependent things.

Density initialized from atomic densities
Creating initial wave functions:
  112 bands from LCAO basis set

                                           
                                           
                                           
                                           
                                           
               O     O  P  O               
            PO           OMn     O         
                  O          MO            
            O        Li O                  
             Mn  On          OP            
         O         Li O                    
         Li     O P         O              
       Li                                  
                                           
                                           
                                           
                                           

Positions:
   0 O     -1.263197   -2.497779   -1.098475    ( 0.0000,  0.0000,  0.0000)
   1 O     -3.070823    2.922496    1.209491    ( 0.0000,  0.0000,  0.0000)
   2 O      1.985541    0.474863    1.428016    ( 0.0000,  0.0000,  0.0000)
   3 O      3.793120   -0.050100   -0.869950    ( 0.0000,  0.0000,  0.0000)
   4 O      1.985518    2.922485    1.428149    ( 0.0000,  0.0000,  0.0000)
   5 O      3.793144   -2.497790   -0.879818    ( 0.0000,  0.0000,  0.0000)
   6 O     -1.263220   -0.050157   -1.098342    ( 0.0000,  0.0000,  0.0000)
   7 O     -3.070798    0.474805    1.209623    ( 0.0000,  0.0000,  0.0000)
   8 O     -4.167835   -1.273920   -0.862116    ( 0.0000,  0.0000,  0.0000)
   9 O     -0.166037    1.698602    1.445528    ( 0.0000,  0.0000,  0.0000)
  10 O      4.890156    1.698625    1.191790    ( 0.0000,  0.0000,  0.0000)
  11 O      0.888358   -1.273896   -1.115855    ( 0.0000,  0.0000,  0.0000)
  12 Mn    -2.445557   -1.274211    0.312921    ( 0.0000,  0.0000,  1.0000)
  13 Mn    -1.888303    1.698892   -1.994948    ( 0.0000,  0.0000, -1.0000)
  14 Mn     3.167879    1.698917    0.016752    ( 0.0000,  0.0000, -1.0000)
  15 Mn     2.610624   -1.274187    2.324621    ( 0.0000,  0.0000,  1.0000)
  16 P     -0.529549   -1.273917   -1.724376    ( 0.0000,  0.0000,  0.0000)
  17 P     -3.804359    1.698599    0.583463    ( 0.0000,  0.0000,  0.0000)
  18 P      1.251870    1.698623    2.054050    ( 0.0000,  0.0000,  0.0000)
  19 P      4.526680   -1.273894   -0.253789    ( 0.0000,  0.0000,  0.0000)
  20 O     -0.544227   -1.273926    1.365380    ( 0.0000,  0.0000,  0.0000)
  21 O     -3.789411    1.698610   -0.942222    ( 0.0000,  0.0000,  0.0000)
  22 O      1.266548    1.698631   -1.035707    ( 0.0000,  0.0000,  0.0000)
  23 O      4.511733   -1.273905    1.271895    ( 0.0000,  0.0000,  0.0000)
  24 Li    -4.695087   -2.760584   -2.142877    ( 0.0000,  0.0000,  0.0000)
  25 Li     0.361147   -2.760561    0.164836    ( 0.0000,  0.0000,  0.0000)
  26 Li    -4.695074    0.212330   -2.142877    ( 0.0000,  0.0000,  0.0000)
  27 Li     0.361161    0.212353    0.164837    ( 0.0000,  0.0000,  0.0000)

Unit cell:
           periodic     x           y           z      points  spacing
  1. axis:    yes   10.112485    0.000045   -0.000035    60     0.1685
  2. axis:    yes    0.000026    5.945827    0.000001    35     0.1699
  3. axis:    yes   -0.000016    0.000000    4.615463    27     0.1709

  Lengths:  10.112485   5.945827   4.615463
  Angles:   89.999989  90.000396  89.999490

Effective grid spacing dv^(1/3) = 0.1698

                     log10-error:           total        iterations:
           time      wfs    density  force  energy       poisson  magmom
iter:   1  22:06:25                       -221.373741             +0.0000
iter:   2  22:07:02  -0.61  -0.93         -234.837893             +0.0000
iter:   3  22:07:39  -0.37  -0.97         -225.913621             -0.0000
iter:   4  22:08:17  -1.39  -1.29         -225.761099             +0.0000
iter:   5  22:08:54  -1.27  -1.39         -227.330204             +0.0000
iter:   6  22:09:31  -1.46  -1.46         -225.737063             +0.0000
iter:   7  22:10:09  -2.47  -2.04         -225.724525             +0.0000
iter:   8  22:10:46  -2.14  -1.99         -225.593157             +0.0000
iter:   9  22:11:24  -2.46  -2.09         -225.432038             +0.0000
iter:  10  22:12:01  -3.31  -2.55         -225.422129             +0.0000
iter:  11  22:12:38  -3.66  -2.81         -225.411807             +0.0000
iter:  12  22:13:15  -4.10  -3.04         -225.410623             +0.0000
iter:  13  22:13:53  -5.10  -3.29         -225.410487             -0.0000
iter:  14  22:14:30  -5.39  -3.32         -225.410317             +0.0000
iter:  15  22:15:07  -6.05  -3.43         -225.410321             -0.0000
iter:  16  22:15:45  -5.24  -3.47         -225.410670             -0.0000
iter:  17  22:16:22  -5.91  -3.58         -225.410549             -0.0000
iter:  18  22:16:59  -5.20  -3.70         -225.410260             -0.0000
iter:  19  22:17:36  -6.07  -4.11         -225.410272             -0.0000
iter:  20  22:18:14  -7.22  -4.41         -225.410271             -0.0000
iter:  21  22:19:01  -7.43  -4.45         -225.410270             -0.0000
iter:  22  22:19:48  -7.70  -4.55    -2.62-225.410272             -0.0000
iter:  23  22:20:35  -8.71  -4.54    -3.40-225.410271             -0.0000
iter:  24  22:21:12  -7.18  -4.58         -225.410270             -0.0000
iter:  25  22:21:59  -8.33  -4.96    -2.43-225.410269             -0.0000
iter:  26  22:22:46  -8.48  -5.22    -2.92-225.410269             -0.0000
iter:  27  22:23:33  -9.52  -5.37    -3.33-225.410269             -0.0000
iter:  28  22:24:20  -9.65  -5.49    -3.37-225.410269             -0.0000
iter:  29  22:25:07 -10.28  -5.55    -3.76-225.410269             -0.0000
iter:  30  22:25:54 -10.01  -5.60    -3.67-225.410269             -0.0000
iter:  31  22:26:41 -10.36  -5.66    -3.76-225.410269             -0.0000
iter:  32  22:27:28 -10.32  -5.70    -3.66-225.410269             -0.0000
iter:  33  22:28:15 -11.18  -6.00    -4.75-225.410269             -0.0000
iter:  34  22:29:02 -10.11  -6.04    -3.49-225.410269             -0.0000
iter:  35  22:29:49 -11.11  -6.34    -4.33-225.410269             -0.0000
iter:  36  22:30:36 -12.01  -6.49    -4.89-225.410269             -0.0000
iter:  37  22:31:22 -11.65  -6.54    -4.26-225.410269             -0.0000
iter:  38  22:32:09 -11.89  -6.73    -4.66-225.410269             -0.0000
iter:  39  22:32:56 -12.64  -7.12    -5.58-225.410269             -0.0000
iter:  40  22:33:43 -12.48  -7.23    -4.86-225.410269             -0.0000
iter:  41  22:34:30 -13.08  -7.42    -5.44-225.410269             -0.0000
iter:  42  22:35:17 -12.88  -7.42    -4.98-225.410269             -0.0000
iter:  43  22:36:04 -12.98  -7.55    -5.19-225.410269             -0.0000
iter:  44  22:36:51 -14.16  -7.70    -5.75-225.410269             -0.0000
iter:  45  22:37:38 -14.88  -7.83    -5.87-225.410269             -0.0000
iter:  46  22:38:25 -14.16  -7.88    -5.92-225.410269             -0.0000
iter:  47  22:39:12 -14.74  -7.97    -6.25-225.410269             -0.0000

Converged after 47 iterations.

Dipole moment: (19.051875, -1.429068, -4.160815) |e|*Ang

Total magnetic moment: (0.000000, 0.000000, -0.000000)
Local magnetic moments:
   0 O  ( 0.000000,  0.000000,  0.000658)
   1 O  ( 0.000000,  0.000000, -0.000682)
   2 O  ( 0.000000,  0.000000, -0.000713)
   3 O  ( 0.000000,  0.000000,  0.000477)
   4 O  ( 0.000000,  0.000000, -0.000571)
   5 O  ( 0.000000,  0.000000,  0.000641)
   6 O  ( 0.000000,  0.000000,  0.000657)
   7 O  ( 0.000000,  0.000000, -0.000676)
   8 O  ( 0.000000,  0.000000,  0.022298)
   9 O  ( 0.000000,  0.000000, -0.022364)
  10 O  ( 0.000000,  0.000000, -0.022411)
  11 O  ( 0.000000,  0.000000,  0.022350)
  12 Mn ( 0.000000,  0.000000,  4.575064)
  13 Mn ( 0.000000,  0.000000, -4.575041)
  14 Mn ( 0.000000,  0.000000, -4.574714)
  15 Mn ( 0.000000,  0.000000,  4.575376)
  16 P  ( 0.000000,  0.000000,  0.000803)
  17 P  ( 0.000000,  0.000000, -0.000822)
  18 P  ( 0.000000,  0.000000, -0.000819)
  19 P  ( 0.000000,  0.000000,  0.000660)
  20 O  ( 0.000000,  0.000000,  0.020706)
  21 O  ( 0.000000,  0.000000, -0.020717)
  22 O  ( 0.000000,  0.000000, -0.020724)
  23 O  ( 0.000000,  0.000000,  0.020704)
  24 Li ( 0.000000,  0.000000, -0.000000)
  25 Li ( 0.000000,  0.000000, -0.000001)
  26 Li ( 0.000000,  0.000000, -0.000007)
  27 Li ( 0.000000,  0.000000,  0.000001)

Energy contributions relative to reference atoms: (reference = -196157.275402)

Kinetic:       +297.090674
Potential:     -256.576039
External:        +0.000000
XC:            -267.704849
Entropy (-ST):   -0.000000
Local:           +1.779945
--------------------------
Free energy:   -225.410269
Extrapolated:  -225.410269

Spin contamination: 9.697299 electrons
Showing only first 2 kpts
                      Up                     Down
 Kpt  Band  Eigenvalues  Occupancy  Eigenvalues  Occupancy
  0    88      5.10622    0.00694      5.11092    0.00694
  0    89      5.15916    0.00694      5.16269    0.00694
  0    90      9.65165    0.00000      9.65054    0.00000
  0    91      9.67093    0.00000      9.66807    0.00000

  1    88      5.11782    0.00694      5.12235    0.00694
  1    89      5.16789    0.00694      5.17189    0.00694
  1    90      9.53370    0.00000      9.53399    0.00000
  1    91      9.54482    0.00000      9.54296    0.00000


Fermi level: 6.36975

Gap: 3.795 eV
Transition (v -> c):
  (s=1, k=68, n=89, [-0.08, 0.42, -0.38]) -> (s=0, k=61, n=90, [-0.08, 0.08, -0.12])
Writing to born-0.01-3z+.gpw (mode='all')

Timing:                              incl.     excl.
-----------------------------------------------------------
Hamiltonian:                         0.411     0.003   0.0% |
 Atomic:                             0.065     0.065   0.0% |
  XC Correction:                     0.000     0.000   0.0% |
 Calculate atomic Hamiltonians:      0.168     0.168   0.0% |
 Communicate:                        0.001     0.001   0.0% |
 Initialize Hamiltonian:             0.000     0.000   0.0% |
 Poisson:                            0.001     0.001   0.0% |
 XC 3D grid:                         0.172     0.172   0.0% |
LCAO initialization:               148.324     0.676   0.0% |
 LCAO eigensolver:                  40.158     0.002   0.0% |
  Calculate projections:             0.057     0.057   0.0% |
  DenseAtomicCorrection:             0.083     0.083   0.0% |
  Distribute overlap matrix:         0.064     0.064   0.0% |
  Orbital Layouts:                   0.363     0.363   0.0% |
  Potential matrix:                 39.490    39.490   0.7% |
  Sum over cells:                    0.099     0.099   0.0% |
 LCAO to grid:                     105.100   105.100   1.9% ||
 Set positions (LCAO WFS):           2.391     0.368   0.0% |
  Basic WFS set positions:           0.001     0.001   0.0% |
  Basis functions set positions:     0.000     0.000   0.0% |
  P tci:                             1.074     1.074   0.0% |
  ST tci:                            0.704     0.704   0.0% |
  mktci:                             0.243     0.243   0.0% |
PWDescriptor:                        0.025     0.025   0.0% |
SCF-cycle:                        2011.358     5.887   0.1% |
 Davidson:                        1659.892   526.615   9.7% |---|
  Apply H:                         123.203   119.138   2.2% ||
   HMM T:                            4.065     4.065   0.1% |
  Subspace diag:                   247.951     0.146   0.0% |
   calc_h_matrix:                  163.408    42.764   0.8% |
    Apply H:                       120.644   116.779   2.2% ||
     HMM T:                          3.865     3.865   0.1% |
   diagonalize:                      5.781     5.781   0.1% |
   rotate_psi:                      78.616    78.616   1.5% ||
  calc. matrices:                  523.956   285.830   5.3% |-|
   Apply H:                        238.126   230.827   4.3% |-|
    HMM T:                           7.298     7.298   0.1% |
  diagonalize:                      78.309    78.309   1.4% ||
  rotate_psi:                      159.858   159.858   3.0% ||
 Density:                           69.145     0.001   0.0% |
  Atomic density matrices:           1.234     1.234   0.0% |
  Mix:                              10.505    10.505   0.2% |
  Multipole moments:                 0.028     0.028   0.0% |
  Pseudo density:                   57.377    57.376   1.1% |
   Symmetrize density:               0.001     0.001   0.0% |
 Forces:                           253.237   253.237   4.7% |-|
 Hamiltonian:                       19.119     0.114   0.0% |
  Atomic:                            2.795     2.794   0.1% |
   XC Correction:                    0.000     0.000   0.0% |
  Calculate atomic Hamiltonians:     7.853     7.853   0.1% |
  Communicate:                       0.066     0.066   0.0% |
  Poisson:                           0.071     0.071   0.0% |
  XC 3D grid:                        8.221     8.221   0.2% |
 Orthonormalize:                     4.078     0.004   0.0% |
  calc_s_matrix:                     0.485     0.485   0.0% |
  inverse-cholesky:                  0.055     0.055   0.0% |
  projections:                       2.676     2.676   0.0% |
  rotate_psi_s:                      0.859     0.859   0.0% |
Set symmetry:                        0.000     0.000   0.0% |
Other:                            3252.519  3252.519  60.1% |-----------------------|
-----------------------------------------------------------
Total:                                      5412.637 100.0%

Memory usage: 12.41 GiB
Date: Sun Mar 21 23:33:23 2021
