
  ___ ___ ___ _ _ _  
 |   |   |_  | | | | 
 | | | | | . | | | | 
 |__ |  _|___|_____|  20.10.1b1
 |___|_|             

User:   madkru@g035.nifl.fysik.dtu.dk
Date:   Mon Mar 22 08:10:11 2021
Arch:   x86_64
Pid:    44316
Python: 3.7.4
gpaw:   /home/niflheim/madkru/venv_folder/gpaw/gpaw (d0d1ca1c71)
_gpaw:  /home/niflheim/madkru/venv_folder/gpaw/build/lib.linux-x86_64-sandybridge-3.7/
        _gpaw.cpython-37m-x86_64-linux-gnu.so (4fd39e8b1e)
ase:    /home/niflheim/madkru/venv_folder/ase/ase (version 3.21.0b1-7e6c206a91)
numpy:  /home/niflheim/madkru/venv_folder/lib/python3.7/site-packages/numpy (version 1.19.4)
scipy:  /home/niflheim/madkru/venv_folder/lib/python3.7/site-packages/scipy (version 1.5.4)
libxc:  4.3.4
units:  Angstrom and eV
cores: 32
OMP_NUM_THREADS: 1

Input parameters:
  convergence: {bands: occupied,
                density: 0.0001,
                eigenstates: 4e-08,
                energy: 0.0005,
                forces: 1e-06}
  kpts: [6 6 4]
  mode: {ecut: 600.0,
         gammacentered: False,
         name: pw}
  occupations: {fixmagmom: False,
                name: fermi-dirac,
                width: 0.001}
  setups: {Mn: :d,3.0}
  symmetry: {point_group: False,
             time_reversal: False}

System changes: positions, numbers, cell, pbc, initial_charges, initial_magmoms 

Initialize ...

O-setup:
  name: Oxygen
  id: 9b9d51c344dea68c822856295a461509
  Z: 8.0
  valence: 6
  core: 2
  charge: 0.0
  file: /home/modules/software/GPAW-setups/0.9.20000/O.LDA.gz
  compensation charges: gauss, rc=0.21, lmax=2
  cutoffs: 1.17(filt), 0.83(core),
  valence states:
                energy  radius
    2s(2.00)   -23.752   0.688
    2p(4.00)    -9.195   0.598
    *s           3.459   0.688
    *p          18.016   0.598
    *d           0.000   0.619

  Using partial waves for O as LCAO basis

Mn-setup:
  name: Manganese
  id: 0d715a8018be061a6e9ea6f2d364ac92
  Z: 25.0
  valence: 15
  core: 10
  charge: 0.0
  Hubbard U: 3.000000 eV (l=2, scale=True)
  file: /home/modules/software/GPAW-setups/0.9.20000/Mn.LDA.gz
  compensation charges: gauss, rc=0.38, lmax=2
  cutoffs: 2.14(filt), 0.86(core),
  valence states:
                energy  radius
    3s(2.00)   -85.387   1.275
    4s(2.00)    -5.282   1.275
    3p(6.00)   -54.493   1.281
    4p(0.00)    -1.471   1.281
    3d(5.00)    -7.009   1.138
    *d          20.203   1.138

  Using partial waves for Mn as LCAO basis

P-setup:
  name: Phosphorus
  id: a5561c299094968922a179ab894d2e2d
  Z: 15.0
  valence: 5
  core: 10
  charge: 0.0
  file: /home/modules/software/GPAW-setups/0.9.20000/P.LDA.gz
  compensation charges: gauss, rc=0.30, lmax=2
  cutoffs: 1.69(filt), 1.81(core),
  valence states:
                energy  radius
    3s(2.00)   -14.015   0.953
    3p(3.00)    -5.596   0.953
    *s          13.197   0.953
    *p          21.615   0.953
    *d           0.000   0.953

  Using partial waves for P as LCAO basis

Li-setup:
  name: Lithium
  id: b73562207f97a71b6967473b66fe8b65
  Z: 3.0
  valence: 1
  core: 2
  charge: 0.0
  file: /home/modules/software/GPAW-setups/0.9.20000/Li.LDA.gz
  compensation charges: gauss, rc=0.33, lmax=2
  cutoffs: 1.91(filt), 2.55(core),
  valence states:
                energy  radius
    2s(1.00)    -2.874   1.058
    2p(0.00)    -1.126   1.058
    *s          24.338   1.058

  Using partial waves for Li as LCAO basis

Reference energy: -196157.275402

Spin-polarized calculation.
Magnetic moment: 0.000000

Convergence criteria:
  Maximum total energy change: 0.0005 eV / electron
  Maximum integral of absolute density change: 0.0001 electrons
  Maximum integral of absolute eigenstate change: 4e-08 eV^2
  Maximum change in atomic force: 1e-06 eV / Ang
  Maximum number of iterations: 333

Symmetries present (total): 1

  ( 1  0  0)
  ( 0  1  0)
  ( 0  0  1)

144 k-points: 6 x 6 x 4 Monkhorst-Pack grid
144 k-points in the irreducible part of the Brillouin zone
       k-points in crystal coordinates                weights
   0:    -0.41666667   -0.41666667   -0.37500000          1/144
   1:    -0.41666667   -0.41666667   -0.12500000          1/144
   2:    -0.41666667   -0.41666667    0.12500000          1/144
   3:    -0.41666667   -0.41666667    0.37500000          1/144
   4:    -0.41666667   -0.25000000   -0.37500000          1/144
   5:    -0.41666667   -0.25000000   -0.12500000          1/144
   6:    -0.41666667   -0.25000000    0.12500000          1/144
   7:    -0.41666667   -0.25000000    0.37500000          1/144
   8:    -0.41666667   -0.08333333   -0.37500000          1/144
   9:    -0.41666667   -0.08333333   -0.12500000          1/144
          ...
 143:     0.41666667    0.41666667    0.37500000          1/144

Wave functions: Plane wave expansion
  Cutoff energy: 600.000 eV
  Number of coefficients (min, max): 9238, 9284
  Pulay-stress correction: 0.000000 eV/Ang^3 (de/decut=0.000000)
  Using FFTW library
  ScaLapack parameters: grid=1x1, blocksize=None
  Wavefunction extrapolation:
    Improved wavefunction reuse through dual PAW basis 

  Fermi-Dirac: width=0.0010 eV

Eigensolver
   Davidson(niter=2, smin=None, normalize=True) 

Densities:
  Coarse grid: 60*35*27 grid
  Fine grid: 120*70*54 grid
  Total Charge: 0.000000 

Density mixing:
  Method: difference
  Backend: pulay
  Linear mixing parameter: 0.05
  Mixing with 5 old densities
  Damping of long wave oscillations: 50 

Hamiltonian:
  XC and Coulomb potentials evaluated on a 120*70*54 grid
  Using the LDA Exchange-Correlation functional
 

Memory estimate:
  Process memory now: 12979.57 MiB
  Calculator: 346.50 MiB
    Density: 19.24 MiB
      Arrays: 7.57 MiB
      Localized functions: 8.64 MiB
      Mixer: 3.03 MiB
    Hamiltonian: 5.87 MiB
      Arrays: 5.62 MiB
      XC: 0.00 MiB
      Poisson: 0.00 MiB
      vbar: 0.25 MiB
    Wavefunctions: 321.38 MiB
      Arrays psit_nG: 285.59 MiB
      Eigensolver: 18.49 MiB
      Projections: 5.41 MiB
      Projectors: 8.92 MiB
      PW-descriptor: 2.96 MiB

Total number of cores used: 32
Parallelization over k-points: 16
Domain decomposition: 2 x 1 x 1

Number of atoms: 28
Number of atomic orbitals: 148
Number of bands in calculation: 112
Number of valence electrons: 180
Bands to converge: occupied

... initialized

Initializing position-dependent things.

Density initialized from atomic densities
Creating initial wave functions:
  112 bands from LCAO basis set

                                           
                                           
                                           
                                           
                                           
               O     O  P  O               
            PO           OMn     O         
                  O          MO            
            O        Li O                  
             Mn  On          OP            
         O         Li O                    
         Li     O P         O              
       Li                                  
                                           
                                           
                                           
                                           

Positions:
   0 O     -1.263197   -2.497779   -1.098475    ( 0.0000,  0.0000,  0.0000)
   1 O     -3.070823    2.922496    1.209491    ( 0.0000,  0.0000,  0.0000)
   2 O      1.985541    0.474863    1.428016    ( 0.0000,  0.0000,  0.0000)
   3 O      3.793120   -0.050100   -0.879950    ( 0.0000,  0.0000,  0.0000)
   4 O      1.985518    2.922485    1.428149    ( 0.0000,  0.0000,  0.0000)
   5 O      3.793144   -2.497790   -0.879818    ( 0.0000,  0.0000,  0.0000)
   6 O     -1.273220   -0.050157   -1.098342    ( 0.0000,  0.0000,  0.0000)
   7 O     -3.070798    0.474805    1.209623    ( 0.0000,  0.0000,  0.0000)
   8 O     -4.167835   -1.273920   -0.862116    ( 0.0000,  0.0000,  0.0000)
   9 O     -0.166037    1.698602    1.445528    ( 0.0000,  0.0000,  0.0000)
  10 O      4.890156    1.698625    1.191790    ( 0.0000,  0.0000,  0.0000)
  11 O      0.888358   -1.273896   -1.115855    ( 0.0000,  0.0000,  0.0000)
  12 Mn    -2.445557   -1.274211    0.312921    ( 0.0000,  0.0000,  1.0000)
  13 Mn    -1.888303    1.698892   -1.994948    ( 0.0000,  0.0000, -1.0000)
  14 Mn     3.167879    1.698917    0.016752    ( 0.0000,  0.0000, -1.0000)
  15 Mn     2.610624   -1.274187    2.324621    ( 0.0000,  0.0000,  1.0000)
  16 P     -0.529549   -1.273917   -1.724376    ( 0.0000,  0.0000,  0.0000)
  17 P     -3.804359    1.698599    0.583463    ( 0.0000,  0.0000,  0.0000)
  18 P      1.251870    1.698623    2.054050    ( 0.0000,  0.0000,  0.0000)
  19 P      4.526680   -1.273894   -0.253789    ( 0.0000,  0.0000,  0.0000)
  20 O     -0.544227   -1.273926    1.365380    ( 0.0000,  0.0000,  0.0000)
  21 O     -3.789411    1.698610   -0.942222    ( 0.0000,  0.0000,  0.0000)
  22 O      1.266548    1.698631   -1.035707    ( 0.0000,  0.0000,  0.0000)
  23 O      4.511733   -1.273905    1.271895    ( 0.0000,  0.0000,  0.0000)
  24 Li    -4.695087   -2.760584   -2.142877    ( 0.0000,  0.0000,  0.0000)
  25 Li     0.361147   -2.760561    0.164836    ( 0.0000,  0.0000,  0.0000)
  26 Li    -4.695074    0.212330   -2.142877    ( 0.0000,  0.0000,  0.0000)
  27 Li     0.361161    0.212353    0.164837    ( 0.0000,  0.0000,  0.0000)

Unit cell:
           periodic     x           y           z      points  spacing
  1. axis:    yes   10.112485    0.000045   -0.000035    60     0.1685
  2. axis:    yes    0.000026    5.945827    0.000001    35     0.1699
  3. axis:    yes   -0.000016    0.000000    4.615463    27     0.1709

  Lengths:  10.112485   5.945827   4.615463
  Angles:   89.999989  90.000396  89.999490

Effective grid spacing dv^(1/3) = 0.1698

                     log10-error:           total        iterations:
           time      wfs    density  force  energy       poisson  magmom
iter:   1  08:13:26                       -221.372051             +0.0000
iter:   2  08:14:03  -0.61  -0.93         -234.815113             +0.0000
iter:   3  08:14:40  -0.37  -0.97         -225.905548             -0.0000
iter:   4  08:15:17  -1.39  -1.29         -225.761058             +0.0000
iter:   5  08:15:55  -1.27  -1.39         -227.318399             +0.0000
iter:   6  08:16:32  -1.47  -1.46         -225.736711             +0.0000
iter:   7  08:17:09  -2.48  -2.04         -225.723181             +0.0000
iter:   8  08:17:46  -2.13  -1.99         -225.600261             +0.0000
iter:   9  08:18:24  -2.44  -2.08         -225.431383             +0.0000
iter:  10  08:19:01  -3.32  -2.55         -225.421961             +0.0000
iter:  11  08:19:38  -3.68  -2.81         -225.411720             +0.0000
iter:  12  08:20:15  -4.12  -3.03         -225.410497             +0.0000
iter:  13  08:20:52  -5.08  -3.29         -225.410346             -0.0000
iter:  14  08:21:29  -5.39  -3.32         -225.410186             -0.0000
iter:  15  08:22:07  -6.08  -3.43         -225.410187             -0.0000
iter:  16  08:22:44  -5.38  -3.47         -225.410419             +0.0000
iter:  17  08:23:21  -5.77  -3.62         -225.410349             -0.0000
iter:  18  08:23:58  -5.59  -3.77         -225.410141             +0.0000
iter:  19  08:24:36  -6.08  -3.92         -225.410137             +0.0000
iter:  20  08:25:13  -6.79  -4.06         -225.410119             -0.0000
iter:  21  08:25:50  -7.08  -4.19         -225.410135             -0.0000
iter:  22  08:26:28  -7.14  -4.30         -225.410135             +0.0000
iter:  23  08:27:15  -7.88  -4.28         -225.410133             +0.0000
iter:  24  08:28:02  -7.71  -4.30    -2.49-225.410135             +0.0000
iter:  25  08:28:49  -7.45  -4.62    -2.75-225.410133             +0.0000
iter:  26  08:29:36  -8.04  -4.81    -3.16-225.410133             +0.0000
iter:  27  08:30:23  -8.66  -4.86    -3.05-225.410132             +0.0000
iter:  28  08:31:10  -8.41  -4.92    -2.70-225.410132             +0.0000
iter:  29  08:31:57  -9.04  -5.14    -3.27-225.410132             +0.0000
iter:  30  08:32:44  -8.58  -5.25    -3.28-225.410132             +0.0000
iter:  31  08:33:31  -9.20  -5.48    -3.50-225.410132             +0.0000
iter:  32  08:34:18 -10.01  -5.67    -3.92-225.410132             +0.0000
iter:  33  08:35:05  -9.42  -5.70    -3.73-225.410132             +0.0000
iter:  34  08:35:52 -10.09  -5.81    -4.04-225.410132             +0.0000
iter:  35  08:36:39  -9.74  -5.85    -3.49-225.410132             +0.0000
iter:  36  08:37:26  -9.94  -6.22    -4.00-225.410132             +0.0000
iter:  37  08:38:13 -11.34  -6.54    -4.51-225.410132             +0.0000
iter:  38  08:39:00 -11.06  -6.57    -4.75-225.410132             +0.0000
iter:  39  08:39:48 -11.82  -6.62    -4.61-225.410132             +0.0000
iter:  40  08:40:35 -11.35  -6.73    -4.80-225.410132             +0.0000
iter:  41  08:41:22 -12.48  -6.75    -4.92-225.410132             +0.0000
iter:  42  08:42:08 -11.66  -6.81    -4.64-225.410132             +0.0000
iter:  43  08:42:55 -13.14  -6.90    -5.19-225.410132             +0.0000
iter:  44  08:43:42 -12.13  -6.99    -4.79-225.410132             +0.0000
iter:  45  08:44:29 -12.81  -7.24    -5.27-225.410132             +0.0000
iter:  46  08:45:16 -13.81  -7.65    -5.76-225.410132             +0.0000
iter:  47  08:46:03 -13.11  -7.72    -5.34-225.410132             +0.0000
iter:  48  08:46:50 -14.22  -8.13    -5.99-225.410132             +0.0000
iter:  49  08:47:37 -14.24  -8.19    -6.11-225.410132             +0.0000

Converged after 49 iterations.

Dipole moment: (19.046853, -1.423366, -4.182174) |e|*Ang

Total magnetic moment: (0.000000, 0.000000, 0.000000)
Local magnetic moments:
   0 O  ( 0.000000,  0.000000,  0.000684)
   1 O  ( 0.000000,  0.000000, -0.000710)
   2 O  ( 0.000000,  0.000000, -0.000648)
   3 O  ( 0.000000,  0.000000,  0.000681)
   4 O  ( 0.000000,  0.000000, -0.000654)
   5 O  ( 0.000000,  0.000000,  0.000685)
   6 O  ( 0.000000,  0.000000,  0.000689)
   7 O  ( 0.000000,  0.000000, -0.000680)
   8 O  ( 0.000000,  0.000000,  0.022381)
   9 O  ( 0.000000,  0.000000, -0.022348)
  10 O  ( 0.000000,  0.000000, -0.022405)
  11 O  ( 0.000000,  0.000000,  0.022277)
  12 Mn ( 0.000000,  0.000000,  4.574677)
  13 Mn ( 0.000000,  0.000000, -4.574517)
  14 Mn ( 0.000000,  0.000000, -4.575058)
  15 Mn ( 0.000000,  0.000000,  4.575033)
  16 P  ( 0.000000,  0.000000,  0.000829)
  17 P  ( 0.000000,  0.000000, -0.000807)
  18 P  ( 0.000000,  0.000000, -0.000821)
  19 P  ( 0.000000,  0.000000,  0.000822)
  20 O  ( 0.000000,  0.000000,  0.020693)
  21 O  ( 0.000000,  0.000000, -0.020750)
  22 O  ( 0.000000,  0.000000, -0.020692)
  23 O  ( 0.000000,  0.000000,  0.020738)
  24 Li ( 0.000000,  0.000000,  0.000001)
  25 Li ( 0.000000,  0.000000, -0.000004)
  26 Li ( 0.000000,  0.000000, -0.000000)
  27 Li ( 0.000000,  0.000000,  0.000005)

Energy contributions relative to reference atoms: (reference = -196157.275402)

Kinetic:       +296.581951
Potential:     -256.187424
External:        +0.000000
XC:            -267.585717
Entropy (-ST):   -0.000000
Local:           +1.781058
--------------------------
Free energy:   -225.410132
Extrapolated:  -225.410132

Spin contamination: 9.696717 electrons
Showing only first 2 kpts
                      Up                     Down
 Kpt  Band  Eigenvalues  Occupancy  Eigenvalues  Occupancy
  0    88      5.10935    0.00694      5.11278    0.00694
  0    89      5.16308    0.00694      5.16514    0.00694
  0    90      9.65218    0.00000      9.65573    0.00000
  0    91      9.67731    0.00000      9.67088    0.00000

  1    88      5.12057    0.00694      5.12443    0.00694
  1    89      5.17274    0.00694      5.17442    0.00694
  1    90      9.53365    0.00000      9.53770    0.00000
  1    91      9.55182    0.00000      9.54909    0.00000


Fermi level: 6.37011

Gap: 3.792 eV
Transition (v -> c):
  (s=1, k=51, n=89, [-0.08, -0.42, 0.38]) -> (s=0, k=61, n=90, [-0.08, 0.08, -0.12])
Writing to born-0.01-6x-.gpw (mode='all')

Timing:                              incl.     excl.
-----------------------------------------------------------
Hamiltonian:                         0.411     0.002   0.0% |
 Atomic:                             0.059     0.059   0.0% |
  XC Correction:                     0.000     0.000   0.0% |
 Calculate atomic Hamiltonians:      0.161     0.161   0.0% |
 Communicate:                        0.014     0.014   0.0% |
 Initialize Hamiltonian:             0.000     0.000   0.0% |
 Poisson:                            0.001     0.001   0.0% |
 XC 3D grid:                         0.174     0.174   0.0% |
LCAO initialization:               151.525     0.675   0.0% |
 LCAO eigensolver:                  40.396     0.003   0.0% |
  Calculate projections:             0.057     0.057   0.0% |
  DenseAtomicCorrection:             0.082     0.082   0.0% |
  Distribute overlap matrix:         0.505     0.505   0.0% |
  Orbital Layouts:                   0.364     0.364   0.0% |
  Potential matrix:                 39.288    39.288   0.7% |
  Sum over cells:                    0.099     0.099   0.0% |
 LCAO to grid:                     108.088   108.088   2.0% ||
 Set positions (LCAO WFS):           2.366     0.368   0.0% |
  Basic WFS set positions:           0.001     0.001   0.0% |
  Basis functions set positions:     0.000     0.000   0.0% |
  P tci:                             1.074     1.074   0.0% |
  ST tci:                            0.707     0.707   0.0% |
  mktci:                             0.215     0.215   0.0% |
PWDescriptor:                        0.025     0.025   0.0% |
SCF-cycle:                        2092.761     4.523   0.1% |
 Davidson:                        1728.923   548.264  10.4% |---|
  Apply H:                         128.076   124.222   2.3% ||
   HMM T:                            3.854     3.854   0.1% |
  Subspace diag:                   258.785     0.157   0.0% |
   calc_h_matrix:                  170.825    44.599   0.8% |
    Apply H:                       126.226   122.485   2.3% ||
     HMM T:                          3.741     3.741   0.1% |
   diagonalize:                      5.993     5.993   0.1% |
   rotate_psi:                      81.810    81.810   1.5% ||
  calc. matrices:                  545.469   298.260   5.6% |-|
   Apply H:                        247.209   240.142   4.5% |-|
    HMM T:                           7.067     7.067   0.1% |
  diagonalize:                      81.619    81.619   1.5% ||
  rotate_psi:                      166.710   166.710   3.2% ||
 Density:                           72.095     0.001   0.0% |
  Atomic density matrices:           1.276     1.276   0.0% |
  Mix:                              10.938    10.938   0.2% |
  Multipole moments:                 0.029     0.029   0.0% |
  Pseudo density:                   59.850    59.849   1.1% |
   Symmetrize density:               0.001     0.001   0.0% |
 Forces:                           263.243   263.243   5.0% |-|
 Hamiltonian:                       19.909     0.120   0.0% |
  Atomic:                            2.873     2.873   0.1% |
   XC Correction:                    0.000     0.000   0.0% |
  Calculate atomic Hamiltonians:     8.187     8.187   0.2% |
  Communicate:                       0.090     0.090   0.0% |
  Poisson:                           0.074     0.074   0.0% |
  XC 3D grid:                        8.565     8.565   0.2% |
 Orthonormalize:                     4.067     0.003   0.0% |
  calc_s_matrix:                     0.484     0.484   0.0% |
  inverse-cholesky:                  0.054     0.054   0.0% |
  projections:                       2.669     2.669   0.1% |
  rotate_psi_s:                      0.857     0.857   0.0% |
Set symmetry:                        0.000     0.000   0.0% |
Other:                            3043.565  3043.565  57.6% |----------------------|
-----------------------------------------------------------
Total:                                      5288.287 100.0%

Memory usage: 12.69 GiB
Date: Mon Mar 22 09:38:19 2021
