
  ___ ___ ___ _ _ _  
 |   |   |_  | | | | 
 | | | | | . | | | | 
 |__ |  _|___|_____|  20.10.1b1
 |___|_|             

User:   madkru@i018.nifl.fysik.dtu.dk
Date:   Tue Mar 23 13:57:24 2021
Arch:   x86_64
Pid:    26873
Python: 3.7.4
gpaw:   /home/niflheim/madkru/venv_folder/gpaw/gpaw (d0d1ca1c71)
_gpaw:  /home/niflheim/madkru/venv_folder/gpaw/build/lib.linux-x86_64-ivybridge-3.7/
        _gpaw.cpython-37m-x86_64-linux-gnu.so (4fd39e8b1e)
ase:    /home/niflheim/madkru/venv_folder/ase/ase (version 3.21.0b1-7e6c206a91)
numpy:  /home/niflheim/madkru/venv_folder/lib/python3.7/site-packages/numpy (version 1.19.4)
scipy:  /home/niflheim/madkru/venv_folder/lib/python3.7/site-packages/scipy (version 1.5.4)
libxc:  4.3.4
units:  Angstrom and eV
cores: 64
OMP_NUM_THREADS: 1

Input parameters:
  convergence: {bands: occupied,
                density: 0.0001,
                eigenstates: 4e-08,
                energy: 0.0005,
                forces: 1e-06}
  kpts: [6 6 4]
  mode: {ecut: 600.0,
         gammacentered: False,
         name: pw}
  occupations: {fixmagmom: False,
                name: fermi-dirac,
                width: 0.001}
  setups: {Mn: :d,3.0}
  symmetry: {point_group: False,
             time_reversal: False}

System changes: positions, numbers, cell, pbc, initial_charges, initial_magmoms 

Initialize ...

O-setup:
  name: Oxygen
  id: 9b9d51c344dea68c822856295a461509
  Z: 8.0
  valence: 6
  core: 2
  charge: 0.0
  file: /home/modules/software/GPAW-setups/0.9.20000/O.LDA.gz
  compensation charges: gauss, rc=0.21, lmax=2
  cutoffs: 1.17(filt), 0.83(core),
  valence states:
                energy  radius
    2s(2.00)   -23.752   0.688
    2p(4.00)    -9.195   0.598
    *s           3.459   0.688
    *p          18.016   0.598
    *d           0.000   0.619

  Using partial waves for O as LCAO basis

Mn-setup:
  name: Manganese
  id: 0d715a8018be061a6e9ea6f2d364ac92
  Z: 25.0
  valence: 15
  core: 10
  charge: 0.0
  Hubbard U: 3.000000 eV (l=2, scale=True)
  file: /home/modules/software/GPAW-setups/0.9.20000/Mn.LDA.gz
  compensation charges: gauss, rc=0.38, lmax=2
  cutoffs: 2.14(filt), 0.86(core),
  valence states:
                energy  radius
    3s(2.00)   -85.387   1.275
    4s(2.00)    -5.282   1.275
    3p(6.00)   -54.493   1.281
    4p(0.00)    -1.471   1.281
    3d(5.00)    -7.009   1.138
    *d          20.203   1.138

  Using partial waves for Mn as LCAO basis

P-setup:
  name: Phosphorus
  id: a5561c299094968922a179ab894d2e2d
  Z: 15.0
  valence: 5
  core: 10
  charge: 0.0
  file: /home/modules/software/GPAW-setups/0.9.20000/P.LDA.gz
  compensation charges: gauss, rc=0.30, lmax=2
  cutoffs: 1.69(filt), 1.81(core),
  valence states:
                energy  radius
    3s(2.00)   -14.015   0.953
    3p(3.00)    -5.596   0.953
    *s          13.197   0.953
    *p          21.615   0.953
    *d           0.000   0.953

  Using partial waves for P as LCAO basis

Li-setup:
  name: Lithium
  id: b73562207f97a71b6967473b66fe8b65
  Z: 3.0
  valence: 1
  core: 2
  charge: 0.0
  file: /home/modules/software/GPAW-setups/0.9.20000/Li.LDA.gz
  compensation charges: gauss, rc=0.33, lmax=2
  cutoffs: 1.91(filt), 2.55(core),
  valence states:
                energy  radius
    2s(1.00)    -2.874   1.058
    2p(0.00)    -1.126   1.058
    *s          24.338   1.058

  Using partial waves for Li as LCAO basis

Reference energy: -196157.275402

Spin-polarized calculation.
Magnetic moment: 0.000000

Convergence criteria:
  Maximum total energy change: 0.0005 eV / electron
  Maximum integral of absolute density change: 0.0001 electrons
  Maximum integral of absolute eigenstate change: 4e-08 eV^2
  Maximum change in atomic force: 1e-06 eV / Ang
  Maximum number of iterations: 333

Symmetries present (total): 1

  ( 1  0  0)
  ( 0  1  0)
  ( 0  0  1)

144 k-points: 6 x 6 x 4 Monkhorst-Pack grid
144 k-points in the irreducible part of the Brillouin zone
       k-points in crystal coordinates                weights
   0:    -0.41666667   -0.41666667   -0.37500000          1/144
   1:    -0.41666667   -0.41666667   -0.12500000          1/144
   2:    -0.41666667   -0.41666667    0.12500000          1/144
   3:    -0.41666667   -0.41666667    0.37500000          1/144
   4:    -0.41666667   -0.25000000   -0.37500000          1/144
   5:    -0.41666667   -0.25000000   -0.12500000          1/144
   6:    -0.41666667   -0.25000000    0.12500000          1/144
   7:    -0.41666667   -0.25000000    0.37500000          1/144
   8:    -0.41666667   -0.08333333   -0.37500000          1/144
   9:    -0.41666667   -0.08333333   -0.12500000          1/144
          ...
 143:     0.41666667    0.41666667    0.37500000          1/144

Wave functions: Plane wave expansion
  Cutoff energy: 600.000 eV
  Number of coefficients (min, max): 9238, 9284
  Pulay-stress correction: 0.000000 eV/Ang^3 (de/decut=0.000000)
  Using FFTW library
  ScaLapack parameters: grid=1x1, blocksize=None
  Wavefunction extrapolation:
    Improved wavefunction reuse through dual PAW basis 

  Fermi-Dirac: width=0.0010 eV

Eigensolver
   Davidson(niter=2, smin=None, normalize=True) 

Densities:
  Coarse grid: 60*35*27 grid
  Fine grid: 120*70*54 grid
  Total Charge: 0.000000 

Density mixing:
  Method: difference
  Backend: pulay
  Linear mixing parameter: 0.05
  Mixing with 5 old densities
  Damping of long wave oscillations: 50 

Hamiltonian:
  XC and Coulomb potentials evaluated on a 120*70*54 grid
  Using the LDA Exchange-Correlation functional
 

Memory estimate:
  Process memory now: 12159.85 MiB
  Calculator: 326.59 MiB
    Density: 9.67 MiB
      Arrays: 3.79 MiB
      Localized functions: 4.32 MiB
      Mixer: 1.56 MiB
    Hamiltonian: 2.94 MiB
      Arrays: 2.82 MiB
      XC: 0.00 MiB
      Poisson: 0.00 MiB
      vbar: 0.12 MiB
    Wavefunctions: 313.97 MiB
      Arrays psit_nG: 285.59 MiB
      Eigensolver: 18.49 MiB
      Projections: 2.71 MiB
      Projectors: 4.46 MiB
      PW-descriptor: 2.72 MiB

Total number of cores used: 64
Parallelization over k-points: 16
Domain decomposition: 2 x 2 x 1

Number of atoms: 28
Number of atomic orbitals: 148
Number of bands in calculation: 112
Number of valence electrons: 180
Bands to converge: occupied

... initialized

Initializing position-dependent things.

Density initialized from atomic densities
Creating initial wave functions:
  112 bands from LCAO basis set

                                           
                                           
                                           
                                           
                                           
               O     O  P  O               
            PO           OMn     O         
                  O          MO            
            O        Li O                  
             Mn  On          OP            
         O         Li O                    
         Li     O P         O              
       Li                                  
                                           
                                           
                                           
                                           

Positions:
   0 O     -1.263197   -2.497779   -1.098475    ( 0.0000,  0.0000,  0.0000)
   1 O     -3.070823    2.922496    1.209491    ( 0.0000,  0.0000,  0.0000)
   2 O      1.985541    0.474863    1.428016    ( 0.0000,  0.0000,  0.0000)
   3 O      3.793120   -0.050100   -0.879950    ( 0.0000,  0.0000,  0.0000)
   4 O      1.985518    2.922485    1.428149    ( 0.0000,  0.0000,  0.0000)
   5 O      3.793144   -2.497790   -0.879818    ( 0.0000,  0.0000,  0.0000)
   6 O     -1.263220   -0.050157   -1.098342    ( 0.0000,  0.0000,  0.0000)
   7 O     -3.070798    0.474805    1.209623    ( 0.0000,  0.0000,  0.0000)
   8 O     -4.167835   -1.273920   -0.862116    ( 0.0000,  0.0000,  0.0000)
   9 O     -0.166037    1.698602    1.445528    ( 0.0000,  0.0000,  0.0000)
  10 O      4.890156    1.698625    1.191790    ( 0.0000,  0.0000,  0.0000)
  11 O      0.888358   -1.273896   -1.105855    ( 0.0000,  0.0000,  0.0000)
  12 Mn    -2.445557   -1.274211    0.312921    ( 0.0000,  0.0000,  1.0000)
  13 Mn    -1.888303    1.698892   -1.994948    ( 0.0000,  0.0000, -1.0000)
  14 Mn     3.167879    1.698917    0.016752    ( 0.0000,  0.0000, -1.0000)
  15 Mn     2.610624   -1.274187    2.324621    ( 0.0000,  0.0000,  1.0000)
  16 P     -0.529549   -1.273917   -1.724376    ( 0.0000,  0.0000,  0.0000)
  17 P     -3.804359    1.698599    0.583463    ( 0.0000,  0.0000,  0.0000)
  18 P      1.251870    1.698623    2.054050    ( 0.0000,  0.0000,  0.0000)
  19 P      4.526680   -1.273894   -0.253789    ( 0.0000,  0.0000,  0.0000)
  20 O     -0.544227   -1.273926    1.365380    ( 0.0000,  0.0000,  0.0000)
  21 O     -3.789411    1.698610   -0.942222    ( 0.0000,  0.0000,  0.0000)
  22 O      1.266548    1.698631   -1.035707    ( 0.0000,  0.0000,  0.0000)
  23 O      4.511733   -1.273905    1.271895    ( 0.0000,  0.0000,  0.0000)
  24 Li    -4.695087   -2.760584   -2.142877    ( 0.0000,  0.0000,  0.0000)
  25 Li     0.361147   -2.760561    0.164836    ( 0.0000,  0.0000,  0.0000)
  26 Li    -4.695074    0.212330   -2.142877    ( 0.0000,  0.0000,  0.0000)
  27 Li     0.361161    0.212353    0.164837    ( 0.0000,  0.0000,  0.0000)

Unit cell:
           periodic     x           y           z      points  spacing
  1. axis:    yes   10.112485    0.000045   -0.000035    60     0.1685
  2. axis:    yes    0.000026    5.945827    0.000001    35     0.1699
  3. axis:    yes   -0.000016    0.000000    4.615463    27     0.1709

  Lengths:  10.112485   5.945827   4.615463
  Angles:   89.999989  90.000396  89.999490

Effective grid spacing dv^(1/3) = 0.1698

                     log10-error:           total        iterations:
           time      wfs    density  force  energy       poisson  magmom
iter:   1  13:58:57                       -221.381759             +0.0000
iter:   2  13:59:17  -0.61  -0.93         -234.846108             +0.0000
iter:   3  13:59:36  -0.37  -0.97         -225.913819             -0.0000
iter:   4  13:59:56  -1.39  -1.29         -225.761990             +0.0000
iter:   5  14:00:16  -1.27  -1.39         -227.333260             +0.0000
iter:   6  14:00:36  -1.46  -1.46         -225.736951             +0.0000
iter:   7  14:00:56  -2.46  -2.04         -225.723862             +0.0000
iter:   8  14:01:16  -2.09  -1.99         -225.609996             +0.0000
iter:   9  14:01:36  -2.44  -2.06         -225.429957             +0.0000
iter:  10  14:01:56  -3.31  -2.57         -225.420851             +0.0000
iter:  11  14:02:16  -3.73  -2.84         -225.411921             +0.0000
iter:  12  14:02:35  -4.15  -3.03         -225.410586             +0.0000
iter:  13  14:02:55  -5.09  -3.28         -225.410422             +0.0000
iter:  14  14:03:15  -5.23  -3.33         -225.410316             +0.0000
iter:  15  14:03:35  -6.09  -3.43         -225.410258             +0.0000
iter:  16  14:03:55  -5.40  -3.47         -225.410351             -0.0000
iter:  17  14:04:15  -5.18  -3.61         -225.410301             +0.0000
iter:  18  14:04:35  -5.94  -3.84         -225.410212             +0.0000
iter:  19  14:04:55  -7.01  -4.33         -225.410211             +0.0000
iter:  20  14:05:15  -6.49  -4.35         -225.410219             -0.0000
iter:  21  14:05:35  -6.95  -4.24         -225.410209             -0.0000
iter:  22  14:06:00  -8.05  -4.65         -225.410209             +0.0000
iter:  23  14:06:24  -7.68  -4.76    -2.56-225.410209             -0.0000
iter:  24  14:06:49  -8.57  -5.13    -3.13-225.410209             -0.0000
iter:  25  14:07:14  -8.74  -5.17    -2.95-225.410209             +0.0000
iter:  26  14:07:38  -9.38  -5.56    -3.31-225.410209             +0.0000
iter:  27  14:08:03  -9.97  -5.85    -3.65-225.410209             +0.0000
iter:  28  14:08:27 -10.76  -5.97    -3.95-225.410209             -0.0000
iter:  29  14:08:52 -10.93  -6.12    -4.29-225.410209             -0.0000
iter:  30  14:09:17 -11.10  -6.18    -4.11-225.410209             -0.0000
iter:  31  14:09:41 -11.10  -6.25    -3.95-225.410209             -0.0000
iter:  32  14:10:06 -11.04  -6.38    -3.87-225.410209             -0.0000
iter:  33  14:10:31 -12.54  -6.95    -5.08-225.410209             -0.0000
iter:  34  14:10:55 -12.02  -6.96    -4.61-225.410209             -0.0000
iter:  35  14:11:20 -12.18  -6.99    -4.59-225.410209             -0.0000
iter:  36  14:11:44 -12.52  -7.12    -5.27-225.410209             -0.0000
iter:  37  14:12:09 -13.04  -7.19    -4.73-225.410209             -0.0000
iter:  38  14:12:34 -13.49  -7.33    -5.15-225.410209             -0.0000
iter:  39  14:12:58 -14.11  -7.38    -5.55-225.410209             +0.0000
iter:  40  14:13:23 -13.13  -7.44    -5.05-225.410209             -0.0000
iter:  41  14:13:47 -14.24  -7.62    -5.90-225.410209             -0.0000
iter:  42  14:14:12 -13.44  -7.66    -5.12-225.410209             -0.0000
iter:  43  14:14:36 -14.15  -7.88    -5.56-225.410209             -0.0000
iter:  44  14:15:01 -14.33  -8.00    -5.77-225.410209             -0.0000
iter:  45  14:15:26 -14.79  -8.15    -5.79-225.410209             -0.0000
iter:  46  14:15:50 -15.41  -8.32    -6.31-225.410209             -0.0000

Converged after 46 iterations.

Dipole moment: (19.055424, -1.427012, -4.180165) |e|*Ang

Total magnetic moment: (0.000000, 0.000000, -0.000000)
Local magnetic moments:
   0 O  ( 0.000000,  0.000000,  0.000615)
   1 O  ( 0.000000,  0.000000, -0.000674)
   2 O  ( 0.000000,  0.000000, -0.000694)
   3 O  ( 0.000000,  0.000000,  0.000656)
   4 O  ( 0.000000,  0.000000, -0.000698)
   5 O  ( 0.000000,  0.000000,  0.000660)
   6 O  ( 0.000000,  0.000000,  0.000611)
   7 O  ( 0.000000,  0.000000, -0.000670)
   8 O  ( 0.000000,  0.000000,  0.022390)
   9 O  ( 0.000000,  0.000000, -0.022382)
  10 O  ( 0.000000,  0.000000, -0.022362)
  11 O  ( 0.000000,  0.000000,  0.022350)
  12 Mn ( 0.000000,  0.000000,  4.575011)
  13 Mn ( 0.000000,  0.000000, -4.575038)
  14 Mn ( 0.000000,  0.000000, -4.575079)
  15 Mn ( 0.000000,  0.000000,  4.575472)
  16 P  ( 0.000000,  0.000000,  0.000749)
  17 P  ( 0.000000,  0.000000, -0.000823)
  18 P  ( 0.000000,  0.000000, -0.000822)
  19 P  ( 0.000000,  0.000000,  0.000810)
  20 O  ( 0.000000,  0.000000,  0.020624)
  21 O  ( 0.000000,  0.000000, -0.020714)
  22 O  ( 0.000000,  0.000000, -0.020715)
  23 O  ( 0.000000,  0.000000,  0.020751)
  24 Li ( 0.000000,  0.000000, -0.000000)
  25 Li ( 0.000000,  0.000000,  0.000005)
  26 Li ( 0.000000,  0.000000, -0.000000)
  27 Li ( 0.000000,  0.000000,  0.000005)

Energy contributions relative to reference atoms: (reference = -196157.275402)

Kinetic:       +296.484927
Potential:     -256.102696
External:        +0.000000
XC:            -267.574465
Entropy (-ST):   -0.000000
Local:           +1.782025
--------------------------
Free energy:   -225.410209
Extrapolated:  -225.410209

Spin contamination: 9.697373 electrons
Showing only first 2 kpts
                      Up                     Down
 Kpt  Band  Eigenvalues  Occupancy  Eigenvalues  Occupancy
  0    88      5.10330    0.00694      5.10925    0.00694
  0    89      5.15456    0.00694      5.16080    0.00694
  0    90      9.65214    0.00000      9.64937    0.00000
  0    91      9.67048    0.00000      9.66883    0.00000

  1    88      5.11486    0.00694      5.12092    0.00694
  1    89      5.16366    0.00694      5.17021    0.00694
  1    90      9.53447    0.00000      9.53188    0.00000
  1    91      9.54420    0.00000      9.54468    0.00000


Fermi level: 6.36963

Gap: 3.793 eV
Transition (v -> c):
  (s=1, k=71, n=89, [-0.08, 0.42, 0.38]) -> (s=0, k=58, n=90, [-0.08, -0.08, 0.12])
Writing to born-0.01-11z+.gpw (mode='all')

Timing:                              incl.     excl.
-----------------------------------------------------------
Hamiltonian:                         0.212     0.002   0.0% |
 Atomic:                             0.053     0.053   0.0% |
  XC Correction:                     0.000     0.000   0.0% |
 Calculate atomic Hamiltonians:      0.071     0.071   0.0% |
 Communicate:                        0.001     0.001   0.0% |
 Initialize Hamiltonian:             0.000     0.000   0.0% |
 Poisson:                            0.001     0.001   0.0% |
 XC 3D grid:                         0.084     0.084   0.0% |
LCAO initialization:                70.135     0.651   0.0% |
 LCAO eigensolver:                  19.300     0.002   0.0% |
  Calculate projections:             0.029     0.029   0.0% |
  DenseAtomicCorrection:             0.045     0.045   0.0% |
  Distribute overlap matrix:         0.009     0.009   0.0% |
  Orbital Layouts:                   0.432     0.432   0.0% |
  Potential matrix:                 18.689    18.689   0.6% |
  Sum over cells:                    0.094     0.094   0.0% |
 LCAO to grid:                      48.863    48.863   1.7% ||
 Set positions (LCAO WFS):           1.321     0.191   0.0% |
  Basic WFS set positions:           0.001     0.001   0.0% |
  Basis functions set positions:     0.000     0.000   0.0% |
  P tci:                             0.527     0.527   0.0% |
  ST tci:                            0.384     0.384   0.0% |
  mktci:                             0.218     0.218   0.0% |
PWDescriptor:                        0.024     0.024   0.0% |
SCF-cycle:                        1034.485     0.449   0.0% |
 Davidson:                         869.049   266.828   9.2% |---|
  Apply H:                          60.074    58.329   2.0% ||
   HMM T:                            1.745     1.745   0.1% |
  Subspace diag:                   125.994     0.130   0.0% |
   calc_h_matrix:                   80.944    21.033   0.7% |
    Apply H:                        59.912    58.163   2.0% ||
     HMM T:                          1.749     1.749   0.1% |
   diagonalize:                      6.300     6.300   0.2% |
   rotate_psi:                      38.620    38.620   1.3% ||
  calc. matrices:                  259.812   142.469   4.9% |-|
   Apply H:                        117.343   114.105   3.9% |-|
    HMM T:                           3.239     3.239   0.1% |
  diagonalize:                      72.644    72.644   2.5% ||
  rotate_psi:                       83.696    83.696   2.9% ||
 Density:                           35.515     0.001   0.0% |
  Atomic density matrices:           0.712     0.712   0.0% |
  Mix:                               4.831     4.831   0.2% |
  Multipole moments:                 0.016     0.016   0.0% |
  Pseudo density:                   29.955    29.954   1.0% |
   Symmetrize density:               0.001     0.001   0.0% |
 Forces:                           117.463   117.463   4.0% |-|
 Hamiltonian:                        9.924     0.095   0.0% |
  Atomic:                            2.512     2.512   0.1% |
   XC Correction:                    0.000     0.000   0.0% |
  Calculate atomic Hamiltonians:     3.405     3.405   0.1% |
  Communicate:                       0.054     0.054   0.0% |
  Poisson:                           0.027     0.027   0.0% |
  XC 3D grid:                        3.831     3.831   0.1% |
 Orthonormalize:                     2.084     0.003   0.0% |
  calc_s_matrix:                     0.245     0.245   0.0% |
  inverse-cholesky:                  0.072     0.072   0.0% |
  projections:                       1.332     1.332   0.0% |
  rotate_psi_s:                      0.432     0.432   0.0% |
Set symmetry:                        0.000     0.000   0.0% |
Other:                            1806.787  1806.787  62.1% |------------------------|
-----------------------------------------------------------
Total:                                      2911.643 100.0%

Memory usage: 11.91 GiB
Date: Tue Mar 23 14:45:56 2021
