
  ___ ___ ___ _ _ _  
 |   |   |_  | | | | 
 | | | | | . | | | | 
 |__ |  _|___|_____|  20.10.1b1
 |___|_|             

User:   madkru@i018.nifl.fysik.dtu.dk
Date:   Tue Mar 23 13:28:18 2021
Arch:   x86_64
Pid:    26873
Python: 3.7.4
gpaw:   /home/niflheim/madkru/venv_folder/gpaw/gpaw (d0d1ca1c71)
_gpaw:  /home/niflheim/madkru/venv_folder/gpaw/build/lib.linux-x86_64-ivybridge-3.7/
        _gpaw.cpython-37m-x86_64-linux-gnu.so (4fd39e8b1e)
ase:    /home/niflheim/madkru/venv_folder/ase/ase (version 3.21.0b1-7e6c206a91)
numpy:  /home/niflheim/madkru/venv_folder/lib/python3.7/site-packages/numpy (version 1.19.4)
scipy:  /home/niflheim/madkru/venv_folder/lib/python3.7/site-packages/scipy (version 1.5.4)
libxc:  4.3.4
units:  Angstrom and eV
cores: 64
OMP_NUM_THREADS: 1

Input parameters:
  convergence: {bands: occupied,
                density: 0.0001,
                eigenstates: 4e-08,
                energy: 0.0005,
                forces: 1e-06}
  kpts: [6 6 4]
  mode: {ecut: 600.0,
         gammacentered: False,
         name: pw}
  occupations: {fixmagmom: False,
                name: fermi-dirac,
                width: 0.001}
  setups: {Mn: :d,3.0}
  symmetry: {point_group: False,
             time_reversal: False}

System changes: positions, numbers, cell, pbc, initial_charges, initial_magmoms 

Initialize ...

O-setup:
  name: Oxygen
  id: 9b9d51c344dea68c822856295a461509
  Z: 8.0
  valence: 6
  core: 2
  charge: 0.0
  file: /home/modules/software/GPAW-setups/0.9.20000/O.LDA.gz
  compensation charges: gauss, rc=0.21, lmax=2
  cutoffs: 1.17(filt), 0.83(core),
  valence states:
                energy  radius
    2s(2.00)   -23.752   0.688
    2p(4.00)    -9.195   0.598
    *s           3.459   0.688
    *p          18.016   0.598
    *d           0.000   0.619

  Using partial waves for O as LCAO basis

Mn-setup:
  name: Manganese
  id: 0d715a8018be061a6e9ea6f2d364ac92
  Z: 25.0
  valence: 15
  core: 10
  charge: 0.0
  Hubbard U: 3.000000 eV (l=2, scale=True)
  file: /home/modules/software/GPAW-setups/0.9.20000/Mn.LDA.gz
  compensation charges: gauss, rc=0.38, lmax=2
  cutoffs: 2.14(filt), 0.86(core),
  valence states:
                energy  radius
    3s(2.00)   -85.387   1.275
    4s(2.00)    -5.282   1.275
    3p(6.00)   -54.493   1.281
    4p(0.00)    -1.471   1.281
    3d(5.00)    -7.009   1.138
    *d          20.203   1.138

  Using partial waves for Mn as LCAO basis

P-setup:
  name: Phosphorus
  id: a5561c299094968922a179ab894d2e2d
  Z: 15.0
  valence: 5
  core: 10
  charge: 0.0
  file: /home/modules/software/GPAW-setups/0.9.20000/P.LDA.gz
  compensation charges: gauss, rc=0.30, lmax=2
  cutoffs: 1.69(filt), 1.81(core),
  valence states:
                energy  radius
    3s(2.00)   -14.015   0.953
    3p(3.00)    -5.596   0.953
    *s          13.197   0.953
    *p          21.615   0.953
    *d           0.000   0.953

  Using partial waves for P as LCAO basis

Li-setup:
  name: Lithium
  id: b73562207f97a71b6967473b66fe8b65
  Z: 3.0
  valence: 1
  core: 2
  charge: 0.0
  file: /home/modules/software/GPAW-setups/0.9.20000/Li.LDA.gz
  compensation charges: gauss, rc=0.33, lmax=2
  cutoffs: 1.91(filt), 2.55(core),
  valence states:
                energy  radius
    2s(1.00)    -2.874   1.058
    2p(0.00)    -1.126   1.058
    *s          24.338   1.058

  Using partial waves for Li as LCAO basis

Reference energy: -196157.275402

Spin-polarized calculation.
Magnetic moment: 0.000000

Convergence criteria:
  Maximum total energy change: 0.0005 eV / electron
  Maximum integral of absolute density change: 0.0001 electrons
  Maximum integral of absolute eigenstate change: 4e-08 eV^2
  Maximum change in atomic force: 1e-06 eV / Ang
  Maximum number of iterations: 333

Symmetries present (total): 1

  ( 1  0  0)
  ( 0  1  0)
  ( 0  0  1)

144 k-points: 6 x 6 x 4 Monkhorst-Pack grid
144 k-points in the irreducible part of the Brillouin zone
       k-points in crystal coordinates                weights
   0:    -0.41666667   -0.41666667   -0.37500000          1/144
   1:    -0.41666667   -0.41666667   -0.12500000          1/144
   2:    -0.41666667   -0.41666667    0.12500000          1/144
   3:    -0.41666667   -0.41666667    0.37500000          1/144
   4:    -0.41666667   -0.25000000   -0.37500000          1/144
   5:    -0.41666667   -0.25000000   -0.12500000          1/144
   6:    -0.41666667   -0.25000000    0.12500000          1/144
   7:    -0.41666667   -0.25000000    0.37500000          1/144
   8:    -0.41666667   -0.08333333   -0.37500000          1/144
   9:    -0.41666667   -0.08333333   -0.12500000          1/144
          ...
 143:     0.41666667    0.41666667    0.37500000          1/144

Wave functions: Plane wave expansion
  Cutoff energy: 600.000 eV
  Number of coefficients (min, max): 9238, 9284
  Pulay-stress correction: 0.000000 eV/Ang^3 (de/decut=0.000000)
  Using FFTW library
  ScaLapack parameters: grid=1x1, blocksize=None
  Wavefunction extrapolation:
    Improved wavefunction reuse through dual PAW basis 

  Fermi-Dirac: width=0.0010 eV

Eigensolver
   Davidson(niter=2, smin=None, normalize=True) 

Densities:
  Coarse grid: 60*35*27 grid
  Fine grid: 120*70*54 grid
  Total Charge: 0.000000 

Density mixing:
  Method: difference
  Backend: pulay
  Linear mixing parameter: 0.05
  Mixing with 5 old densities
  Damping of long wave oscillations: 50 

Hamiltonian:
  XC and Coulomb potentials evaluated on a 120*70*54 grid
  Using the LDA Exchange-Correlation functional
 

Memory estimate:
  Process memory now: 12153.91 MiB
  Calculator: 326.59 MiB
    Density: 9.67 MiB
      Arrays: 3.79 MiB
      Localized functions: 4.32 MiB
      Mixer: 1.56 MiB
    Hamiltonian: 2.94 MiB
      Arrays: 2.82 MiB
      XC: 0.00 MiB
      Poisson: 0.00 MiB
      vbar: 0.12 MiB
    Wavefunctions: 313.97 MiB
      Arrays psit_nG: 285.59 MiB
      Eigensolver: 18.49 MiB
      Projections: 2.71 MiB
      Projectors: 4.46 MiB
      PW-descriptor: 2.72 MiB

Total number of cores used: 64
Parallelization over k-points: 16
Domain decomposition: 2 x 2 x 1

Number of atoms: 28
Number of atomic orbitals: 148
Number of bands in calculation: 112
Number of valence electrons: 180
Bands to converge: occupied

... initialized

Initializing position-dependent things.

Density initialized from atomic densities
Creating initial wave functions:
  112 bands from LCAO basis set

                                           
                                           
                                           
                                           
                                           
               O     O  P  O               
            PO           OMn     O         
                  O          MO            
            O        Li O                  
             Mn  On          OP            
         O         Li O                    
         Li     O P         O              
       Li                                  
                                           
                                           
                                           
                                           

Positions:
   0 O     -1.263197   -2.497779   -1.098475    ( 0.0000,  0.0000,  0.0000)
   1 O     -3.070823    2.922496    1.209491    ( 0.0000,  0.0000,  0.0000)
   2 O      1.985541    0.474863    1.428016    ( 0.0000,  0.0000,  0.0000)
   3 O      3.793120   -0.050100   -0.879950    ( 0.0000,  0.0000,  0.0000)
   4 O      1.985518    2.922485    1.428149    ( 0.0000,  0.0000,  0.0000)
   5 O      3.793144   -2.497790   -0.879818    ( 0.0000,  0.0000,  0.0000)
   6 O     -1.263220   -0.050157   -1.098342    ( 0.0000,  0.0000,  0.0000)
   7 O     -3.070798    0.474805    1.209623    ( 0.0000,  0.0000,  0.0000)
   8 O     -4.167835   -1.273920   -0.862116    ( 0.0000,  0.0000,  0.0000)
   9 O     -0.166037    1.698602    1.445528    ( 0.0000,  0.0000,  0.0000)
  10 O      4.890156    1.698625    1.191790    ( 0.0000,  0.0000,  0.0000)
  11 O      0.888358   -1.273896   -1.125855    ( 0.0000,  0.0000,  0.0000)
  12 Mn    -2.445557   -1.274211    0.312921    ( 0.0000,  0.0000,  1.0000)
  13 Mn    -1.888303    1.698892   -1.994948    ( 0.0000,  0.0000, -1.0000)
  14 Mn     3.167879    1.698917    0.016752    ( 0.0000,  0.0000, -1.0000)
  15 Mn     2.610624   -1.274187    2.324621    ( 0.0000,  0.0000,  1.0000)
  16 P     -0.529549   -1.273917   -1.724376    ( 0.0000,  0.0000,  0.0000)
  17 P     -3.804359    1.698599    0.583463    ( 0.0000,  0.0000,  0.0000)
  18 P      1.251870    1.698623    2.054050    ( 0.0000,  0.0000,  0.0000)
  19 P      4.526680   -1.273894   -0.253789    ( 0.0000,  0.0000,  0.0000)
  20 O     -0.544227   -1.273926    1.365380    ( 0.0000,  0.0000,  0.0000)
  21 O     -3.789411    1.698610   -0.942222    ( 0.0000,  0.0000,  0.0000)
  22 O      1.266548    1.698631   -1.035707    ( 0.0000,  0.0000,  0.0000)
  23 O      4.511733   -1.273905    1.271895    ( 0.0000,  0.0000,  0.0000)
  24 Li    -4.695087   -2.760584   -2.142877    ( 0.0000,  0.0000,  0.0000)
  25 Li     0.361147   -2.760561    0.164836    ( 0.0000,  0.0000,  0.0000)
  26 Li    -4.695074    0.212330   -2.142877    ( 0.0000,  0.0000,  0.0000)
  27 Li     0.361161    0.212353    0.164837    ( 0.0000,  0.0000,  0.0000)

Unit cell:
           periodic     x           y           z      points  spacing
  1. axis:    yes   10.112485    0.000045   -0.000035    60     0.1685
  2. axis:    yes    0.000026    5.945827    0.000001    35     0.1699
  3. axis:    yes   -0.000016    0.000000    4.615463    27     0.1709

  Lengths:  10.112485   5.945827   4.615463
  Angles:   89.999989  90.000396  89.999490

Effective grid spacing dv^(1/3) = 0.1698

                     log10-error:           total        iterations:
           time      wfs    density  force  energy       poisson  magmom
iter:   1  13:29:51                       -221.371139             +0.0000
iter:   2  13:30:11  -0.61  -0.93         -234.825167             +0.0000
iter:   3  13:30:31  -0.37  -0.97         -225.909512             -0.0000
iter:   4  13:30:51  -1.39  -1.29         -225.760391             +0.0000
iter:   5  13:31:11  -1.27  -1.39         -227.325211             +0.0000
iter:   6  13:31:31  -1.47  -1.46         -225.737035             +0.0000
iter:   7  13:31:51  -2.48  -2.04         -225.724823             +0.0000
iter:   8  13:32:11  -2.21  -1.99         -225.569685             +0.0000
iter:   9  13:32:31  -2.49  -2.12         -225.434030             +0.0000
iter:  10  13:32:51  -3.30  -2.53         -225.422899             +0.0000
iter:  11  13:33:10  -3.53  -2.80         -225.411096             +0.0000
iter:  12  13:33:30  -4.19  -3.05         -225.410356             -0.0000
iter:  13  13:33:50  -5.00  -3.30         -225.410444             -0.0000
iter:  14  13:34:10  -5.26  -3.32         -225.410252             -0.0000
iter:  15  13:34:30  -5.88  -3.45         -225.410277             -0.0000
iter:  16  13:34:50  -5.27  -3.50         -225.410642             -0.0000
iter:  17  13:35:10  -6.30  -3.56         -225.410486             -0.0000
iter:  18  13:35:30  -6.06  -3.61         -225.410400             +0.0000
iter:  19  13:35:49  -6.37  -3.78         -225.410361             -0.0000
iter:  20  13:36:09  -5.98  -3.91         -225.410258             -0.0000
iter:  21  13:36:29  -6.13  -3.95         -225.410216             +0.0000
iter:  22  13:36:49  -6.67  -4.28         -225.410219             -0.0000
iter:  23  13:37:13  -7.54  -4.34         -225.410218             -0.0000
iter:  24  13:37:38  -7.78  -4.41    -2.85-225.410216             -0.0000
iter:  25  13:37:58  -6.71  -4.44         -225.410213             +0.0000
iter:  26  13:38:22  -8.10  -4.63    -2.15-225.410212             +0.0000
iter:  27  13:38:47  -7.45  -4.66    -2.57-225.410212             +0.0000
iter:  28  13:39:12  -7.96  -4.86    -2.65-225.410212             +0.0000
iter:  29  13:39:36  -8.75  -4.95    -3.03-225.410212             -0.0000
iter:  30  13:40:01  -8.96  -5.01    -3.53-225.410212             +0.0000
iter:  31  13:40:25  -9.31  -5.05    -3.23-225.410212             +0.0000
iter:  32  13:40:50  -9.14  -5.17    -3.79-225.410212             -0.0000
iter:  33  13:41:14  -9.71  -5.27    -3.32-225.410212             -0.0000
iter:  34  13:41:39  -9.61  -5.36    -3.37-225.410212             -0.0000
iter:  35  13:42:04  -9.42  -5.44    -3.65-225.410212             -0.0000
iter:  36  13:42:28 -10.12  -5.80    -3.88-225.410212             -0.0000
iter:  37  13:42:53  -9.87  -5.92    -3.73-225.410212             +0.0000
iter:  38  13:43:17 -10.41  -6.22    -4.24-225.410212             -0.0000
iter:  39  13:43:42 -10.93  -6.25    -4.23-225.410212             -0.0000
iter:  40  13:44:06 -11.46  -6.31    -4.80-225.410212             -0.0000
iter:  41  13:44:31 -11.73  -6.34    -4.87-225.410212             -0.0000
iter:  42  13:44:55 -12.37  -6.50    -5.18-225.410212             -0.0000
iter:  43  13:45:20 -10.72  -6.56    -4.13-225.410212             -0.0000
iter:  44  13:45:44 -11.93  -6.81    -4.71-225.410212             -0.0000
iter:  45  13:46:09 -12.08  -6.85    -4.98-225.410212             -0.0000
iter:  46  13:46:33 -11.31  -6.99    -4.47-225.410212             +0.0000
iter:  47  13:46:58 -11.36  -6.89    -4.55-225.410212             -0.0000
iter:  48  13:47:22 -12.23  -7.44    -5.25-225.410212             +0.0000
iter:  49  13:47:47 -12.33  -7.37    -5.19-225.410212             -0.0000
iter:  50  13:48:11 -12.94  -7.51    -5.44-225.410212             -0.0000
iter:  51  13:48:36 -13.68  -7.67    -6.02-225.410212             -0.0000

Converged after 51 iterations.

Dipole moment: (19.049875, -1.426052, -4.184909) |e|*Ang

Total magnetic moment: (0.000000, 0.000000, -0.000000)
Local magnetic moments:
   0 O  ( 0.000000,  0.000000,  0.000713)
   1 O  ( 0.000000,  0.000000, -0.000670)
   2 O  ( 0.000000,  0.000000, -0.000625)
   3 O  ( 0.000000,  0.000000,  0.000680)
   4 O  ( 0.000000,  0.000000, -0.000629)
   5 O  ( 0.000000,  0.000000,  0.000684)
   6 O  ( 0.000000,  0.000000,  0.000708)
   7 O  ( 0.000000,  0.000000, -0.000666)
   8 O  ( 0.000000,  0.000000,  0.022346)
   9 O  ( 0.000000,  0.000000, -0.022354)
  10 O  ( 0.000000,  0.000000, -0.022373)
  11 O  ( 0.000000,  0.000000,  0.022388)
  12 Mn ( 0.000000,  0.000000,  4.575119)
  13 Mn ( 0.000000,  0.000000, -4.575032)
  14 Mn ( 0.000000,  0.000000, -4.575052)
  15 Mn ( 0.000000,  0.000000,  4.574587)
  16 P  ( 0.000000,  0.000000,  0.000877)
  17 P  ( 0.000000,  0.000000, -0.000811)
  18 P  ( 0.000000,  0.000000, -0.000802)
  19 P  ( 0.000000,  0.000000,  0.000824)
  20 O  ( 0.000000,  0.000000,  0.020794)
  21 O  ( 0.000000,  0.000000, -0.020703)
  22 O  ( 0.000000,  0.000000, -0.020703)
  23 O  ( 0.000000,  0.000000,  0.020666)
  24 Li ( 0.000000,  0.000000,  0.000000)
  25 Li ( 0.000000,  0.000000, -0.000005)
  26 Li ( 0.000000,  0.000000,  0.000000)
  27 Li ( 0.000000,  0.000000, -0.000005)

Energy contributions relative to reference atoms: (reference = -196157.275402)

Kinetic:       +297.197433
Potential:     -256.664307
External:        +0.000000
XC:            -267.722827
Entropy (-ST):   -0.000000
Local:           +1.779489
--------------------------
Free energy:   -225.410212
Extrapolated:  -225.410212

Spin contamination: 9.697095 electrons
Showing only first 2 kpts
                      Up                     Down
 Kpt  Band  Eigenvalues  Occupancy  Eigenvalues  Occupancy
  0    88      5.11544    0.00694      5.10952    0.00694
  0    89      5.16749    0.00694      5.16118    0.00694
  0    90      9.65245    0.00000      9.65510    0.00000
  0    91      9.67143    0.00000      9.67308    0.00000

  1    88      5.12698    0.00694      5.12105    0.00694
  1    89      5.17708    0.00694      5.17038    0.00694
  1    90      9.53466    0.00000      9.53708    0.00000
  1    91      9.54555    0.00000      9.54517    0.00000


Fermi level: 6.37123

Gap: 3.791 eV
Transition (v -> c):
  (s=0, k=75, n=89, [0.08, -0.42, 0.38]) -> (s=1, k=57, n=90, [-0.08, -0.08, -0.12])
Writing to born-0.01-11z-.gpw (mode='all')

Timing:                              incl.     excl.
-----------------------------------------------------------
Hamiltonian:                         0.216     0.002   0.0% |
 Atomic:                             0.053     0.053   0.0% |
  XC Correction:                     0.000     0.000   0.0% |
 Calculate atomic Hamiltonians:      0.075     0.075   0.0% |
 Communicate:                        0.002     0.002   0.0% |
 Initialize Hamiltonian:             0.000     0.000   0.0% |
 Poisson:                            0.001     0.001   0.0% |
 XC 3D grid:                         0.084     0.084   0.0% |
LCAO initialization:                68.631     0.649   0.0% |
 LCAO eigensolver:                  19.308     0.002   0.0% |
  Calculate projections:             0.029     0.029   0.0% |
  DenseAtomicCorrection:             0.045     0.045   0.0% |
  Distribute overlap matrix:         0.010     0.010   0.0% |
  Orbital Layouts:                   0.432     0.432   0.0% |
  Potential matrix:                 18.704    18.704   0.6% |
  Sum over cells:                    0.086     0.086   0.0% |
 LCAO to grid:                      47.322    47.322   1.6% ||
 Set positions (LCAO WFS):           1.352     0.191   0.0% |
  Basic WFS set positions:           0.001     0.001   0.0% |
  Basis functions set positions:     0.000     0.000   0.0% |
  P tci:                             0.525     0.525   0.0% |
  ST tci:                            0.386     0.386   0.0% |
  mktci:                             0.249     0.249   0.0% |
PWDescriptor:                        0.024     0.024   0.0% |
SCF-cycle:                        1147.454     2.241   0.1% |
 Davidson:                         961.804   295.576  10.1% |---|
  Apply H:                          66.207    64.239   2.2% ||
   HMM T:                            1.968     1.968   0.1% |
  Subspace diag:                   139.146     0.145   0.0% |
   calc_h_matrix:                   89.244    23.303   0.8% |
    Apply H:                        65.941    63.934   2.2% ||
     HMM T:                          2.007     2.007   0.1% |
   diagonalize:                      6.965     6.965   0.2% |
   rotate_psi:                      42.793    42.793   1.5% ||
  calc. matrices:                  287.776   158.195   5.4% |-|
   Apply H:                        129.581   125.920   4.3% |-|
    HMM T:                           3.660     3.660   0.1% |
  diagonalize:                      80.345    80.345   2.7% ||
  rotate_psi:                       92.754    92.754   3.2% ||
 Density:                           38.503     0.001   0.0% |
  Atomic density matrices:           0.791     0.791   0.0% |
  Mix:                               5.386     5.386   0.2% |
  Multipole moments:                 0.018     0.018   0.0% |
  Pseudo density:                   32.306    32.305   1.1% |
   Symmetrize density:               0.001     0.001   0.0% |
 Forces:                           131.787   131.787   4.5% |-|
 Hamiltonian:                       11.032     0.105   0.0% |
  Atomic:                            2.787     2.787   0.1% |
   XC Correction:                    0.000     0.000   0.0% |
  Calculate atomic Hamiltonians:     3.770     3.770   0.1% |
  Communicate:                       0.081     0.081   0.0% |
  Poisson:                           0.031     0.031   0.0% |
  XC 3D grid:                        4.259     4.259   0.1% |
 Orthonormalize:                     2.087     0.003   0.0% |
  calc_s_matrix:                     0.245     0.245   0.0% |
  inverse-cholesky:                  0.073     0.073   0.0% |
  projections:                       1.332     1.332   0.0% |
  rotate_psi_s:                      0.434     0.434   0.0% |
Set symmetry:                        0.000     0.000   0.0% |
Other:                            1713.159  1713.159  58.5% |----------------------|
-----------------------------------------------------------
Total:                                      2929.484 100.0%

Memory usage: 11.87 GiB
Date: Tue Mar 23 14:17:08 2021
