
  ___ ___ ___ _ _ _  
 |   |   |_  | | | | 
 | | | | | . | | | | 
 |__ |  _|___|_____|  20.10.1b1
 |___|_|             

User:   madkru@i018.nifl.fysik.dtu.dk
Date:   Tue Mar 23 15:23:51 2021
Arch:   x86_64
Pid:    26873
Python: 3.7.4
gpaw:   /home/niflheim/madkru/venv_folder/gpaw/gpaw (d0d1ca1c71)
_gpaw:  /home/niflheim/madkru/venv_folder/gpaw/build/lib.linux-x86_64-ivybridge-3.7/
        _gpaw.cpython-37m-x86_64-linux-gnu.so (4fd39e8b1e)
ase:    /home/niflheim/madkru/venv_folder/ase/ase (version 3.21.0b1-7e6c206a91)
numpy:  /home/niflheim/madkru/venv_folder/lib/python3.7/site-packages/numpy (version 1.19.4)
scipy:  /home/niflheim/madkru/venv_folder/lib/python3.7/site-packages/scipy (version 1.5.4)
libxc:  4.3.4
units:  Angstrom and eV
cores: 64
OMP_NUM_THREADS: 1

Input parameters:
  convergence: {bands: occupied,
                density: 0.0001,
                eigenstates: 4e-08,
                energy: 0.0005,
                forces: 1e-06}
  kpts: [6 6 4]
  mode: {ecut: 600.0,
         gammacentered: False,
         name: pw}
  occupations: {fixmagmom: False,
                name: fermi-dirac,
                width: 0.001}
  setups: {Mn: :d,3.0}
  symmetry: {point_group: False,
             time_reversal: False}

System changes: positions, numbers, cell, pbc, initial_charges, initial_magmoms 

Initialize ...

O-setup:
  name: Oxygen
  id: 9b9d51c344dea68c822856295a461509
  Z: 8.0
  valence: 6
  core: 2
  charge: 0.0
  file: /home/modules/software/GPAW-setups/0.9.20000/O.LDA.gz
  compensation charges: gauss, rc=0.21, lmax=2
  cutoffs: 1.17(filt), 0.83(core),
  valence states:
                energy  radius
    2s(2.00)   -23.752   0.688
    2p(4.00)    -9.195   0.598
    *s           3.459   0.688
    *p          18.016   0.598
    *d           0.000   0.619

  Using partial waves for O as LCAO basis

Mn-setup:
  name: Manganese
  id: 0d715a8018be061a6e9ea6f2d364ac92
  Z: 25.0
  valence: 15
  core: 10
  charge: 0.0
  Hubbard U: 3.000000 eV (l=2, scale=True)
  file: /home/modules/software/GPAW-setups/0.9.20000/Mn.LDA.gz
  compensation charges: gauss, rc=0.38, lmax=2
  cutoffs: 2.14(filt), 0.86(core),
  valence states:
                energy  radius
    3s(2.00)   -85.387   1.275
    4s(2.00)    -5.282   1.275
    3p(6.00)   -54.493   1.281
    4p(0.00)    -1.471   1.281
    3d(5.00)    -7.009   1.138
    *d          20.203   1.138

  Using partial waves for Mn as LCAO basis

P-setup:
  name: Phosphorus
  id: a5561c299094968922a179ab894d2e2d
  Z: 15.0
  valence: 5
  core: 10
  charge: 0.0
  file: /home/modules/software/GPAW-setups/0.9.20000/P.LDA.gz
  compensation charges: gauss, rc=0.30, lmax=2
  cutoffs: 1.69(filt), 1.81(core),
  valence states:
                energy  radius
    3s(2.00)   -14.015   0.953
    3p(3.00)    -5.596   0.953
    *s          13.197   0.953
    *p          21.615   0.953
    *d           0.000   0.953

  Using partial waves for P as LCAO basis

Li-setup:
  name: Lithium
  id: b73562207f97a71b6967473b66fe8b65
  Z: 3.0
  valence: 1
  core: 2
  charge: 0.0
  file: /home/modules/software/GPAW-setups/0.9.20000/Li.LDA.gz
  compensation charges: gauss, rc=0.33, lmax=2
  cutoffs: 1.91(filt), 2.55(core),
  valence states:
                energy  radius
    2s(1.00)    -2.874   1.058
    2p(0.00)    -1.126   1.058
    *s          24.338   1.058

  Using partial waves for Li as LCAO basis

Reference energy: -196157.275402

Spin-polarized calculation.
Magnetic moment: 0.000000

Convergence criteria:
  Maximum total energy change: 0.0005 eV / electron
  Maximum integral of absolute density change: 0.0001 electrons
  Maximum integral of absolute eigenstate change: 4e-08 eV^2
  Maximum change in atomic force: 1e-06 eV / Ang
  Maximum number of iterations: 333

Symmetries present (total): 1

  ( 1  0  0)
  ( 0  1  0)
  ( 0  0  1)

144 k-points: 6 x 6 x 4 Monkhorst-Pack grid
144 k-points in the irreducible part of the Brillouin zone
       k-points in crystal coordinates                weights
   0:    -0.41666667   -0.41666667   -0.37500000          1/144
   1:    -0.41666667   -0.41666667   -0.12500000          1/144
   2:    -0.41666667   -0.41666667    0.12500000          1/144
   3:    -0.41666667   -0.41666667    0.37500000          1/144
   4:    -0.41666667   -0.25000000   -0.37500000          1/144
   5:    -0.41666667   -0.25000000   -0.12500000          1/144
   6:    -0.41666667   -0.25000000    0.12500000          1/144
   7:    -0.41666667   -0.25000000    0.37500000          1/144
   8:    -0.41666667   -0.08333333   -0.37500000          1/144
   9:    -0.41666667   -0.08333333   -0.12500000          1/144
          ...
 143:     0.41666667    0.41666667    0.37500000          1/144

Wave functions: Plane wave expansion
  Cutoff energy: 600.000 eV
  Number of coefficients (min, max): 9238, 9284
  Pulay-stress correction: 0.000000 eV/Ang^3 (de/decut=0.000000)
  Using FFTW library
  ScaLapack parameters: grid=1x1, blocksize=None
  Wavefunction extrapolation:
    Improved wavefunction reuse through dual PAW basis 

  Fermi-Dirac: width=0.0010 eV

Eigensolver
   Davidson(niter=2, smin=None, normalize=True) 

Densities:
  Coarse grid: 60*35*27 grid
  Fine grid: 120*70*54 grid
  Total Charge: 0.000000 

Density mixing:
  Method: difference
  Backend: pulay
  Linear mixing parameter: 0.05
  Mixing with 5 old densities
  Damping of long wave oscillations: 50 

Hamiltonian:
  XC and Coulomb potentials evaluated on a 120*70*54 grid
  Using the LDA Exchange-Correlation functional
 

Memory estimate:
  Process memory now: 12243.11 MiB
  Calculator: 326.59 MiB
    Density: 9.67 MiB
      Arrays: 3.79 MiB
      Localized functions: 4.32 MiB
      Mixer: 1.56 MiB
    Hamiltonian: 2.94 MiB
      Arrays: 2.82 MiB
      XC: 0.00 MiB
      Poisson: 0.00 MiB
      vbar: 0.12 MiB
    Wavefunctions: 313.97 MiB
      Arrays psit_nG: 285.59 MiB
      Eigensolver: 18.49 MiB
      Projections: 2.71 MiB
      Projectors: 4.46 MiB
      PW-descriptor: 2.72 MiB

Total number of cores used: 64
Parallelization over k-points: 16
Domain decomposition: 2 x 2 x 1

Number of atoms: 28
Number of atomic orbitals: 148
Number of bands in calculation: 112
Number of valence electrons: 180
Bands to converge: occupied

... initialized

Initializing position-dependent things.

Density initialized from atomic densities
Creating initial wave functions:
  112 bands from LCAO basis set

                                           
                                           
                                           
                                           
                                           
               O     O  P  O               
            PO           OMn     O         
                  O          MO            
            O        Li O                  
             Mn  On          OP            
         O         Li O                    
         Li     O P         O              
       Li                                  
                                           
                                           
                                           
                                           

Positions:
   0 O     -1.263197   -2.497779   -1.098475    ( 0.0000,  0.0000,  0.0000)
   1 O     -3.070823    2.922496    1.209491    ( 0.0000,  0.0000,  0.0000)
   2 O      1.985541    0.474863    1.428016    ( 0.0000,  0.0000,  0.0000)
   3 O      3.793120   -0.050100   -0.879950    ( 0.0000,  0.0000,  0.0000)
   4 O      1.985518    2.922485    1.428149    ( 0.0000,  0.0000,  0.0000)
   5 O      3.793144   -2.497790   -0.879818    ( 0.0000,  0.0000,  0.0000)
   6 O     -1.263220   -0.050157   -1.098342    ( 0.0000,  0.0000,  0.0000)
   7 O     -3.070798    0.474805    1.209623    ( 0.0000,  0.0000,  0.0000)
   8 O     -4.167835   -1.273920   -0.862116    ( 0.0000,  0.0000,  0.0000)
   9 O     -0.166037    1.698602    1.445528    ( 0.0000,  0.0000,  0.0000)
  10 O      4.890156    1.698625    1.191790    ( 0.0000,  0.0000,  0.0000)
  11 O      0.888358   -1.273896   -1.115855    ( 0.0000,  0.0000,  0.0000)
  12 Mn    -2.445557   -1.284211    0.312921    ( 0.0000,  0.0000,  1.0000)
  13 Mn    -1.888303    1.698892   -1.994948    ( 0.0000,  0.0000, -1.0000)
  14 Mn     3.167879    1.698917    0.016752    ( 0.0000,  0.0000, -1.0000)
  15 Mn     2.610624   -1.274187    2.324621    ( 0.0000,  0.0000,  1.0000)
  16 P     -0.529549   -1.273917   -1.724376    ( 0.0000,  0.0000,  0.0000)
  17 P     -3.804359    1.698599    0.583463    ( 0.0000,  0.0000,  0.0000)
  18 P      1.251870    1.698623    2.054050    ( 0.0000,  0.0000,  0.0000)
  19 P      4.526680   -1.273894   -0.253789    ( 0.0000,  0.0000,  0.0000)
  20 O     -0.544227   -1.273926    1.365380    ( 0.0000,  0.0000,  0.0000)
  21 O     -3.789411    1.698610   -0.942222    ( 0.0000,  0.0000,  0.0000)
  22 O      1.266548    1.698631   -1.035707    ( 0.0000,  0.0000,  0.0000)
  23 O      4.511733   -1.273905    1.271895    ( 0.0000,  0.0000,  0.0000)
  24 Li    -4.695087   -2.760584   -2.142877    ( 0.0000,  0.0000,  0.0000)
  25 Li     0.361147   -2.760561    0.164836    ( 0.0000,  0.0000,  0.0000)
  26 Li    -4.695074    0.212330   -2.142877    ( 0.0000,  0.0000,  0.0000)
  27 Li     0.361161    0.212353    0.164837    ( 0.0000,  0.0000,  0.0000)

Unit cell:
           periodic     x           y           z      points  spacing
  1. axis:    yes   10.112485    0.000045   -0.000035    60     0.1685
  2. axis:    yes    0.000026    5.945827    0.000001    35     0.1699
  3. axis:    yes   -0.000016    0.000000    4.615463    27     0.1709

  Lengths:  10.112485   5.945827   4.615463
  Angles:   89.999989  90.000396  89.999490

Effective grid spacing dv^(1/3) = 0.1698

                     log10-error:           total        iterations:
           time      wfs    density  force  energy       poisson  magmom
iter:   1  15:25:24                       -221.376640             +0.0000
iter:   2  15:25:44  -0.61  -0.93         -234.835532             +0.0000
iter:   3  15:26:03  -0.37  -0.97         -225.911778             -0.0000
iter:   4  15:26:23  -1.39  -1.29         -225.761303             +0.0000
iter:   5  15:26:43  -1.27  -1.39         -227.329263             +0.0000
iter:   6  15:27:03  -1.46  -1.46         -225.737118             +0.0000
iter:   7  15:27:23  -2.47  -2.04         -225.724500             +0.0000
iter:   8  15:27:43  -2.14  -1.99         -225.591166             +0.0000
iter:   9  15:28:03  -2.46  -2.09         -225.432071             +0.0000
iter:  10  15:28:22  -3.31  -2.55         -225.422150             +0.0000
iter:  11  15:28:42  -3.65  -2.81         -225.411776             +0.0000
iter:  12  15:29:02  -4.12  -3.05         -225.410667             +0.0000
iter:  13  15:29:22  -5.11  -3.29         -225.410545             -0.0000
iter:  14  15:29:42  -5.39  -3.32         -225.410373             -0.0000
iter:  15  15:30:02  -6.04  -3.43         -225.410378             -0.0000
iter:  16  15:30:22  -5.24  -3.47         -225.410714             +0.0000
iter:  17  15:30:41  -5.83  -3.58         -225.410604             -0.0000
iter:  18  15:31:01  -5.22  -3.71         -225.410321             +0.0000
iter:  19  15:31:21  -6.10  -4.13         -225.410325             +0.0000
iter:  20  15:31:41  -7.28  -4.53         -225.410327             -0.0000
iter:  21  15:32:05  -7.76  -4.55         -225.410326             +0.0000
iter:  22  15:32:30  -7.77  -4.64    -2.55-225.410327             +0.0000
iter:  23  15:32:55  -8.30  -4.80    -2.77-225.410326             +0.0000
iter:  24  15:33:19  -7.64  -4.92    -2.81-225.410326             +0.0000
iter:  25  15:33:44  -8.42  -4.95    -3.14-225.410326             +0.0000
iter:  26  15:34:08  -8.59  -5.25    -3.12-225.410326             +0.0000
iter:  27  15:34:33  -9.82  -5.44    -3.27-225.410326             +0.0000
iter:  28  15:34:57 -10.17  -5.53    -3.96-225.410326             +0.0000
iter:  29  15:35:22  -9.69  -5.59    -3.48-225.410326             +0.0000
iter:  30  15:35:46 -10.25  -5.71    -4.11-225.410326             +0.0000
iter:  31  15:36:11 -10.79  -5.77    -3.86-225.410326             +0.0000
iter:  32  15:36:35 -11.00  -5.82    -3.90-225.410326             +0.0000
iter:  33  15:37:00 -10.48  -5.86    -3.72-225.410326             +0.0000
iter:  34  15:37:24 -11.46  -6.47    -5.09-225.410326             +0.0000
iter:  35  15:37:49 -10.68  -6.51    -4.44-225.410326             +0.0000
iter:  36  15:38:13 -11.76  -6.43    -4.37-225.410326             +0.0000
iter:  37  15:38:38 -11.54  -6.73    -4.68-225.410326             +0.0000
iter:  38  15:39:02 -12.63  -6.98    -5.30-225.410326             +0.0000
iter:  39  15:39:27 -12.53  -7.00    -4.76-225.410326             +0.0000
iter:  40  15:39:51 -12.95  -7.31    -5.16-225.410326             +0.0000
iter:  41  15:40:16 -13.44  -7.64    -5.53-225.410326             +0.0000
iter:  42  15:40:40 -13.50  -7.67    -5.84-225.410326             +0.0000
iter:  43  15:41:05 -14.01  -7.88    -6.09-225.410326             +0.0000

Converged after 43 iterations.

Dipole moment: (19.052654, -1.452215, -4.182766) |e|*Ang

Total magnetic moment: (0.000000, 0.000000, 0.000000)
Local magnetic moments:
   0 O  ( 0.000000,  0.000000,  0.000919)
   1 O  ( 0.000000,  0.000000, -0.000344)
   2 O  ( 0.000000,  0.000000, -0.000658)
   3 O  ( 0.000000,  0.000000,  0.000679)
   4 O  ( 0.000000,  0.000000, -0.000666)
   5 O  ( 0.000000,  0.000000,  0.000661)
   6 O  ( 0.000000,  0.000000,  0.000402)
   7 O  ( 0.000000,  0.000000, -0.000992)
   8 O  ( 0.000000,  0.000000,  0.022369)
   9 O  ( 0.000000,  0.000000, -0.022368)
  10 O  ( 0.000000,  0.000000, -0.022367)
  11 O  ( 0.000000,  0.000000,  0.022368)
  12 Mn ( 0.000000,  0.000000,  4.575028)
  13 Mn ( 0.000000,  0.000000, -4.575032)
  14 Mn ( 0.000000,  0.000000, -4.575066)
  15 Mn ( 0.000000,  0.000000,  4.575035)
  16 P  ( 0.000000,  0.000000,  0.000813)
  17 P  ( 0.000000,  0.000000, -0.000814)
  18 P  ( 0.000000,  0.000000, -0.000812)
  19 P  ( 0.000000,  0.000000,  0.000816)
  20 O  ( 0.000000,  0.000000,  0.020711)
  21 O  ( 0.000000,  0.000000, -0.020707)
  22 O  ( 0.000000,  0.000000, -0.020709)
  23 O  ( 0.000000,  0.000000,  0.020709)
  24 Li ( 0.000000,  0.000000,  0.000005)
  25 Li ( 0.000000,  0.000000, -0.000006)
  26 Li ( 0.000000,  0.000000, -0.000005)
  27 Li ( 0.000000,  0.000000,  0.000006)

Energy contributions relative to reference atoms: (reference = -196157.275402)

Kinetic:       +296.843623
Potential:     -256.385683
External:        +0.000000
XC:            -267.648993
Entropy (-ST):   -0.000000
Local:           +1.780728
--------------------------
Free energy:   -225.410326
Extrapolated:  -225.410326

Spin contamination: 9.697228 electrons
Showing only first 2 kpts
                      Up                     Down
 Kpt  Band  Eigenvalues  Occupancy  Eigenvalues  Occupancy
  0    88      5.10953    0.00694      5.10943    0.00694
  0    89      5.16059    0.00694      5.16089    0.00694
  0    90      9.65231    0.00000      9.65220    0.00000
  0    91      9.67096    0.00000      9.67089    0.00000

  1    88      5.12076    0.00694      5.12100    0.00694
  1    89      5.17020    0.00694      5.17025    0.00694
  1    90      9.53457    0.00000      9.53454    0.00000
  1    91      9.54487    0.00000      9.54489    0.00000


Fermi level: 6.36986

Gap: 3.795 eV
Transition (v -> c):
  (s=0, k=72, n=89, [0.08, -0.42, -0.38]) -> (s=1, k=58, n=90, [-0.08, -0.08, 0.12])
Writing to born-0.01-12y-.gpw (mode='all')

Timing:                              incl.     excl.
-----------------------------------------------------------
Hamiltonian:                         0.227     0.002   0.0% |
 Atomic:                             0.064     0.064   0.0% |
  XC Correction:                     0.000     0.000   0.0% |
 Calculate atomic Hamiltonians:      0.074     0.074   0.0% |
 Communicate:                        0.002     0.002   0.0% |
 Initialize Hamiltonian:             0.000     0.000   0.0% |
 Poisson:                            0.001     0.001   0.0% |
 XC 3D grid:                         0.083     0.083   0.0% |
LCAO initialization:                68.584     0.650   0.0% |
 LCAO eigensolver:                  19.338     0.002   0.0% |
  Calculate projections:             0.029     0.029   0.0% |
  DenseAtomicCorrection:             0.045     0.045   0.0% |
  Distribute overlap matrix:         0.009     0.009   0.0% |
  Orbital Layouts:                   0.431     0.431   0.0% |
  Potential matrix:                 18.739    18.739   0.7% |
  Sum over cells:                    0.085     0.085   0.0% |
 LCAO to grid:                      47.262    47.262   1.7% ||
 Set positions (LCAO WFS):           1.333     0.189   0.0% |
  Basic WFS set positions:           0.001     0.001   0.0% |
  Basis functions set positions:     0.000     0.000   0.0% |
  P tci:                             0.518     0.518   0.0% |
  ST tci:                            0.380     0.380   0.0% |
  mktci:                             0.244     0.244   0.0% |
PWDescriptor:                        0.023     0.023   0.0% |
SCF-cycle:                         964.375     2.348   0.1% |
 Davidson:                         810.354   249.614   8.9% |---|
  Apply H:                          55.495    53.837   1.9% ||
   HMM T:                            1.658     1.658   0.1% |
  Subspace diag:                   117.265     0.121   0.0% |
   calc_h_matrix:                   75.210    19.654   0.7% |
    Apply H:                        55.555    53.864   1.9% ||
     HMM T:                          1.691     1.691   0.1% |
   diagonalize:                      5.854     5.854   0.2% |
   rotate_psi:                      36.080    36.080   1.3% ||
  calc. matrices:                  241.966   133.248   4.7% |-|
   Apply H:                        108.718   105.658   3.8% |-|
    HMM T:                           3.060     3.060   0.1% |
  diagonalize:                      67.870    67.870   2.4% ||
  rotate_psi:                       78.144    78.144   2.8% ||
 Density:                           32.339     0.001   0.0% |
  Atomic density matrices:           0.682     0.682   0.0% |
  Mix:                               4.499     4.499   0.2% |
  Multipole moments:                 0.016     0.016   0.0% |
  Pseudo density:                   27.141    27.140   1.0% |
   Symmetrize density:               0.001     0.001   0.0% |
 Forces:                           108.000   108.000   3.8% |-|
 Hamiltonian:                        9.240     0.088   0.0% |
  Atomic:                            2.306     2.305   0.1% |
   XC Correction:                    0.000     0.000   0.0% |
  Calculate atomic Hamiltonians:     3.187     3.187   0.1% |
  Communicate:                       0.071     0.071   0.0% |
  Poisson:                           0.025     0.025   0.0% |
  XC 3D grid:                        3.563     3.563   0.1% |
 Orthonormalize:                     2.094     0.003   0.0% |
  calc_s_matrix:                     0.245     0.245   0.0% |
  inverse-cholesky:                  0.072     0.072   0.0% |
  projections:                       1.339     1.339   0.0% |
  rotate_psi_s:                      0.435     0.435   0.0% |
Set symmetry:                        0.000     0.000   0.0% |
Other:                            1776.492  1776.492  63.2% |------------------------|
-----------------------------------------------------------
Total:                                      2809.701 100.0%

Memory usage: 11.96 GiB
Date: Tue Mar 23 16:10:40 2021
