
  ___ ___ ___ _ _ _  
 |   |   |_  | | | | 
 | | | | | . | | | | 
 |__ |  _|___|_____|  20.10.1b1
 |___|_|             

User:   madkru@i018.nifl.fysik.dtu.dk
Date:   Wed Mar 24 17:43:43 2021
Arch:   x86_64
Pid:    26873
Python: 3.7.4
gpaw:   /home/niflheim/madkru/venv_folder/gpaw/gpaw (d224efde0f)
_gpaw:  /home/niflheim/madkru/venv_folder/gpaw/build/lib.linux-x86_64-ivybridge-3.7/
        _gpaw.cpython-37m-x86_64-linux-gnu.so (4fd39e8b1e)
ase:    /home/niflheim/madkru/venv_folder/ase/ase (version 3.21.0b1-4d5a73cb29)
numpy:  /home/niflheim/madkru/venv_folder/lib/python3.7/site-packages/numpy (version 1.19.4)
scipy:  /home/niflheim/madkru/venv_folder/lib/python3.7/site-packages/scipy (version 1.5.4)
libxc:  4.3.4
units:  Angstrom and eV
cores: 64
OMP_NUM_THREADS: 1

Input parameters:
  convergence: {bands: occupied,
                density: 0.0001,
                eigenstates: 4e-08,
                energy: 0.0005,
                forces: 1e-06}
  kpts: [6 6 4]
  mode: {ecut: 600.0,
         gammacentered: False,
         name: pw}
  occupations: {fixmagmom: False,
                name: fermi-dirac,
                width: 0.001}
  setups: {Mn: :d,3.0}
  symmetry: {point_group: False,
             time_reversal: False}

System changes: positions, numbers, cell, pbc, initial_charges, initial_magmoms 

Initialize ...

O-setup:
  name: Oxygen
  id: 9b9d51c344dea68c822856295a461509
  Z: 8.0
  valence: 6
  core: 2
  charge: 0.0
  file: /home/modules/software/GPAW-setups/0.9.20000/O.LDA.gz
  compensation charges: gauss, rc=0.21, lmax=2
  cutoffs: 1.17(filt), 0.83(core),
  valence states:
                energy  radius
    2s(2.00)   -23.752   0.688
    2p(4.00)    -9.195   0.598
    *s           3.459   0.688
    *p          18.016   0.598
    *d           0.000   0.619

  Using partial waves for O as LCAO basis

Mn-setup:
  name: Manganese
  id: 0d715a8018be061a6e9ea6f2d364ac92
  Z: 25.0
  valence: 15
  core: 10
  charge: 0.0
  Hubbard U: 3.000000 eV (l=2, scale=True)
  file: /home/modules/software/GPAW-setups/0.9.20000/Mn.LDA.gz
  compensation charges: gauss, rc=0.38, lmax=2
  cutoffs: 2.14(filt), 0.86(core),
  valence states:
                energy  radius
    3s(2.00)   -85.387   1.275
    4s(2.00)    -5.282   1.275
    3p(6.00)   -54.493   1.281
    4p(0.00)    -1.471   1.281
    3d(5.00)    -7.009   1.138
    *d          20.203   1.138

  Using partial waves for Mn as LCAO basis

P-setup:
  name: Phosphorus
  id: a5561c299094968922a179ab894d2e2d
  Z: 15.0
  valence: 5
  core: 10
  charge: 0.0
  file: /home/modules/software/GPAW-setups/0.9.20000/P.LDA.gz
  compensation charges: gauss, rc=0.30, lmax=2
  cutoffs: 1.69(filt), 1.81(core),
  valence states:
                energy  radius
    3s(2.00)   -14.015   0.953
    3p(3.00)    -5.596   0.953
    *s          13.197   0.953
    *p          21.615   0.953
    *d           0.000   0.953

  Using partial waves for P as LCAO basis

Li-setup:
  name: Lithium
  id: b73562207f97a71b6967473b66fe8b65
  Z: 3.0
  valence: 1
  core: 2
  charge: 0.0
  file: /home/modules/software/GPAW-setups/0.9.20000/Li.LDA.gz
  compensation charges: gauss, rc=0.33, lmax=2
  cutoffs: 1.91(filt), 2.55(core),
  valence states:
                energy  radius
    2s(1.00)    -2.874   1.058
    2p(0.00)    -1.126   1.058
    *s          24.338   1.058

  Using partial waves for Li as LCAO basis

Reference energy: -196157.275402

Spin-polarized calculation.
Magnetic moment: 0.000000

Convergence criteria:
  Maximum total energy change: 0.0005 eV / electron
  Maximum integral of absolute density change: 0.0001 electrons
  Maximum integral of absolute eigenstate change: 4e-08 eV^2
  Maximum change in atomic force: 1e-06 eV / Ang
  Maximum number of iterations: 333

Symmetries present (total): 1

  ( 1  0  0)
  ( 0  1  0)
  ( 0  0  1)

144 k-points: 6 x 6 x 4 Monkhorst-Pack grid
144 k-points in the irreducible part of the Brillouin zone
       k-points in crystal coordinates                weights
   0:    -0.41666667   -0.41666667   -0.37500000          1/144
   1:    -0.41666667   -0.41666667   -0.12500000          1/144
   2:    -0.41666667   -0.41666667    0.12500000          1/144
   3:    -0.41666667   -0.41666667    0.37500000          1/144
   4:    -0.41666667   -0.25000000   -0.37500000          1/144
   5:    -0.41666667   -0.25000000   -0.12500000          1/144
   6:    -0.41666667   -0.25000000    0.12500000          1/144
   7:    -0.41666667   -0.25000000    0.37500000          1/144
   8:    -0.41666667   -0.08333333   -0.37500000          1/144
   9:    -0.41666667   -0.08333333   -0.12500000          1/144
          ...
 143:     0.41666667    0.41666667    0.37500000          1/144

Wave functions: Plane wave expansion
  Cutoff energy: 600.000 eV
  Number of coefficients (min, max): 9238, 9284
  Pulay-stress correction: 0.000000 eV/Ang^3 (de/decut=0.000000)
  Using FFTW library
  ScaLapack parameters: grid=1x1, blocksize=None
  Wavefunction extrapolation:
    Improved wavefunction reuse through dual PAW basis 

  Fermi-Dirac: width=0.0010 eV

Eigensolver
   Davidson(niter=2, smin=None, normalize=True) 

Densities:
  Coarse grid: 60*35*27 grid
  Fine grid: 120*70*54 grid
  Total Charge: 0.000000 

Density mixing:
  Method: difference
  Backend: pulay
  Linear mixing parameter: 0.05
  Mixing with 5 old densities
  Damping of long wave oscillations: 50 

Hamiltonian:
  XC and Coulomb potentials evaluated on a 120*70*54 grid
  Using the LDA Exchange-Correlation functional
 

Memory estimate:
  Process memory now: 13438.00 MiB
  Calculator: 326.59 MiB
    Density: 9.67 MiB
      Arrays: 3.79 MiB
      Localized functions: 4.32 MiB
      Mixer: 1.56 MiB
    Hamiltonian: 2.94 MiB
      Arrays: 2.82 MiB
      XC: 0.00 MiB
      Poisson: 0.00 MiB
      vbar: 0.12 MiB
    Wavefunctions: 313.97 MiB
      Arrays psit_nG: 285.59 MiB
      Eigensolver: 18.49 MiB
      Projections: 2.71 MiB
      Projectors: 4.46 MiB
      PW-descriptor: 2.72 MiB

Total number of cores used: 64
Parallelization over k-points: 16
Domain decomposition: 2 x 2 x 1

Number of atoms: 28
Number of atomic orbitals: 148
Number of bands in calculation: 112
Number of valence electrons: 180
Bands to converge: occupied

... initialized

Initializing position-dependent things.

Density initialized from atomic densities
Creating initial wave functions:
  112 bands from LCAO basis set

                                           
                                           
                                           
                                           
                                           
               O     O  P  O               
            PO           OMn     O         
                  O          MO            
            O        Li O                  
             Mn  On          OP            
         O         Li O                    
         Li     O P         O              
       Li                                  
                                           
                                           
                                           
                                           

Positions:
   0 O     -1.263197   -2.497779   -1.098475    ( 0.0000,  0.0000,  0.0000)
   1 O     -3.070823    2.922496    1.209491    ( 0.0000,  0.0000,  0.0000)
   2 O      1.985541    0.474863    1.428016    ( 0.0000,  0.0000,  0.0000)
   3 O      3.793120   -0.050100   -0.879950    ( 0.0000,  0.0000,  0.0000)
   4 O      1.985518    2.922485    1.428149    ( 0.0000,  0.0000,  0.0000)
   5 O      3.793144   -2.497790   -0.879818    ( 0.0000,  0.0000,  0.0000)
   6 O     -1.263220   -0.050157   -1.098342    ( 0.0000,  0.0000,  0.0000)
   7 O     -3.070798    0.474805    1.209623    ( 0.0000,  0.0000,  0.0000)
   8 O     -4.167835   -1.273920   -0.862116    ( 0.0000,  0.0000,  0.0000)
   9 O     -0.166037    1.698602    1.445528    ( 0.0000,  0.0000,  0.0000)
  10 O      4.890156    1.698625    1.191790    ( 0.0000,  0.0000,  0.0000)
  11 O      0.888358   -1.273896   -1.115855    ( 0.0000,  0.0000,  0.0000)
  12 Mn    -2.445557   -1.274211    0.312921    ( 0.0000,  0.0000,  1.0000)
  13 Mn    -1.888303    1.698892   -1.994948    ( 0.0000,  0.0000, -1.0000)
  14 Mn     3.167879    1.698917    0.016752    ( 0.0000,  0.0000, -1.0000)
  15 Mn     2.610624   -1.274187    2.324621    ( 0.0000,  0.0000,  1.0000)
  16 P     -0.529549   -1.273917   -1.724376    ( 0.0000,  0.0000,  0.0000)
  17 P     -3.804359    1.698599    0.583463    ( 0.0000,  0.0000,  0.0000)
  18 P      1.251870    1.698623    2.054050    ( 0.0000,  0.0000,  0.0000)
  19 P      4.526680   -1.273894   -0.253789    ( 0.0000,  0.0000,  0.0000)
  20 O     -0.544227   -1.273926    1.365380    ( 0.0000,  0.0000,  0.0000)
  21 O     -3.789411    1.688610   -0.942222    ( 0.0000,  0.0000,  0.0000)
  22 O      1.266548    1.698631   -1.035707    ( 0.0000,  0.0000,  0.0000)
  23 O      4.511733   -1.273905    1.271895    ( 0.0000,  0.0000,  0.0000)
  24 Li    -4.695087   -2.760584   -2.142877    ( 0.0000,  0.0000,  0.0000)
  25 Li     0.361147   -2.760561    0.164836    ( 0.0000,  0.0000,  0.0000)
  26 Li    -4.695074    0.212330   -2.142877    ( 0.0000,  0.0000,  0.0000)
  27 Li     0.361161    0.212353    0.164837    ( 0.0000,  0.0000,  0.0000)

Unit cell:
           periodic     x           y           z      points  spacing
  1. axis:    yes   10.112485    0.000045   -0.000035    60     0.1685
  2. axis:    yes    0.000026    5.945827    0.000001    35     0.1699
  3. axis:    yes   -0.000016    0.000000    4.615463    27     0.1709

  Lengths:  10.112485   5.945827   4.615463
  Angles:   89.999989  90.000396  89.999490

Effective grid spacing dv^(1/3) = 0.1698

                     log10-error:           total        iterations:
           time      wfs    density  force  energy       poisson  magmom
iter:   1  17:45:19                       -221.376701             +0.0000
iter:   2  17:45:39  -0.61  -0.93         -234.836034             +0.0000
iter:   3  17:45:59  -0.37  -0.97         -225.911989             -0.0000
iter:   4  17:46:19  -1.39  -1.29         -225.761521             +0.0000
iter:   5  17:46:39  -1.27  -1.39         -227.329800             +0.0000
iter:   6  17:46:58  -1.46  -1.46         -225.737323             +0.0000
iter:   7  17:47:18  -2.47  -2.04         -225.724733             +0.0000
iter:   8  17:47:38  -2.14  -1.99         -225.590745             +0.0000
iter:   9  17:47:58  -2.46  -2.09         -225.432335             +0.0000
iter:  10  17:48:18  -3.31  -2.55         -225.422410             +0.0000
iter:  11  17:48:38  -3.65  -2.81         -225.412002             +0.0000
iter:  12  17:48:58  -4.12  -3.05         -225.410890             +0.0000
iter:  13  17:49:18  -5.11  -3.29         -225.410768             -0.0000
iter:  14  17:49:38  -5.39  -3.32         -225.410595             -0.0000
iter:  15  17:49:57  -6.04  -3.43         -225.410602             -0.0000
iter:  16  17:50:17  -5.24  -3.47         -225.410943             +0.0000
iter:  17  17:50:37  -5.86  -3.58         -225.410829             -0.0000
iter:  18  17:50:57  -5.21  -3.70         -225.410544             +0.0000
iter:  19  17:51:17  -6.10  -4.14         -225.410548             -0.0000
iter:  20  17:51:37  -7.28  -4.54         -225.410550             -0.0000
iter:  21  17:52:02  -7.94  -4.56         -225.410549             -0.0000
iter:  22  17:52:26  -7.86  -4.64    -2.45-225.410549             -0.0000
iter:  23  17:52:51  -8.22  -4.84    -2.72-225.410549             -0.0000
iter:  24  17:53:15  -7.99  -5.00    -2.87-225.410549             -0.0000
iter:  25  17:53:40  -8.99  -5.19    -3.25-225.410549             -0.0000
iter:  26  17:54:04  -8.46  -5.31    -2.91-225.410549             +0.0000
iter:  27  17:54:29  -9.60  -5.51    -3.62-225.410549             +0.0000
iter:  28  17:54:53 -10.04  -5.56    -3.71-225.410549             +0.0000
iter:  29  17:55:18  -9.56  -5.60    -3.50-225.410549             +0.0000
iter:  30  17:55:43 -10.45  -5.69    -3.74-225.410549             +0.0000
iter:  31  17:56:07 -10.60  -5.78    -4.23-225.410549             +0.0000
iter:  32  17:56:32 -10.67  -5.82    -3.82-225.410549             +0.0000
iter:  33  17:56:56 -11.09  -5.93    -4.18-225.410549             +0.0000
iter:  34  17:57:21 -10.78  -5.99    -4.37-225.410549             +0.0000
iter:  35  17:57:45 -10.46  -6.07    -3.97-225.410549             +0.0000
iter:  36  17:58:10 -10.81  -6.16    -4.28-225.410549             +0.0000
iter:  37  17:58:35 -11.68  -6.26    -4.57-225.410549             -0.0000
iter:  38  17:58:59 -10.65  -6.32    -3.95-225.410549             +0.0000
iter:  39  17:59:24 -12.01  -7.01    -4.92-225.410549             +0.0000
iter:  40  17:59:48 -12.05  -7.09    -4.72-225.410549             +0.0000
iter:  41  18:00:13 -12.54  -7.05    -5.04-225.410549             +0.0000
iter:  42  18:00:37 -12.24  -7.07    -4.94-225.410549             +0.0000
iter:  43  18:01:02 -12.57  -7.33    -5.31-225.410549             +0.0000
iter:  44  18:01:27 -13.22  -7.40    -5.23-225.410549             +0.0000
iter:  45  18:01:51 -13.83  -7.46    -5.27-225.410549             +0.0000
iter:  46  18:02:16 -13.87  -7.56    -5.34-225.410549             +0.0000
iter:  47  18:02:40 -13.21  -7.64    -5.47-225.410549             +0.0000
iter:  48  18:03:05 -13.37  -7.64    -5.41-225.410549             +0.0000
iter:  49  18:03:29 -14.81  -7.87    -6.12-225.410549             +0.0000

Converged after 49 iterations.

Dipole moment: (19.052653, -1.421818, -4.182742) |e|*Ang

Total magnetic moment: (0.000000, 0.000000, 0.000000)
Local magnetic moments:
   0 O  ( 0.000000,  0.000000,  0.000684)
   1 O  ( 0.000000,  0.000000, -0.000642)
   2 O  ( 0.000000,  0.000000, -0.000660)
   3 O  ( 0.000000,  0.000000,  0.000675)
   4 O  ( 0.000000,  0.000000, -0.000664)
   5 O  ( 0.000000,  0.000000,  0.000665)
   6 O  ( 0.000000,  0.000000,  0.000640)
   7 O  ( 0.000000,  0.000000, -0.000699)
   8 O  ( 0.000000,  0.000000,  0.022368)
   9 O  ( 0.000000,  0.000000, -0.022368)
  10 O  ( 0.000000,  0.000000, -0.022367)
  11 O  ( 0.000000,  0.000000,  0.022368)
  12 Mn ( 0.000000,  0.000000,  4.575066)
  13 Mn ( 0.000000,  0.000000, -4.575034)
  14 Mn ( 0.000000,  0.000000, -4.575066)
  15 Mn ( 0.000000,  0.000000,  4.575035)
  16 P  ( 0.000000,  0.000000,  0.000812)
  17 P  ( 0.000000,  0.000000, -0.000816)
  18 P  ( 0.000000,  0.000000, -0.000812)
  19 P  ( 0.000000,  0.000000,  0.000817)
  20 O  ( 0.000000,  0.000000,  0.020709)
  21 O  ( 0.000000,  0.000000, -0.020709)
  22 O  ( 0.000000,  0.000000, -0.020709)
  23 O  ( 0.000000,  0.000000,  0.020709)
  24 Li ( 0.000000,  0.000000,  0.000005)
  25 Li ( 0.000000,  0.000000, -0.000000)
  26 Li ( 0.000000,  0.000000, -0.000005)
  27 Li ( 0.000000,  0.000000,  0.000000)

Energy contributions relative to reference atoms: (reference = -196157.275402)

Kinetic:       +296.836700
Potential:     -256.379959
External:        +0.000000
XC:            -267.648061
Entropy (-ST):   -0.000000
Local:           +1.780771
--------------------------
Free energy:   -225.410549
Extrapolated:  -225.410549

Spin contamination: 9.697234 electrons
Showing only first 2 kpts
                      Up                     Down
 Kpt  Band  Eigenvalues  Occupancy  Eigenvalues  Occupancy
  0    88      5.10938    0.00694      5.10956    0.00694
  0    89      5.16101    0.00694      5.16098    0.00694
  0    90      9.65230    0.00000      9.65230    0.00000
  0    91      9.67094    0.00000      9.67096    0.00000

  1    88      5.12100    0.00694      5.12122    0.00694
  1    89      5.17032    0.00694      5.17034    0.00694
  1    90      9.53458    0.00000      9.53449    0.00000
  1    91      9.54489    0.00000      9.54489    0.00000


Fermi level: 6.36989

Gap: 3.796 eV
Transition (v -> c):
  (s=0, k=92, n=89, [0.08, 0.42, -0.38]) -> (s=1, k=81, n=90, [0.08, -0.08, -0.12])
Writing to born-0.01-21y-.gpw (mode='all')

Timing:                              incl.     excl.
-----------------------------------------------------------
Hamiltonian:                         0.225     0.002   0.0% |
 Atomic:                             0.062     0.062   0.0% |
  XC Correction:                     0.000     0.000   0.0% |
 Calculate atomic Hamiltonians:      0.075     0.075   0.0% |
 Communicate:                        0.002     0.002   0.0% |
 Initialize Hamiltonian:             0.000     0.000   0.0% |
 Poisson:                            0.001     0.001   0.0% |
 XC 3D grid:                         0.083     0.083   0.0% |
LCAO initialization:                72.916     0.644   0.0% |
 LCAO eigensolver:                  19.302     0.002   0.0% |
  Calculate projections:             0.029     0.029   0.0% |
  DenseAtomicCorrection:             0.045     0.045   0.0% |
  Distribute overlap matrix:         0.009     0.009   0.0% |
  Orbital Layouts:                   0.433     0.433   0.0% |
  Potential matrix:                 18.700    18.700   0.7% |
  Sum over cells:                    0.085     0.085   0.0% |
 LCAO to grid:                      51.669    51.669   1.9% ||
 Set positions (LCAO WFS):           1.300     0.192   0.0% |
  Basic WFS set positions:           0.001     0.001   0.0% |
  Basis functions set positions:     0.000     0.000   0.0% |
  P tci:                             0.516     0.516   0.0% |
  ST tci:                            0.376     0.376   0.0% |
  mktci:                             0.215     0.215   0.0% |
PWDescriptor:                        0.023     0.023   0.0% |
SCF-cycle:                        1111.796     0.860   0.0% |
 Davidson:                         924.728   283.711  10.6% |---|
  Apply H:                          63.617    61.771   2.3% ||
   HMM T:                            1.846     1.846   0.1% |
  Subspace diag:                   134.031     0.140   0.0% |
   calc_h_matrix:                   86.078    22.354   0.8% |
    Apply H:                        63.724    61.848   2.3% ||
     HMM T:                          1.876     1.876   0.1% |
   diagonalize:                      6.696     6.696   0.2% |
   rotate_psi:                      41.117    41.117   1.5% ||
  calc. matrices:                  277.012   152.007   5.7% |-|
   Apply H:                        125.004   121.485   4.5% |-|
    HMM T:                           3.520     3.520   0.1% |
  diagonalize:                      77.217    77.217   2.9% ||
  rotate_psi:                       89.140    89.140   3.3% ||
 Density:                           37.030     0.001   0.0% |
  Atomic density matrices:           0.759     0.759   0.0% |
  Mix:                               5.140     5.140   0.2% |
  Multipole moments:                 0.017     0.017   0.0% |
  Pseudo density:                   31.112    31.111   1.2% |
   Symmetrize density:               0.001     0.001   0.0% |
 Forces:                           136.558   136.558   5.1% |-|
 Hamiltonian:                       10.529     0.102   0.0% |
  Atomic:                            2.584     2.584   0.1% |
   XC Correction:                    0.000     0.000   0.0% |
  Calculate atomic Hamiltonians:     3.635     3.635   0.1% |
  Communicate:                       0.077     0.077   0.0% |
  Poisson:                           0.029     0.029   0.0% |
  XC 3D grid:                        4.103     4.103   0.2% |
 Orthonormalize:                     2.091     0.003   0.0% |
  calc_s_matrix:                     0.245     0.245   0.0% |
  inverse-cholesky:                  0.074     0.074   0.0% |
  projections:                       1.334     1.334   0.0% |
  rotate_psi_s:                      0.435     0.435   0.0% |
Set symmetry:                        0.000     0.000   0.0% |
Other:                            1504.072  1504.072  55.9% |---------------------|
-----------------------------------------------------------
Total:                                      2689.033 100.0%

Memory usage: 13.15 GiB
Date: Wed Mar 24 18:28:32 2021
