
  ___ ___ ___ _ _ _  
 |   |   |_  | | | | 
 | | | | | . | | | | 
 |__ |  _|___|_____|  20.10.1b1
 |___|_|             

User:   madkru@i018.nifl.fysik.dtu.dk
Date:   Tue Mar 23 16:47:03 2021
Arch:   x86_64
Pid:    26873
Python: 3.7.4
gpaw:   /home/niflheim/madkru/venv_folder/gpaw/gpaw (d0d1ca1c71)
_gpaw:  /home/niflheim/madkru/venv_folder/gpaw/build/lib.linux-x86_64-ivybridge-3.7/
        _gpaw.cpython-37m-x86_64-linux-gnu.so (4fd39e8b1e)
ase:    /home/niflheim/madkru/venv_folder/ase/ase (version 3.21.0b1-7e6c206a91)
numpy:  /home/niflheim/madkru/venv_folder/lib/python3.7/site-packages/numpy (version 1.19.4)
scipy:  /home/niflheim/madkru/venv_folder/lib/python3.7/site-packages/scipy (version 1.5.4)
libxc:  4.3.4
units:  Angstrom and eV
cores: 64
OMP_NUM_THREADS: 1

Input parameters:
  convergence: {bands: occupied,
                density: 0.0001,
                eigenstates: 4e-08,
                energy: 0.0005,
                forces: 1e-06}
  kpts: [6 6 4]
  mode: {ecut: 600.0,
         gammacentered: False,
         name: pw}
  occupations: {fixmagmom: False,
                name: fermi-dirac,
                width: 0.001}
  setups: {Mn: :d,3.0}
  symmetry: {point_group: False,
             time_reversal: False}

System changes: positions, numbers, cell, pbc, initial_charges, initial_magmoms 

Initialize ...

O-setup:
  name: Oxygen
  id: 9b9d51c344dea68c822856295a461509
  Z: 8.0
  valence: 6
  core: 2
  charge: 0.0
  file: /home/modules/software/GPAW-setups/0.9.20000/O.LDA.gz
  compensation charges: gauss, rc=0.21, lmax=2
  cutoffs: 1.17(filt), 0.83(core),
  valence states:
                energy  radius
    2s(2.00)   -23.752   0.688
    2p(4.00)    -9.195   0.598
    *s           3.459   0.688
    *p          18.016   0.598
    *d           0.000   0.619

  Using partial waves for O as LCAO basis

Mn-setup:
  name: Manganese
  id: 0d715a8018be061a6e9ea6f2d364ac92
  Z: 25.0
  valence: 15
  core: 10
  charge: 0.0
  Hubbard U: 3.000000 eV (l=2, scale=True)
  file: /home/modules/software/GPAW-setups/0.9.20000/Mn.LDA.gz
  compensation charges: gauss, rc=0.38, lmax=2
  cutoffs: 2.14(filt), 0.86(core),
  valence states:
                energy  radius
    3s(2.00)   -85.387   1.275
    4s(2.00)    -5.282   1.275
    3p(6.00)   -54.493   1.281
    4p(0.00)    -1.471   1.281
    3d(5.00)    -7.009   1.138
    *d          20.203   1.138

  Using partial waves for Mn as LCAO basis

P-setup:
  name: Phosphorus
  id: a5561c299094968922a179ab894d2e2d
  Z: 15.0
  valence: 5
  core: 10
  charge: 0.0
  file: /home/modules/software/GPAW-setups/0.9.20000/P.LDA.gz
  compensation charges: gauss, rc=0.30, lmax=2
  cutoffs: 1.69(filt), 1.81(core),
  valence states:
                energy  radius
    3s(2.00)   -14.015   0.953
    3p(3.00)    -5.596   0.953
    *s          13.197   0.953
    *p          21.615   0.953
    *d           0.000   0.953

  Using partial waves for P as LCAO basis

Li-setup:
  name: Lithium
  id: b73562207f97a71b6967473b66fe8b65
  Z: 3.0
  valence: 1
  core: 2
  charge: 0.0
  file: /home/modules/software/GPAW-setups/0.9.20000/Li.LDA.gz
  compensation charges: gauss, rc=0.33, lmax=2
  cutoffs: 1.91(filt), 2.55(core),
  valence states:
                energy  radius
    2s(1.00)    -2.874   1.058
    2p(0.00)    -1.126   1.058
    *s          24.338   1.058

  Using partial waves for Li as LCAO basis

Reference energy: -196157.275402

Spin-polarized calculation.
Magnetic moment: 0.000000

Convergence criteria:
  Maximum total energy change: 0.0005 eV / electron
  Maximum integral of absolute density change: 0.0001 electrons
  Maximum integral of absolute eigenstate change: 4e-08 eV^2
  Maximum change in atomic force: 1e-06 eV / Ang
  Maximum number of iterations: 333

Symmetries present (total): 1

  ( 1  0  0)
  ( 0  1  0)
  ( 0  0  1)

144 k-points: 6 x 6 x 4 Monkhorst-Pack grid
144 k-points in the irreducible part of the Brillouin zone
       k-points in crystal coordinates                weights
   0:    -0.41666667   -0.41666667   -0.37500000          1/144
   1:    -0.41666667   -0.41666667   -0.12500000          1/144
   2:    -0.41666667   -0.41666667    0.12500000          1/144
   3:    -0.41666667   -0.41666667    0.37500000          1/144
   4:    -0.41666667   -0.25000000   -0.37500000          1/144
   5:    -0.41666667   -0.25000000   -0.12500000          1/144
   6:    -0.41666667   -0.25000000    0.12500000          1/144
   7:    -0.41666667   -0.25000000    0.37500000          1/144
   8:    -0.41666667   -0.08333333   -0.37500000          1/144
   9:    -0.41666667   -0.08333333   -0.12500000          1/144
          ...
 143:     0.41666667    0.41666667    0.37500000          1/144

Wave functions: Plane wave expansion
  Cutoff energy: 600.000 eV
  Number of coefficients (min, max): 9238, 9284
  Pulay-stress correction: 0.000000 eV/Ang^3 (de/decut=0.000000)
  Using FFTW library
  ScaLapack parameters: grid=1x1, blocksize=None
  Wavefunction extrapolation:
    Improved wavefunction reuse through dual PAW basis 

  Fermi-Dirac: width=0.0010 eV

Eigensolver
   Davidson(niter=2, smin=None, normalize=True) 

Densities:
  Coarse grid: 60*35*27 grid
  Fine grid: 120*70*54 grid
  Total Charge: 0.000000 

Density mixing:
  Method: difference
  Backend: pulay
  Linear mixing parameter: 0.05
  Mixing with 5 old densities
  Damping of long wave oscillations: 50 

Hamiltonian:
  XC and Coulomb potentials evaluated on a 120*70*54 grid
  Using the LDA Exchange-Correlation functional
 

Memory estimate:
  Process memory now: 12288.84 MiB
  Calculator: 326.59 MiB
    Density: 9.67 MiB
      Arrays: 3.79 MiB
      Localized functions: 4.32 MiB
      Mixer: 1.56 MiB
    Hamiltonian: 2.94 MiB
      Arrays: 2.82 MiB
      XC: 0.00 MiB
      Poisson: 0.00 MiB
      vbar: 0.12 MiB
    Wavefunctions: 313.97 MiB
      Arrays psit_nG: 285.59 MiB
      Eigensolver: 18.49 MiB
      Projections: 2.71 MiB
      Projectors: 4.46 MiB
      PW-descriptor: 2.72 MiB

Total number of cores used: 64
Parallelization over k-points: 16
Domain decomposition: 2 x 2 x 1

Number of atoms: 28
Number of atomic orbitals: 148
Number of bands in calculation: 112
Number of valence electrons: 180
Bands to converge: occupied

... initialized

Initializing position-dependent things.

Density initialized from atomic densities
Creating initial wave functions:
  112 bands from LCAO basis set

                                           
                                           
                                           
                                           
                                           
               O     O  P  O               
            PO           OMn     O         
                  O          MO            
            O        Li O                  
             Mn  On          OP            
         O         Li O                    
         Li     O P         O              
       Li                                  
                                           
                                           
                                           
                                           

Positions:
   0 O     -1.263197   -2.497779   -1.098475    ( 0.0000,  0.0000,  0.0000)
   1 O     -3.070823    2.922496    1.209491    ( 0.0000,  0.0000,  0.0000)
   2 O      1.985541    0.474863    1.428016    ( 0.0000,  0.0000,  0.0000)
   3 O      3.793120   -0.050100   -0.879950    ( 0.0000,  0.0000,  0.0000)
   4 O      1.985518    2.922485    1.428149    ( 0.0000,  0.0000,  0.0000)
   5 O      3.793144   -2.497790   -0.879818    ( 0.0000,  0.0000,  0.0000)
   6 O     -1.263220   -0.050157   -1.098342    ( 0.0000,  0.0000,  0.0000)
   7 O     -3.070798    0.474805    1.209623    ( 0.0000,  0.0000,  0.0000)
   8 O     -4.167835   -1.273920   -0.862116    ( 0.0000,  0.0000,  0.0000)
   9 O     -0.166037    1.698602    1.445528    ( 0.0000,  0.0000,  0.0000)
  10 O      4.890156    1.698625    1.191790    ( 0.0000,  0.0000,  0.0000)
  11 O      0.888358   -1.273896   -1.115855    ( 0.0000,  0.0000,  0.0000)
  12 Mn    -2.445557   -1.274211    0.322921    ( 0.0000,  0.0000,  1.0000)
  13 Mn    -1.888303    1.698892   -1.994948    ( 0.0000,  0.0000, -1.0000)
  14 Mn     3.167879    1.698917    0.016752    ( 0.0000,  0.0000, -1.0000)
  15 Mn     2.610624   -1.274187    2.324621    ( 0.0000,  0.0000,  1.0000)
  16 P     -0.529549   -1.273917   -1.724376    ( 0.0000,  0.0000,  0.0000)
  17 P     -3.804359    1.698599    0.583463    ( 0.0000,  0.0000,  0.0000)
  18 P      1.251870    1.698623    2.054050    ( 0.0000,  0.0000,  0.0000)
  19 P      4.526680   -1.273894   -0.253789    ( 0.0000,  0.0000,  0.0000)
  20 O     -0.544227   -1.273926    1.365380    ( 0.0000,  0.0000,  0.0000)
  21 O     -3.789411    1.698610   -0.942222    ( 0.0000,  0.0000,  0.0000)
  22 O      1.266548    1.698631   -1.035707    ( 0.0000,  0.0000,  0.0000)
  23 O      4.511733   -1.273905    1.271895    ( 0.0000,  0.0000,  0.0000)
  24 Li    -4.695087   -2.760584   -2.142877    ( 0.0000,  0.0000,  0.0000)
  25 Li     0.361147   -2.760561    0.164836    ( 0.0000,  0.0000,  0.0000)
  26 Li    -4.695074    0.212330   -2.142877    ( 0.0000,  0.0000,  0.0000)
  27 Li     0.361161    0.212353    0.164837    ( 0.0000,  0.0000,  0.0000)

Unit cell:
           periodic     x           y           z      points  spacing
  1. axis:    yes   10.112485    0.000045   -0.000035    60     0.1685
  2. axis:    yes    0.000026    5.945827    0.000001    35     0.1699
  3. axis:    yes   -0.000016    0.000000    4.615463    27     0.1709

  Lengths:  10.112485   5.945827   4.615463
  Angles:   89.999989  90.000396  89.999490

Effective grid spacing dv^(1/3) = 0.1698

                     log10-error:           total        iterations:
           time      wfs    density  force  energy       poisson  magmom
iter:   1  16:48:37                       -221.377179             +0.0000
iter:   2  16:48:56  -0.61  -0.93         -234.842474             +0.0000
iter:   3  16:49:16  -0.37  -0.97         -225.913079             -0.0000
iter:   4  16:49:36  -1.39  -1.29         -225.761529             +0.0000
iter:   5  16:49:56  -1.27  -1.39         -227.336173             +0.0000
iter:   6  16:50:16  -1.46  -1.46         -225.737008             +0.0000
iter:   7  16:50:35  -2.47  -2.04         -225.725042             +0.0000
iter:   8  16:50:55  -2.17  -1.99         -225.578646             +0.0000
iter:   9  16:51:15  -2.47  -2.11         -225.432695             +0.0000
iter:  10  16:51:35  -3.31  -2.55         -225.422528             +0.0000
iter:  11  16:51:55  -3.61  -2.81         -225.411749             +0.0000
iter:  12  16:52:15  -4.18  -3.06         -225.410785             +0.0000
iter:  13  16:52:34  -5.13  -3.30         -225.410693             -0.0000
iter:  14  16:52:54  -5.39  -3.32         -225.410508             -0.0000
iter:  15  16:53:14  -6.01  -3.44         -225.410526             -0.0000
iter:  16  16:53:34  -5.23  -3.48         -225.410891             +0.0000
iter:  17  16:53:54  -6.03  -3.58         -225.410762             -0.0000
iter:  18  16:54:14  -5.42  -3.69         -225.410496             +0.0000
iter:  19  16:54:33  -6.53  -4.02         -225.410507             +0.0000
iter:  20  16:54:53  -6.53  -4.20         -225.410494             +0.0000
iter:  21  16:55:13  -6.80  -4.23         -225.410479             +0.0000
iter:  22  16:55:33  -7.14  -4.26         -225.410475             +0.0000
iter:  23  16:55:57  -7.77  -4.29         -225.410472             +0.0000
iter:  24  16:56:17  -6.88  -4.37         -225.410472             +0.0000
iter:  25  16:56:41  -7.96  -4.43    -2.30-225.410470             +0.0000
iter:  26  16:57:06  -7.87  -4.53    -2.50-225.410469             -0.0000
iter:  27  16:57:31  -7.81  -4.75    -2.66-225.410470             +0.0000
iter:  28  16:57:55  -8.79  -5.03    -3.30-225.410469             +0.0000
iter:  29  16:58:20  -8.87  -5.14    -3.36-225.410469             +0.0000
iter:  30  16:58:44  -8.68  -5.24    -3.22-225.410469             +0.0000
iter:  31  16:59:09  -9.81  -5.30    -3.82-225.410469             +0.0000
iter:  32  16:59:33  -9.34  -5.28    -3.70-225.410469             +0.0000
iter:  33  16:59:58  -9.39  -5.32    -3.44-225.410469             +0.0000
iter:  34  17:00:22 -10.14  -5.38    -3.72-225.410469             +0.0000
iter:  35  17:00:47 -10.32  -5.39    -3.94-225.410469             +0.0000
iter:  36  17:01:11  -9.60  -5.42    -3.60-225.410469             +0.0000
iter:  37  17:01:36  -9.60  -5.57    -3.70-225.410469             +0.0000
iter:  38  17:02:00 -10.67  -5.67    -3.99-225.410469             +0.0000
iter:  39  17:02:25 -10.04  -5.72    -3.67-225.410469             +0.0000
iter:  40  17:02:50 -10.91  -5.78    -3.95-225.410469             +0.0000
iter:  41  17:03:14  -9.76  -5.89    -3.66-225.410469             +0.0000
iter:  42  17:03:39 -10.51  -6.20    -4.20-225.410469             +0.0000
iter:  43  17:04:04 -11.20  -6.27    -4.52-225.410469             +0.0000
iter:  44  17:04:28 -12.08  -6.37    -4.86-225.410469             +0.0000
iter:  45  17:04:53 -11.75  -6.41    -4.68-225.410469             +0.0000
iter:  46  17:05:17 -11.25  -6.42    -4.50-225.410469             +0.0000
iter:  47  17:05:42 -11.81  -6.50    -4.48-225.410469             +0.0000
iter:  48  17:06:06 -12.79  -6.57    -5.31-225.410469             +0.0000
iter:  49  17:06:31 -10.97  -6.61    -4.31-225.410469             +0.0000
iter:  50  17:06:56 -12.36  -6.98    -5.27-225.410469             +0.0000
iter:  51  17:07:20 -12.42  -7.08    -5.12-225.410469             +0.0000
iter:  52  17:07:45 -12.68  -7.30    -5.02-225.410469             +0.0000
iter:  53  17:08:09 -13.02  -7.53    -5.58-225.410469             +0.0000
iter:  54  17:08:34 -13.70  -7.56    -5.36-225.410469             +0.0000
iter:  55  17:08:58 -14.09  -7.55    -5.70-225.410469             +0.0000
iter:  56  17:09:23 -13.17  -7.60    -5.17-225.410469             +0.0000
iter:  57  17:09:47 -13.58  -7.66    -5.35-225.410469             +0.0000
iter:  58  17:10:12 -14.41  -8.11    -5.91-225.410469             +0.0000
iter:  59  17:10:37 -14.61  -8.20    -5.87-225.410469             +0.0000
iter:  60  17:11:01 -15.47  -8.52    -6.78-225.410469             +0.0000

Converged after 60 iterations.

Dipole moment: (19.050413, -1.426832, -4.237170) |e|*Ang

Total magnetic moment: (0.000000, 0.000000, 0.000000)
Local magnetic moments:
   0 O  ( 0.000000,  0.000000,  0.000375)
   1 O  ( 0.000000,  0.000000, -0.000552)
   2 O  ( 0.000000,  0.000000, -0.000656)
   3 O  ( 0.000000,  0.000000,  0.000643)
   4 O  ( 0.000000,  0.000000, -0.000661)
   5 O  ( 0.000000,  0.000000,  0.000647)
   6 O  ( 0.000000,  0.000000,  0.000371)
   7 O  ( 0.000000,  0.000000, -0.000548)
   8 O  ( 0.000000,  0.000000,  0.022238)
   9 O  ( 0.000000,  0.000000, -0.022383)
  10 O  ( 0.000000,  0.000000, -0.022311)
  11 O  ( 0.000000,  0.000000,  0.022360)
  12 Mn ( 0.000000,  0.000000,  4.575095)
  13 Mn ( 0.000000,  0.000000, -4.575098)
  14 Mn ( 0.000000,  0.000000, -4.575066)
  15 Mn ( 0.000000,  0.000000,  4.575019)
  16 P  ( 0.000000,  0.000000,  0.000800)
  17 P  ( 0.000000,  0.000000, -0.000668)
  18 P  ( 0.000000,  0.000000, -0.000812)
  19 P  ( 0.000000,  0.000000,  0.000717)
  20 O  ( 0.000000,  0.000000,  0.020873)
  21 O  ( 0.000000,  0.000000, -0.020667)
  22 O  ( 0.000000,  0.000000, -0.020721)
  23 O  ( 0.000000,  0.000000,  0.020714)
  24 Li ( 0.000000,  0.000000, -0.000003)
  25 Li ( 0.000000,  0.000000, -0.000003)
  26 Li ( 0.000000,  0.000000, -0.000003)
  27 Li ( 0.000000,  0.000000, -0.000003)

Energy contributions relative to reference atoms: (reference = -196157.275402)

Kinetic:       +296.781012
Potential:     -256.336994
External:        +0.000000
XC:            -267.635411
Entropy (-ST):   -0.000000
Local:           +1.780924
--------------------------
Free energy:   -225.410469
Extrapolated:  -225.410469

Spin contamination: 9.697512 electrons
Showing only first 2 kpts
                      Up                     Down
 Kpt  Band  Eigenvalues  Occupancy  Eigenvalues  Occupancy
  0    88      5.10948    0.00694      5.11010    0.00694
  0    89      5.16067    0.00694      5.16168    0.00694
  0    90      9.65260    0.00000      9.64373    0.00000
  0    91      9.67122    0.00000      9.67017    0.00000

  1    88      5.12046    0.00694      5.12147    0.00694
  1    89      5.16887    0.00694      5.17081    0.00694
  1    90      9.53489    0.00000      9.52941    0.00000
  1    91      9.54471    0.00000      9.54537    0.00000


Fermi level: 6.37001

Gap: 3.792 eV
Transition (v -> c):
  (s=1, k=71, n=89, [-0.08, 0.42, 0.38]) -> (s=1, k=86, n=90, [0.08, 0.08, 0.12])
Writing to born-0.01-12z+.gpw (mode='all')

Timing:                              incl.     excl.
-----------------------------------------------------------
Hamiltonian:                         0.217     0.002   0.0% |
 Atomic:                             0.053     0.053   0.0% |
  XC Correction:                     0.000     0.000   0.0% |
 Calculate atomic Hamiltonians:      0.076     0.076   0.0% |
 Communicate:                        0.002     0.002   0.0% |
 Initialize Hamiltonian:             0.000     0.000   0.0% |
 Poisson:                            0.001     0.001   0.0% |
 XC 3D grid:                         0.084     0.084   0.0% |
LCAO initialization:                70.332     0.646   0.0% |
 LCAO eigensolver:                  19.280     0.002   0.0% |
  Calculate projections:             0.029     0.029   0.0% |
  DenseAtomicCorrection:             0.045     0.045   0.0% |
  Distribute overlap matrix:         0.017     0.017   0.0% |
  Orbital Layouts:                   0.432     0.432   0.0% |
  Potential matrix:                 18.667    18.667   0.6% |
  Sum over cells:                    0.087     0.087   0.0% |
 LCAO to grid:                      49.094    49.094   1.5% ||
 Set positions (LCAO WFS):           1.311     0.192   0.0% |
  Basic WFS set positions:           0.001     0.001   0.0% |
  Basis functions set positions:     0.000     0.000   0.0% |
  P tci:                             0.523     0.523   0.0% |
  ST tci:                            0.381     0.381   0.0% |
  mktci:                             0.214     0.214   0.0% |
PWDescriptor:                        0.024     0.024   0.0% |
SCF-cycle:                        1366.062     0.780   0.0% |
 Davidson:                        1130.383   347.983  10.9% |---|
  Apply H:                          77.712    75.474   2.4% ||
   HMM T:                            2.239     2.239   0.1% |
  Subspace diag:                   163.741     0.171   0.0% |
   calc_h_matrix:                  104.979    27.404   0.9% |
    Apply H:                        77.574    75.315   2.4% ||
     HMM T:                          2.259     2.259   0.1% |
   diagonalize:                      8.199     8.199   0.3% |
   rotate_psi:                      50.392    50.392   1.6% ||
  calc. matrices:                  337.434   186.051   5.8% |-|
   Apply H:                        151.383   147.198   4.6% |-|
    HMM T:                           4.185     4.185   0.1% |
  diagonalize:                      94.400    94.400   3.0% ||
  rotate_psi:                      109.113   109.113   3.4% ||
 Density:                           45.402     0.001   0.0% |
  Atomic density matrices:           0.980     0.980   0.0% |
  Mix:                               6.330     6.330   0.2% |
  Multipole moments:                 0.021     0.021   0.0% |
  Pseudo density:                   38.070    38.068   1.2% |
   Symmetrize density:               0.002     0.002   0.0% |
 Forces:                           174.404   174.404   5.5% |-|
 Hamiltonian:                       13.004     0.123   0.0% |
  Atomic:                            3.234     3.233   0.1% |
   XC Correction:                    0.000     0.000   0.0% |
  Calculate atomic Hamiltonians:     4.484     4.484   0.1% |
  Communicate:                       0.115     0.115   0.0% |
  Poisson:                           0.036     0.036   0.0% |
  XC 3D grid:                        5.013     5.013   0.2% |
 Orthonormalize:                     2.088     0.003   0.0% |
  calc_s_matrix:                     0.245     0.245   0.0% |
  inverse-cholesky:                  0.073     0.073   0.0% |
  projections:                       1.333     1.333   0.0% |
  rotate_psi_s:                      0.434     0.434   0.0% |
Set symmetry:                        0.000     0.000   0.0% |
Other:                            1755.849  1755.849  55.0% |---------------------|
-----------------------------------------------------------
Total:                                      3192.484 100.0%

Memory usage: 12.02 GiB
Date: Tue Mar 23 17:40:16 2021
