
  ___ ___ ___ _ _ _  
 |   |   |_  | | | | 
 | | | | | . | | | | 
 |__ |  _|___|_____|  20.10.1b1
 |___|_|             

User:   madkru@g035.nifl.fysik.dtu.dk
Date:   Mon Mar 22 19:23:15 2021
Arch:   x86_64
Pid:    44316
Python: 3.7.4
gpaw:   /home/niflheim/madkru/venv_folder/gpaw/gpaw (d0d1ca1c71)
_gpaw:  /home/niflheim/madkru/venv_folder/gpaw/build/lib.linux-x86_64-sandybridge-3.7/
        _gpaw.cpython-37m-x86_64-linux-gnu.so (4fd39e8b1e)
ase:    /home/niflheim/madkru/venv_folder/ase/ase (version 3.21.0b1-7e6c206a91)
numpy:  /home/niflheim/madkru/venv_folder/lib/python3.7/site-packages/numpy (version 1.19.4)
scipy:  /home/niflheim/madkru/venv_folder/lib/python3.7/site-packages/scipy (version 1.5.4)
libxc:  4.3.4
units:  Angstrom and eV
cores: 32
OMP_NUM_THREADS: 1

Input parameters:
  convergence: {bands: occupied,
                density: 0.0001,
                eigenstates: 4e-08,
                energy: 0.0005,
                forces: 1e-06}
  kpts: [6 6 4]
  mode: {ecut: 600.0,
         gammacentered: False,
         name: pw}
  occupations: {fixmagmom: False,
                name: fermi-dirac,
                width: 0.001}
  setups: {Mn: :d,3.0}
  symmetry: {point_group: False,
             time_reversal: False}

System changes: positions, numbers, cell, pbc, initial_charges, initial_magmoms 

Initialize ...

O-setup:
  name: Oxygen
  id: 9b9d51c344dea68c822856295a461509
  Z: 8.0
  valence: 6
  core: 2
  charge: 0.0
  file: /home/modules/software/GPAW-setups/0.9.20000/O.LDA.gz
  compensation charges: gauss, rc=0.21, lmax=2
  cutoffs: 1.17(filt), 0.83(core),
  valence states:
                energy  radius
    2s(2.00)   -23.752   0.688
    2p(4.00)    -9.195   0.598
    *s           3.459   0.688
    *p          18.016   0.598
    *d           0.000   0.619

  Using partial waves for O as LCAO basis

Mn-setup:
  name: Manganese
  id: 0d715a8018be061a6e9ea6f2d364ac92
  Z: 25.0
  valence: 15
  core: 10
  charge: 0.0
  Hubbard U: 3.000000 eV (l=2, scale=True)
  file: /home/modules/software/GPAW-setups/0.9.20000/Mn.LDA.gz
  compensation charges: gauss, rc=0.38, lmax=2
  cutoffs: 2.14(filt), 0.86(core),
  valence states:
                energy  radius
    3s(2.00)   -85.387   1.275
    4s(2.00)    -5.282   1.275
    3p(6.00)   -54.493   1.281
    4p(0.00)    -1.471   1.281
    3d(5.00)    -7.009   1.138
    *d          20.203   1.138

  Using partial waves for Mn as LCAO basis

P-setup:
  name: Phosphorus
  id: a5561c299094968922a179ab894d2e2d
  Z: 15.0
  valence: 5
  core: 10
  charge: 0.0
  file: /home/modules/software/GPAW-setups/0.9.20000/P.LDA.gz
  compensation charges: gauss, rc=0.30, lmax=2
  cutoffs: 1.69(filt), 1.81(core),
  valence states:
                energy  radius
    3s(2.00)   -14.015   0.953
    3p(3.00)    -5.596   0.953
    *s          13.197   0.953
    *p          21.615   0.953
    *d           0.000   0.953

  Using partial waves for P as LCAO basis

Li-setup:
  name: Lithium
  id: b73562207f97a71b6967473b66fe8b65
  Z: 3.0
  valence: 1
  core: 2
  charge: 0.0
  file: /home/modules/software/GPAW-setups/0.9.20000/Li.LDA.gz
  compensation charges: gauss, rc=0.33, lmax=2
  cutoffs: 1.91(filt), 2.55(core),
  valence states:
                energy  radius
    2s(1.00)    -2.874   1.058
    2p(0.00)    -1.126   1.058
    *s          24.338   1.058

  Using partial waves for Li as LCAO basis

Reference energy: -196157.275402

Spin-polarized calculation.
Magnetic moment: 0.000000

Convergence criteria:
  Maximum total energy change: 0.0005 eV / electron
  Maximum integral of absolute density change: 0.0001 electrons
  Maximum integral of absolute eigenstate change: 4e-08 eV^2
  Maximum change in atomic force: 1e-06 eV / Ang
  Maximum number of iterations: 333

Symmetries present (total): 1

  ( 1  0  0)
  ( 0  1  0)
  ( 0  0  1)

144 k-points: 6 x 6 x 4 Monkhorst-Pack grid
144 k-points in the irreducible part of the Brillouin zone
       k-points in crystal coordinates                weights
   0:    -0.41666667   -0.41666667   -0.37500000          1/144
   1:    -0.41666667   -0.41666667   -0.12500000          1/144
   2:    -0.41666667   -0.41666667    0.12500000          1/144
   3:    -0.41666667   -0.41666667    0.37500000          1/144
   4:    -0.41666667   -0.25000000   -0.37500000          1/144
   5:    -0.41666667   -0.25000000   -0.12500000          1/144
   6:    -0.41666667   -0.25000000    0.12500000          1/144
   7:    -0.41666667   -0.25000000    0.37500000          1/144
   8:    -0.41666667   -0.08333333   -0.37500000          1/144
   9:    -0.41666667   -0.08333333   -0.12500000          1/144
          ...
 143:     0.41666667    0.41666667    0.37500000          1/144

Wave functions: Plane wave expansion
  Cutoff energy: 600.000 eV
  Number of coefficients (min, max): 9238, 9284
  Pulay-stress correction: 0.000000 eV/Ang^3 (de/decut=0.000000)
  Using FFTW library
  ScaLapack parameters: grid=1x1, blocksize=None
  Wavefunction extrapolation:
    Improved wavefunction reuse through dual PAW basis 

  Fermi-Dirac: width=0.0010 eV

Eigensolver
   Davidson(niter=2, smin=None, normalize=True) 

Densities:
  Coarse grid: 60*35*27 grid
  Fine grid: 120*70*54 grid
  Total Charge: 0.000000 

Density mixing:
  Method: difference
  Backend: pulay
  Linear mixing parameter: 0.05
  Mixing with 5 old densities
  Damping of long wave oscillations: 50 

Hamiltonian:
  XC and Coulomb potentials evaluated on a 120*70*54 grid
  Using the LDA Exchange-Correlation functional
 

Memory estimate:
  Process memory now: 13285.52 MiB
  Calculator: 346.50 MiB
    Density: 19.24 MiB
      Arrays: 7.57 MiB
      Localized functions: 8.64 MiB
      Mixer: 3.03 MiB
    Hamiltonian: 5.87 MiB
      Arrays: 5.62 MiB
      XC: 0.00 MiB
      Poisson: 0.00 MiB
      vbar: 0.25 MiB
    Wavefunctions: 321.38 MiB
      Arrays psit_nG: 285.59 MiB
      Eigensolver: 18.49 MiB
      Projections: 5.41 MiB
      Projectors: 8.92 MiB
      PW-descriptor: 2.96 MiB

Total number of cores used: 32
Parallelization over k-points: 16
Domain decomposition: 2 x 1 x 1

Number of atoms: 28
Number of atomic orbitals: 148
Number of bands in calculation: 112
Number of valence electrons: 180
Bands to converge: occupied

... initialized

Initializing position-dependent things.

Density initialized from atomic densities
Creating initial wave functions:
  112 bands from LCAO basis set

                                           
                                           
                                           
                                           
                                           
               O     O  P  O               
            PO           OMn     O         
                  O          MO            
            O        Li O                  
             Mn  On          OP            
         O         Li O                    
         Li     O P         O              
       Li                                  
                                           
                                           
                                           
                                           

Positions:
   0 O     -1.263197   -2.497779   -1.098475    ( 0.0000,  0.0000,  0.0000)
   1 O     -3.070823    2.922496    1.209491    ( 0.0000,  0.0000,  0.0000)
   2 O      1.985541    0.474863    1.428016    ( 0.0000,  0.0000,  0.0000)
   3 O      3.793120   -0.050100   -0.879950    ( 0.0000,  0.0000,  0.0000)
   4 O      1.985518    2.922485    1.428149    ( 0.0000,  0.0000,  0.0000)
   5 O      3.793144   -2.497790   -0.879818    ( 0.0000,  0.0000,  0.0000)
   6 O     -1.263220   -0.050157   -1.098342    ( 0.0000,  0.0000,  0.0000)
   7 O     -3.070798    0.474805    1.209623    ( 0.0000,  0.0000,  0.0000)
   8 O     -4.167835   -1.283920   -0.862116    ( 0.0000,  0.0000,  0.0000)
   9 O     -0.166037    1.698602    1.445528    ( 0.0000,  0.0000,  0.0000)
  10 O      4.890156    1.698625    1.191790    ( 0.0000,  0.0000,  0.0000)
  11 O      0.888358   -1.273896   -1.115855    ( 0.0000,  0.0000,  0.0000)
  12 Mn    -2.445557   -1.274211    0.312921    ( 0.0000,  0.0000,  1.0000)
  13 Mn    -1.888303    1.698892   -1.994948    ( 0.0000,  0.0000, -1.0000)
  14 Mn     3.167879    1.698917    0.016752    ( 0.0000,  0.0000, -1.0000)
  15 Mn     2.610624   -1.274187    2.324621    ( 0.0000,  0.0000,  1.0000)
  16 P     -0.529549   -1.273917   -1.724376    ( 0.0000,  0.0000,  0.0000)
  17 P     -3.804359    1.698599    0.583463    ( 0.0000,  0.0000,  0.0000)
  18 P      1.251870    1.698623    2.054050    ( 0.0000,  0.0000,  0.0000)
  19 P      4.526680   -1.273894   -0.253789    ( 0.0000,  0.0000,  0.0000)
  20 O     -0.544227   -1.273926    1.365380    ( 0.0000,  0.0000,  0.0000)
  21 O     -3.789411    1.698610   -0.942222    ( 0.0000,  0.0000,  0.0000)
  22 O      1.266548    1.698631   -1.035707    ( 0.0000,  0.0000,  0.0000)
  23 O      4.511733   -1.273905    1.271895    ( 0.0000,  0.0000,  0.0000)
  24 Li    -4.695087   -2.760584   -2.142877    ( 0.0000,  0.0000,  0.0000)
  25 Li     0.361147   -2.760561    0.164836    ( 0.0000,  0.0000,  0.0000)
  26 Li    -4.695074    0.212330   -2.142877    ( 0.0000,  0.0000,  0.0000)
  27 Li     0.361161    0.212353    0.164837    ( 0.0000,  0.0000,  0.0000)

Unit cell:
           periodic     x           y           z      points  spacing
  1. axis:    yes   10.112485    0.000045   -0.000035    60     0.1685
  2. axis:    yes    0.000026    5.945827    0.000001    35     0.1699
  3. axis:    yes   -0.000016    0.000000    4.615463    27     0.1709

  Lengths:  10.112485   5.945827   4.615463
  Angles:   89.999989  90.000396  89.999490

Effective grid spacing dv^(1/3) = 0.1698

                     log10-error:           total        iterations:
           time      wfs    density  force  energy       poisson  magmom
iter:   1  19:26:29                       -221.376664             +0.0000
iter:   2  19:27:06  -0.61  -0.93         -234.835987             +0.0000
iter:   3  19:27:43  -0.37  -0.97         -225.911960             -0.0000
iter:   4  19:28:21  -1.39  -1.29         -225.761503             +0.0000
iter:   5  19:28:58  -1.27  -1.39         -227.329787             +0.0000
iter:   6  19:29:36  -1.46  -1.46         -225.737302             +0.0000
iter:   7  19:30:13  -2.47  -2.04         -225.724708             +0.0000
iter:   8  19:30:50  -2.14  -1.99         -225.590843             +0.0000
iter:   9  19:31:28  -2.46  -2.09         -225.432308             +0.0000
iter:  10  19:32:05  -3.31  -2.55         -225.422392             +0.0000
iter:  11  19:32:42  -3.65  -2.81         -225.411987             +0.0000
iter:  12  19:33:20  -4.12  -3.05         -225.410874             +0.0000
iter:  13  19:33:57  -5.11  -3.29         -225.410752             -0.0000
iter:  14  19:34:35  -5.39  -3.32         -225.410579             -0.0000
iter:  15  19:35:12  -6.04  -3.43         -225.410585             -0.0000
iter:  16  19:35:49  -5.24  -3.47         -225.410926             +0.0000
iter:  17  19:36:27  -5.86  -3.58         -225.410812             -0.0000
iter:  18  19:37:04  -5.21  -3.70         -225.410527             +0.0000
iter:  19  19:37:41  -6.10  -4.14         -225.410532             +0.0000
iter:  20  19:38:19  -7.28  -4.53         -225.410533             -0.0000
iter:  21  19:39:06  -7.87  -4.56         -225.410533             +0.0000
iter:  22  19:39:53  -7.85  -4.64    -2.49-225.410533             +0.0000
iter:  23  19:40:40  -8.25  -4.83    -2.74-225.410533             +0.0000
iter:  24  19:41:27  -7.70  -4.96    -2.77-225.410533             +0.0000
iter:  25  19:42:14  -8.82  -5.05    -3.16-225.410533             +0.0000
iter:  26  19:43:01  -8.37  -5.25    -2.93-225.410532             +0.0000
iter:  27  19:43:48  -9.65  -5.72    -3.71-225.410532             +0.0000
iter:  28  19:44:35 -10.12  -5.79    -3.69-225.410532             +0.0000
iter:  29  19:45:22  -9.82  -5.86    -3.56-225.410532             +0.0000
iter:  30  19:46:09 -10.84  -5.90    -4.32-225.410532             +0.0000
iter:  31  19:46:56  -9.57  -5.96    -3.88-225.410532             +0.0000
iter:  32  19:47:44  -9.77  -5.97    -3.89-225.410532             +0.0000
iter:  33  19:48:30 -11.36  -6.12    -4.44-225.410532             +0.0000
iter:  34  19:49:17 -11.60  -6.18    -4.37-225.410532             +0.0000
iter:  35  19:50:04 -11.09  -6.27    -3.90-225.410532             +0.0000
iter:  36  19:50:51 -10.33  -6.35    -4.21-225.410532             +0.0000
iter:  37  19:51:38 -11.37  -6.32    -4.68-225.410532             +0.0000
iter:  38  19:52:25 -11.06  -6.41    -4.86-225.410532             +0.0000
iter:  39  19:53:12 -11.62  -6.65    -4.18-225.410532             +0.0000
iter:  40  19:53:59 -12.28  -6.76    -5.24-225.410532             +0.0000
iter:  41  19:54:47 -12.07  -6.80    -4.52-225.410532             +0.0000
iter:  42  19:55:34 -12.79  -6.94    -4.73-225.410532             +0.0000
iter:  43  19:56:21 -12.67  -6.99    -5.36-225.410532             +0.0000
iter:  44  19:57:08 -12.71  -7.15    -4.78-225.410532             +0.0000
iter:  45  19:57:55 -13.28  -7.33    -5.04-225.410532             +0.0000
iter:  46  19:58:42 -13.85  -7.47    -5.61-225.410532             +0.0000
iter:  47  19:59:29 -13.95  -7.50    -5.76-225.410532             +0.0000
iter:  48  20:00:16 -13.20  -7.53    -5.76-225.410532             +0.0000
iter:  49  20:01:04 -13.42  -7.63    -5.56-225.410532             +0.0000
iter:  50  20:01:51 -14.07  -7.67    -5.55-225.410532             +0.0000
iter:  51  20:02:38 -14.59  -7.74    -6.18-225.410532             +0.0000

Converged after 51 iterations.

Dipole moment: (19.052639, -1.427247, -4.182744) |e|*Ang

Total magnetic moment: (0.000000, 0.000000, 0.000000)
Local magnetic moments:
   0 O  ( 0.000000,  0.000000,  0.000666)
   1 O  ( 0.000000,  0.000000, -0.000691)
   2 O  ( 0.000000,  0.000000, -0.000658)
   3 O  ( 0.000000,  0.000000,  0.000651)
   4 O  ( 0.000000,  0.000000, -0.000665)
   5 O  ( 0.000000,  0.000000,  0.000689)
   6 O  ( 0.000000,  0.000000,  0.000658)
   7 O  ( 0.000000,  0.000000, -0.000649)
   8 O  ( 0.000000,  0.000000,  0.022368)
   9 O  ( 0.000000,  0.000000, -0.022368)
  10 O  ( 0.000000,  0.000000, -0.022368)
  11 O  ( 0.000000,  0.000000,  0.022368)
  12 Mn ( 0.000000,  0.000000,  4.575066)
  13 Mn ( 0.000000,  0.000000, -4.575035)
  14 Mn ( 0.000000,  0.000000, -4.575065)
  15 Mn ( 0.000000,  0.000000,  4.575034)
  16 P  ( 0.000000,  0.000000,  0.000812)
  17 P  ( 0.000000,  0.000000, -0.000817)
  18 P  ( 0.000000,  0.000000, -0.000812)
  19 P  ( 0.000000,  0.000000,  0.000816)
  20 O  ( 0.000000,  0.000000,  0.020709)
  21 O  ( 0.000000,  0.000000, -0.020708)
  22 O  ( 0.000000,  0.000000, -0.020709)
  23 O  ( 0.000000,  0.000000,  0.020708)
  24 Li ( 0.000000,  0.000000,  0.000016)
  25 Li ( 0.000000,  0.000000, -0.000000)
  26 Li ( 0.000000,  0.000000, -0.000016)
  27 Li ( 0.000000,  0.000000,  0.000000)

Energy contributions relative to reference atoms: (reference = -196157.275402)

Kinetic:       +296.837386
Potential:     -256.380519
External:        +0.000000
XC:            -267.648163
Entropy (-ST):   -0.000000
Local:           +1.780764
--------------------------
Free energy:   -225.410532
Extrapolated:  -225.410532

Spin contamination: 9.697234 electrons
Showing only first 2 kpts
                      Up                     Down
 Kpt  Band  Eigenvalues  Occupancy  Eigenvalues  Occupancy
  0    88      5.10922    0.00694      5.10938    0.00694
  0    89      5.16111    0.00694      5.16100    0.00694
  0    90      9.65233    0.00000      9.65227    0.00000
  0    91      9.67096    0.00000      9.67096    0.00000

  1    88      5.12112    0.00694      5.12097    0.00694
  1    89      5.17017    0.00694      5.17031    0.00694
  1    90      9.53455    0.00000      9.53457    0.00000
  1    91      9.54489    0.00000      9.54490    0.00000


Fermi level: 6.36987

Gap: 3.795 eV
Transition (v -> c):
  (s=0, k=92, n=89, [0.08, 0.42, -0.38]) -> (s=0, k=86, n=90, [0.08, 0.08, 0.12])
Writing to born-0.01-8y-.gpw (mode='all')

Timing:                              incl.     excl.
-----------------------------------------------------------
Hamiltonian:                         0.408     0.002   0.0% |
 Atomic:                             0.057     0.057   0.0% |
  XC Correction:                     0.000     0.000   0.0% |
 Calculate atomic Hamiltonians:      0.166     0.166   0.0% |
 Communicate:                        0.007     0.007   0.0% |
 Initialize Hamiltonian:             0.000     0.000   0.0% |
 Poisson:                            0.001     0.001   0.0% |
 XC 3D grid:                         0.174     0.174   0.0% |
LCAO initialization:               150.573     0.710   0.0% |
 LCAO eigensolver:                  40.267     0.003   0.0% |
  Calculate projections:             0.057     0.057   0.0% |
  DenseAtomicCorrection:             0.083     0.083   0.0% |
  Distribute overlap matrix:         0.407     0.407   0.0% |
  Orbital Layouts:                   0.362     0.362   0.0% |
  Potential matrix:                 39.257    39.257   0.8% |
  Sum over cells:                    0.099     0.099   0.0% |
 LCAO to grid:                     107.232   107.232   2.1% ||
 Set positions (LCAO WFS):           2.364     0.370   0.0% |
  Basic WFS set positions:           0.001     0.001   0.0% |
  Basis functions set positions:     0.000     0.000   0.0% |
  P tci:                             1.073     1.073   0.0% |
  ST tci:                            0.704     0.704   0.0% |
  mktci:                             0.216     0.216   0.0% |
PWDescriptor:                        0.025     0.025   0.0% |
SCF-cycle:                        2210.201     9.251   0.2% |
 Davidson:                        1798.009   571.105  11.4% |----|
  Apply H:                         132.328   128.252   2.6% ||
   HMM T:                            4.076     4.076   0.1% |
  Subspace diag:                   268.399     0.164   0.0% |
   calc_h_matrix:                  176.940    46.394   0.9% |
    Apply H:                       130.546   126.595   2.5% ||
     HMM T:                          3.951     3.951   0.1% |
   diagonalize:                      6.232     6.232   0.1% |
   rotate_psi:                      85.063    85.063   1.7% ||
  calc. matrices:                  567.544   310.574   6.2% |-|
   Apply H:                        256.970   249.501   5.0% |-|
    HMM T:                           7.469     7.469   0.1% |
  diagonalize:                      85.527    85.527   1.7% ||
  rotate_psi:                      173.107   173.107   3.4% ||
 Density:                           76.037     0.001   0.0% |
  Atomic density matrices:           1.291     1.291   0.0% |
  Mix:                              11.373    11.373   0.2% |
  Multipole moments:                 0.031     0.031   0.0% |
  Pseudo density:                   63.341    63.339   1.3% ||
   Symmetrize density:               0.001     0.001   0.0% |
 Forces:                           302.152   302.152   6.0% |-|
 Hamiltonian:                       20.697     0.118   0.0% |
  Atomic:                            3.006     3.005   0.1% |
   XC Correction:                    0.000     0.000   0.0% |
  Calculate atomic Hamiltonians:     8.459     8.459   0.2% |
  Communicate:                       0.112     0.112   0.0% |
  Poisson:                           0.077     0.077   0.0% |
  XC 3D grid:                        8.924     8.924   0.2% |
 Orthonormalize:                     4.055     0.004   0.0% |
  calc_s_matrix:                     0.483     0.483   0.0% |
  inverse-cholesky:                  0.054     0.054   0.0% |
  projections:                       2.657     2.657   0.1% |
  rotate_psi_s:                      0.857     0.857   0.0% |
Set symmetry:                        0.000     0.000   0.0% |
Other:                            2658.685  2658.685  53.0% |--------------------|
-----------------------------------------------------------
Total:                                      5019.893 100.0%

Memory usage: 12.99 GiB
Date: Mon Mar 22 20:46:55 2021
