
  ___ ___ ___ _ _ _  
 |   |   |_  | | | | 
 | | | | | . | | | | 
 |__ |  _|___|_____|  21.1.1b1
 |___|_|             

User:   madkru@g008.nifl.fysik.dtu.dk
Date:   Fri Mar 26 14:21:23 2021
Arch:   x86_64
Pid:    26423
Python: 3.8.6
gpaw:   /home/niflheim/madkru/venv_madkru/gpaw/gpaw (e6f0d78a31)
_gpaw:  /home/niflheim/madkru/venv_madkru/gpaw/build/lib.linux-x86_64-sandybridge-3.8/
        _gpaw.cpython-38-x86_64-linux-gnu.so (e6f0d78a31)
ase:    /home/niflheim/madkru/venv_madkru/ase/ase (version 3.22.0b1-4d5a73cb29)
numpy:  /home/modules/software/SciPy-bundle/2020.11-foss-2020b/lib/python3.8/site-packages/numpy (version 1.19.4)
scipy:  /home/modules/software/SciPy-bundle/2020.11-foss-2020b/lib/python3.8/site-packages/scipy (version 1.5.4)
libxc:  4.3.4
units:  Angstrom and eV
cores: 64
OpenMP: False
OMP_NUM_THREADS: 1

Input parameters:
  convergence: {bands: occupied,
                density: 0.0001,
                eigenstates: 4e-08,
                energy: 0.0005,
                forces: 1e-06}
  kpts: [6 6 4]
  mode: {ecut: 600.0,
         gammacentered: False,
         name: pw}
  occupations: {fixmagmom: False,
                name: fermi-dirac,
                width: 0.001}
  setups: {Mn: :d,3.0}
  symmetry: {point_group: False,
             time_reversal: False}

System changes: positions, numbers, cell, pbc, initial_charges, initial_magmoms 

Initialize ...

O-setup:
  name: Oxygen
  id: 9b9d51c344dea68c822856295a461509
  Z: 8.0
  valence: 6
  core: 2
  charge: 0.0
  file: /home/modules/software/GPAW-setups/0.9.20000/O.LDA.gz
  compensation charges: gauss, rc=0.21, lmax=2
  cutoffs: 1.17(filt), 0.83(core),
  valence states:
                energy  radius
    2s(2.00)   -23.752   0.688
    2p(4.00)    -9.195   0.598
    *s           3.459   0.688
    *p          18.016   0.598
    *d           0.000   0.619

  Using partial waves for O as LCAO basis

Mn-setup:
  name: Manganese
  id: 0d715a8018be061a6e9ea6f2d364ac92
  Z: 25.0
  valence: 15
  core: 10
  charge: 0.0
  Hubbard U: 3.000000 eV (l=2, scale=True)
  file: /home/modules/software/GPAW-setups/0.9.20000/Mn.LDA.gz
  compensation charges: gauss, rc=0.38, lmax=2
  cutoffs: 2.14(filt), 0.86(core),
  valence states:
                energy  radius
    3s(2.00)   -85.387   1.275
    4s(2.00)    -5.282   1.275
    3p(6.00)   -54.493   1.281
    4p(0.00)    -1.471   1.281
    3d(5.00)    -7.009   1.138
    *d          20.203   1.138

  Using partial waves for Mn as LCAO basis

P-setup:
  name: Phosphorus
  id: a5561c299094968922a179ab894d2e2d
  Z: 15.0
  valence: 5
  core: 10
  charge: 0.0
  file: /home/modules/software/GPAW-setups/0.9.20000/P.LDA.gz
  compensation charges: gauss, rc=0.30, lmax=2
  cutoffs: 1.69(filt), 1.81(core),
  valence states:
                energy  radius
    3s(2.00)   -14.015   0.953
    3p(3.00)    -5.596   0.953
    *s          13.197   0.953
    *p          21.615   0.953
    *d           0.000   0.953

  Using partial waves for P as LCAO basis

Li-setup:
  name: Lithium
  id: b73562207f97a71b6967473b66fe8b65
  Z: 3.0
  valence: 1
  core: 2
  charge: 0.0
  file: /home/modules/software/GPAW-setups/0.9.20000/Li.LDA.gz
  compensation charges: gauss, rc=0.33, lmax=2
  cutoffs: 1.91(filt), 2.55(core),
  valence states:
                energy  radius
    2s(1.00)    -2.874   1.058
    2p(0.00)    -1.126   1.058
    *s          24.338   1.058

  Using partial waves for Li as LCAO basis

Reference energy: -196157.275402

Spin-polarized calculation.
Magnetic moment: 0.000000

Convergence criteria:
  Maximum total energy change: 0.0005 eV / electron
  Maximum integral of absolute density change: 0.0001 electrons
  Maximum integral of absolute eigenstate change: 4e-08 eV^2
  Maximum change in atomic force: 1e-06 eV / Ang
  Maximum number of iterations: 333

Symmetries present (total): 1

  ( 1  0  0)
  ( 0  1  0)
  ( 0  0  1)

144 k-points: 6 x 6 x 4 Monkhorst-Pack grid
144 k-points in the irreducible part of the Brillouin zone
       k-points in crystal coordinates                weights
   0:    -0.41666667   -0.41666667   -0.37500000          1/144
   1:    -0.41666667   -0.41666667   -0.12500000          1/144
   2:    -0.41666667   -0.41666667    0.12500000          1/144
   3:    -0.41666667   -0.41666667    0.37500000          1/144
   4:    -0.41666667   -0.25000000   -0.37500000          1/144
   5:    -0.41666667   -0.25000000   -0.12500000          1/144
   6:    -0.41666667   -0.25000000    0.12500000          1/144
   7:    -0.41666667   -0.25000000    0.37500000          1/144
   8:    -0.41666667   -0.08333333   -0.37500000          1/144
   9:    -0.41666667   -0.08333333   -0.12500000          1/144
          ...
 143:     0.41666667    0.41666667    0.37500000          1/144

Wave functions: Plane wave expansion
  Cutoff energy: 600.000 eV
  Number of coefficients (min, max): 9238, 9284
  Pulay-stress correction: 0.000000 eV/Ang^3 (de/decut=0.000000)
  Using FFTW library
  ScaLapack parameters: grid=1x1, blocksize=None
  Wavefunction extrapolation:
    Improved wavefunction reuse through dual PAW basis 

  Fermi-Dirac: width=0.0010 eV

Eigensolver
   Davidson(niter=2) 

Densities:
  Coarse grid: 60*35*27 grid
  Fine grid: 120*70*54 grid
  Total Charge: 0.000000 

Density mixing:
  Method: difference
  Backend: pulay
  Linear mixing parameter: 0.05
  Mixing with 5 old densities
  Damping of long wave oscillations: 50 

Hamiltonian:
  XC and Coulomb potentials evaluated on a 120*70*54 grid
  Using the LDA Exchange-Correlation functional
 

Memory estimate:
  Process memory now: 210.21 MiB
  Calculator: 326.59 MiB
    Density: 9.67 MiB
      Arrays: 3.79 MiB
      Localized functions: 4.32 MiB
      Mixer: 1.56 MiB
    Hamiltonian: 2.94 MiB
      Arrays: 2.82 MiB
      XC: 0.00 MiB
      Poisson: 0.00 MiB
      vbar: 0.12 MiB
    Wavefunctions: 313.97 MiB
      Arrays psit_nG: 285.59 MiB
      Eigensolver: 18.49 MiB
      Projections: 2.71 MiB
      Projectors: 4.46 MiB
      PW-descriptor: 2.72 MiB

Total number of cores used: 64
Parallelization over k-points: 16
Domain decomposition: 2 x 2 x 1

Number of atoms: 28
Number of atomic orbitals: 148
Number of bands in calculation: 112
Number of valence electrons: 180
Bands to converge: occupied

... initialized

Initializing position-dependent things.

Density initialized from atomic densities
Creating initial wave functions:
  112 bands from LCAO basis set

                                           
                                           
                                           
                                           
                                           
               O     O  P  O               
            PO           OMn     O         
                  O          MO            
            O        Li O                  
             Mn  On          OP            
         O         Li O                    
         Li     O P         O              
       Li                                  
                                           
                                           
                                           
                                           

Positions:
   0 O     -1.263197   -2.497779   -1.098475    ( 0.0000,  0.0000,  0.0000)
   1 O     -3.070823    2.922496    1.209491    ( 0.0000,  0.0000,  0.0000)
   2 O      1.985541    0.474863    1.428016    ( 0.0000,  0.0000,  0.0000)
   3 O      3.793120   -0.050100   -0.879950    ( 0.0000,  0.0000,  0.0000)
   4 O      1.985518    2.922485    1.428149    ( 0.0000,  0.0000,  0.0000)
   5 O      3.793144   -2.497790   -0.879818    ( 0.0000,  0.0000,  0.0000)
   6 O     -1.263220   -0.050157   -1.098342    ( 0.0000,  0.0000,  0.0000)
   7 O     -3.070798    0.474805    1.209623    ( 0.0000,  0.0000,  0.0000)
   8 O     -4.167835   -1.273920   -0.862116    ( 0.0000,  0.0000,  0.0000)
   9 O     -0.166037    1.698602    1.445528    ( 0.0000,  0.0000,  0.0000)
  10 O      4.890156    1.698625    1.191790    ( 0.0000,  0.0000,  0.0000)
  11 O      0.888358   -1.273896   -1.115855    ( 0.0000,  0.0000,  0.0000)
  12 Mn    -2.445557   -1.274211    0.312921    ( 0.0000,  0.0000,  1.0000)
  13 Mn    -1.888303    1.698892   -1.994948    ( 0.0000,  0.0000, -1.0000)
  14 Mn     3.167879    1.698917    0.016752    ( 0.0000,  0.0000, -1.0000)
  15 Mn     2.610624   -1.274187    2.324621    ( 0.0000,  0.0000,  1.0000)
  16 P     -0.529549   -1.273917   -1.724376    ( 0.0000,  0.0000,  0.0000)
  17 P     -3.804359    1.698599    0.583463    ( 0.0000,  0.0000,  0.0000)
  18 P      1.251870    1.698623    2.054050    ( 0.0000,  0.0000,  0.0000)
  19 P      4.526680   -1.273894   -0.253789    ( 0.0000,  0.0000,  0.0000)
  20 O     -0.544227   -1.273926    1.365380    ( 0.0000,  0.0000,  0.0000)
  21 O     -3.789411    1.698610   -0.942222    ( 0.0000,  0.0000,  0.0000)
  22 O      1.266548    1.698631   -1.035707    ( 0.0000,  0.0000,  0.0000)
  23 O      4.511733   -1.273905    1.271895    ( 0.0000,  0.0000,  0.0000)
  24 Li    -4.695087   -2.760584   -2.142877    ( 0.0000,  0.0000,  0.0000)
  25 Li     0.361147   -2.760561    0.164836    ( 0.0000,  0.0000,  0.0000)
  26 Li    -4.695074    0.212330   -2.152877    ( 0.0000,  0.0000,  0.0000)
  27 Li     0.361161    0.212353    0.164837    ( 0.0000,  0.0000,  0.0000)

Unit cell:
           periodic     x           y           z      points  spacing
  1. axis:    yes   10.112485    0.000045   -0.000035    60     0.1685
  2. axis:    yes    0.000026    5.945827    0.000001    35     0.1699
  3. axis:    yes   -0.000016    0.000000    4.615463    27     0.1709

  Lengths:  10.112485   5.945827   4.615463
  Angles:   89.999989  90.000396  89.999490

Effective grid spacing dv^(1/3) = 0.1698

                     log10-error:           total        iterations:
           time      wfs    density  force  energy       poisson  magmom
iter:   1  14:22:59                       -221.376729             +0.0000
iter:   2  14:23:20  -0.61  -0.93         -234.836071             +0.0000
iter:   3  14:23:40  -0.37  -0.97         -225.912105             -0.0000
iter:   4  14:24:00  -1.39  -1.29         -225.761652             +0.0000
iter:   5  14:24:20  -1.27  -1.39         -227.329968             +0.0000
iter:   6  14:24:40  -1.46  -1.46         -225.737455             +0.0000
iter:   7  14:25:00  -2.47  -2.04         -225.724884             +0.0000
iter:   8  14:25:20  -2.14  -1.99         -225.590431             +0.0000
iter:   9  14:25:40  -2.46  -2.09         -225.432506             +0.0000
iter:  10  14:26:00  -3.31  -2.55         -225.422563             +0.0000
iter:  11  14:26:20  -3.65  -2.81         -225.412127             +0.0000
iter:  12  14:26:40  -4.12  -3.05         -225.411022             +0.0000
iter:  13  14:27:00  -5.10  -3.29         -225.410901             -0.0000
iter:  14  14:27:20  -5.40  -3.32         -225.410728             -0.0000
iter:  15  14:27:40  -6.04  -3.43         -225.410735             -0.0000
iter:  16  14:28:00  -5.24  -3.47         -225.411078             -0.0000
iter:  17  14:28:20  -5.87  -3.58         -225.410962             -0.0000
iter:  18  14:28:40  -5.21  -3.70         -225.410677             +0.0000
iter:  19  14:29:00  -6.10  -4.14         -225.410681             -0.0000
iter:  20  14:29:21  -7.28  -4.55         -225.410683             -0.0000
iter:  21  14:29:46  -8.11  -4.57         -225.410682             -0.0000
iter:  22  14:30:11  -7.84  -4.63    -2.32-225.410682             -0.0000
iter:  23  14:30:36  -8.17  -4.90    -2.69-225.410682             -0.0000
iter:  24  14:31:01  -8.91  -5.16    -3.08-225.410682             -0.0000
iter:  25  14:31:26  -9.35  -5.23    -3.37-225.410682             -0.0000
iter:  26  14:31:51  -9.10  -5.36    -3.27-225.410682             -0.0000
iter:  27  14:32:16  -9.53  -5.56    -3.47-225.410682             -0.0000
iter:  28  14:32:41 -10.03  -5.61    -3.91-225.410682             -0.0000
iter:  29  14:33:07  -9.74  -5.64    -3.53-225.410682             -0.0000
iter:  30  14:33:32 -10.22  -5.73    -3.57-225.410682             -0.0000
iter:  31  14:33:57 -10.36  -5.78    -4.09-225.410682             -0.0000
iter:  32  14:34:22  -9.44  -5.84    -3.56-225.410682             -0.0000
iter:  33  14:34:47  -9.91  -5.89    -3.47-225.410682             -0.0000
iter:  34  14:35:12 -11.08  -6.16    -4.79-225.410682             -0.0000
iter:  35  14:35:37 -10.54  -6.18    -3.90-225.410682             -0.0000
iter:  36  14:36:03 -11.74  -6.34    -4.96-225.410682             -0.0000
iter:  37  14:36:28 -11.76  -6.32    -4.68-225.410682             +0.0000
iter:  38  14:36:53 -10.99  -6.28    -4.30-225.410682             -0.0000
iter:  39  14:37:18 -11.79  -6.41    -5.27-225.410682             +0.0000
iter:  40  14:37:43 -11.64  -6.42    -4.40-225.410682             -0.0000
iter:  41  14:38:08 -10.55  -6.46    -4.41-225.410682             -0.0000
iter:  42  14:38:33 -11.17  -6.39    -4.25-225.410682             -0.0000
iter:  43  14:38:58 -11.31  -6.79    -4.89-225.410682             -0.0000
iter:  44  14:39:23 -11.51  -6.90    -4.25-225.410682             -0.0000
iter:  45  14:39:48 -12.11  -7.09    -5.07-225.410682             -0.0000
iter:  46  14:40:14 -12.73  -7.56    -5.51-225.410682             -0.0000
iter:  47  14:40:39 -13.42  -7.64    -5.64-225.410682             -0.0000
iter:  48  14:41:04 -13.54  -7.77    -5.86-225.410682             -0.0000
iter:  49  14:41:29 -13.07  -7.73    -5.18-225.410682             -0.0000
iter:  50  14:41:54 -13.84  -7.69    -5.37-225.410682             -0.0000
iter:  51  14:42:19 -13.97  -8.09    -6.34-225.410682             -0.0000

Converged after 51 iterations.

Dipole moment: (19.052786, -1.426295, -4.188543) |e|*Ang

Total magnetic moment: (0.000000, 0.000000, -0.000000)
Local magnetic moments:
   0 O  ( 0.000000,  0.000000,  0.000663)
   1 O  ( 0.000000,  0.000000, -0.000675)
   2 O  ( 0.000000,  0.000000, -0.000662)
   3 O  ( 0.000000,  0.000000,  0.000675)
   4 O  ( 0.000000,  0.000000, -0.000665)
   5 O  ( 0.000000,  0.000000,  0.000669)
   6 O  ( 0.000000,  0.000000,  0.000658)
   7 O  ( 0.000000,  0.000000, -0.000661)
   8 O  ( 0.000000,  0.000000,  0.022395)
   9 O  ( 0.000000,  0.000000, -0.022366)
  10 O  ( 0.000000,  0.000000, -0.022340)
  11 O  ( 0.000000,  0.000000,  0.022370)
  12 Mn ( 0.000000,  0.000000,  4.575055)
  13 Mn ( 0.000000,  0.000000, -4.575053)
  14 Mn ( 0.000000,  0.000000, -4.575076)
  15 Mn ( 0.000000,  0.000000,  4.575018)
  16 P  ( 0.000000,  0.000000,  0.000812)
  17 P  ( 0.000000,  0.000000, -0.000817)
  18 P  ( 0.000000,  0.000000, -0.000812)
  19 P  ( 0.000000,  0.000000,  0.000816)
  20 O  ( 0.000000,  0.000000,  0.020704)
  21 O  ( 0.000000,  0.000000, -0.020719)
  22 O  ( 0.000000,  0.000000, -0.020713)
  23 O  ( 0.000000,  0.000000,  0.020698)
  24 Li ( 0.000000,  0.000000,  0.000001)
  25 Li ( 0.000000,  0.000000,  0.000000)
  26 Li ( 0.000000,  0.000000, -0.000010)
  27 Li ( 0.000000,  0.000000, -0.000000)

Energy contributions relative to reference atoms: (reference = -196157.275402)

Kinetic:       +296.840430
Potential:     -256.382983
External:        +0.000000
XC:            -267.648888
Entropy (-ST):   -0.000000
Local:           +1.780760
--------------------------
Free energy:   -225.410682
Extrapolated:  -225.410682

Spin contamination: 9.697234 electrons
Showing only first 2 kpts
                      Up                     Down
 Kpt  Band  Eigenvalues  Occupancy  Eigenvalues  Occupancy
  0    88      5.10946    1.00000      5.10930    1.00000
  0    89      5.16104    1.00000      5.16092    1.00000
  0    90      9.65250    0.00000      9.65208    0.00000
  0    91      9.67107    0.00000      9.67084    0.00000

  1    88      5.12099    1.00000      5.12095    1.00000
  1    89      5.17043    1.00000      5.17015    1.00000
  1    90      9.53471    0.00000      9.53440    0.00000
  1    91      9.54479    0.00000      9.54497    0.00000


Fermi level: 6.36987

Gap: 3.795 eV
Transition (v -> c):
  (s=0, k=72, n=89, [0.08, -0.42, -0.38]) -> (s=1, k=61, n=90, [-0.08, 0.08, -0.12])
Writing to born-0.01-26z-.gpw (mode='all')

Timing:                              incl.     excl.
-----------------------------------------------------------
Hamiltonian:                         0.293     0.003   0.0% |
 Atomic:                             0.070     0.070   0.0% |
  XC Correction:                     0.000     0.000   0.0% |
 Calculate atomic Hamiltonians:      0.103     0.103   0.0% |
 Communicate:                        0.023     0.023   0.0% |
 Initialize Hamiltonian:             0.000     0.000   0.0% |
 Poisson:                            0.001     0.001   0.0% |
 XC 3D grid:                         0.093     0.093   0.0% |
LCAO initialization:                72.712     0.680   0.0% |
 LCAO eigensolver:                  21.211     0.003   0.0% |
  Calculate projections:             0.030     0.030   0.0% |
  DenseAtomicCorrection:             0.043     0.043   0.0% |
  Distribute overlap matrix:         0.080     0.080   0.0% |
  Orbital Layouts:                   0.296     0.296   0.0% |
  Potential matrix:                 20.669    20.669   0.7% |
  Sum over cells:                    0.090     0.090   0.0% |
 LCAO to grid:                      49.442    49.442   1.6% ||
 Set positions (LCAO WFS):           1.379     0.197   0.0% |
  Basic WFS set positions:           0.002     0.002   0.0% |
  Basis functions set positions:     0.000     0.000   0.0% |
  P tci:                             0.564     0.564   0.0% |
  ST tci:                            0.393     0.393   0.0% |
  mktci:                             0.224     0.224   0.0% |
PWDescriptor:                        0.023     0.023   0.0% |
SCF-cycle:                        1181.544     3.855   0.1% |
 Davidson:                         967.037   302.377   9.6% |---|
  Apply H:                          67.269    65.326   2.1% ||
   HMM T:                            1.944     1.944   0.1% |
  Subspace diag:                   139.717     0.146   0.0% |
   calc_h_matrix:                   90.259    23.660   0.8% |
    Apply H:                        66.599    64.697   2.1% ||
     HMM T:                          1.901     1.901   0.1% |
   diagonalize:                      5.201     5.201   0.2% |
   rotate_psi:                      44.111    44.111   1.4% ||
  calc. matrices:                  290.850   157.932   5.0% |-|
   Apply H:                        132.917   129.142   4.1% |-|
    HMM T:                           3.775     3.775   0.1% |
  diagonalize:                      79.008    79.008   2.5% ||
  rotate_psi:                       87.817    87.817   2.8% ||
 Density:                           39.694     0.001   0.0% |
  Atomic density matrices:           0.671     0.671   0.0% |
  Mix:                               6.437     6.437   0.2% |
  Multipole moments:                 0.018     0.018   0.0% |
  Pseudo density:                   32.568    32.566   1.0% |
   Symmetrize density:               0.001     0.001   0.0% |
 Forces:                           156.655   156.655   5.0% |-|
 Hamiltonian:                       12.203     0.103   0.0% |
  Atomic:                            3.015     3.015   0.1% |
   XC Correction:                    0.000     0.000   0.0% |
  Calculate atomic Hamiltonians:     4.391     4.391   0.1% |
  Communicate:                       0.013     0.013   0.0% |
  Poisson:                           0.041     0.041   0.0% |
  XC 3D grid:                        4.640     4.640   0.1% |
 Orthonormalize:                     2.100     0.003   0.0% |
  calc_s_matrix:                     0.244     0.244   0.0% |
  inverse-cholesky:                  0.040     0.040   0.0% |
  projections:                       1.370     1.370   0.0% |
  rotate_psi_s:                      0.443     0.443   0.0% |
Set symmetry:                        0.000     0.000   0.0% |
Other:                            1899.092  1899.092  60.2% |-----------------------|
-----------------------------------------------------------
Total:                                      3153.665 100.0%

Memory usage: 11.75 GiB
Date: Fri Mar 26 15:13:57 2021
