
  ___ ___ ___ _ _ _  
 |   |   |_  | | | | 
 | | | | | . | | | | 
 |__ |  _|___|_____|  20.10.1b1
 |___|_|             

User:   madkru@i018.nifl.fysik.dtu.dk
Date:   Wed Mar 24 04:00:37 2021
Arch:   x86_64
Pid:    26873
Python: 3.7.4
gpaw:   /home/niflheim/madkru/venv_folder/gpaw/gpaw (d0d1ca1c71)
_gpaw:  /home/niflheim/madkru/venv_folder/gpaw/build/lib.linux-x86_64-ivybridge-3.7/
        _gpaw.cpython-37m-x86_64-linux-gnu.so (4fd39e8b1e)
ase:    /home/niflheim/madkru/venv_folder/ase/ase (version 3.21.0b1-7e6c206a91)
numpy:  /home/niflheim/madkru/venv_folder/lib/python3.7/site-packages/numpy (version 1.19.4)
scipy:  /home/niflheim/madkru/venv_folder/lib/python3.7/site-packages/scipy (version 1.5.4)
libxc:  4.3.4
units:  Angstrom and eV
cores: 64
OMP_NUM_THREADS: 1

Input parameters:
  convergence: {bands: occupied,
                density: 0.0001,
                eigenstates: 4e-08,
                energy: 0.0005,
                forces: 1e-06}
  kpts: [6 6 4]
  mode: {ecut: 600.0,
         gammacentered: False,
         name: pw}
  occupations: {fixmagmom: False,
                name: fermi-dirac,
                width: 0.001}
  setups: {Mn: :d,3.0}
  symmetry: {point_group: False,
             time_reversal: False}

System changes: positions, numbers, cell, pbc, initial_charges, initial_magmoms 

Initialize ...

O-setup:
  name: Oxygen
  id: 9b9d51c344dea68c822856295a461509
  Z: 8.0
  valence: 6
  core: 2
  charge: 0.0
  file: /home/modules/software/GPAW-setups/0.9.20000/O.LDA.gz
  compensation charges: gauss, rc=0.21, lmax=2
  cutoffs: 1.17(filt), 0.83(core),
  valence states:
                energy  radius
    2s(2.00)   -23.752   0.688
    2p(4.00)    -9.195   0.598
    *s           3.459   0.688
    *p          18.016   0.598
    *d           0.000   0.619

  Using partial waves for O as LCAO basis

Mn-setup:
  name: Manganese
  id: 0d715a8018be061a6e9ea6f2d364ac92
  Z: 25.0
  valence: 15
  core: 10
  charge: 0.0
  Hubbard U: 3.000000 eV (l=2, scale=True)
  file: /home/modules/software/GPAW-setups/0.9.20000/Mn.LDA.gz
  compensation charges: gauss, rc=0.38, lmax=2
  cutoffs: 2.14(filt), 0.86(core),
  valence states:
                energy  radius
    3s(2.00)   -85.387   1.275
    4s(2.00)    -5.282   1.275
    3p(6.00)   -54.493   1.281
    4p(0.00)    -1.471   1.281
    3d(5.00)    -7.009   1.138
    *d          20.203   1.138

  Using partial waves for Mn as LCAO basis

P-setup:
  name: Phosphorus
  id: a5561c299094968922a179ab894d2e2d
  Z: 15.0
  valence: 5
  core: 10
  charge: 0.0
  file: /home/modules/software/GPAW-setups/0.9.20000/P.LDA.gz
  compensation charges: gauss, rc=0.30, lmax=2
  cutoffs: 1.69(filt), 1.81(core),
  valence states:
                energy  radius
    3s(2.00)   -14.015   0.953
    3p(3.00)    -5.596   0.953
    *s          13.197   0.953
    *p          21.615   0.953
    *d           0.000   0.953

  Using partial waves for P as LCAO basis

Li-setup:
  name: Lithium
  id: b73562207f97a71b6967473b66fe8b65
  Z: 3.0
  valence: 1
  core: 2
  charge: 0.0
  file: /home/modules/software/GPAW-setups/0.9.20000/Li.LDA.gz
  compensation charges: gauss, rc=0.33, lmax=2
  cutoffs: 1.91(filt), 2.55(core),
  valence states:
                energy  radius
    2s(1.00)    -2.874   1.058
    2p(0.00)    -1.126   1.058
    *s          24.338   1.058

  Using partial waves for Li as LCAO basis

Reference energy: -196157.275402

Spin-polarized calculation.
Magnetic moment: 0.000000

Convergence criteria:
  Maximum total energy change: 0.0005 eV / electron
  Maximum integral of absolute density change: 0.0001 electrons
  Maximum integral of absolute eigenstate change: 4e-08 eV^2
  Maximum change in atomic force: 1e-06 eV / Ang
  Maximum number of iterations: 333

Symmetries present (total): 1

  ( 1  0  0)
  ( 0  1  0)
  ( 0  0  1)

144 k-points: 6 x 6 x 4 Monkhorst-Pack grid
144 k-points in the irreducible part of the Brillouin zone
       k-points in crystal coordinates                weights
   0:    -0.41666667   -0.41666667   -0.37500000          1/144
   1:    -0.41666667   -0.41666667   -0.12500000          1/144
   2:    -0.41666667   -0.41666667    0.12500000          1/144
   3:    -0.41666667   -0.41666667    0.37500000          1/144
   4:    -0.41666667   -0.25000000   -0.37500000          1/144
   5:    -0.41666667   -0.25000000   -0.12500000          1/144
   6:    -0.41666667   -0.25000000    0.12500000          1/144
   7:    -0.41666667   -0.25000000    0.37500000          1/144
   8:    -0.41666667   -0.08333333   -0.37500000          1/144
   9:    -0.41666667   -0.08333333   -0.12500000          1/144
          ...
 143:     0.41666667    0.41666667    0.37500000          1/144

Wave functions: Plane wave expansion
  Cutoff energy: 600.000 eV
  Number of coefficients (min, max): 9238, 9284
  Pulay-stress correction: 0.000000 eV/Ang^3 (de/decut=0.000000)
  Using FFTW library
  ScaLapack parameters: grid=1x1, blocksize=None
  Wavefunction extrapolation:
    Improved wavefunction reuse through dual PAW basis 

  Fermi-Dirac: width=0.0010 eV

Eigensolver
   Davidson(niter=2, smin=None, normalize=True) 

Densities:
  Coarse grid: 60*35*27 grid
  Fine grid: 120*70*54 grid
  Total Charge: 0.000000 

Density mixing:
  Method: difference
  Backend: pulay
  Linear mixing parameter: 0.05
  Mixing with 5 old densities
  Damping of long wave oscillations: 50 

Hamiltonian:
  XC and Coulomb potentials evaluated on a 120*70*54 grid
  Using the LDA Exchange-Correlation functional
 

Memory estimate:
  Process memory now: 12808.67 MiB
  Calculator: 326.59 MiB
    Density: 9.67 MiB
      Arrays: 3.79 MiB
      Localized functions: 4.32 MiB
      Mixer: 1.56 MiB
    Hamiltonian: 2.94 MiB
      Arrays: 2.82 MiB
      XC: 0.00 MiB
      Poisson: 0.00 MiB
      vbar: 0.12 MiB
    Wavefunctions: 313.97 MiB
      Arrays psit_nG: 285.59 MiB
      Eigensolver: 18.49 MiB
      Projections: 2.71 MiB
      Projectors: 4.46 MiB
      PW-descriptor: 2.72 MiB

Total number of cores used: 64
Parallelization over k-points: 16
Domain decomposition: 2 x 2 x 1

Number of atoms: 28
Number of atomic orbitals: 148
Number of bands in calculation: 112
Number of valence electrons: 180
Bands to converge: occupied

... initialized

Initializing position-dependent things.

Density initialized from atomic densities
Creating initial wave functions:
  112 bands from LCAO basis set

                                           
                                           
                                           
                                           
                                           
               O     O  P  O               
            PO           OMn     O         
                  O          MO            
            O        Li O                  
             Mn  On          OP            
         O         Li O                    
         Li     O P         O              
       Li                                  
                                           
                                           
                                           
                                           

Positions:
   0 O     -1.263197   -2.497779   -1.098475    ( 0.0000,  0.0000,  0.0000)
   1 O     -3.070823    2.922496    1.209491    ( 0.0000,  0.0000,  0.0000)
   2 O      1.985541    0.474863    1.428016    ( 0.0000,  0.0000,  0.0000)
   3 O      3.793120   -0.050100   -0.879950    ( 0.0000,  0.0000,  0.0000)
   4 O      1.985518    2.922485    1.428149    ( 0.0000,  0.0000,  0.0000)
   5 O      3.793144   -2.497790   -0.879818    ( 0.0000,  0.0000,  0.0000)
   6 O     -1.263220   -0.050157   -1.098342    ( 0.0000,  0.0000,  0.0000)
   7 O     -3.070798    0.474805    1.209623    ( 0.0000,  0.0000,  0.0000)
   8 O     -4.167835   -1.273920   -0.862116    ( 0.0000,  0.0000,  0.0000)
   9 O     -0.166037    1.698602    1.445528    ( 0.0000,  0.0000,  0.0000)
  10 O      4.890156    1.698625    1.191790    ( 0.0000,  0.0000,  0.0000)
  11 O      0.888358   -1.273896   -1.115855    ( 0.0000,  0.0000,  0.0000)
  12 Mn    -2.445557   -1.274211    0.312921    ( 0.0000,  0.0000,  1.0000)
  13 Mn    -1.888303    1.698892   -1.994948    ( 0.0000,  0.0000, -1.0000)
  14 Mn     3.167879    1.698917    0.016752    ( 0.0000,  0.0000, -1.0000)
  15 Mn     2.610624   -1.274187    2.324621    ( 0.0000,  0.0000,  1.0000)
  16 P     -0.529549   -1.273917   -1.734376    ( 0.0000,  0.0000,  0.0000)
  17 P     -3.804359    1.698599    0.583463    ( 0.0000,  0.0000,  0.0000)
  18 P      1.251870    1.698623    2.054050    ( 0.0000,  0.0000,  0.0000)
  19 P      4.526680   -1.273894   -0.253789    ( 0.0000,  0.0000,  0.0000)
  20 O     -0.544227   -1.273926    1.365380    ( 0.0000,  0.0000,  0.0000)
  21 O     -3.789411    1.698610   -0.942222    ( 0.0000,  0.0000,  0.0000)
  22 O      1.266548    1.698631   -1.035707    ( 0.0000,  0.0000,  0.0000)
  23 O      4.511733   -1.273905    1.271895    ( 0.0000,  0.0000,  0.0000)
  24 Li    -4.695087   -2.760584   -2.142877    ( 0.0000,  0.0000,  0.0000)
  25 Li     0.361147   -2.760561    0.164836    ( 0.0000,  0.0000,  0.0000)
  26 Li    -4.695074    0.212330   -2.142877    ( 0.0000,  0.0000,  0.0000)
  27 Li     0.361161    0.212353    0.164837    ( 0.0000,  0.0000,  0.0000)

Unit cell:
           periodic     x           y           z      points  spacing
  1. axis:    yes   10.112485    0.000045   -0.000035    60     0.1685
  2. axis:    yes    0.000026    5.945827    0.000001    35     0.1699
  3. axis:    yes   -0.000016    0.000000    4.615463    27     0.1709

  Lengths:  10.112485   5.945827   4.615463
  Angles:   89.999989  90.000396  89.999490

Effective grid spacing dv^(1/3) = 0.1698

                     log10-error:           total        iterations:
           time      wfs    density  force  energy       poisson  magmom
iter:   1  04:02:12                       -221.383424             +0.0000
iter:   2  04:02:32  -0.61  -0.93         -234.837051             +0.0000
iter:   3  04:02:51  -0.37  -0.97         -225.906674             -0.0000
iter:   4  04:03:11  -1.39  -1.29         -225.758721             +0.0000
iter:   5  04:03:31  -1.27  -1.39         -227.330257             +0.0000
iter:   6  04:03:51  -1.46  -1.46         -225.733559             +0.0000
iter:   7  04:04:11  -2.48  -2.04         -225.721688             +0.0000
iter:   8  04:04:31  -2.24  -2.00         -225.555377             +0.0000
iter:   9  04:04:51  -2.49  -2.14         -225.430648             +0.0000
iter:  10  04:05:11  -3.31  -2.54         -225.419974             +0.0000
iter:  11  04:05:31  -3.49  -2.81         -225.408217             +0.0000
iter:  12  04:05:51  -4.22  -3.05         -225.407442             -0.0000
iter:  13  04:06:11  -5.01  -3.30         -225.407566             -0.0000
iter:  14  04:06:31  -5.25  -3.32         -225.407383             -0.0000
iter:  15  04:06:50  -5.98  -3.46         -225.407411             -0.0000
iter:  16  04:07:10  -5.30  -3.50         -225.407767             -0.0000
iter:  17  04:07:30  -6.28  -3.57         -225.407614             -0.0000
iter:  18  04:07:50  -6.13  -3.62         -225.407556             +0.0000
iter:  19  04:08:10  -6.30  -3.76         -225.407495             -0.0000
iter:  20  04:08:30  -6.01  -3.89         -225.407389             -0.0000
iter:  21  04:08:50  -5.89  -3.93         -225.407314             +0.0000
iter:  22  04:09:10  -6.51  -4.37         -225.407336             -0.0000
iter:  23  04:09:30  -7.39  -4.43         -225.407338             -0.0000
iter:  24  04:09:49  -7.20  -4.54         -225.407333             -0.0000
iter:  25  04:10:14  -7.83  -4.73         -225.407333             -0.0000
iter:  26  04:10:39  -7.74  -4.74    -2.99-225.407333             -0.0000
iter:  27  04:11:03  -8.37  -4.85    -2.65-225.407333             -0.0000
iter:  28  04:11:28  -9.05  -5.10    -3.24-225.407333             -0.0000
iter:  29  04:11:52  -9.23  -5.18    -3.15-225.407333             -0.0000
iter:  30  04:12:17  -8.91  -5.33    -3.36-225.407333             -0.0000
iter:  31  04:12:41  -9.18  -5.42    -3.60-225.407333             -0.0000
iter:  32  04:13:06  -9.58  -5.53    -3.43-225.407333             -0.0000
iter:  33  04:13:31  -9.78  -5.65    -3.62-225.407333             +0.0000
iter:  34  04:13:55  -9.80  -5.75    -3.82-225.407333             -0.0000
iter:  35  04:14:20 -10.58  -6.14    -3.97-225.407333             -0.0000
iter:  36  04:14:44 -10.20  -6.25    -3.99-225.407333             -0.0000
iter:  37  04:15:09 -11.19  -6.33    -4.30-225.407333             -0.0000
iter:  38  04:15:33 -11.66  -6.49    -4.78-225.407333             -0.0000
iter:  39  04:15:58 -11.27  -6.58    -4.32-225.407333             -0.0000
iter:  40  04:16:22 -11.50  -6.74    -4.78-225.407333             -0.0000
iter:  41  04:16:47 -11.90  -6.91    -4.89-225.407333             -0.0000
iter:  42  04:17:11 -11.90  -6.96    -4.89-225.407333             -0.0000
iter:  43  04:17:36 -12.32  -7.06    -4.76-225.407333             -0.0000
iter:  44  04:18:00 -13.72  -7.33    -5.90-225.407333             -0.0000
iter:  45  04:18:25 -12.32  -7.35    -5.31-225.407333             -0.0000
iter:  46  04:18:49 -13.30  -7.39    -5.30-225.407333             -0.0000
iter:  47  04:19:13 -12.71  -7.52    -5.16-225.407333             -0.0000
iter:  48  04:19:38 -13.56  -7.48    -5.35-225.407333             -0.0000
iter:  49  04:20:03 -13.74  -7.71    -5.76-225.407333             -0.0000
iter:  50  04:20:27 -14.57  -7.83    -5.99-225.407333             -0.0000
iter:  51  04:20:52 -14.15  -7.88    -6.12-225.407333             -0.0000

Converged after 51 iterations.

Dipole moment: (19.042666, -1.418987, -4.206440) |e|*Ang

Total magnetic moment: (0.000000, 0.000000, -0.000000)
Local magnetic moments:
   0 O  ( 0.000000,  0.000000,  0.000530)
   1 O  ( 0.000000,  0.000000, -0.000676)
   2 O  ( 0.000000,  0.000000, -0.000635)
   3 O  ( 0.000000,  0.000000,  0.000668)
   4 O  ( 0.000000,  0.000000, -0.000639)
   5 O  ( 0.000000,  0.000000,  0.000673)
   6 O  ( 0.000000,  0.000000,  0.000526)
   7 O  ( 0.000000,  0.000000, -0.000672)
   8 O  ( 0.000000,  0.000000,  0.022437)
   9 O  ( 0.000000,  0.000000, -0.022366)
  10 O  ( 0.000000,  0.000000, -0.022367)
  11 O  ( 0.000000,  0.000000,  0.022557)
  12 Mn ( 0.000000,  0.000000,  4.575111)
  13 Mn ( 0.000000,  0.000000, -4.574740)
  14 Mn ( 0.000000,  0.000000, -4.575067)
  15 Mn ( 0.000000,  0.000000,  4.574846)
  16 P  ( 0.000000,  0.000000,  0.000927)
  17 P  ( 0.000000,  0.000000, -0.000830)
  18 P  ( 0.000000,  0.000000, -0.000812)
  19 P  ( 0.000000,  0.000000,  0.000817)
  20 O  ( 0.000000,  0.000000,  0.020482)
  21 O  ( 0.000000,  0.000000, -0.020729)
  22 O  ( 0.000000,  0.000000, -0.020709)
  23 O  ( 0.000000,  0.000000,  0.020679)
  24 Li ( 0.000000,  0.000000,  0.000000)
  25 Li ( 0.000000,  0.000000, -0.000002)
  26 Li ( 0.000000,  0.000000,  0.000000)
  27 Li ( 0.000000,  0.000000, -0.000002)

Energy contributions relative to reference atoms: (reference = -196157.275402)

Kinetic:       +296.832147
Potential:     -256.390434
External:        +0.000000
XC:            -267.629955
Entropy (-ST):   -0.000000
Local:           +1.780909
--------------------------
Free energy:   -225.407333
Extrapolated:  -225.407333

Spin contamination: 9.697099 electrons
Showing only first 2 kpts
                      Up                     Down
 Kpt  Band  Eigenvalues  Occupancy  Eigenvalues  Occupancy
  0    88      5.10567    0.00694      5.11504    0.00694
  0    89      5.16187    0.00694      5.16683    0.00694
  0    90      9.65506    0.00000      9.64773    0.00000
  0    91      9.67694    0.00000      9.67324    0.00000

  1    88      5.11741    0.00694      5.12656    0.00694
  1    89      5.17161    0.00694      5.17633    0.00694
  1    90      9.53662    0.00000      9.52988    0.00000
  1    91      9.55058    0.00000      9.54729    0.00000


Fermi level: 6.37011

Gap: 3.787 eV
Transition (v -> c):
  (s=1, k=71, n=89, [-0.08, 0.42, 0.38]) -> (s=0, k=86, n=90, [0.08, 0.08, 0.12])
Writing to born-0.01-16z-.gpw (mode='all')

Timing:                              incl.     excl.
-----------------------------------------------------------
Hamiltonian:                         0.221     0.002   0.0% |
 Atomic:                             0.059     0.059   0.0% |
  XC Correction:                     0.000     0.000   0.0% |
 Calculate atomic Hamiltonians:      0.074     0.074   0.0% |
 Communicate:                        0.002     0.002   0.0% |
 Initialize Hamiltonian:             0.000     0.000   0.0% |
 Poisson:                            0.001     0.001   0.0% |
 XC 3D grid:                         0.083     0.083   0.0% |
LCAO initialization:                71.601     0.646   0.0% |
 LCAO eigensolver:                  19.328     0.002   0.0% |
  Calculate projections:             0.029     0.029   0.0% |
  DenseAtomicCorrection:             0.045     0.045   0.0% |
  Distribute overlap matrix:         0.171     0.171   0.0% |
  Orbital Layouts:                   0.431     0.431   0.0% |
  Potential matrix:                 18.552    18.552   0.6% |
  Sum over cells:                    0.097     0.097   0.0% |
 LCAO to grid:                      50.331    50.331   1.6% ||
 Set positions (LCAO WFS):           1.296     0.188   0.0% |
  Basic WFS set positions:           0.001     0.001   0.0% |
  Basis functions set positions:     0.000     0.000   0.0% |
  P tci:                             0.517     0.517   0.0% |
  ST tci:                            0.377     0.377   0.0% |
  mktci:                             0.213     0.213   0.0% |
PWDescriptor:                        0.023     0.023   0.0% |
SCF-cycle:                        1141.472     1.100   0.0% |
 Davidson:                         961.822   295.172   9.5% |---|
  Apply H:                          66.121    64.227   2.1% ||
   HMM T:                            1.894     1.894   0.1% |
  Subspace diag:                   139.320     0.145   0.0% |
   calc_h_matrix:                   89.416    23.287   0.8% |
    Apply H:                        66.128    64.200   2.1% ||
     HMM T:                          1.929     1.929   0.1% |
   diagonalize:                      6.899     6.899   0.2% |
   rotate_psi:                      42.860    42.860   1.4% ||
  calc. matrices:                  288.041   158.297   5.1% |-|
   Apply H:                        129.744   126.141   4.1% |-|
    HMM T:                           3.603     3.603   0.1% |
  diagonalize:                      80.312    80.312   2.6% ||
  rotate_psi:                       92.856    92.856   3.0% ||
 Density:                           38.396     0.001   0.0% |
  Atomic density matrices:           0.833     0.833   0.0% |
  Mix:                               5.339     5.339   0.2% |
  Multipole moments:                 0.018     0.018   0.0% |
  Pseudo density:                   32.204    32.203   1.0% |
   Symmetrize density:               0.001     0.001   0.0% |
 Forces:                           127.027   127.027   4.1% |-|
 Hamiltonian:                       11.041     0.105   0.0% |
  Atomic:                            2.780     2.779   0.1% |
   XC Correction:                    0.000     0.000   0.0% |
  Calculate atomic Hamiltonians:     3.798     3.798   0.1% |
  Communicate:                       0.074     0.074   0.0% |
  Poisson:                           0.030     0.030   0.0% |
  XC 3D grid:                        4.255     4.255   0.1% |
 Orthonormalize:                     2.087     0.003   0.0% |
  calc_s_matrix:                     0.244     0.244   0.0% |
  inverse-cholesky:                  0.073     0.073   0.0% |
  projections:                       1.333     1.333   0.0% |
  rotate_psi_s:                      0.434     0.434   0.0% |
Set symmetry:                        0.000     0.000   0.0% |
Other:                            1880.819  1880.819  60.8% |-----------------------|
-----------------------------------------------------------
Total:                                      3094.137 100.0%

Memory usage: 12.55 GiB
Date: Wed Mar 24 04:52:11 2021
