
  ___ ___ ___ _ _ _  
 |   |   |_  | | | | 
 | | | | | . | | | | 
 |__ |  _|___|_____|  20.10.1b1
 |___|_|             

User:   madkru@i018.nifl.fysik.dtu.dk
Date:   Wed Mar 24 10:50:39 2021
Arch:   x86_64
Pid:    26873
Python: 3.7.4
gpaw:   /home/niflheim/madkru/venv_folder/gpaw/gpaw (d0d1ca1c71)
_gpaw:  /home/niflheim/madkru/venv_folder/gpaw/build/lib.linux-x86_64-ivybridge-3.7/
        _gpaw.cpython-37m-x86_64-linux-gnu.so (4fd39e8b1e)
ase:    /home/niflheim/madkru/venv_folder/ase/ase (version 3.21.0b1-7e6c206a91)
numpy:  /home/niflheim/madkru/venv_folder/lib/python3.7/site-packages/numpy (version 1.19.4)
scipy:  /home/niflheim/madkru/venv_folder/lib/python3.7/site-packages/scipy (version 1.5.4)
libxc:  4.3.4
units:  Angstrom and eV
cores: 64
OMP_NUM_THREADS: 1

Input parameters:
  convergence: {bands: occupied,
                density: 0.0001,
                eigenstates: 4e-08,
                energy: 0.0005,
                forces: 1e-06}
  kpts: [6 6 4]
  mode: {ecut: 600.0,
         gammacentered: False,
         name: pw}
  occupations: {fixmagmom: False,
                name: fermi-dirac,
                width: 0.001}
  setups: {Mn: :d,3.0}
  symmetry: {point_group: False,
             time_reversal: False}

System changes: positions, numbers, cell, pbc, initial_charges, initial_magmoms 

Initialize ...

O-setup:
  name: Oxygen
  id: 9b9d51c344dea68c822856295a461509
  Z: 8.0
  valence: 6
  core: 2
  charge: 0.0
  file: /home/modules/software/GPAW-setups/0.9.20000/O.LDA.gz
  compensation charges: gauss, rc=0.21, lmax=2
  cutoffs: 1.17(filt), 0.83(core),
  valence states:
                energy  radius
    2s(2.00)   -23.752   0.688
    2p(4.00)    -9.195   0.598
    *s           3.459   0.688
    *p          18.016   0.598
    *d           0.000   0.619

  Using partial waves for O as LCAO basis

Mn-setup:
  name: Manganese
  id: 0d715a8018be061a6e9ea6f2d364ac92
  Z: 25.0
  valence: 15
  core: 10
  charge: 0.0
  Hubbard U: 3.000000 eV (l=2, scale=True)
  file: /home/modules/software/GPAW-setups/0.9.20000/Mn.LDA.gz
  compensation charges: gauss, rc=0.38, lmax=2
  cutoffs: 2.14(filt), 0.86(core),
  valence states:
                energy  radius
    3s(2.00)   -85.387   1.275
    4s(2.00)    -5.282   1.275
    3p(6.00)   -54.493   1.281
    4p(0.00)    -1.471   1.281
    3d(5.00)    -7.009   1.138
    *d          20.203   1.138

  Using partial waves for Mn as LCAO basis

P-setup:
  name: Phosphorus
  id: a5561c299094968922a179ab894d2e2d
  Z: 15.0
  valence: 5
  core: 10
  charge: 0.0
  file: /home/modules/software/GPAW-setups/0.9.20000/P.LDA.gz
  compensation charges: gauss, rc=0.30, lmax=2
  cutoffs: 1.69(filt), 1.81(core),
  valence states:
                energy  radius
    3s(2.00)   -14.015   0.953
    3p(3.00)    -5.596   0.953
    *s          13.197   0.953
    *p          21.615   0.953
    *d           0.000   0.953

  Using partial waves for P as LCAO basis

Li-setup:
  name: Lithium
  id: b73562207f97a71b6967473b66fe8b65
  Z: 3.0
  valence: 1
  core: 2
  charge: 0.0
  file: /home/modules/software/GPAW-setups/0.9.20000/Li.LDA.gz
  compensation charges: gauss, rc=0.33, lmax=2
  cutoffs: 1.91(filt), 2.55(core),
  valence states:
                energy  radius
    2s(1.00)    -2.874   1.058
    2p(0.00)    -1.126   1.058
    *s          24.338   1.058

  Using partial waves for Li as LCAO basis

Reference energy: -196157.275402

Spin-polarized calculation.
Magnetic moment: 0.000000

Convergence criteria:
  Maximum total energy change: 0.0005 eV / electron
  Maximum integral of absolute density change: 0.0001 electrons
  Maximum integral of absolute eigenstate change: 4e-08 eV^2
  Maximum change in atomic force: 1e-06 eV / Ang
  Maximum number of iterations: 333

Symmetries present (total): 1

  ( 1  0  0)
  ( 0  1  0)
  ( 0  0  1)

144 k-points: 6 x 6 x 4 Monkhorst-Pack grid
144 k-points in the irreducible part of the Brillouin zone
       k-points in crystal coordinates                weights
   0:    -0.41666667   -0.41666667   -0.37500000          1/144
   1:    -0.41666667   -0.41666667   -0.12500000          1/144
   2:    -0.41666667   -0.41666667    0.12500000          1/144
   3:    -0.41666667   -0.41666667    0.37500000          1/144
   4:    -0.41666667   -0.25000000   -0.37500000          1/144
   5:    -0.41666667   -0.25000000   -0.12500000          1/144
   6:    -0.41666667   -0.25000000    0.12500000          1/144
   7:    -0.41666667   -0.25000000    0.37500000          1/144
   8:    -0.41666667   -0.08333333   -0.37500000          1/144
   9:    -0.41666667   -0.08333333   -0.12500000          1/144
          ...
 143:     0.41666667    0.41666667    0.37500000          1/144

Wave functions: Plane wave expansion
  Cutoff energy: 600.000 eV
  Number of coefficients (min, max): 9238, 9284
  Pulay-stress correction: 0.000000 eV/Ang^3 (de/decut=0.000000)
  Using FFTW library
  ScaLapack parameters: grid=1x1, blocksize=None
  Wavefunction extrapolation:
    Improved wavefunction reuse through dual PAW basis 

  Fermi-Dirac: width=0.0010 eV

Eigensolver
   Davidson(niter=2, smin=None, normalize=True) 

Densities:
  Coarse grid: 60*35*27 grid
  Fine grid: 120*70*54 grid
  Total Charge: 0.000000 

Density mixing:
  Method: difference
  Backend: pulay
  Linear mixing parameter: 0.05
  Mixing with 5 old densities
  Damping of long wave oscillations: 50 

Hamiltonian:
  XC and Coulomb potentials evaluated on a 120*70*54 grid
  Using the LDA Exchange-Correlation functional
 

Memory estimate:
  Process memory now: 13141.75 MiB
  Calculator: 326.59 MiB
    Density: 9.67 MiB
      Arrays: 3.79 MiB
      Localized functions: 4.32 MiB
      Mixer: 1.56 MiB
    Hamiltonian: 2.94 MiB
      Arrays: 2.82 MiB
      XC: 0.00 MiB
      Poisson: 0.00 MiB
      vbar: 0.12 MiB
    Wavefunctions: 313.97 MiB
      Arrays psit_nG: 285.59 MiB
      Eigensolver: 18.49 MiB
      Projections: 2.71 MiB
      Projectors: 4.46 MiB
      PW-descriptor: 2.72 MiB

Total number of cores used: 64
Parallelization over k-points: 16
Domain decomposition: 2 x 2 x 1

Number of atoms: 28
Number of atomic orbitals: 148
Number of bands in calculation: 112
Number of valence electrons: 180
Bands to converge: occupied

... initialized

Initializing position-dependent things.

Density initialized from atomic densities
Creating initial wave functions:
  112 bands from LCAO basis set

                                           
                                           
                                           
                                           
                                           
               O     O  P  O               
            PO           OMn     O         
                  O          MO            
            O        Li O                  
             Mn  On          OP            
         O         Li O                    
         Li     O P         O              
       Li                                  
                                           
                                           
                                           
                                           

Positions:
   0 O     -1.263197   -2.497779   -1.098475    ( 0.0000,  0.0000,  0.0000)
   1 O     -3.070823    2.922496    1.209491    ( 0.0000,  0.0000,  0.0000)
   2 O      1.985541    0.474863    1.428016    ( 0.0000,  0.0000,  0.0000)
   3 O      3.793120   -0.050100   -0.879950    ( 0.0000,  0.0000,  0.0000)
   4 O      1.985518    2.922485    1.428149    ( 0.0000,  0.0000,  0.0000)
   5 O      3.793144   -2.497790   -0.879818    ( 0.0000,  0.0000,  0.0000)
   6 O     -1.263220   -0.050157   -1.098342    ( 0.0000,  0.0000,  0.0000)
   7 O     -3.070798    0.474805    1.209623    ( 0.0000,  0.0000,  0.0000)
   8 O     -4.167835   -1.273920   -0.862116    ( 0.0000,  0.0000,  0.0000)
   9 O     -0.166037    1.698602    1.445528    ( 0.0000,  0.0000,  0.0000)
  10 O      4.890156    1.698625    1.191790    ( 0.0000,  0.0000,  0.0000)
  11 O      0.888358   -1.273896   -1.115855    ( 0.0000,  0.0000,  0.0000)
  12 Mn    -2.445557   -1.274211    0.312921    ( 0.0000,  0.0000,  1.0000)
  13 Mn    -1.888303    1.698892   -1.994948    ( 0.0000,  0.0000, -1.0000)
  14 Mn     3.167879    1.698917    0.016752    ( 0.0000,  0.0000, -1.0000)
  15 Mn     2.610624   -1.274187    2.324621    ( 0.0000,  0.0000,  1.0000)
  16 P     -0.529549   -1.273917   -1.724376    ( 0.0000,  0.0000,  0.0000)
  17 P     -3.804359    1.698599    0.583463    ( 0.0000,  0.0000,  0.0000)
  18 P      1.251870    1.698623    2.054050    ( 0.0000,  0.0000,  0.0000)
  19 P      4.516680   -1.273894   -0.253789    ( 0.0000,  0.0000,  0.0000)
  20 O     -0.544227   -1.273926    1.365380    ( 0.0000,  0.0000,  0.0000)
  21 O     -3.789411    1.698610   -0.942222    ( 0.0000,  0.0000,  0.0000)
  22 O      1.266548    1.698631   -1.035707    ( 0.0000,  0.0000,  0.0000)
  23 O      4.511733   -1.273905    1.271895    ( 0.0000,  0.0000,  0.0000)
  24 Li    -4.695087   -2.760584   -2.142877    ( 0.0000,  0.0000,  0.0000)
  25 Li     0.361147   -2.760561    0.164836    ( 0.0000,  0.0000,  0.0000)
  26 Li    -4.695074    0.212330   -2.142877    ( 0.0000,  0.0000,  0.0000)
  27 Li     0.361161    0.212353    0.164837    ( 0.0000,  0.0000,  0.0000)

Unit cell:
           periodic     x           y           z      points  spacing
  1. axis:    yes   10.112485    0.000045   -0.000035    60     0.1685
  2. axis:    yes    0.000026    5.945827    0.000001    35     0.1699
  3. axis:    yes   -0.000016    0.000000    4.615463    27     0.1709

  Lengths:  10.112485   5.945827   4.615463
  Angles:   89.999989  90.000396  89.999490

Effective grid spacing dv^(1/3) = 0.1698

                     log10-error:           total        iterations:
           time      wfs    density  force  energy       poisson  magmom
iter:   1  10:52:14                       -221.381269             +0.0000
iter:   2  10:52:34  -0.61  -0.93         -234.837715             +0.0000
iter:   3  10:52:54  -0.37  -0.97         -225.910005             -0.0000
iter:   4  10:53:14  -1.39  -1.29         -225.759335             +0.0000
iter:   5  10:53:34  -1.27  -1.39         -227.322420             +0.0000
iter:   6  10:53:54  -1.46  -1.46         -225.735112             +0.0000
iter:   7  10:54:15  -2.45  -2.04         -225.720325             +0.0000
iter:   8  10:54:35  -2.02  -1.99         -225.636189             +0.0000
iter:   9  10:54:55  -2.40  -2.02         -225.425156             +0.0000
iter:  10  10:55:15  -3.28  -2.60         -225.416771             +0.0000
iter:  11  10:55:35  -3.78  -2.88         -225.409700             +0.0000
iter:  12  10:55:55  -4.22  -3.02         -225.408200             +0.0000
iter:  13  10:56:15  -5.02  -3.27         -225.408028             +0.0000
iter:  14  10:56:35  -4.79  -3.33         -225.408173             +0.0000
iter:  15  10:56:55  -5.67  -3.40         -225.408262             +0.0000
iter:  16  10:57:15  -5.63  -3.37         -225.408105             -0.0000
iter:  17  10:57:35  -4.89  -3.51         -225.407806             -0.0000
iter:  18  10:57:55  -5.43  -3.50         -225.407867             -0.0000
iter:  19  10:58:15  -5.46  -3.63         -225.407872             -0.0000
iter:  20  10:58:35  -6.11  -3.86         -225.407808             +0.0000
iter:  21  10:58:55  -6.60  -4.00         -225.407812             +0.0000
iter:  22  10:59:20  -7.48  -4.07         -225.407815             -0.0000
iter:  23  10:59:40  -7.22  -4.09         -225.407808             -0.0000
iter:  24  11:00:00  -6.89  -4.16         -225.407809             -0.0000
iter:  25  11:00:25  -7.85  -4.24    -2.11-225.407807             -0.0000
iter:  26  11:00:45  -7.27  -4.30         -225.407806             -0.0000
iter:  27  11:01:10  -7.67  -4.45    -2.39-225.407806             -0.0000
iter:  28  11:01:34  -8.24  -4.57    -2.79-225.407806             -0.0000
iter:  29  11:01:59  -7.71  -4.61    -2.82-225.407806             -0.0000
iter:  30  11:02:24  -7.97  -4.69    -2.79-225.407806             -0.0000
iter:  31  11:02:49  -7.75  -4.74    -2.71-225.407805             -0.0000
iter:  32  11:03:14  -8.53  -4.97    -3.60-225.407805             -0.0000
iter:  33  11:03:38  -9.08  -5.05    -3.07-225.407805             -0.0000
iter:  34  11:04:03  -8.04  -5.20    -2.84-225.407806             -0.0000
iter:  35  11:04:28  -8.26  -5.20    -3.09-225.407805             -0.0000
iter:  36  11:04:53  -9.19  -5.37    -3.38-225.407805             -0.0000
iter:  37  11:05:17  -9.33  -5.44    -3.40-225.407805             -0.0000
iter:  38  11:05:42  -9.14  -5.55    -3.29-225.407805             -0.0000
iter:  39  11:06:07  -9.53  -5.69    -3.87-225.407805             -0.0000
iter:  40  11:06:31 -10.30  -5.68    -3.98-225.407805             -0.0000
iter:  41  11:06:56  -9.82  -5.71    -3.93-225.407805             -0.0000
iter:  42  11:07:21 -10.28  -5.88    -4.01-225.407805             -0.0000
iter:  43  11:07:45 -11.10  -5.97    -4.01-225.407805             -0.0000
iter:  44  11:08:10 -11.22  -6.10    -3.84-225.407805             -0.0000
iter:  45  11:08:35 -11.27  -6.38    -4.67-225.407805             -0.0000
iter:  46  11:08:59 -11.69  -6.43    -4.68-225.407805             -0.0000
iter:  47  11:09:24 -11.36  -6.51    -4.37-225.407805             -0.0000
iter:  48  11:09:49 -10.88  -6.72    -4.41-225.407805             -0.0000
iter:  49  11:10:13 -12.33  -7.39    -5.52-225.407805             -0.0000
iter:  50  11:10:38 -12.44  -7.45    -5.42-225.407805             -0.0000
iter:  51  11:11:03 -12.66  -7.49    -5.65-225.407805             -0.0000
iter:  52  11:11:27 -12.97  -7.59    -5.18-225.407805             -0.0000
iter:  53  11:11:52 -13.76  -7.77    -5.85-225.407805             -0.0000
iter:  54  11:12:17 -13.90  -7.83    -6.08-225.407805             -0.0000

Converged after 54 iterations.

Dipole moment: (19.041663, -1.435853, -4.183284) |e|*Ang

Total magnetic moment: (0.000000, 0.000000, -0.000000)
Local magnetic moments:
   0 O  ( 0.000000,  0.000000,  0.000617)
   1 O  ( 0.000000,  0.000000, -0.000741)
   2 O  ( 0.000000,  0.000000, -0.000635)
   3 O  ( 0.000000,  0.000000,  0.000822)
   4 O  ( 0.000000,  0.000000, -0.000640)
   5 O  ( 0.000000,  0.000000,  0.000826)
   6 O  ( 0.000000,  0.000000,  0.000613)
   7 O  ( 0.000000,  0.000000, -0.000737)
   8 O  ( 0.000000,  0.000000,  0.022519)
   9 O  ( 0.000000,  0.000000, -0.022298)
  10 O  ( 0.000000,  0.000000, -0.022466)
  11 O  ( 0.000000,  0.000000,  0.022427)
  12 Mn ( 0.000000,  0.000000,  4.574964)
  13 Mn ( 0.000000,  0.000000, -4.575054)
  14 Mn ( 0.000000,  0.000000, -4.575195)
  15 Mn ( 0.000000,  0.000000,  4.574876)
  16 P  ( 0.000000,  0.000000,  0.000807)
  17 P  ( 0.000000,  0.000000, -0.000791)
  18 P  ( 0.000000,  0.000000, -0.000815)
  19 P  ( 0.000000,  0.000000,  0.000681)
  20 O  ( 0.000000,  0.000000,  0.020624)
  21 O  ( 0.000000,  0.000000, -0.020720)
  22 O  ( 0.000000,  0.000000, -0.020725)
  23 O  ( 0.000000,  0.000000,  0.020874)
  24 Li ( 0.000000,  0.000000,  0.000016)
  25 Li ( 0.000000,  0.000000, -0.000001)
  26 Li ( 0.000000,  0.000000,  0.000016)
  27 Li ( 0.000000,  0.000000, -0.000001)

Energy contributions relative to reference atoms: (reference = -196157.275402)

Kinetic:       +296.827268
Potential:     -256.367970
External:        +0.000000
XC:            -267.647847
Entropy (-ST):   -0.000000
Local:           +1.780744
--------------------------
Free energy:   -225.407805
Extrapolated:  -225.407805

Spin contamination: 9.697367 electrons
Showing only first 2 kpts
                      Up                     Down
 Kpt  Band  Eigenvalues  Occupancy  Eigenvalues  Occupancy
  0    88      5.10996    0.00694      5.10105    0.00694
  0    89      5.17441    0.00694      5.15793    0.00694
  0    90      9.63780    0.00000      9.64201    0.00000
  0    91      9.67600    0.00000      9.67397    0.00000

  1    88      5.12040    0.00694      5.11263    0.00694
  1    89      5.18439    0.00694      5.16726    0.00694
  1    90      9.51832    0.00000      9.51795    0.00000
  1    91      9.55129    0.00000      9.55264    0.00000


Fermi level: 6.37016

Gap: 3.782 eV
Transition (v -> c):
  (s=0, k=75, n=89, [0.08, -0.42, 0.38]) -> (s=1, k=85, n=90, [0.08, 0.08, -0.12])
Writing to born-0.01-19x-.gpw (mode='all')

Timing:                              incl.     excl.
-----------------------------------------------------------
Hamiltonian:                         0.216     0.002   0.0% |
 Atomic:                             0.053     0.053   0.0% |
  XC Correction:                     0.000     0.000   0.0% |
 Calculate atomic Hamiltonians:      0.074     0.074   0.0% |
 Communicate:                        0.002     0.002   0.0% |
 Initialize Hamiltonian:             0.000     0.000   0.0% |
 Poisson:                            0.001     0.001   0.0% |
 XC 3D grid:                         0.084     0.084   0.0% |
LCAO initialization:                70.641     0.651   0.0% |
 LCAO eigensolver:                  19.175     0.002   0.0% |
  Calculate projections:             0.029     0.029   0.0% |
  DenseAtomicCorrection:             0.045     0.045   0.0% |
  Distribute overlap matrix:         0.009     0.009   0.0% |
  Orbital Layouts:                   0.434     0.434   0.0% |
  Potential matrix:                 18.558    18.558   0.6% |
  Sum over cells:                    0.099     0.099   0.0% |
 LCAO to grid:                      49.455    49.455   1.6% ||
 Set positions (LCAO WFS):           1.360     0.191   0.0% |
  Basic WFS set positions:           0.001     0.001   0.0% |
  Basis functions set positions:     0.000     0.000   0.0% |
  P tci:                             0.527     0.527   0.0% |
  ST tci:                            0.385     0.385   0.0% |
  mktci:                             0.256     0.256   0.0% |
PWDescriptor:                        0.024     0.024   0.0% |
SCF-cycle:                        1225.617     2.481   0.1% |
 Davidson:                        1027.117   312.785   9.8% |---|
  Apply H:                          71.833    69.786   2.2% ||
   HMM T:                            2.047     2.047   0.1% |
  Subspace diag:                   149.025     0.152   0.0% |
   calc_h_matrix:                   96.344    24.633   0.8% |
    Apply H:                        71.712    69.623   2.2% ||
     HMM T:                          2.089     2.089   0.1% |
   diagonalize:                      7.244     7.244   0.2% |
   rotate_psi:                      45.285    45.285   1.4% ||
  calc. matrices:                  310.059   167.650   5.3% |-|
   Apply H:                        142.409   138.402   4.3% |-|
    HMM T:                           4.007     4.007   0.1% |
  diagonalize:                      85.290    85.290   2.7% ||
  rotate_psi:                       98.126    98.126   3.1% ||
 Density:                           40.866     0.001   0.0% |
  Atomic density matrices:           0.838     0.838   0.0% |
  Mix:                               5.688     5.688   0.2% |
  Multipole moments:                 0.020     0.020   0.0% |
  Pseudo density:                   34.319    34.317   1.1% |
   Symmetrize density:               0.002     0.002   0.0% |
 Forces:                           141.429   141.429   4.4% |-|
 Hamiltonian:                       11.628     0.112   0.0% |
  Atomic:                            2.839     2.839   0.1% |
   XC Correction:                    0.000     0.000   0.0% |
  Calculate atomic Hamiltonians:     4.033     4.033   0.1% |
  Communicate:                       0.098     0.098   0.0% |
  Poisson:                           0.034     0.034   0.0% |
  XC 3D grid:                        4.512     4.512   0.1% |
 Orthonormalize:                     2.094     0.003   0.0% |
  calc_s_matrix:                     0.245     0.245   0.0% |
  inverse-cholesky:                  0.072     0.072   0.0% |
  projections:                       1.338     1.338   0.0% |
  rotate_psi_s:                      0.435     0.435   0.0% |
Set symmetry:                        0.000     0.000   0.0% |
Other:                            1892.251  1892.251  59.3% |-----------------------|
-----------------------------------------------------------
Total:                                      3188.749 100.0%

Memory usage: 12.83 GiB
Date: Wed Mar 24 11:43:48 2021
