
  ___ ___ ___ _ _ _  
 |   |   |_  | | | | 
 | | | | | . | | | | 
 |__ |  _|___|_____|  20.10.1b1
 |___|_|             

User:   madkru@g035.nifl.fysik.dtu.dk
Date:   Sun Mar 21 20:24:18 2021
Arch:   x86_64
Pid:    44316
Python: 3.7.4
gpaw:   /home/niflheim/madkru/venv_folder/gpaw/gpaw (d0d1ca1c71)
_gpaw:  /home/niflheim/madkru/venv_folder/gpaw/build/lib.linux-x86_64-sandybridge-3.7/
        _gpaw.cpython-37m-x86_64-linux-gnu.so (4fd39e8b1e)
ase:    /home/niflheim/madkru/venv_folder/ase/ase (version 3.21.0b1-7e6c206a91)
numpy:  /home/niflheim/madkru/venv_folder/lib/python3.7/site-packages/numpy (version 1.19.4)
scipy:  /home/niflheim/madkru/venv_folder/lib/python3.7/site-packages/scipy (version 1.5.4)
libxc:  4.3.4
units:  Angstrom and eV
cores: 32
OMP_NUM_THREADS: 1

Input parameters:
  convergence: {bands: occupied,
                density: 0.0001,
                eigenstates: 4e-08,
                energy: 0.0005,
                forces: 1e-06}
  kpts: [6 6 4]
  mode: {ecut: 600.0,
         gammacentered: False,
         name: pw}
  occupations: {fixmagmom: False,
                name: fermi-dirac,
                width: 0.001}
  setups: {Mn: :d,3.0}
  symmetry: {point_group: False,
             time_reversal: False}

System changes: positions, numbers, cell, pbc, initial_charges, initial_magmoms 

Initialize ...

O-setup:
  name: Oxygen
  id: 9b9d51c344dea68c822856295a461509
  Z: 8.0
  valence: 6
  core: 2
  charge: 0.0
  file: /home/modules/software/GPAW-setups/0.9.20000/O.LDA.gz
  compensation charges: gauss, rc=0.21, lmax=2
  cutoffs: 1.17(filt), 0.83(core),
  valence states:
                energy  radius
    2s(2.00)   -23.752   0.688
    2p(4.00)    -9.195   0.598
    *s           3.459   0.688
    *p          18.016   0.598
    *d           0.000   0.619

  Using partial waves for O as LCAO basis

Mn-setup:
  name: Manganese
  id: 0d715a8018be061a6e9ea6f2d364ac92
  Z: 25.0
  valence: 15
  core: 10
  charge: 0.0
  Hubbard U: 3.000000 eV (l=2, scale=True)
  file: /home/modules/software/GPAW-setups/0.9.20000/Mn.LDA.gz
  compensation charges: gauss, rc=0.38, lmax=2
  cutoffs: 2.14(filt), 0.86(core),
  valence states:
                energy  radius
    3s(2.00)   -85.387   1.275
    4s(2.00)    -5.282   1.275
    3p(6.00)   -54.493   1.281
    4p(0.00)    -1.471   1.281
    3d(5.00)    -7.009   1.138
    *d          20.203   1.138

  Using partial waves for Mn as LCAO basis

P-setup:
  name: Phosphorus
  id: a5561c299094968922a179ab894d2e2d
  Z: 15.0
  valence: 5
  core: 10
  charge: 0.0
  file: /home/modules/software/GPAW-setups/0.9.20000/P.LDA.gz
  compensation charges: gauss, rc=0.30, lmax=2
  cutoffs: 1.69(filt), 1.81(core),
  valence states:
                energy  radius
    3s(2.00)   -14.015   0.953
    3p(3.00)    -5.596   0.953
    *s          13.197   0.953
    *p          21.615   0.953
    *d           0.000   0.953

  Using partial waves for P as LCAO basis

Li-setup:
  name: Lithium
  id: b73562207f97a71b6967473b66fe8b65
  Z: 3.0
  valence: 1
  core: 2
  charge: 0.0
  file: /home/modules/software/GPAW-setups/0.9.20000/Li.LDA.gz
  compensation charges: gauss, rc=0.33, lmax=2
  cutoffs: 1.91(filt), 2.55(core),
  valence states:
                energy  radius
    2s(1.00)    -2.874   1.058
    2p(0.00)    -1.126   1.058
    *s          24.338   1.058

  Using partial waves for Li as LCAO basis

Reference energy: -196157.275402

Spin-polarized calculation.
Magnetic moment: 0.000000

Convergence criteria:
  Maximum total energy change: 0.0005 eV / electron
  Maximum integral of absolute density change: 0.0001 electrons
  Maximum integral of absolute eigenstate change: 4e-08 eV^2
  Maximum change in atomic force: 1e-06 eV / Ang
  Maximum number of iterations: 333

Symmetries present (total): 1

  ( 1  0  0)
  ( 0  1  0)
  ( 0  0  1)

144 k-points: 6 x 6 x 4 Monkhorst-Pack grid
144 k-points in the irreducible part of the Brillouin zone
       k-points in crystal coordinates                weights
   0:    -0.41666667   -0.41666667   -0.37500000          1/144
   1:    -0.41666667   -0.41666667   -0.12500000          1/144
   2:    -0.41666667   -0.41666667    0.12500000          1/144
   3:    -0.41666667   -0.41666667    0.37500000          1/144
   4:    -0.41666667   -0.25000000   -0.37500000          1/144
   5:    -0.41666667   -0.25000000   -0.12500000          1/144
   6:    -0.41666667   -0.25000000    0.12500000          1/144
   7:    -0.41666667   -0.25000000    0.37500000          1/144
   8:    -0.41666667   -0.08333333   -0.37500000          1/144
   9:    -0.41666667   -0.08333333   -0.12500000          1/144
          ...
 143:     0.41666667    0.41666667    0.37500000          1/144

Wave functions: Plane wave expansion
  Cutoff energy: 600.000 eV
  Number of coefficients (min, max): 9238, 9284
  Pulay-stress correction: 0.000000 eV/Ang^3 (de/decut=0.000000)
  Using FFTW library
  ScaLapack parameters: grid=1x1, blocksize=None
  Wavefunction extrapolation:
    Improved wavefunction reuse through dual PAW basis 

  Fermi-Dirac: width=0.0010 eV

Eigensolver
   Davidson(niter=2, smin=None, normalize=True) 

Densities:
  Coarse grid: 60*35*27 grid
  Fine grid: 120*70*54 grid
  Total Charge: 0.000000 

Density mixing:
  Method: difference
  Backend: pulay
  Linear mixing parameter: 0.05
  Mixing with 5 old densities
  Damping of long wave oscillations: 50 

Hamiltonian:
  XC and Coulomb potentials evaluated on a 120*70*54 grid
  Using the LDA Exchange-Correlation functional
 

Memory estimate:
  Process memory now: 12638.27 MiB
  Calculator: 346.50 MiB
    Density: 19.24 MiB
      Arrays: 7.57 MiB
      Localized functions: 8.64 MiB
      Mixer: 3.03 MiB
    Hamiltonian: 5.87 MiB
      Arrays: 5.62 MiB
      XC: 0.00 MiB
      Poisson: 0.00 MiB
      vbar: 0.25 MiB
    Wavefunctions: 321.38 MiB
      Arrays psit_nG: 285.59 MiB
      Eigensolver: 18.49 MiB
      Projections: 5.41 MiB
      Projectors: 8.92 MiB
      PW-descriptor: 2.96 MiB

Total number of cores used: 32
Parallelization over k-points: 16
Domain decomposition: 2 x 1 x 1

Number of atoms: 28
Number of atomic orbitals: 148
Number of bands in calculation: 112
Number of valence electrons: 180
Bands to converge: occupied

... initialized

Initializing position-dependent things.

Density initialized from atomic densities
Creating initial wave functions:
  112 bands from LCAO basis set

                                           
                                           
                                           
                                           
                                           
               O     O  P  O               
            PO           OMn     O         
                  O          MO            
            O        Li O                  
             Mn  On          OP            
         O         Li O                    
         Li     O P         O              
       Li                                  
                                           
                                           
                                           
                                           

Positions:
   0 O     -1.263197   -2.497779   -1.098475    ( 0.0000,  0.0000,  0.0000)
   1 O     -3.070823    2.922496    1.209491    ( 0.0000,  0.0000,  0.0000)
   2 O      1.985541    0.474863    1.428016    ( 0.0000,  0.0000,  0.0000)
   3 O      3.793120   -0.040100   -0.879950    ( 0.0000,  0.0000,  0.0000)
   4 O      1.985518    2.922485    1.428149    ( 0.0000,  0.0000,  0.0000)
   5 O      3.793144   -2.497790   -0.879818    ( 0.0000,  0.0000,  0.0000)
   6 O     -1.263220   -0.050157   -1.098342    ( 0.0000,  0.0000,  0.0000)
   7 O     -3.070798    0.474805    1.209623    ( 0.0000,  0.0000,  0.0000)
   8 O     -4.167835   -1.273920   -0.862116    ( 0.0000,  0.0000,  0.0000)
   9 O     -0.166037    1.698602    1.445528    ( 0.0000,  0.0000,  0.0000)
  10 O      4.890156    1.698625    1.191790    ( 0.0000,  0.0000,  0.0000)
  11 O      0.888358   -1.273896   -1.115855    ( 0.0000,  0.0000,  0.0000)
  12 Mn    -2.445557   -1.274211    0.312921    ( 0.0000,  0.0000,  1.0000)
  13 Mn    -1.888303    1.698892   -1.994948    ( 0.0000,  0.0000, -1.0000)
  14 Mn     3.167879    1.698917    0.016752    ( 0.0000,  0.0000, -1.0000)
  15 Mn     2.610624   -1.274187    2.324621    ( 0.0000,  0.0000,  1.0000)
  16 P     -0.529549   -1.273917   -1.724376    ( 0.0000,  0.0000,  0.0000)
  17 P     -3.804359    1.698599    0.583463    ( 0.0000,  0.0000,  0.0000)
  18 P      1.251870    1.698623    2.054050    ( 0.0000,  0.0000,  0.0000)
  19 P      4.526680   -1.273894   -0.253789    ( 0.0000,  0.0000,  0.0000)
  20 O     -0.544227   -1.273926    1.365380    ( 0.0000,  0.0000,  0.0000)
  21 O     -3.789411    1.698610   -0.942222    ( 0.0000,  0.0000,  0.0000)
  22 O      1.266548    1.698631   -1.035707    ( 0.0000,  0.0000,  0.0000)
  23 O      4.511733   -1.273905    1.271895    ( 0.0000,  0.0000,  0.0000)
  24 Li    -4.695087   -2.760584   -2.142877    ( 0.0000,  0.0000,  0.0000)
  25 Li     0.361147   -2.760561    0.164836    ( 0.0000,  0.0000,  0.0000)
  26 Li    -4.695074    0.212330   -2.142877    ( 0.0000,  0.0000,  0.0000)
  27 Li     0.361161    0.212353    0.164837    ( 0.0000,  0.0000,  0.0000)

Unit cell:
           periodic     x           y           z      points  spacing
  1. axis:    yes   10.112485    0.000045   -0.000035    60     0.1685
  2. axis:    yes    0.000026    5.945827    0.000001    35     0.1699
  3. axis:    yes   -0.000016    0.000000    4.615463    27     0.1709

  Lengths:  10.112485   5.945827   4.615463
  Angles:   89.999989  90.000396  89.999490

Effective grid spacing dv^(1/3) = 0.1698

                     log10-error:           total        iterations:
           time      wfs    density  force  energy       poisson  magmom
iter:   1  20:27:33                       -221.376604             +0.0000
iter:   2  20:28:10  -0.61  -0.93         -234.818053             +0.0000
iter:   3  20:28:48  -0.37  -0.97         -225.905087             -0.0000
iter:   4  20:29:25  -1.39  -1.29         -225.760547             +0.0000
iter:   5  20:30:03  -1.27  -1.39         -227.320181             +0.0000
iter:   6  20:30:40  -1.47  -1.46         -225.735764             +0.0000
iter:   7  20:31:18  -2.48  -2.04         -225.722500             +0.0000
iter:   8  20:31:55  -2.14  -1.99         -225.594111             +0.0000
iter:   9  20:32:33  -2.45  -2.08         -225.430803             +0.0000
iter:  10  20:33:10  -3.32  -2.55         -225.421298             +0.0000
iter:  11  20:33:48  -3.66  -2.81         -225.410747             +0.0000
iter:  12  20:34:25  -4.11  -3.04         -225.409640             +0.0000
iter:  13  20:35:03  -5.08  -3.29         -225.409508             -0.0000
iter:  14  20:35:40  -5.40  -3.32         -225.409339             -0.0000
iter:  15  20:36:18  -6.05  -3.44         -225.409346             -0.0000
iter:  16  20:36:55  -5.32  -3.48         -225.409626             +0.0000
iter:  17  20:37:32  -5.81  -3.60         -225.409536             -0.0000
iter:  18  20:38:10  -5.38  -3.74         -225.409288             +0.0000
iter:  19  20:38:47  -6.02  -4.01         -225.409296             -0.0000
iter:  20  20:39:25  -7.03  -4.27         -225.409290             -0.0000
iter:  21  20:40:12  -7.66  -4.34         -225.409293             -0.0000
iter:  22  20:40:59  -7.45  -4.44    -2.34-225.409295             -0.0000
iter:  23  20:41:47  -7.77  -4.42    -2.91-225.409292             -0.0000
iter:  24  20:42:34  -8.19  -4.46    -2.72-225.409292             -0.0000
iter:  25  20:43:21  -7.75  -4.55    -3.07-225.409291             -0.0000
iter:  26  20:44:08  -8.33  -4.65    -3.13-225.409292             -0.0000
iter:  27  20:44:55  -9.10  -4.74    -3.42-225.409292             -0.0000
iter:  28  20:45:42  -8.21  -4.79    -2.68-225.409291             +0.0000
iter:  29  20:46:29  -9.27  -5.04    -3.55-225.409291             -0.0000
iter:  30  20:47:17  -8.37  -5.08    -3.20-225.409291             -0.0000
iter:  31  20:48:04  -8.83  -5.25    -3.31-225.409291             -0.0000
iter:  32  20:48:51  -9.34  -5.35    -3.43-225.409291             -0.0000
iter:  33  20:49:38  -9.92  -5.47    -3.48-225.409291             -0.0000
iter:  34  20:50:25  -9.95  -5.61    -3.66-225.409291             -0.0000
iter:  35  20:51:12  -9.72  -5.67    -4.21-225.409291             -0.0000
iter:  36  20:51:59  -9.32  -5.73    -3.26-225.409291             -0.0000
iter:  37  20:52:47  -9.99  -5.80    -3.58-225.409291             -0.0000
iter:  38  20:53:34  -9.90  -5.96    -3.62-225.409291             -0.0000
iter:  39  20:54:21 -10.68  -5.96    -3.88-225.409291             -0.0000
iter:  40  20:55:08 -10.69  -6.03    -4.67-225.409291             -0.0000
iter:  41  20:55:55 -10.95  -6.07    -4.40-225.409291             -0.0000
iter:  42  20:56:42 -11.20  -6.11    -4.08-225.409291             +0.0000
iter:  43  20:57:29 -11.46  -6.30    -4.25-225.409291             +0.0000
iter:  44  20:58:17 -10.66  -6.37    -4.11-225.409291             +0.0000
iter:  45  20:59:04 -11.73  -6.58    -5.11-225.409291             +0.0000
iter:  46  20:59:51 -11.89  -6.58    -5.28-225.409291             -0.0000
iter:  47  21:00:38 -11.82  -6.63    -4.52-225.409291             -0.0000
iter:  48  21:01:25 -12.82  -6.71    -5.19-225.409291             -0.0000
iter:  49  21:02:12 -11.13  -6.74    -4.55-225.409291             -0.0000
iter:  50  21:02:59 -12.36  -6.77    -4.95-225.409291             -0.0000
iter:  51  21:03:46 -12.45  -6.82    -4.87-225.409291             -0.0000
iter:  52  21:04:33 -12.32  -6.87    -5.10-225.409291             -0.0000
iter:  53  21:05:21 -12.60  -6.93    -5.16-225.409291             -0.0000
iter:  54  21:06:08 -12.38  -7.07    -5.12-225.409291             -0.0000
iter:  55  21:06:55 -12.35  -7.25    -5.27-225.409291             -0.0000
iter:  56  21:07:42 -13.49  -7.54    -6.11-225.409291             -0.0000

Converged after 56 iterations.

Dipole moment: (19.054186, -1.927344, -4.179561) |e|*Ang

Total magnetic moment: (0.000000, 0.000000, -0.000000)
Local magnetic moments:
   0 O  ( 0.000000,  0.000000,  0.000669)
   1 O  ( 0.000000,  0.000000, -0.000667)
   2 O  ( 0.000000,  0.000000, -0.000703)
   3 O  ( 0.000000,  0.000000,  0.000432)
   4 O  ( 0.000000,  0.000000, -0.000516)
   5 O  ( 0.000000,  0.000000,  0.000741)
   6 O  ( 0.000000,  0.000000,  0.000667)
   7 O  ( 0.000000,  0.000000, -0.000659)
   8 O  ( 0.000000,  0.000000,  0.022199)
   9 O  ( 0.000000,  0.000000, -0.022383)
  10 O  ( 0.000000,  0.000000, -0.022398)
  11 O  ( 0.000000,  0.000000,  0.022371)
  12 Mn ( 0.000000,  0.000000,  4.575022)
  13 Mn ( 0.000000,  0.000000, -4.575042)
  14 Mn ( 0.000000,  0.000000, -4.574019)
  15 Mn ( 0.000000,  0.000000,  4.575072)
  16 P  ( 0.000000,  0.000000,  0.000806)
  17 P  ( 0.000000,  0.000000, -0.000831)
  18 P  ( 0.000000,  0.000000, -0.000827)
  19 P  ( 0.000000,  0.000000,  0.000529)
  20 O  ( 0.000000,  0.000000,  0.020724)
  21 O  ( 0.000000,  0.000000, -0.020706)
  22 O  ( 0.000000,  0.000000, -0.020764)
  23 O  ( 0.000000,  0.000000,  0.020607)
  24 Li ( 0.000000,  0.000000, -0.000002)
  25 Li ( 0.000000,  0.000000, -0.000001)
  26 Li ( 0.000000,  0.000000, -0.000026)
  27 Li ( 0.000000,  0.000000, -0.000000)

Energy contributions relative to reference atoms: (reference = -196157.275402)

Kinetic:       +296.337091
Potential:     -255.992968
External:        +0.000000
XC:            -267.535099
Entropy (-ST):   -0.000000
Local:           +1.781685
--------------------------
Free energy:   -225.409291
Extrapolated:  -225.409291

Spin contamination: 9.696643 electrons
Showing only first 2 kpts
                      Up                     Down
 Kpt  Band  Eigenvalues  Occupancy  Eigenvalues  Occupancy
  0    88      5.10562    0.00694      5.11569    0.00694
  0    89      5.15724    0.00694      5.16937    0.00694
  0    90      9.65954    0.00000      9.64924    0.00000
  0    91      9.67458    0.00000      9.66705    0.00000

  1    88      5.11726    0.00694      5.12753    0.00694
  1    89      5.16659    0.00694      5.17871    0.00694
  1    90      9.54192    0.00000      9.53127    0.00000
  1    91      9.54833    0.00000      9.53817    0.00000


Fermi level: 6.37070

Gap: 3.785 eV
Transition (v -> c):
  (s=1, k=48, n=89, [-0.08, -0.42, -0.38]) -> (s=1, k=81, n=90, [0.08, -0.08, -0.12])
Writing to born-0.01-3y+.gpw (mode='all')

Timing:                              incl.     excl.
-----------------------------------------------------------
Hamiltonian:                         0.408     0.002   0.0% |
 Atomic:                             0.058     0.058   0.0% |
  XC Correction:                     0.000     0.000   0.0% |
 Calculate atomic Hamiltonians:      0.166     0.166   0.0% |
 Communicate:                        0.007     0.007   0.0% |
 Initialize Hamiltonian:             0.000     0.000   0.0% |
 Poisson:                            0.001     0.001   0.0% |
 XC 3D grid:                         0.173     0.173   0.0% |
LCAO initialization:               150.301     0.679   0.0% |
 LCAO eigensolver:                  40.027     0.002   0.0% |
  Calculate projections:             0.056     0.056   0.0% |
  DenseAtomicCorrection:             0.083     0.083   0.0% |
  Distribute overlap matrix:         0.070     0.070   0.0% |
  Orbital Layouts:                   0.362     0.362   0.0% |
  Potential matrix:                 39.363    39.363   0.7% |
  Sum over cells:                    0.089     0.089   0.0% |
 LCAO to grid:                     107.203   107.203   2.0% ||
 Set positions (LCAO WFS):           2.392     0.368   0.0% |
  Basic WFS set positions:           0.001     0.001   0.0% |
  Basis functions set positions:     0.000     0.000   0.0% |
  P tci:                             1.078     1.078   0.0% |
  ST tci:                            0.701     0.701   0.0% |
  mktci:                             0.242     0.242   0.0% |
PWDescriptor:                        0.025     0.025   0.0% |
SCF-cycle:                        2451.594    17.726   0.3% |
 Davidson:                        1971.145   627.779  11.5% |----|
  Apply H:                         144.181   139.342   2.5% ||
   HMM T:                            4.839     4.839   0.1% |
  Subspace diag:                   293.708     0.177   0.0% |
   calc_h_matrix:                  193.250    50.956   0.9% |
    Apply H:                       142.294   137.604   2.5% ||
     HMM T:                          4.690     4.690   0.1% |
   diagonalize:                      6.816     6.816   0.1% |
   rotate_psi:                      93.466    93.466   1.7% ||
  calc. matrices:                  621.440   340.834   6.2% |-|
   Apply H:                        280.605   271.678   5.0% |-|
    HMM T:                           8.927     8.927   0.2% |
  diagonalize:                      93.528    93.528   1.7% ||
  rotate_psi:                      190.510   190.510   3.5% ||
 Density:                           84.467     0.002   0.0% |
  Atomic density matrices:           1.450     1.450   0.0% |
  Mix:                              12.811    12.811   0.2% |
  Multipole moments:                 0.032     0.032   0.0% |
  Pseudo density:                   70.173    70.171   1.3% ||
   Symmetrize density:               0.001     0.001   0.0% |
 Forces:                           351.150   351.150   6.4% |--|
 Hamiltonian:                       23.045     0.131   0.0% |
  Atomic:                            3.499     3.498   0.1% |
   XC Correction:                    0.000     0.000   0.0% |
  Calculate atomic Hamiltonians:     9.364     9.364   0.2% |
  Communicate:                       0.114     0.114   0.0% |
  Poisson:                           0.086     0.086   0.0% |
  XC 3D grid:                        9.851     9.851   0.2% |
 Orthonormalize:                     4.061     0.004   0.0% |
  calc_s_matrix:                     0.483     0.483   0.0% |
  inverse-cholesky:                  0.054     0.054   0.0% |
  projections:                       2.661     2.661   0.0% |
  rotate_psi_s:                      0.859     0.859   0.0% |
Set symmetry:                        0.000     0.000   0.0% |
Other:                            2874.163  2874.163  52.5% |--------------------|
-----------------------------------------------------------
Total:                                      5476.491 100.0%

Memory usage: 12.36 GiB
Date: Sun Mar 21 21:55:35 2021
