
  ___ ___ ___ _ _ _  
 |   |   |_  | | | | 
 | | | | | . | | | | 
 |__ |  _|___|_____|  20.10.1b1
 |___|_|             

User:   madkru@i018.nifl.fysik.dtu.dk
Date:   Wed Mar 24 15:10:24 2021
Arch:   x86_64
Pid:    26873
Python: 3.7.4
gpaw:   /home/niflheim/madkru/venv_folder/gpaw/gpaw (d224efde0f)
_gpaw:  /home/niflheim/madkru/venv_folder/gpaw/build/lib.linux-x86_64-ivybridge-3.7/
        _gpaw.cpython-37m-x86_64-linux-gnu.so (4fd39e8b1e)
ase:    /home/niflheim/madkru/venv_folder/ase/ase (version 3.21.0b1-4d5a73cb29)
numpy:  /home/niflheim/madkru/venv_folder/lib/python3.7/site-packages/numpy (version 1.19.4)
scipy:  /home/niflheim/madkru/venv_folder/lib/python3.7/site-packages/scipy (version 1.5.4)
libxc:  4.3.4
units:  Angstrom and eV
cores: 64
OMP_NUM_THREADS: 1

Input parameters:
  convergence: {bands: occupied,
                density: 0.0001,
                eigenstates: 4e-08,
                energy: 0.0005,
                forces: 1e-06}
  kpts: [6 6 4]
  mode: {ecut: 600.0,
         gammacentered: False,
         name: pw}
  occupations: {fixmagmom: False,
                name: fermi-dirac,
                width: 0.001}
  setups: {Mn: :d,3.0}
  symmetry: {point_group: False,
             time_reversal: False}

System changes: positions, numbers, cell, pbc, initial_charges, initial_magmoms 

Initialize ...

O-setup:
  name: Oxygen
  id: 9b9d51c344dea68c822856295a461509
  Z: 8.0
  valence: 6
  core: 2
  charge: 0.0
  file: /home/modules/software/GPAW-setups/0.9.20000/O.LDA.gz
  compensation charges: gauss, rc=0.21, lmax=2
  cutoffs: 1.17(filt), 0.83(core),
  valence states:
                energy  radius
    2s(2.00)   -23.752   0.688
    2p(4.00)    -9.195   0.598
    *s           3.459   0.688
    *p          18.016   0.598
    *d           0.000   0.619

  Using partial waves for O as LCAO basis

Mn-setup:
  name: Manganese
  id: 0d715a8018be061a6e9ea6f2d364ac92
  Z: 25.0
  valence: 15
  core: 10
  charge: 0.0
  Hubbard U: 3.000000 eV (l=2, scale=True)
  file: /home/modules/software/GPAW-setups/0.9.20000/Mn.LDA.gz
  compensation charges: gauss, rc=0.38, lmax=2
  cutoffs: 2.14(filt), 0.86(core),
  valence states:
                energy  radius
    3s(2.00)   -85.387   1.275
    4s(2.00)    -5.282   1.275
    3p(6.00)   -54.493   1.281
    4p(0.00)    -1.471   1.281
    3d(5.00)    -7.009   1.138
    *d          20.203   1.138

  Using partial waves for Mn as LCAO basis

P-setup:
  name: Phosphorus
  id: a5561c299094968922a179ab894d2e2d
  Z: 15.0
  valence: 5
  core: 10
  charge: 0.0
  file: /home/modules/software/GPAW-setups/0.9.20000/P.LDA.gz
  compensation charges: gauss, rc=0.30, lmax=2
  cutoffs: 1.69(filt), 1.81(core),
  valence states:
                energy  radius
    3s(2.00)   -14.015   0.953
    3p(3.00)    -5.596   0.953
    *s          13.197   0.953
    *p          21.615   0.953
    *d           0.000   0.953

  Using partial waves for P as LCAO basis

Li-setup:
  name: Lithium
  id: b73562207f97a71b6967473b66fe8b65
  Z: 3.0
  valence: 1
  core: 2
  charge: 0.0
  file: /home/modules/software/GPAW-setups/0.9.20000/Li.LDA.gz
  compensation charges: gauss, rc=0.33, lmax=2
  cutoffs: 1.91(filt), 2.55(core),
  valence states:
                energy  radius
    2s(1.00)    -2.874   1.058
    2p(0.00)    -1.126   1.058
    *s          24.338   1.058

  Using partial waves for Li as LCAO basis

Reference energy: -196157.275402

Spin-polarized calculation.
Magnetic moment: 0.000000

Convergence criteria:
  Maximum total energy change: 0.0005 eV / electron
  Maximum integral of absolute density change: 0.0001 electrons
  Maximum integral of absolute eigenstate change: 4e-08 eV^2
  Maximum change in atomic force: 1e-06 eV / Ang
  Maximum number of iterations: 333

Symmetries present (total): 1

  ( 1  0  0)
  ( 0  1  0)
  ( 0  0  1)

144 k-points: 6 x 6 x 4 Monkhorst-Pack grid
144 k-points in the irreducible part of the Brillouin zone
       k-points in crystal coordinates                weights
   0:    -0.41666667   -0.41666667   -0.37500000          1/144
   1:    -0.41666667   -0.41666667   -0.12500000          1/144
   2:    -0.41666667   -0.41666667    0.12500000          1/144
   3:    -0.41666667   -0.41666667    0.37500000          1/144
   4:    -0.41666667   -0.25000000   -0.37500000          1/144
   5:    -0.41666667   -0.25000000   -0.12500000          1/144
   6:    -0.41666667   -0.25000000    0.12500000          1/144
   7:    -0.41666667   -0.25000000    0.37500000          1/144
   8:    -0.41666667   -0.08333333   -0.37500000          1/144
   9:    -0.41666667   -0.08333333   -0.12500000          1/144
          ...
 143:     0.41666667    0.41666667    0.37500000          1/144

Wave functions: Plane wave expansion
  Cutoff energy: 600.000 eV
  Number of coefficients (min, max): 9238, 9284
  Pulay-stress correction: 0.000000 eV/Ang^3 (de/decut=0.000000)
  Using FFTW library
  ScaLapack parameters: grid=1x1, blocksize=None
  Wavefunction extrapolation:
    Improved wavefunction reuse through dual PAW basis 

  Fermi-Dirac: width=0.0010 eV

Eigensolver
   Davidson(niter=2, smin=None, normalize=True) 

Densities:
  Coarse grid: 60*35*27 grid
  Fine grid: 120*70*54 grid
  Total Charge: 0.000000 

Density mixing:
  Method: difference
  Backend: pulay
  Linear mixing parameter: 0.05
  Mixing with 5 old densities
  Damping of long wave oscillations: 50 

Hamiltonian:
  XC and Coulomb potentials evaluated on a 120*70*54 grid
  Using the LDA Exchange-Correlation functional
 

Memory estimate:
  Process memory now: 13324.21 MiB
  Calculator: 326.59 MiB
    Density: 9.67 MiB
      Arrays: 3.79 MiB
      Localized functions: 4.32 MiB
      Mixer: 1.56 MiB
    Hamiltonian: 2.94 MiB
      Arrays: 2.82 MiB
      XC: 0.00 MiB
      Poisson: 0.00 MiB
      vbar: 0.12 MiB
    Wavefunctions: 313.97 MiB
      Arrays psit_nG: 285.59 MiB
      Eigensolver: 18.49 MiB
      Projections: 2.71 MiB
      Projectors: 4.46 MiB
      PW-descriptor: 2.72 MiB

Total number of cores used: 64
Parallelization over k-points: 16
Domain decomposition: 2 x 2 x 1

Number of atoms: 28
Number of atomic orbitals: 148
Number of bands in calculation: 112
Number of valence electrons: 180
Bands to converge: occupied

... initialized

Initializing position-dependent things.

Density initialized from atomic densities
Creating initial wave functions:
  112 bands from LCAO basis set

                                           
                                           
                                           
                                           
                                           
               O     O  P  O               
            PO           OMn     O         
                  O          MO            
            O        Li O                  
             Mn  On          OP            
         O         Li O                    
         Li     O P         O              
       Li                                  
                                           
                                           
                                           
                                           

Positions:
   0 O     -1.263197   -2.497779   -1.098475    ( 0.0000,  0.0000,  0.0000)
   1 O     -3.070823    2.922496    1.209491    ( 0.0000,  0.0000,  0.0000)
   2 O      1.985541    0.474863    1.428016    ( 0.0000,  0.0000,  0.0000)
   3 O      3.793120   -0.050100   -0.879950    ( 0.0000,  0.0000,  0.0000)
   4 O      1.985518    2.922485    1.428149    ( 0.0000,  0.0000,  0.0000)
   5 O      3.793144   -2.497790   -0.879818    ( 0.0000,  0.0000,  0.0000)
   6 O     -1.263220   -0.050157   -1.098342    ( 0.0000,  0.0000,  0.0000)
   7 O     -3.070798    0.474805    1.209623    ( 0.0000,  0.0000,  0.0000)
   8 O     -4.167835   -1.273920   -0.862116    ( 0.0000,  0.0000,  0.0000)
   9 O     -0.166037    1.698602    1.445528    ( 0.0000,  0.0000,  0.0000)
  10 O      4.890156    1.698625    1.191790    ( 0.0000,  0.0000,  0.0000)
  11 O      0.888358   -1.273896   -1.115855    ( 0.0000,  0.0000,  0.0000)
  12 Mn    -2.445557   -1.274211    0.312921    ( 0.0000,  0.0000,  1.0000)
  13 Mn    -1.888303    1.698892   -1.994948    ( 0.0000,  0.0000, -1.0000)
  14 Mn     3.167879    1.698917    0.016752    ( 0.0000,  0.0000, -1.0000)
  15 Mn     2.610624   -1.274187    2.324621    ( 0.0000,  0.0000,  1.0000)
  16 P     -0.529549   -1.273917   -1.724376    ( 0.0000,  0.0000,  0.0000)
  17 P     -3.804359    1.698599    0.583463    ( 0.0000,  0.0000,  0.0000)
  18 P      1.251870    1.698623    2.054050    ( 0.0000,  0.0000,  0.0000)
  19 P      4.526680   -1.273894   -0.253789    ( 0.0000,  0.0000,  0.0000)
  20 O     -0.544227   -1.263926    1.365380    ( 0.0000,  0.0000,  0.0000)
  21 O     -3.789411    1.698610   -0.942222    ( 0.0000,  0.0000,  0.0000)
  22 O      1.266548    1.698631   -1.035707    ( 0.0000,  0.0000,  0.0000)
  23 O      4.511733   -1.273905    1.271895    ( 0.0000,  0.0000,  0.0000)
  24 Li    -4.695087   -2.760584   -2.142877    ( 0.0000,  0.0000,  0.0000)
  25 Li     0.361147   -2.760561    0.164836    ( 0.0000,  0.0000,  0.0000)
  26 Li    -4.695074    0.212330   -2.142877    ( 0.0000,  0.0000,  0.0000)
  27 Li     0.361161    0.212353    0.164837    ( 0.0000,  0.0000,  0.0000)

Unit cell:
           periodic     x           y           z      points  spacing
  1. axis:    yes   10.112485    0.000045   -0.000035    60     0.1685
  2. axis:    yes    0.000026    5.945827    0.000001    35     0.1699
  3. axis:    yes   -0.000016    0.000000    4.615463    27     0.1709

  Lengths:  10.112485   5.945827   4.615463
  Angles:   89.999989  90.000396  89.999490

Effective grid spacing dv^(1/3) = 0.1698

                     log10-error:           total        iterations:
           time      wfs    density  force  energy       poisson  magmom
iter:   1  15:11:59                       -221.376699             +0.0000
iter:   2  15:12:19  -0.61  -0.93         -234.836032             +0.0000
iter:   3  15:12:39  -0.37  -0.97         -225.911984             -0.0000
iter:   4  15:12:59  -1.39  -1.29         -225.761520             +0.0000
iter:   5  15:13:19  -1.27  -1.39         -227.329802             +0.0000
iter:   6  15:13:38  -1.46  -1.46         -225.737325             +0.0000
iter:   7  15:13:58  -2.47  -2.04         -225.724734             +0.0000
iter:   8  15:14:18  -2.14  -1.99         -225.590754             +0.0000
iter:   9  15:14:38  -2.46  -2.09         -225.432337             +0.0000
iter:  10  15:14:58  -3.31  -2.55         -225.422411             +0.0000
iter:  11  15:15:18  -3.65  -2.81         -225.412004             +0.0000
iter:  12  15:15:37  -4.12  -3.05         -225.410892             +0.0000
iter:  13  15:15:57  -5.11  -3.29         -225.410770             -0.0000
iter:  14  15:16:17  -5.39  -3.32         -225.410597             -0.0000
iter:  15  15:16:37  -6.04  -3.43         -225.410604             -0.0000
iter:  16  15:16:57  -5.24  -3.47         -225.410945             -0.0000
iter:  17  15:17:17  -5.86  -3.58         -225.410831             -0.0000
iter:  18  15:17:36  -5.21  -3.70         -225.410546             +0.0000
iter:  19  15:17:56  -6.10  -4.14         -225.410550             -0.0000
iter:  20  15:18:16  -7.28  -4.54         -225.410552             -0.0000
iter:  21  15:18:41  -7.93  -4.56         -225.410551             -0.0000
iter:  22  15:19:05  -7.86  -4.64    -2.46-225.410551             -0.0000
iter:  23  15:19:30  -8.22  -4.84    -2.72-225.410551             -0.0000
iter:  24  15:19:54  -7.97  -5.00    -2.86-225.410551             -0.0000
iter:  25  15:20:19  -8.97  -5.19    -3.25-225.410551             -0.0000
iter:  26  15:20:44  -8.47  -5.30    -2.91-225.410551             +0.0000
iter:  27  15:21:08  -9.58  -5.52    -3.64-225.410551             -0.0000
iter:  28  15:21:33 -10.03  -5.56    -3.70-225.410551             -0.0000
iter:  29  15:21:57  -9.44  -5.61    -3.47-225.410551             -0.0000
iter:  30  15:22:22 -10.53  -5.70    -3.93-225.410551             -0.0000
iter:  31  15:22:46  -9.74  -5.76    -3.85-225.410551             -0.0000
iter:  32  15:23:11 -10.28  -5.87    -4.07-225.410551             -0.0000
iter:  33  15:23:35 -11.36  -5.89    -4.37-225.410551             -0.0000
iter:  34  15:24:00 -10.73  -5.95    -3.94-225.410551             -0.0000
iter:  35  15:24:24 -10.66  -6.10    -4.15-225.410551             -0.0000
iter:  36  15:24:49 -10.98  -6.19    -4.38-225.410551             -0.0000
iter:  37  15:25:13 -10.87  -6.27    -4.24-225.410551             -0.0000
iter:  38  15:25:38 -11.25  -6.44    -4.55-225.410551             -0.0000
iter:  39  15:26:02 -11.98  -6.53    -4.73-225.410551             -0.0000
iter:  40  15:26:27 -11.89  -6.61    -4.85-225.410551             -0.0000
iter:  41  15:26:51 -11.92  -6.67    -4.42-225.410551             -0.0000
iter:  42  15:27:16 -12.83  -6.81    -5.05-225.410551             -0.0000
iter:  43  15:27:40 -11.75  -6.88    -4.98-225.410551             -0.0000
iter:  44  15:28:05 -12.33  -7.06    -4.60-225.410551             -0.0000
iter:  45  15:28:29 -12.54  -7.19    -4.89-225.410551             -0.0000
iter:  46  15:28:54 -13.22  -7.31    -5.60-225.410551             -0.0000
iter:  47  15:29:18 -13.16  -7.25    -5.16-225.410551             -0.0000
iter:  48  15:29:43 -13.47  -7.33    -5.11-225.410551             -0.0000
iter:  49  15:30:07 -13.56  -7.41    -5.50-225.410551             -0.0000
iter:  50  15:30:32 -13.49  -7.47    -5.10-225.410551             -0.0000
iter:  51  15:30:56 -13.72  -7.54    -5.25-225.410551             -0.0000
iter:  52  15:31:21 -13.43  -7.65    -5.55-225.410551             -0.0000
iter:  53  15:31:45 -14.59  -7.82    -6.43-225.410551             -0.0000

Converged after 53 iterations.

Dipole moment: (19.052708, -1.425394, -4.182740) |e|*Ang

Total magnetic moment: (0.000000, 0.000000, -0.000000)
Local magnetic moments:
   0 O  ( 0.000000,  0.000000,  0.000634)
   1 O  ( 0.000000,  0.000000, -0.000692)
   2 O  ( 0.000000,  0.000000, -0.000667)
   3 O  ( 0.000000,  0.000000,  0.000668)
   4 O  ( 0.000000,  0.000000, -0.000657)
   5 O  ( 0.000000,  0.000000,  0.000672)
   6 O  ( 0.000000,  0.000000,  0.000690)
   7 O  ( 0.000000,  0.000000, -0.000648)
   8 O  ( 0.000000,  0.000000,  0.022368)
   9 O  ( 0.000000,  0.000000, -0.022367)
  10 O  ( 0.000000,  0.000000, -0.022368)
  11 O  ( 0.000000,  0.000000,  0.022367)
  12 Mn ( 0.000000,  0.000000,  4.575064)
  13 Mn ( 0.000000,  0.000000, -4.575035)
  14 Mn ( 0.000000,  0.000000, -4.575066)
  15 Mn ( 0.000000,  0.000000,  4.575035)
  16 P  ( 0.000000,  0.000000,  0.000811)
  17 P  ( 0.000000,  0.000000, -0.000817)
  18 P  ( 0.000000,  0.000000, -0.000812)
  19 P  ( 0.000000,  0.000000,  0.000817)
  20 O  ( 0.000000,  0.000000,  0.020710)
  21 O  ( 0.000000,  0.000000, -0.020708)
  22 O  ( 0.000000,  0.000000, -0.020709)
  23 O  ( 0.000000,  0.000000,  0.020709)
  24 Li ( 0.000000,  0.000000,  0.000000)
  25 Li ( 0.000000,  0.000000, -0.000005)
  26 Li ( 0.000000,  0.000000, -0.000000)
  27 Li ( 0.000000,  0.000000,  0.000005)

Energy contributions relative to reference atoms: (reference = -196157.275402)

Kinetic:       +296.836756
Potential:     -256.379994
External:        +0.000000
XC:            -267.648071
Entropy (-ST):   -0.000000
Local:           +1.780759
--------------------------
Free energy:   -225.410551
Extrapolated:  -225.410551

Spin contamination: 9.697234 electrons
Showing only first 2 kpts
                      Up                     Down
 Kpt  Band  Eigenvalues  Occupancy  Eigenvalues  Occupancy
  0    88      5.10930    0.00694      5.10936    0.00694
  0    89      5.16085    0.00694      5.16102    0.00694
  0    90      9.65230    0.00000      9.65226    0.00000
  0    91      9.67095    0.00000      9.67093    0.00000

  1    88      5.12091    0.00694      5.12098    0.00694
  1    89      5.17006    0.00694      5.17030    0.00694
  1    90      9.53458    0.00000      9.53451    0.00000
  1    91      9.54494    0.00000      9.54489    0.00000


Fermi level: 6.36988

Gap: 3.796 eV
Transition (v -> c):
  (s=1, k=72, n=89, [0.08, -0.42, -0.38]) -> (s=0, k=82, n=90, [0.08, -0.08, 0.12])
Writing to born-0.01-20y+.gpw (mode='all')

Timing:                              incl.     excl.
-----------------------------------------------------------
Hamiltonian:                         0.220     0.002   0.0% |
 Atomic:                             0.055     0.055   0.0% |
  XC Correction:                     0.000     0.000   0.0% |
 Calculate atomic Hamiltonians:      0.076     0.076   0.0% |
 Communicate:                        0.002     0.002   0.0% |
 Initialize Hamiltonian:             0.000     0.000   0.0% |
 Poisson:                            0.001     0.001   0.0% |
 XC 3D grid:                         0.084     0.084   0.0% |
LCAO initialization:                73.211     0.647   0.0% |
 LCAO eigensolver:                  19.268     0.002   0.0% |
  Calculate projections:             0.029     0.029   0.0% |
  DenseAtomicCorrection:             0.045     0.045   0.0% |
  Distribute overlap matrix:         0.145     0.145   0.0% |
  Orbital Layouts:                   0.433     0.433   0.0% |
  Potential matrix:                 18.516    18.516   0.6% |
  Sum over cells:                    0.098     0.098   0.0% |
 LCAO to grid:                      51.986    51.986   1.6% ||
 Set positions (LCAO WFS):           1.310     0.191   0.0% |
  Basic WFS set positions:           0.001     0.001   0.0% |
  Basis functions set positions:     0.000     0.000   0.0% |
  P tci:                             0.522     0.522   0.0% |
  ST tci:                            0.381     0.381   0.0% |
  mktci:                             0.214     0.214   0.0% |
PWDescriptor:                        0.023     0.023   0.0% |
SCF-cycle:                        1206.581     0.352   0.0% |
 Davidson:                         997.623   307.034   9.6% |---|
  Apply H:                          68.519    66.578   2.1% ||
   HMM T:                            1.940     1.940   0.1% |
  Subspace diag:                   144.717     0.151   0.0% |
   calc_h_matrix:                   92.837    24.213   0.8% |
    Apply H:                        68.623    66.659   2.1% ||
     HMM T:                          1.965     1.965   0.1% |
   diagonalize:                      7.280     7.280   0.2% |
   rotate_psi:                      44.449    44.449   1.4% ||
  calc. matrices:                  297.668   164.130   5.1% |-|
   Apply H:                        133.538   129.925   4.1% |-|
    HMM T:                           3.613     3.613   0.1% |
  diagonalize:                      83.368    83.368   2.6% ||
  rotate_psi:                       96.317    96.317   3.0% ||
 Density:                           39.868     0.001   0.0% |
  Atomic density matrices:           0.839     0.839   0.0% |
  Mix:                               5.569     5.569   0.2% |
  Multipole moments:                 0.019     0.019   0.0% |
  Pseudo density:                   33.440    33.439   1.0% |
   Symmetrize density:               0.002     0.002   0.0% |
 Forces:                           155.204   155.204   4.8% |-|
 Hamiltonian:                       11.452     0.109   0.0% |
  Atomic:                            2.829     2.828   0.1% |
   XC Correction:                    0.000     0.000   0.0% |
  Calculate atomic Hamiltonians:     3.959     3.959   0.1% |
  Communicate:                       0.103     0.103   0.0% |
  Poisson:                           0.032     0.032   0.0% |
  XC 3D grid:                        4.421     4.421   0.1% |
 Orthonormalize:                     2.083     0.003   0.0% |
  calc_s_matrix:                     0.244     0.244   0.0% |
  inverse-cholesky:                  0.073     0.073   0.0% |
  projections:                       1.329     1.329   0.0% |
  rotate_psi_s:                      0.434     0.434   0.0% |
Set symmetry:                        0.000     0.000   0.0% |
Other:                            1925.064  1925.064  60.1% |-----------------------|
-----------------------------------------------------------
Total:                                      3205.099 100.0%

Memory usage: 13.05 GiB
Date: Wed Mar 24 16:03:49 2021
