
  ___ ___ ___ _ _ _  
 |   |   |_  | | | | 
 | | | | | . | | | | 
 |__ |  _|___|_____|  20.10.1b1
 |___|_|             

User:   madkru@i018.nifl.fysik.dtu.dk
Date:   Wed Mar 24 11:51:20 2021
Arch:   x86_64
Pid:    26873
Python: 3.7.4
gpaw:   /home/niflheim/madkru/venv_folder/gpaw/gpaw (d224efde0f)
_gpaw:  /home/niflheim/madkru/venv_folder/gpaw/build/lib.linux-x86_64-ivybridge-3.7/
        _gpaw.cpython-37m-x86_64-linux-gnu.so (4fd39e8b1e)
ase:    /home/niflheim/madkru/venv_folder/ase/ase (version 3.21.0b1-4d5a73cb29)
numpy:  /home/niflheim/madkru/venv_folder/lib/python3.7/site-packages/numpy (version 1.19.4)
scipy:  /home/niflheim/madkru/venv_folder/lib/python3.7/site-packages/scipy (version 1.5.4)
libxc:  4.3.4
units:  Angstrom and eV
cores: 64
OMP_NUM_THREADS: 1

Input parameters:
  convergence: {bands: occupied,
                density: 0.0001,
                eigenstates: 4e-08,
                energy: 0.0005,
                forces: 1e-06}
  kpts: [6 6 4]
  mode: {ecut: 600.0,
         gammacentered: False,
         name: pw}
  occupations: {fixmagmom: False,
                name: fermi-dirac,
                width: 0.001}
  setups: {Mn: :d,3.0}
  symmetry: {point_group: False,
             time_reversal: False}

System changes: positions, numbers, cell, pbc, initial_charges, initial_magmoms 

Initialize ...

O-setup:
  name: Oxygen
  id: 9b9d51c344dea68c822856295a461509
  Z: 8.0
  valence: 6
  core: 2
  charge: 0.0
  file: /home/modules/software/GPAW-setups/0.9.20000/O.LDA.gz
  compensation charges: gauss, rc=0.21, lmax=2
  cutoffs: 1.17(filt), 0.83(core),
  valence states:
                energy  radius
    2s(2.00)   -23.752   0.688
    2p(4.00)    -9.195   0.598
    *s           3.459   0.688
    *p          18.016   0.598
    *d           0.000   0.619

  Using partial waves for O as LCAO basis

Mn-setup:
  name: Manganese
  id: 0d715a8018be061a6e9ea6f2d364ac92
  Z: 25.0
  valence: 15
  core: 10
  charge: 0.0
  Hubbard U: 3.000000 eV (l=2, scale=True)
  file: /home/modules/software/GPAW-setups/0.9.20000/Mn.LDA.gz
  compensation charges: gauss, rc=0.38, lmax=2
  cutoffs: 2.14(filt), 0.86(core),
  valence states:
                energy  radius
    3s(2.00)   -85.387   1.275
    4s(2.00)    -5.282   1.275
    3p(6.00)   -54.493   1.281
    4p(0.00)    -1.471   1.281
    3d(5.00)    -7.009   1.138
    *d          20.203   1.138

  Using partial waves for Mn as LCAO basis

P-setup:
  name: Phosphorus
  id: a5561c299094968922a179ab894d2e2d
  Z: 15.0
  valence: 5
  core: 10
  charge: 0.0
  file: /home/modules/software/GPAW-setups/0.9.20000/P.LDA.gz
  compensation charges: gauss, rc=0.30, lmax=2
  cutoffs: 1.69(filt), 1.81(core),
  valence states:
                energy  radius
    3s(2.00)   -14.015   0.953
    3p(3.00)    -5.596   0.953
    *s          13.197   0.953
    *p          21.615   0.953
    *d           0.000   0.953

  Using partial waves for P as LCAO basis

Li-setup:
  name: Lithium
  id: b73562207f97a71b6967473b66fe8b65
  Z: 3.0
  valence: 1
  core: 2
  charge: 0.0
  file: /home/modules/software/GPAW-setups/0.9.20000/Li.LDA.gz
  compensation charges: gauss, rc=0.33, lmax=2
  cutoffs: 1.91(filt), 2.55(core),
  valence states:
                energy  radius
    2s(1.00)    -2.874   1.058
    2p(0.00)    -1.126   1.058
    *s          24.338   1.058

  Using partial waves for Li as LCAO basis

Reference energy: -196157.275402

Spin-polarized calculation.
Magnetic moment: 0.000000

Convergence criteria:
  Maximum total energy change: 0.0005 eV / electron
  Maximum integral of absolute density change: 0.0001 electrons
  Maximum integral of absolute eigenstate change: 4e-08 eV^2
  Maximum change in atomic force: 1e-06 eV / Ang
  Maximum number of iterations: 333

Symmetries present (total): 1

  ( 1  0  0)
  ( 0  1  0)
  ( 0  0  1)

144 k-points: 6 x 6 x 4 Monkhorst-Pack grid
144 k-points in the irreducible part of the Brillouin zone
       k-points in crystal coordinates                weights
   0:    -0.41666667   -0.41666667   -0.37500000          1/144
   1:    -0.41666667   -0.41666667   -0.12500000          1/144
   2:    -0.41666667   -0.41666667    0.12500000          1/144
   3:    -0.41666667   -0.41666667    0.37500000          1/144
   4:    -0.41666667   -0.25000000   -0.37500000          1/144
   5:    -0.41666667   -0.25000000   -0.12500000          1/144
   6:    -0.41666667   -0.25000000    0.12500000          1/144
   7:    -0.41666667   -0.25000000    0.37500000          1/144
   8:    -0.41666667   -0.08333333   -0.37500000          1/144
   9:    -0.41666667   -0.08333333   -0.12500000          1/144
          ...
 143:     0.41666667    0.41666667    0.37500000          1/144

Wave functions: Plane wave expansion
  Cutoff energy: 600.000 eV
  Number of coefficients (min, max): 9238, 9284
  Pulay-stress correction: 0.000000 eV/Ang^3 (de/decut=0.000000)
  Using FFTW library
  ScaLapack parameters: grid=1x1, blocksize=None
  Wavefunction extrapolation:
    Improved wavefunction reuse through dual PAW basis 

  Fermi-Dirac: width=0.0010 eV

Eigensolver
   Davidson(niter=2, smin=None, normalize=True) 

Densities:
  Coarse grid: 60*35*27 grid
  Fine grid: 120*70*54 grid
  Total Charge: 0.000000 

Density mixing:
  Method: difference
  Backend: pulay
  Linear mixing parameter: 0.05
  Mixing with 5 old densities
  Damping of long wave oscillations: 50 

Hamiltonian:
  XC and Coulomb potentials evaluated on a 120*70*54 grid
  Using the LDA Exchange-Correlation functional
 

Memory estimate:
  Process memory now: 13188.99 MiB
  Calculator: 326.59 MiB
    Density: 9.67 MiB
      Arrays: 3.79 MiB
      Localized functions: 4.32 MiB
      Mixer: 1.56 MiB
    Hamiltonian: 2.94 MiB
      Arrays: 2.82 MiB
      XC: 0.00 MiB
      Poisson: 0.00 MiB
      vbar: 0.12 MiB
    Wavefunctions: 313.97 MiB
      Arrays psit_nG: 285.59 MiB
      Eigensolver: 18.49 MiB
      Projections: 2.71 MiB
      Projectors: 4.46 MiB
      PW-descriptor: 2.72 MiB

Total number of cores used: 64
Parallelization over k-points: 16
Domain decomposition: 2 x 2 x 1

Number of atoms: 28
Number of atomic orbitals: 148
Number of bands in calculation: 112
Number of valence electrons: 180
Bands to converge: occupied

... initialized

Initializing position-dependent things.

Density initialized from atomic densities
Creating initial wave functions:
  112 bands from LCAO basis set

                                           
                                           
                                           
                                           
                                           
               O     O  P  O               
            PO           OMn     O         
                  O          MO            
            O        Li O                  
             Mn  On          OP            
         O         Li O                    
         Li     O P         O              
       Li                                  
                                           
                                           
                                           
                                           

Positions:
   0 O     -1.263197   -2.497779   -1.098475    ( 0.0000,  0.0000,  0.0000)
   1 O     -3.070823    2.922496    1.209491    ( 0.0000,  0.0000,  0.0000)
   2 O      1.985541    0.474863    1.428016    ( 0.0000,  0.0000,  0.0000)
   3 O      3.793120   -0.050100   -0.879950    ( 0.0000,  0.0000,  0.0000)
   4 O      1.985518    2.922485    1.428149    ( 0.0000,  0.0000,  0.0000)
   5 O      3.793144   -2.497790   -0.879818    ( 0.0000,  0.0000,  0.0000)
   6 O     -1.263220   -0.050157   -1.098342    ( 0.0000,  0.0000,  0.0000)
   7 O     -3.070798    0.474805    1.209623    ( 0.0000,  0.0000,  0.0000)
   8 O     -4.167835   -1.273920   -0.862116    ( 0.0000,  0.0000,  0.0000)
   9 O     -0.166037    1.698602    1.445528    ( 0.0000,  0.0000,  0.0000)
  10 O      4.890156    1.698625    1.191790    ( 0.0000,  0.0000,  0.0000)
  11 O      0.888358   -1.273896   -1.115855    ( 0.0000,  0.0000,  0.0000)
  12 Mn    -2.445557   -1.274211    0.312921    ( 0.0000,  0.0000,  1.0000)
  13 Mn    -1.888303    1.698892   -1.994948    ( 0.0000,  0.0000, -1.0000)
  14 Mn     3.167879    1.698917    0.016752    ( 0.0000,  0.0000, -1.0000)
  15 Mn     2.610624   -1.274187    2.324621    ( 0.0000,  0.0000,  1.0000)
  16 P     -0.529549   -1.273917   -1.724376    ( 0.0000,  0.0000,  0.0000)
  17 P     -3.804359    1.698599    0.583463    ( 0.0000,  0.0000,  0.0000)
  18 P      1.251870    1.698623    2.054050    ( 0.0000,  0.0000,  0.0000)
  19 P      4.526680   -1.283894   -0.253789    ( 0.0000,  0.0000,  0.0000)
  20 O     -0.544227   -1.273926    1.365380    ( 0.0000,  0.0000,  0.0000)
  21 O     -3.789411    1.698610   -0.942222    ( 0.0000,  0.0000,  0.0000)
  22 O      1.266548    1.698631   -1.035707    ( 0.0000,  0.0000,  0.0000)
  23 O      4.511733   -1.273905    1.271895    ( 0.0000,  0.0000,  0.0000)
  24 Li    -4.695087   -2.760584   -2.142877    ( 0.0000,  0.0000,  0.0000)
  25 Li     0.361147   -2.760561    0.164836    ( 0.0000,  0.0000,  0.0000)
  26 Li    -4.695074    0.212330   -2.142877    ( 0.0000,  0.0000,  0.0000)
  27 Li     0.361161    0.212353    0.164837    ( 0.0000,  0.0000,  0.0000)

Unit cell:
           periodic     x           y           z      points  spacing
  1. axis:    yes   10.112485    0.000045   -0.000035    60     0.1685
  2. axis:    yes    0.000026    5.945827    0.000001    35     0.1699
  3. axis:    yes   -0.000016    0.000000    4.615463    27     0.1709

  Lengths:  10.112485   5.945827   4.615463
  Angles:   89.999989  90.000396  89.999490

Effective grid spacing dv^(1/3) = 0.1698

                     log10-error:           total        iterations:
           time      wfs    density  force  energy       poisson  magmom
iter:   1  11:52:55                       -221.374703             +0.0000
iter:   2  11:53:15  -0.61  -0.93         -234.833899             +0.0000
iter:   3  11:53:35  -0.37  -0.97         -225.909721             -0.0000
iter:   4  11:53:54  -1.39  -1.29         -225.759208             +0.0000
iter:   5  11:54:14  -1.27  -1.39         -227.327121             +0.0000
iter:   6  11:54:34  -1.46  -1.46         -225.734888             +0.0000
iter:   7  11:54:54  -2.47  -2.04         -225.722000             +0.0000
iter:   8  11:55:14  -2.13  -1.99         -225.595206             +0.0000
iter:   9  11:55:34  -2.45  -2.08         -225.429535             +0.0000
iter:  10  11:55:53  -3.31  -2.55         -225.419764             +0.0000
iter:  11  11:56:13  -3.68  -2.81         -225.409722             +0.0000
iter:  12  11:56:33  -4.12  -3.04         -225.408533             +0.0000
iter:  13  11:56:53  -5.11  -3.29         -225.408396             +0.0000
iter:  14  11:57:13  -5.37  -3.32         -225.408234             +0.0000
iter:  15  11:57:33  -6.05  -3.43         -225.408230             +0.0000
iter:  16  11:57:53  -5.29  -3.47         -225.408527             -0.0000
iter:  17  11:58:12  -5.79  -3.59         -225.408442             +0.0000
iter:  18  11:58:32  -5.33  -3.72         -225.408175             -0.0000
iter:  19  11:58:52  -6.04  -4.02         -225.408183             -0.0000
iter:  20  11:59:12  -7.08  -4.30         -225.408178             +0.0000
iter:  21  11:59:37  -7.60  -4.36         -225.408181             +0.0000
iter:  22  11:59:56  -7.39  -4.46         -225.408183             +0.0000
iter:  23  12:00:21  -8.30  -4.44    -2.33-225.408181             +0.0000
iter:  24  12:00:41  -7.28  -4.49         -225.408179             +0.0000
iter:  25  12:01:05  -8.35  -4.66    -2.64-225.408179             +0.0000
iter:  26  12:01:30  -7.81  -4.68    -2.46-225.408180             +0.0000
iter:  27  12:01:55  -8.69  -4.93    -2.76-225.408180             +0.0000
iter:  28  12:02:19  -8.95  -5.26    -3.24-225.408180             +0.0000
iter:  29  12:02:44  -8.89  -5.31    -2.79-225.408179             +0.0000
iter:  30  12:03:09  -9.24  -5.47    -3.38-225.408179             +0.0000
iter:  31  12:03:33 -10.13  -5.69    -3.82-225.408179             +0.0000
iter:  32  12:03:58  -9.67  -5.79    -3.65-225.408179             +0.0000
iter:  33  12:04:22 -10.70  -5.88    -4.12-225.408179             +0.0000
iter:  34  12:04:47 -10.87  -5.95    -4.02-225.408179             +0.0000
iter:  35  12:05:11 -10.87  -6.04    -4.33-225.408179             +0.0000
iter:  36  12:05:36 -10.82  -6.12    -4.09-225.408179             +0.0000
iter:  37  12:06:00 -11.09  -6.16    -4.33-225.408179             +0.0000
iter:  38  12:06:25 -11.20  -6.25    -4.26-225.408179             +0.0000
iter:  39  12:06:50 -11.72  -6.52    -4.51-225.408179             +0.0000
iter:  40  12:07:14 -11.70  -6.61    -4.50-225.408179             +0.0000
iter:  41  12:07:39 -12.00  -6.70    -4.88-225.408179             +0.0000
iter:  42  12:08:03 -12.61  -6.71    -5.06-225.408179             +0.0000
iter:  43  12:08:28 -11.90  -6.74    -4.78-225.408179             +0.0000
iter:  44  12:08:52 -12.53  -6.94    -4.92-225.408179             +0.0000
iter:  45  12:09:17 -12.89  -7.07    -4.97-225.408179             +0.0000
iter:  46  12:09:41 -13.76  -7.16    -5.62-225.408179             +0.0000
iter:  47  12:10:06 -12.27  -7.19    -4.86-225.408179             +0.0000
iter:  48  12:10:31 -13.47  -7.77    -5.38-225.408179             +0.0000
iter:  49  12:10:55 -13.82  -7.81    -5.63-225.408179             +0.0000
iter:  50  12:11:20 -13.71  -7.81    -5.23-225.408179             +0.0000
iter:  51  12:11:44 -13.98  -7.90    -5.57-225.408179             +0.0000
iter:  52  12:12:09 -14.36  -8.09    -6.60-225.408179             +0.0000

Converged after 52 iterations.

Dipole moment: (19.052659, -1.452623, -4.182780) |e|*Ang

Total magnetic moment: (0.000000, 0.000000, 0.000000)
Local magnetic moments:
   0 O  ( 0.000000,  0.000000,  0.000661)
   1 O  ( 0.000000,  0.000000, -0.000658)
   2 O  ( 0.000000,  0.000000, -0.000649)
   3 O  ( 0.000000,  0.000000,  0.000766)
   4 O  ( 0.000000,  0.000000, -0.000675)
   5 O  ( 0.000000,  0.000000,  0.000568)
   6 O  ( 0.000000,  0.000000,  0.000663)
   7 O  ( 0.000000,  0.000000, -0.000683)
   8 O  ( 0.000000,  0.000000,  0.022368)
   9 O  ( 0.000000,  0.000000, -0.022368)
  10 O  ( 0.000000,  0.000000, -0.022368)
  11 O  ( 0.000000,  0.000000,  0.022367)
  12 Mn ( 0.000000,  0.000000,  4.575065)
  13 Mn ( 0.000000,  0.000000, -4.575035)
  14 Mn ( 0.000000,  0.000000, -4.575055)
  15 Mn ( 0.000000,  0.000000,  4.575027)
  16 P  ( 0.000000,  0.000000,  0.000812)
  17 P  ( 0.000000,  0.000000, -0.000817)
  18 P  ( 0.000000,  0.000000, -0.000812)
  19 P  ( 0.000000,  0.000000,  0.000819)
  20 O  ( 0.000000,  0.000000,  0.020709)
  21 O  ( 0.000000,  0.000000, -0.020708)
  22 O  ( 0.000000,  0.000000, -0.020709)
  23 O  ( 0.000000,  0.000000,  0.020709)
  24 Li ( 0.000000,  0.000000,  0.000006)
  25 Li ( 0.000000,  0.000000,  0.000000)
  26 Li ( 0.000000,  0.000000, -0.000006)
  27 Li ( 0.000000,  0.000000, -0.000000)

Energy contributions relative to reference atoms: (reference = -196157.275402)

Kinetic:       +296.851647
Potential:     -256.391262
External:        +0.000000
XC:            -267.649300
Entropy (-ST):   -0.000000
Local:           +1.780736
--------------------------
Free energy:   -225.408179
Extrapolated:  -225.408179

Spin contamination: 9.697227 electrons
Showing only first 2 kpts
                      Up                     Down
 Kpt  Band  Eigenvalues  Occupancy  Eigenvalues  Occupancy
  0    88      5.10975    0.00694      5.10942    0.00694
  0    89      5.16095    0.00694      5.16115    0.00694
  0    90      9.65236    0.00000      9.65233    0.00000
  0    91      9.67091    0.00000      9.67095    0.00000

  1    88      5.12107    0.00694      5.12118    0.00694
  1    89      5.17061    0.00694      5.17034    0.00694
  1    90      9.53452    0.00000      9.53455    0.00000
  1    91      9.54481    0.00000      9.54480    0.00000


Fermi level: 6.36990

Gap: 3.795 eV
Transition (v -> c):
  (s=0, k=72, n=89, [0.08, -0.42, -0.38]) -> (s=1, k=57, n=90, [-0.08, -0.08, -0.12])
Writing to born-0.01-19y-.gpw (mode='all')

Timing:                              incl.     excl.
-----------------------------------------------------------
Hamiltonian:                         0.216     0.002   0.0% |
 Atomic:                             0.053     0.053   0.0% |
  XC Correction:                     0.000     0.000   0.0% |
 Calculate atomic Hamiltonians:      0.075     0.075   0.0% |
 Communicate:                        0.002     0.002   0.0% |
 Initialize Hamiltonian:             0.000     0.000   0.0% |
 Poisson:                            0.001     0.001   0.0% |
 XC 3D grid:                         0.084     0.084   0.0% |
LCAO initialization:                72.267     0.646   0.0% |
 LCAO eigensolver:                  19.339     0.002   0.0% |
  Calculate projections:             0.029     0.029   0.0% |
  DenseAtomicCorrection:             0.045     0.045   0.0% |
  Distribute overlap matrix:         0.111     0.111   0.0% |
  Orbital Layouts:                   0.433     0.433   0.0% |
  Potential matrix:                 18.619    18.619   0.6% |
  Sum over cells:                    0.100     0.100   0.0% |
 LCAO to grid:                      50.927    50.927   1.7% ||
 Set positions (LCAO WFS):           1.354     0.191   0.0% |
  Basic WFS set positions:           0.001     0.001   0.0% |
  Basis functions set positions:     0.000     0.000   0.0% |
  P tci:                             0.521     0.521   0.0% |
  ST tci:                            0.385     0.385   0.0% |
  mktci:                             0.256     0.256   0.0% |
PWDescriptor:                        0.023     0.023   0.0% |
SCF-cycle:                        1174.826     0.447   0.0% |
 Davidson:                         979.862   301.328  10.2% |---|
  Apply H:                          67.289    65.300   2.2% ||
   HMM T:                            1.989     1.989   0.1% |
  Subspace diag:                   142.029     0.147   0.0% |
   calc_h_matrix:                   91.103    23.758   0.8% |
    Apply H:                        67.345    65.330   2.2% ||
     HMM T:                          2.015     2.015   0.1% |
   diagonalize:                      7.094     7.094   0.2% |
   rotate_psi:                      43.686    43.686   1.5% ||
  calc. matrices:                  292.521   161.134   5.4% |-|
   Apply H:                        131.387   127.690   4.3% |-|
    HMM T:                           3.697     3.697   0.1% |
  diagonalize:                      82.198    82.198   2.8% ||
  rotate_psi:                       94.497    94.497   3.2% ||
 Density:                           39.697     0.001   0.0% |
  Atomic density matrices:           0.836     0.836   0.0% |
  Mix:                               5.457     5.457   0.2% |
  Multipole moments:                 0.019     0.019   0.0% |
  Pseudo density:                   33.383    33.382   1.1% |
   Symmetrize density:               0.001     0.001   0.0% |
 Forces:                           141.503   141.503   4.8% |-|
 Hamiltonian:                       11.228     0.109   0.0% |
  Atomic:                            2.736     2.735   0.1% |
   XC Correction:                    0.000     0.000   0.0% |
  Calculate atomic Hamiltonians:     3.884     3.884   0.1% |
  Communicate:                       0.103     0.103   0.0% |
  Poisson:                           0.032     0.032   0.0% |
  XC 3D grid:                        4.364     4.364   0.1% |
 Orthonormalize:                     2.088     0.003   0.0% |
  calc_s_matrix:                     0.244     0.244   0.0% |
  inverse-cholesky:                  0.072     0.072   0.0% |
  projections:                       1.335     1.335   0.0% |
  rotate_psi_s:                      0.434     0.434   0.0% |
Set symmetry:                        0.000     0.000   0.0% |
Other:                            1712.338  1712.338  57.9% |----------------------|
-----------------------------------------------------------
Total:                                      2959.670 100.0%

Memory usage: 12.89 GiB
Date: Wed Mar 24 12:40:40 2021
