
  ___ ___ ___ _ _ _  
 |   |   |_  | | | | 
 | | | | | . | | | | 
 |__ |  _|___|_____|  20.10.1b1
 |___|_|             

User:   madkru@g035.nifl.fysik.dtu.dk
Date:   Mon Mar 22 16:58:54 2021
Arch:   x86_64
Pid:    44316
Python: 3.7.4
gpaw:   /home/niflheim/madkru/venv_folder/gpaw/gpaw (d0d1ca1c71)
_gpaw:  /home/niflheim/madkru/venv_folder/gpaw/build/lib.linux-x86_64-sandybridge-3.7/
        _gpaw.cpython-37m-x86_64-linux-gnu.so (4fd39e8b1e)
ase:    /home/niflheim/madkru/venv_folder/ase/ase (version 3.21.0b1-7e6c206a91)
numpy:  /home/niflheim/madkru/venv_folder/lib/python3.7/site-packages/numpy (version 1.19.4)
scipy:  /home/niflheim/madkru/venv_folder/lib/python3.7/site-packages/scipy (version 1.5.4)
libxc:  4.3.4
units:  Angstrom and eV
cores: 32
OMP_NUM_THREADS: 1

Input parameters:
  convergence: {bands: occupied,
                density: 0.0001,
                eigenstates: 4e-08,
                energy: 0.0005,
                forces: 1e-06}
  kpts: [6 6 4]
  mode: {ecut: 600.0,
         gammacentered: False,
         name: pw}
  occupations: {fixmagmom: False,
                name: fermi-dirac,
                width: 0.001}
  setups: {Mn: :d,3.0}
  symmetry: {point_group: False,
             time_reversal: False}

System changes: positions, numbers, cell, pbc, initial_charges, initial_magmoms 

Initialize ...

O-setup:
  name: Oxygen
  id: 9b9d51c344dea68c822856295a461509
  Z: 8.0
  valence: 6
  core: 2
  charge: 0.0
  file: /home/modules/software/GPAW-setups/0.9.20000/O.LDA.gz
  compensation charges: gauss, rc=0.21, lmax=2
  cutoffs: 1.17(filt), 0.83(core),
  valence states:
                energy  radius
    2s(2.00)   -23.752   0.688
    2p(4.00)    -9.195   0.598
    *s           3.459   0.688
    *p          18.016   0.598
    *d           0.000   0.619

  Using partial waves for O as LCAO basis

Mn-setup:
  name: Manganese
  id: 0d715a8018be061a6e9ea6f2d364ac92
  Z: 25.0
  valence: 15
  core: 10
  charge: 0.0
  Hubbard U: 3.000000 eV (l=2, scale=True)
  file: /home/modules/software/GPAW-setups/0.9.20000/Mn.LDA.gz
  compensation charges: gauss, rc=0.38, lmax=2
  cutoffs: 2.14(filt), 0.86(core),
  valence states:
                energy  radius
    3s(2.00)   -85.387   1.275
    4s(2.00)    -5.282   1.275
    3p(6.00)   -54.493   1.281
    4p(0.00)    -1.471   1.281
    3d(5.00)    -7.009   1.138
    *d          20.203   1.138

  Using partial waves for Mn as LCAO basis

P-setup:
  name: Phosphorus
  id: a5561c299094968922a179ab894d2e2d
  Z: 15.0
  valence: 5
  core: 10
  charge: 0.0
  file: /home/modules/software/GPAW-setups/0.9.20000/P.LDA.gz
  compensation charges: gauss, rc=0.30, lmax=2
  cutoffs: 1.69(filt), 1.81(core),
  valence states:
                energy  radius
    3s(2.00)   -14.015   0.953
    3p(3.00)    -5.596   0.953
    *s          13.197   0.953
    *p          21.615   0.953
    *d           0.000   0.953

  Using partial waves for P as LCAO basis

Li-setup:
  name: Lithium
  id: b73562207f97a71b6967473b66fe8b65
  Z: 3.0
  valence: 1
  core: 2
  charge: 0.0
  file: /home/modules/software/GPAW-setups/0.9.20000/Li.LDA.gz
  compensation charges: gauss, rc=0.33, lmax=2
  cutoffs: 1.91(filt), 2.55(core),
  valence states:
                energy  radius
    2s(1.00)    -2.874   1.058
    2p(0.00)    -1.126   1.058
    *s          24.338   1.058

  Using partial waves for Li as LCAO basis

Reference energy: -196157.275402

Spin-polarized calculation.
Magnetic moment: 0.000000

Convergence criteria:
  Maximum total energy change: 0.0005 eV / electron
  Maximum integral of absolute density change: 0.0001 electrons
  Maximum integral of absolute eigenstate change: 4e-08 eV^2
  Maximum change in atomic force: 1e-06 eV / Ang
  Maximum number of iterations: 333

Symmetries present (total): 1

  ( 1  0  0)
  ( 0  1  0)
  ( 0  0  1)

144 k-points: 6 x 6 x 4 Monkhorst-Pack grid
144 k-points in the irreducible part of the Brillouin zone
       k-points in crystal coordinates                weights
   0:    -0.41666667   -0.41666667   -0.37500000          1/144
   1:    -0.41666667   -0.41666667   -0.12500000          1/144
   2:    -0.41666667   -0.41666667    0.12500000          1/144
   3:    -0.41666667   -0.41666667    0.37500000          1/144
   4:    -0.41666667   -0.25000000   -0.37500000          1/144
   5:    -0.41666667   -0.25000000   -0.12500000          1/144
   6:    -0.41666667   -0.25000000    0.12500000          1/144
   7:    -0.41666667   -0.25000000    0.37500000          1/144
   8:    -0.41666667   -0.08333333   -0.37500000          1/144
   9:    -0.41666667   -0.08333333   -0.12500000          1/144
          ...
 143:     0.41666667    0.41666667    0.37500000          1/144

Wave functions: Plane wave expansion
  Cutoff energy: 600.000 eV
  Number of coefficients (min, max): 9238, 9284
  Pulay-stress correction: 0.000000 eV/Ang^3 (de/decut=0.000000)
  Using FFTW library
  ScaLapack parameters: grid=1x1, blocksize=None
  Wavefunction extrapolation:
    Improved wavefunction reuse through dual PAW basis 

  Fermi-Dirac: width=0.0010 eV

Eigensolver
   Davidson(niter=2, smin=None, normalize=True) 

Densities:
  Coarse grid: 60*35*27 grid
  Fine grid: 120*70*54 grid
  Total Charge: 0.000000 

Density mixing:
  Method: difference
  Backend: pulay
  Linear mixing parameter: 0.05
  Mixing with 5 old densities
  Damping of long wave oscillations: 50 

Hamiltonian:
  XC and Coulomb potentials evaluated on a 120*70*54 grid
  Using the LDA Exchange-Correlation functional
 

Memory estimate:
  Process memory now: 13216.22 MiB
  Calculator: 346.50 MiB
    Density: 19.24 MiB
      Arrays: 7.57 MiB
      Localized functions: 8.64 MiB
      Mixer: 3.03 MiB
    Hamiltonian: 5.87 MiB
      Arrays: 5.62 MiB
      XC: 0.00 MiB
      Poisson: 0.00 MiB
      vbar: 0.25 MiB
    Wavefunctions: 321.38 MiB
      Arrays psit_nG: 285.59 MiB
      Eigensolver: 18.49 MiB
      Projections: 5.41 MiB
      Projectors: 8.92 MiB
      PW-descriptor: 2.96 MiB

Total number of cores used: 32
Parallelization over k-points: 16
Domain decomposition: 2 x 1 x 1

Number of atoms: 28
Number of atomic orbitals: 148
Number of bands in calculation: 112
Number of valence electrons: 180
Bands to converge: occupied

... initialized

Initializing position-dependent things.

Density initialized from atomic densities
Creating initial wave functions:
  112 bands from LCAO basis set

                                           
                                           
                                           
                                           
                                           
               O     O  P  O               
            PO           OMn     O         
                  O          MO            
            O        Li O                  
             Mn  On          OP            
         O         Li O                    
         Li     O P         O              
       Li                                  
                                           
                                           
                                           
                                           

Positions:
   0 O     -1.263197   -2.497779   -1.098475    ( 0.0000,  0.0000,  0.0000)
   1 O     -3.070823    2.922496    1.209491    ( 0.0000,  0.0000,  0.0000)
   2 O      1.985541    0.474863    1.428016    ( 0.0000,  0.0000,  0.0000)
   3 O      3.793120   -0.050100   -0.879950    ( 0.0000,  0.0000,  0.0000)
   4 O      1.985518    2.922485    1.428149    ( 0.0000,  0.0000,  0.0000)
   5 O      3.793144   -2.497790   -0.879818    ( 0.0000,  0.0000,  0.0000)
   6 O     -1.263220   -0.050157   -1.098342    ( 0.0000,  0.0000,  0.0000)
   7 O     -3.070798    0.474805    1.219623    ( 0.0000,  0.0000,  0.0000)
   8 O     -4.167835   -1.273920   -0.862116    ( 0.0000,  0.0000,  0.0000)
   9 O     -0.166037    1.698602    1.445528    ( 0.0000,  0.0000,  0.0000)
  10 O      4.890156    1.698625    1.191790    ( 0.0000,  0.0000,  0.0000)
  11 O      0.888358   -1.273896   -1.115855    ( 0.0000,  0.0000,  0.0000)
  12 Mn    -2.445557   -1.274211    0.312921    ( 0.0000,  0.0000,  1.0000)
  13 Mn    -1.888303    1.698892   -1.994948    ( 0.0000,  0.0000, -1.0000)
  14 Mn     3.167879    1.698917    0.016752    ( 0.0000,  0.0000, -1.0000)
  15 Mn     2.610624   -1.274187    2.324621    ( 0.0000,  0.0000,  1.0000)
  16 P     -0.529549   -1.273917   -1.724376    ( 0.0000,  0.0000,  0.0000)
  17 P     -3.804359    1.698599    0.583463    ( 0.0000,  0.0000,  0.0000)
  18 P      1.251870    1.698623    2.054050    ( 0.0000,  0.0000,  0.0000)
  19 P      4.526680   -1.273894   -0.253789    ( 0.0000,  0.0000,  0.0000)
  20 O     -0.544227   -1.273926    1.365380    ( 0.0000,  0.0000,  0.0000)
  21 O     -3.789411    1.698610   -0.942222    ( 0.0000,  0.0000,  0.0000)
  22 O      1.266548    1.698631   -1.035707    ( 0.0000,  0.0000,  0.0000)
  23 O      4.511733   -1.273905    1.271895    ( 0.0000,  0.0000,  0.0000)
  24 Li    -4.695087   -2.760584   -2.142877    ( 0.0000,  0.0000,  0.0000)
  25 Li     0.361147   -2.760561    0.164836    ( 0.0000,  0.0000,  0.0000)
  26 Li    -4.695074    0.212330   -2.142877    ( 0.0000,  0.0000,  0.0000)
  27 Li     0.361161    0.212353    0.164837    ( 0.0000,  0.0000,  0.0000)

Unit cell:
           periodic     x           y           z      points  spacing
  1. axis:    yes   10.112485    0.000045   -0.000035    60     0.1685
  2. axis:    yes    0.000026    5.945827    0.000001    35     0.1699
  3. axis:    yes   -0.000016    0.000000    4.615463    27     0.1709

  Lengths:  10.112485   5.945827   4.615463
  Angles:   89.999989  90.000396  89.999490

Effective grid spacing dv^(1/3) = 0.1698

                     log10-error:           total        iterations:
           time      wfs    density  force  energy       poisson  magmom
iter:   1  17:02:10                       -221.379215             +0.0000
iter:   2  17:02:47  -0.61  -0.93         -234.833456             +0.0000
iter:   3  17:03:24  -0.37  -0.97         -225.909765             -0.0000
iter:   4  17:04:02  -1.39  -1.29         -225.761364             +0.0000
iter:   5  17:04:39  -1.27  -1.39         -227.328500             +0.0000
iter:   6  17:05:17  -1.46  -1.46         -225.736994             +0.0000
iter:   7  17:05:54  -2.47  -2.04         -225.724320             +0.0000
iter:   8  17:06:32  -2.15  -1.99         -225.587903             +0.0000
iter:   9  17:07:09  -2.46  -2.09         -225.432046             +0.0000
iter:  10  17:07:46  -3.31  -2.55         -225.422110             +0.0000
iter:  11  17:08:24  -3.64  -2.81         -225.411612             +0.0000
iter:  12  17:09:01  -4.15  -3.05         -225.410571             +0.0000
iter:  13  17:09:38  -5.11  -3.29         -225.410462             -0.0000
iter:  14  17:10:16  -5.39  -3.32         -225.410288             -0.0000
iter:  15  17:10:53  -6.03  -3.43         -225.410295             -0.0000
iter:  16  17:11:30  -5.26  -3.47         -225.410620             +0.0000
iter:  17  17:12:07  -5.86  -3.58         -225.410518             -0.0000
iter:  18  17:12:45  -5.27  -3.71         -225.410244             +0.0000
iter:  19  17:13:22  -6.13  -4.09         -225.410241             +0.0000
iter:  20  17:14:00  -7.26  -4.50         -225.410245             -0.0000
iter:  21  17:14:47  -7.65  -4.55         -225.410243             +0.0000
iter:  22  17:15:24  -7.10  -4.60         -225.410243             +0.0000
iter:  23  17:16:11  -8.19  -4.70    -2.40-225.410243             +0.0000
iter:  24  17:16:58  -7.97  -4.81    -2.87-225.410242             +0.0000
iter:  25  17:17:45  -8.55  -4.99    -2.87-225.410242             +0.0000
iter:  26  17:18:32  -8.83  -5.21    -2.98-225.410242             +0.0000
iter:  27  17:19:19  -8.83  -5.47    -3.24-225.410242             +0.0000
iter:  28  17:20:06  -9.84  -5.73    -3.78-225.410242             +0.0000
iter:  29  17:20:53  -9.68  -5.80    -3.42-225.410242             +0.0000
iter:  30  17:21:40 -10.42  -5.99    -3.99-225.410242             +0.0000
iter:  31  17:22:27 -11.42  -6.07    -4.53-225.410242             +0.0000
iter:  32  17:23:14 -10.50  -6.10    -4.22-225.410242             +0.0000
iter:  33  17:24:01 -10.87  -6.17    -4.46-225.410242             +0.0000
iter:  34  17:24:48 -10.95  -6.21    -4.11-225.410242             +0.0000
iter:  35  17:25:35 -11.32  -6.29    -4.48-225.410242             +0.0000
iter:  36  17:26:22 -10.83  -6.31    -4.42-225.410242             +0.0000
iter:  37  17:27:09 -10.81  -6.41    -4.28-225.410242             +0.0000
iter:  38  17:27:56 -11.72  -6.41    -4.15-225.410242             +0.0000
iter:  39  17:28:43 -11.46  -6.70    -4.56-225.410242             +0.0000
iter:  40  17:29:30 -11.42  -6.82    -4.56-225.410242             +0.0000
iter:  41  17:30:17 -12.52  -7.04    -4.75-225.410242             +0.0000
iter:  42  17:31:04 -12.82  -7.12    -5.40-225.410242             +0.0000
iter:  43  17:31:51 -13.30  -7.15    -5.02-225.410242             +0.0000
iter:  44  17:32:37 -12.85  -7.25    -5.15-225.410242             +0.0000
iter:  45  17:33:24 -13.20  -7.35    -5.63-225.410242             +0.0000
iter:  46  17:34:11 -12.77  -7.44    -5.18-225.410242             +0.0000
iter:  47  17:34:58 -13.87  -7.63    -5.41-225.410242             +0.0000
iter:  48  17:35:45 -14.35  -8.17    -6.66-225.410242             +0.0000

Converged after 48 iterations.

Dipole moment: (19.051929, -1.427887, -4.181103) |e|*Ang

Total magnetic moment: (0.000000, 0.000000, 0.000000)
Local magnetic moments:
   0 O  ( 0.000000,  0.000000,  0.000758)
   1 O  ( 0.000000,  0.000000, -0.000704)
   2 O  ( 0.000000,  0.000000, -0.000663)
   3 O  ( 0.000000,  0.000000,  0.000660)
   4 O  ( 0.000000,  0.000000, -0.000670)
   5 O  ( 0.000000,  0.000000,  0.000662)
   6 O  ( 0.000000,  0.000000,  0.000607)
   7 O  ( 0.000000,  0.000000, -0.000858)
   8 O  ( 0.000000,  0.000000,  0.022324)
   9 O  ( 0.000000,  0.000000, -0.022385)
  10 O  ( 0.000000,  0.000000, -0.022437)
  11 O  ( 0.000000,  0.000000,  0.022371)
  12 Mn ( 0.000000,  0.000000,  4.575409)
  13 Mn ( 0.000000,  0.000000, -4.574679)
  14 Mn ( 0.000000,  0.000000, -4.575067)
  15 Mn ( 0.000000,  0.000000,  4.575030)
  16 P  ( 0.000000,  0.000000,  0.000804)
  17 P  ( 0.000000,  0.000000, -0.000974)
  18 P  ( 0.000000,  0.000000, -0.000820)
  19 P  ( 0.000000,  0.000000,  0.000811)
  20 O  ( 0.000000,  0.000000,  0.020694)
  21 O  ( 0.000000,  0.000000, -0.020713)
  22 O  ( 0.000000,  0.000000, -0.020711)
  23 O  ( 0.000000,  0.000000,  0.020700)
  24 Li ( 0.000000,  0.000000, -0.000000)
  25 Li ( 0.000000,  0.000000, -0.000001)
  26 Li ( 0.000000,  0.000000, -0.000008)
  27 Li ( 0.000000,  0.000000,  0.000001)

Energy contributions relative to reference atoms: (reference = -196157.275402)

Kinetic:       +296.591665
Potential:     -256.191080
External:        +0.000000
XC:            -267.592381
Entropy (-ST):   -0.000000
Local:           +1.781554
--------------------------
Free energy:   -225.410242
Extrapolated:  -225.410242

Spin contamination: 9.697158 electrons
Showing only first 2 kpts
                      Up                     Down
 Kpt  Band  Eigenvalues  Occupancy  Eigenvalues  Occupancy
  0    88      5.10771    0.00694      5.11242    0.00694
  0    89      5.15939    0.00694      5.16307    0.00694
  0    90      9.65347    0.00000      9.65289    0.00000
  0    91      9.67432    0.00000      9.67098    0.00000

  1    88      5.11947    0.00694      5.12394    0.00694
  1    89      5.16881    0.00694      5.17302    0.00694
  1    90      9.53474    0.00000      9.53535    0.00000
  1    91      9.54706    0.00000      9.54495    0.00000


Fermi level: 6.37007

Gap: 3.792 eV
Transition (v -> c):
  (s=1, k=72, n=89, [0.08, -0.42, -0.38]) -> (s=0, k=57, n=90, [-0.08, -0.08, -0.12])
Writing to born-0.01-7z+.gpw (mode='all')

Timing:                              incl.     excl.
-----------------------------------------------------------
Hamiltonian:                         0.408     0.002   0.0% |
 Atomic:                             0.064     0.064   0.0% |
  XC Correction:                     0.000     0.000   0.0% |
 Calculate atomic Hamiltonians:      0.165     0.165   0.0% |
 Communicate:                        0.001     0.001   0.0% |
 Initialize Hamiltonian:             0.000     0.000   0.0% |
 Poisson:                            0.001     0.001   0.0% |
 XC 3D grid:                         0.174     0.174   0.0% |
LCAO initialization:               153.546     0.678   0.0% |
 LCAO eigensolver:                  40.700     0.003   0.0% |
  Calculate projections:             0.056     0.056   0.0% |
  DenseAtomicCorrection:             0.082     0.082   0.0% |
  Distribute overlap matrix:         0.173     0.173   0.0% |
  Orbital Layouts:                   0.362     0.362   0.0% |
  Potential matrix:                 39.936    39.936   0.8% |
  Sum over cells:                    0.088     0.088   0.0% |
 LCAO to grid:                     109.788   109.788   2.3% ||
 Set positions (LCAO WFS):           2.380     0.370   0.0% |
  Basic WFS set positions:           0.001     0.001   0.0% |
  Basis functions set positions:     0.000     0.000   0.0% |
  P tci:                             1.083     1.083   0.0% |
  ST tci:                            0.710     0.710   0.0% |
  mktci:                             0.215     0.215   0.0% |
PWDescriptor:                        0.025     0.025   0.0% |
SCF-cycle:                        2055.189     9.364   0.2% |
 Davidson:                        1689.074   537.939  11.0% |---|
  Apply H:                         122.995   119.390   2.5% ||
   HMM T:                            3.604     3.604   0.1% |
  Subspace diag:                   251.818     0.148   0.0% |
   calc_h_matrix:                  165.810    43.556   0.9% |
    Apply H:                       122.254   118.749   2.4% ||
     HMM T:                          3.505     3.505   0.1% |
   diagonalize:                      5.801     5.801   0.1% |
   rotate_psi:                      80.060    80.060   1.6% ||
  calc. matrices:                  533.267   291.931   6.0% |-|
   Apply H:                        241.337   234.650   4.8% |-|
    HMM T:                           6.687     6.687   0.1% |
  diagonalize:                      79.950    79.950   1.6% ||
  rotate_psi:                      163.105   163.105   3.3% ||
 Density:                           70.371     0.001   0.0% |
  Atomic density matrices:           1.262     1.262   0.0% |
  Mix:                              10.673    10.673   0.2% |
  Multipole moments:                 0.028     0.028   0.0% |
  Pseudo density:                   58.407    58.406   1.2% |
   Symmetrize density:               0.001     0.001   0.0% |
 Forces:                           262.900   262.900   5.4% |-|
 Hamiltonian:                       19.422     0.114   0.0% |
  Atomic:                            2.826     2.826   0.1% |
   XC Correction:                    0.000     0.000   0.0% |
  Calculate atomic Hamiltonians:     7.933     7.933   0.2% |
  Communicate:                       0.078     0.078   0.0% |
  Poisson:                           0.070     0.070   0.0% |
  XC 3D grid:                        8.400     8.400   0.2% |
 Orthonormalize:                     4.058     0.003   0.0% |
  calc_s_matrix:                     0.484     0.484   0.0% |
  inverse-cholesky:                  0.055     0.055   0.0% |
  projections:                       2.656     2.656   0.1% |
  rotate_psi_s:                      0.860     0.860   0.0% |
Set symmetry:                        0.000     0.000   0.0% |
Other:                            2662.486  2662.486  54.7% |---------------------|
-----------------------------------------------------------
Total:                                      4871.655 100.0%

Memory usage: 12.93 GiB
Date: Mon Mar 22 18:20:06 2021
