
  ___ ___ ___ _ _ _  
 |   |   |_  | | | | 
 | | | | | . | | | | 
 |__ |  _|___|_____|  20.10.1b1
 |___|_|             

User:   madkru@g035.nifl.fysik.dtu.dk
Date:   Sun Mar 21 11:50:31 2021
Arch:   x86_64
Pid:    44316
Python: 3.7.4
gpaw:   /home/niflheim/madkru/venv_folder/gpaw/gpaw (d0d1ca1c71)
_gpaw:  /home/niflheim/madkru/venv_folder/gpaw/build/lib.linux-x86_64-sandybridge-3.7/
        _gpaw.cpython-37m-x86_64-linux-gnu.so (4fd39e8b1e)
ase:    /home/niflheim/madkru/venv_folder/ase/ase (version 3.21.0b1-7e6c206a91)
numpy:  /home/niflheim/madkru/venv_folder/lib/python3.7/site-packages/numpy (version 1.19.4)
scipy:  /home/niflheim/madkru/venv_folder/lib/python3.7/site-packages/scipy (version 1.5.4)
libxc:  4.3.4
units:  Angstrom and eV
cores: 32
OMP_NUM_THREADS: 1

Input parameters:
  convergence: {bands: occupied,
                density: 0.0001,
                eigenstates: 4e-08,
                energy: 0.0005,
                forces: 1e-06}
  kpts: [6 6 4]
  mode: {ecut: 600.0,
         gammacentered: False,
         name: pw}
  occupations: {fixmagmom: False,
                name: fermi-dirac,
                width: 0.001}
  setups: {Mn: :d,3.0}
  symmetry: {point_group: False,
             time_reversal: False}

System changes: positions, numbers, cell, pbc, initial_charges, initial_magmoms 

Initialize ...

O-setup:
  name: Oxygen
  id: 9b9d51c344dea68c822856295a461509
  Z: 8.0
  valence: 6
  core: 2
  charge: 0.0
  file: /home/modules/software/GPAW-setups/0.9.20000/O.LDA.gz
  compensation charges: gauss, rc=0.21, lmax=2
  cutoffs: 1.17(filt), 0.83(core),
  valence states:
                energy  radius
    2s(2.00)   -23.752   0.688
    2p(4.00)    -9.195   0.598
    *s           3.459   0.688
    *p          18.016   0.598
    *d           0.000   0.619

  Using partial waves for O as LCAO basis

Mn-setup:
  name: Manganese
  id: 0d715a8018be061a6e9ea6f2d364ac92
  Z: 25.0
  valence: 15
  core: 10
  charge: 0.0
  Hubbard U: 3.000000 eV (l=2, scale=True)
  file: /home/modules/software/GPAW-setups/0.9.20000/Mn.LDA.gz
  compensation charges: gauss, rc=0.38, lmax=2
  cutoffs: 2.14(filt), 0.86(core),
  valence states:
                energy  radius
    3s(2.00)   -85.387   1.275
    4s(2.00)    -5.282   1.275
    3p(6.00)   -54.493   1.281
    4p(0.00)    -1.471   1.281
    3d(5.00)    -7.009   1.138
    *d          20.203   1.138

  Using partial waves for Mn as LCAO basis

P-setup:
  name: Phosphorus
  id: a5561c299094968922a179ab894d2e2d
  Z: 15.0
  valence: 5
  core: 10
  charge: 0.0
  file: /home/modules/software/GPAW-setups/0.9.20000/P.LDA.gz
  compensation charges: gauss, rc=0.30, lmax=2
  cutoffs: 1.69(filt), 1.81(core),
  valence states:
                energy  radius
    3s(2.00)   -14.015   0.953
    3p(3.00)    -5.596   0.953
    *s          13.197   0.953
    *p          21.615   0.953
    *d           0.000   0.953

  Using partial waves for P as LCAO basis

Li-setup:
  name: Lithium
  id: b73562207f97a71b6967473b66fe8b65
  Z: 3.0
  valence: 1
  core: 2
  charge: 0.0
  file: /home/modules/software/GPAW-setups/0.9.20000/Li.LDA.gz
  compensation charges: gauss, rc=0.33, lmax=2
  cutoffs: 1.91(filt), 2.55(core),
  valence states:
                energy  radius
    2s(1.00)    -2.874   1.058
    2p(0.00)    -1.126   1.058
    *s          24.338   1.058

  Using partial waves for Li as LCAO basis

Reference energy: -196157.275402

Spin-polarized calculation.
Magnetic moment: 0.000000

Convergence criteria:
  Maximum total energy change: 0.0005 eV / electron
  Maximum integral of absolute density change: 0.0001 electrons
  Maximum integral of absolute eigenstate change: 4e-08 eV^2
  Maximum change in atomic force: 1e-06 eV / Ang
  Maximum number of iterations: 333

Symmetries present (total): 1

  ( 1  0  0)
  ( 0  1  0)
  ( 0  0  1)

144 k-points: 6 x 6 x 4 Monkhorst-Pack grid
144 k-points in the irreducible part of the Brillouin zone
       k-points in crystal coordinates                weights
   0:    -0.41666667   -0.41666667   -0.37500000          1/144
   1:    -0.41666667   -0.41666667   -0.12500000          1/144
   2:    -0.41666667   -0.41666667    0.12500000          1/144
   3:    -0.41666667   -0.41666667    0.37500000          1/144
   4:    -0.41666667   -0.25000000   -0.37500000          1/144
   5:    -0.41666667   -0.25000000   -0.12500000          1/144
   6:    -0.41666667   -0.25000000    0.12500000          1/144
   7:    -0.41666667   -0.25000000    0.37500000          1/144
   8:    -0.41666667   -0.08333333   -0.37500000          1/144
   9:    -0.41666667   -0.08333333   -0.12500000          1/144
          ...
 143:     0.41666667    0.41666667    0.37500000          1/144

Wave functions: Plane wave expansion
  Cutoff energy: 600.000 eV
  Number of coefficients (min, max): 9238, 9284
  Pulay-stress correction: 0.000000 eV/Ang^3 (de/decut=0.000000)
  Using FFTW library
  ScaLapack parameters: grid=1x1, blocksize=None
  Wavefunction extrapolation:
    Improved wavefunction reuse through dual PAW basis 

  Fermi-Dirac: width=0.0010 eV

Eigensolver
   Davidson(niter=2, smin=None, normalize=True) 

Densities:
  Coarse grid: 60*35*27 grid
  Fine grid: 120*70*54 grid
  Total Charge: 0.000000 

Density mixing:
  Method: difference
  Backend: pulay
  Linear mixing parameter: 0.05
  Mixing with 5 old densities
  Damping of long wave oscillations: 50 

Hamiltonian:
  XC and Coulomb potentials evaluated on a 120*70*54 grid
  Using the LDA Exchange-Correlation functional
 

Memory estimate:
  Process memory now: 12395.08 MiB
  Calculator: 346.50 MiB
    Density: 19.24 MiB
      Arrays: 7.57 MiB
      Localized functions: 8.64 MiB
      Mixer: 3.03 MiB
    Hamiltonian: 5.87 MiB
      Arrays: 5.62 MiB
      XC: 0.00 MiB
      Poisson: 0.00 MiB
      vbar: 0.25 MiB
    Wavefunctions: 321.38 MiB
      Arrays psit_nG: 285.59 MiB
      Eigensolver: 18.49 MiB
      Projections: 5.41 MiB
      Projectors: 8.92 MiB
      PW-descriptor: 2.96 MiB

Total number of cores used: 32
Parallelization over k-points: 16
Domain decomposition: 2 x 1 x 1

Number of atoms: 28
Number of atomic orbitals: 148
Number of bands in calculation: 112
Number of valence electrons: 180
Bands to converge: occupied

... initialized

Initializing position-dependent things.

Density initialized from atomic densities
Creating initial wave functions:
  112 bands from LCAO basis set

                                           
                                           
                                           
                                           
                                           
               O     O  P  O               
            PO           OMn     O         
                  O          MO            
            O        Li O                  
             Mn  On          OP            
         O         Li O                    
         Li     O P         O              
       Li                                  
                                           
                                           
                                           
                                           

Positions:
   0 O     -1.263197   -2.497779   -1.098475    ( 0.0000,  0.0000,  0.0000)
   1 O     -3.070823    2.922496    1.199491    ( 0.0000,  0.0000,  0.0000)
   2 O      1.985541    0.474863    1.428016    ( 0.0000,  0.0000,  0.0000)
   3 O      3.793120   -0.050100   -0.879950    ( 0.0000,  0.0000,  0.0000)
   4 O      1.985518    2.922485    1.428149    ( 0.0000,  0.0000,  0.0000)
   5 O      3.793144   -2.497790   -0.879818    ( 0.0000,  0.0000,  0.0000)
   6 O     -1.263220   -0.050157   -1.098342    ( 0.0000,  0.0000,  0.0000)
   7 O     -3.070798    0.474805    1.209623    ( 0.0000,  0.0000,  0.0000)
   8 O     -4.167835   -1.273920   -0.862116    ( 0.0000,  0.0000,  0.0000)
   9 O     -0.166037    1.698602    1.445528    ( 0.0000,  0.0000,  0.0000)
  10 O      4.890156    1.698625    1.191790    ( 0.0000,  0.0000,  0.0000)
  11 O      0.888358   -1.273896   -1.115855    ( 0.0000,  0.0000,  0.0000)
  12 Mn    -2.445557   -1.274211    0.312921    ( 0.0000,  0.0000,  1.0000)
  13 Mn    -1.888303    1.698892   -1.994948    ( 0.0000,  0.0000, -1.0000)
  14 Mn     3.167879    1.698917    0.016752    ( 0.0000,  0.0000, -1.0000)
  15 Mn     2.610624   -1.274187    2.324621    ( 0.0000,  0.0000,  1.0000)
  16 P     -0.529549   -1.273917   -1.724376    ( 0.0000,  0.0000,  0.0000)
  17 P     -3.804359    1.698599    0.583463    ( 0.0000,  0.0000,  0.0000)
  18 P      1.251870    1.698623    2.054050    ( 0.0000,  0.0000,  0.0000)
  19 P      4.526680   -1.273894   -0.253789    ( 0.0000,  0.0000,  0.0000)
  20 O     -0.544227   -1.273926    1.365380    ( 0.0000,  0.0000,  0.0000)
  21 O     -3.789411    1.698610   -0.942222    ( 0.0000,  0.0000,  0.0000)
  22 O      1.266548    1.698631   -1.035707    ( 0.0000,  0.0000,  0.0000)
  23 O      4.511733   -1.273905    1.271895    ( 0.0000,  0.0000,  0.0000)
  24 Li    -4.695087   -2.760584   -2.142877    ( 0.0000,  0.0000,  0.0000)
  25 Li     0.361147   -2.760561    0.164836    ( 0.0000,  0.0000,  0.0000)
  26 Li    -4.695074    0.212330   -2.142877    ( 0.0000,  0.0000,  0.0000)
  27 Li     0.361161    0.212353    0.164837    ( 0.0000,  0.0000,  0.0000)

Unit cell:
           periodic     x           y           z      points  spacing
  1. axis:    yes   10.112485    0.000045   -0.000035    60     0.1685
  2. axis:    yes    0.000026    5.945827    0.000001    35     0.1699
  3. axis:    yes   -0.000016    0.000000    4.615463    27     0.1709

  Lengths:  10.112485   5.945827   4.615463
  Angles:   89.999989  90.000396  89.999490

Effective grid spacing dv^(1/3) = 0.1698

                     log10-error:           total        iterations:
           time      wfs    density  force  energy       poisson  magmom
iter:   1  11:53:41                       -221.373745             +0.0000
iter:   2  11:54:18  -0.61  -0.93         -234.837868             +0.0000
iter:   3  11:54:56  -0.37  -0.97         -225.913634             -0.0000
iter:   4  11:55:33  -1.39  -1.29         -225.761098             +0.0000
iter:   5  11:56:11  -1.27  -1.39         -227.330148             +0.0000
iter:   6  11:56:48  -1.46  -1.46         -225.737057             +0.0000
iter:   7  11:57:25  -2.47  -2.04         -225.724516             +0.0000
iter:   8  11:58:03  -2.14  -1.99         -225.593243             +0.0000
iter:   9  11:58:40  -2.46  -2.09         -225.432026             +0.0000
iter:  10  11:59:18  -3.31  -2.55         -225.422120             +0.0000
iter:  11  11:59:55  -3.66  -2.81         -225.411802             +0.0000
iter:  12  12:00:32  -4.10  -3.04         -225.410616             +0.0000
iter:  13  12:01:10  -5.10  -3.29         -225.410481             -0.0000
iter:  14  12:01:47  -5.39  -3.32         -225.410310             +0.0000
iter:  15  12:02:25  -6.05  -3.43         -225.410314             +0.0000
iter:  16  12:03:02  -5.24  -3.47         -225.410663             -0.0000
iter:  17  12:03:40  -5.91  -3.58         -225.410542             -0.0000
iter:  18  12:04:17  -5.20  -3.70         -225.410253             -0.0000
iter:  19  12:04:54  -6.06  -4.11         -225.410266             -0.0000
iter:  20  12:05:32  -7.22  -4.40         -225.410264             +0.0000
iter:  21  12:06:19  -7.42  -4.44         -225.410264             +0.0000
iter:  22  12:07:06  -7.70  -4.55    -2.61-225.410265             +0.0000
iter:  23  12:07:53  -8.69  -4.54    -3.43-225.410264             +0.0000
iter:  24  12:08:30  -7.16  -4.58         -225.410263             +0.0000
iter:  25  12:09:17  -8.34  -4.95    -2.44-225.410263             +0.0000
iter:  26  12:10:04  -7.91  -5.12    -2.70-225.410263             +0.0000
iter:  27  12:10:51  -8.90  -5.22    -3.08-225.410263             +0.0000
iter:  28  12:11:39  -9.43  -5.45    -3.44-225.410263             +0.0000
iter:  29  12:12:26  -9.50  -5.50    -3.30-225.410263             -0.0000
iter:  30  12:13:13  -9.80  -5.63    -3.59-225.410263             +0.0000
iter:  31  12:14:00 -10.66  -5.70    -3.92-225.410263             +0.0000
iter:  32  12:14:47  -9.33  -5.76    -3.39-225.410263             +0.0000
iter:  33  12:15:34 -10.38  -6.01    -3.82-225.410263             +0.0000
iter:  34  12:16:21 -10.75  -6.23    -3.99-225.410263             +0.0000
iter:  35  12:17:08 -10.73  -6.27    -3.97-225.410263             -0.0000
iter:  36  12:17:55 -11.95  -6.42    -4.73-225.410263             +0.0000
iter:  37  12:18:42 -11.25  -6.46    -4.18-225.410263             -0.0000
iter:  38  12:19:29 -11.81  -6.62    -4.79-225.410263             -0.0000
iter:  39  12:20:16 -12.32  -6.65    -4.65-225.410263             +0.0000
iter:  40  12:21:03 -11.57  -6.71    -4.44-225.410263             +0.0000
iter:  41  12:21:50 -12.29  -6.82    -4.72-225.410263             +0.0000
iter:  42  12:22:37 -12.61  -6.89    -4.78-225.410263             -0.0000
iter:  43  12:23:24 -13.27  -6.97    -5.21-225.410263             -0.0000
iter:  44  12:24:11 -12.48  -7.00    -4.65-225.410263             -0.0000
iter:  45  12:24:58 -13.03  -7.17    -4.99-225.410263             -0.0000
iter:  46  12:25:45 -12.32  -7.23    -5.06-225.410263             +0.0000
iter:  47  12:26:32 -13.24  -7.53    -5.34-225.410263             -0.0000
iter:  48  12:27:19 -14.45  -7.81    -6.35-225.410263             -0.0000

Converged after 48 iterations.

Dipole moment: (19.053362, -1.425680, -4.184658) |e|*Ang

Total magnetic moment: (0.000000, 0.000000, -0.000000)
Local magnetic moments:
   0 O  ( 0.000000,  0.000000,  0.000717)
   1 O  ( 0.000000,  0.000000, -0.000481)
   2 O  ( 0.000000,  0.000000, -0.000653)
   3 O  ( 0.000000,  0.000000,  0.000678)
   4 O  ( 0.000000,  0.000000, -0.000661)
   5 O  ( 0.000000,  0.000000,  0.000680)
   6 O  ( 0.000000,  0.000000,  0.000567)
   7 O  ( 0.000000,  0.000000, -0.000637)
   8 O  ( 0.000000,  0.000000,  0.022411)
   9 O  ( 0.000000,  0.000000, -0.022350)
  10 O  ( 0.000000,  0.000000, -0.022298)
  11 O  ( 0.000000,  0.000000,  0.022365)
  12 Mn ( 0.000000,  0.000000,  4.574715)
  13 Mn ( 0.000000,  0.000000, -4.575376)
  14 Mn ( 0.000000,  0.000000, -4.575064)
  15 Mn ( 0.000000,  0.000000,  4.575041)
  16 P  ( 0.000000,  0.000000,  0.000819)
  17 P  ( 0.000000,  0.000000, -0.000660)
  18 P  ( 0.000000,  0.000000, -0.000803)
  19 P  ( 0.000000,  0.000000,  0.000822)
  20 O  ( 0.000000,  0.000000,  0.020724)
  21 O  ( 0.000000,  0.000000, -0.020704)
  22 O  ( 0.000000,  0.000000, -0.020706)
  23 O  ( 0.000000,  0.000000,  0.020717)
  24 Li ( 0.000000,  0.000000,  0.000007)
  25 Li ( 0.000000,  0.000000, -0.000001)
  26 Li ( 0.000000,  0.000000,  0.000000)
  27 Li ( 0.000000,  0.000000,  0.000001)

Energy contributions relative to reference atoms: (reference = -196157.275402)

Kinetic:       +297.090468
Potential:     -256.575888
External:        +0.000000
XC:            -267.704811
Entropy (-ST):   -0.000000
Local:           +1.779968
--------------------------
Free energy:   -225.410263
Extrapolated:  -225.410263

Spin contamination: 9.697297 electrons
Showing only first 2 kpts
                      Up                     Down
 Kpt  Band  Eigenvalues  Occupancy  Eigenvalues  Occupancy
  0    88      5.11088    0.00694      5.10654    0.00694
  0    89      5.16272    0.00694      5.15910    0.00694
  0    90      9.65045    0.00000      9.65177    0.00000
  0    91      9.66797    0.00000      9.67085    0.00000

  1    88      5.12244    0.00694      5.11784    0.00694
  1    89      5.17179    0.00694      5.16809    0.00694
  1    90      9.53393    0.00000      9.53369    0.00000
  1    91      9.54286    0.00000      9.54475    0.00000


Fermi level: 6.37007

Gap: 3.795 eV
Transition (v -> c):
  (s=0, k=95, n=89, [0.08, 0.42, 0.38]) -> (s=1, k=86, n=90, [0.08, 0.08, 0.12])
Writing to born-0.01-1z-.gpw (mode='all')

Timing:                              incl.     excl.
-----------------------------------------------------------
Hamiltonian:                         0.417     0.002   0.0% |
 Atomic:                             0.071     0.071   0.0% |
  XC Correction:                     0.000     0.000   0.0% |
 Calculate atomic Hamiltonians:      0.165     0.165   0.0% |
 Communicate:                        0.005     0.005   0.0% |
 Initialize Hamiltonian:             0.000     0.000   0.0% |
 Poisson:                            0.001     0.001   0.0% |
 XC 3D grid:                         0.173     0.173   0.0% |
LCAO initialization:               147.182     0.677   0.0% |
 LCAO eigensolver:                  40.076     0.002   0.0% |
  Calculate projections:             0.056     0.056   0.0% |
  DenseAtomicCorrection:             0.082     0.082   0.0% |
  Distribute overlap matrix:         0.197     0.197   0.0% |
  Orbital Layouts:                   0.363     0.363   0.0% |
  Potential matrix:                 39.275    39.275   0.8% |
  Sum over cells:                    0.100     0.100   0.0% |
 LCAO to grid:                     104.062   104.062   2.1% ||
 Set positions (LCAO WFS):           2.367     0.369   0.0% |
  Basic WFS set positions:           0.001     0.001   0.0% |
  Basis functions set positions:     0.000     0.000   0.0% |
  P tci:                             1.074     1.074   0.0% |
  ST tci:                            0.707     0.707   0.0% |
  mktci:                             0.216     0.216   0.0% |
PWDescriptor:                        0.025     0.025   0.0% |
SCF-cycle:                        2059.193    10.585   0.2% |
 Davidson:                        1691.398   537.381  11.0% |---|
  Apply H:                         124.175   120.530   2.5% ||
   HMM T:                            3.645     3.645   0.1% |
  Subspace diag:                   252.602     0.147   0.0% |
   calc_h_matrix:                  166.367    43.666   0.9% |
    Apply H:                       122.701   119.148   2.4% ||
     HMM T:                          3.553     3.553   0.1% |
   diagonalize:                      5.855     5.855   0.1% |
   rotate_psi:                      80.232    80.232   1.6% ||
  calc. matrices:                  533.643   292.492   6.0% |-|
   Apply H:                        241.151   234.404   4.8% |-|
    HMM T:                           6.747     6.747   0.1% |
  diagonalize:                      79.954    79.954   1.6% ||
  rotate_psi:                      163.643   163.643   3.3% ||
 Density:                           70.527     0.001   0.0% |
  Atomic density matrices:           1.234     1.234   0.0% |
  Mix:                              10.830    10.830   0.2% |
  Multipole moments:                 0.028     0.028   0.0% |
  Pseudo density:                   58.434    58.432   1.2% |
   Symmetrize density:               0.001     0.001   0.0% |
 Forces:                           263.152   263.152   5.4% |-|
 Hamiltonian:                       19.466     0.116   0.0% |
  Atomic:                            2.748     2.748   0.1% |
   XC Correction:                    0.000     0.000   0.0% |
  Calculate atomic Hamiltonians:     8.048     8.048   0.2% |
  Communicate:                       0.088     0.088   0.0% |
  Poisson:                           0.073     0.073   0.0% |
  XC 3D grid:                        8.394     8.394   0.2% |
 Orthonormalize:                     4.065     0.004   0.0% |
  calc_s_matrix:                     0.485     0.485   0.0% |
  inverse-cholesky:                  0.055     0.055   0.0% |
  projections:                       2.658     2.658   0.1% |
  rotate_psi_s:                      0.863     0.863   0.0% |
Set symmetry:                        0.000     0.000   0.0% |
Other:                            2695.738  2695.738  55.0% |---------------------|
-----------------------------------------------------------
Total:                                      4902.555 100.0%

Memory usage: 12.14 GiB
Date: Sun Mar 21 13:12:13 2021
