
  ___ ___ ___ _ _ _  
 |   |   |_  | | | | 
 | | | | | . | | | | 
 |__ |  _|___|_____|  20.10.1b1
 |___|_|             

User:   madkru@g035.nifl.fysik.dtu.dk
Date:   Mon Mar 22 04:13:18 2021
Arch:   x86_64
Pid:    44316
Python: 3.7.4
gpaw:   /home/niflheim/madkru/venv_folder/gpaw/gpaw (d0d1ca1c71)
_gpaw:  /home/niflheim/madkru/venv_folder/gpaw/build/lib.linux-x86_64-sandybridge-3.7/
        _gpaw.cpython-37m-x86_64-linux-gnu.so (4fd39e8b1e)
ase:    /home/niflheim/madkru/venv_folder/ase/ase (version 3.21.0b1-7e6c206a91)
numpy:  /home/niflheim/madkru/venv_folder/lib/python3.7/site-packages/numpy (version 1.19.4)
scipy:  /home/niflheim/madkru/venv_folder/lib/python3.7/site-packages/scipy (version 1.5.4)
libxc:  4.3.4
units:  Angstrom and eV
cores: 32
OMP_NUM_THREADS: 1

Input parameters:
  convergence: {bands: occupied,
                density: 0.0001,
                eigenstates: 4e-08,
                energy: 0.0005,
                forces: 1e-06}
  kpts: [6 6 4]
  mode: {ecut: 600.0,
         gammacentered: False,
         name: pw}
  occupations: {fixmagmom: False,
                name: fermi-dirac,
                width: 0.001}
  setups: {Mn: :d,3.0}
  symmetry: {point_group: False,
             time_reversal: False}

System changes: positions, numbers, cell, pbc, initial_charges, initial_magmoms 

Initialize ...

O-setup:
  name: Oxygen
  id: 9b9d51c344dea68c822856295a461509
  Z: 8.0
  valence: 6
  core: 2
  charge: 0.0
  file: /home/modules/software/GPAW-setups/0.9.20000/O.LDA.gz
  compensation charges: gauss, rc=0.21, lmax=2
  cutoffs: 1.17(filt), 0.83(core),
  valence states:
                energy  radius
    2s(2.00)   -23.752   0.688
    2p(4.00)    -9.195   0.598
    *s           3.459   0.688
    *p          18.016   0.598
    *d           0.000   0.619

  Using partial waves for O as LCAO basis

Mn-setup:
  name: Manganese
  id: 0d715a8018be061a6e9ea6f2d364ac92
  Z: 25.0
  valence: 15
  core: 10
  charge: 0.0
  Hubbard U: 3.000000 eV (l=2, scale=True)
  file: /home/modules/software/GPAW-setups/0.9.20000/Mn.LDA.gz
  compensation charges: gauss, rc=0.38, lmax=2
  cutoffs: 2.14(filt), 0.86(core),
  valence states:
                energy  radius
    3s(2.00)   -85.387   1.275
    4s(2.00)    -5.282   1.275
    3p(6.00)   -54.493   1.281
    4p(0.00)    -1.471   1.281
    3d(5.00)    -7.009   1.138
    *d          20.203   1.138

  Using partial waves for Mn as LCAO basis

P-setup:
  name: Phosphorus
  id: a5561c299094968922a179ab894d2e2d
  Z: 15.0
  valence: 5
  core: 10
  charge: 0.0
  file: /home/modules/software/GPAW-setups/0.9.20000/P.LDA.gz
  compensation charges: gauss, rc=0.30, lmax=2
  cutoffs: 1.69(filt), 1.81(core),
  valence states:
                energy  radius
    3s(2.00)   -14.015   0.953
    3p(3.00)    -5.596   0.953
    *s          13.197   0.953
    *p          21.615   0.953
    *d           0.000   0.953

  Using partial waves for P as LCAO basis

Li-setup:
  name: Lithium
  id: b73562207f97a71b6967473b66fe8b65
  Z: 3.0
  valence: 1
  core: 2
  charge: 0.0
  file: /home/modules/software/GPAW-setups/0.9.20000/Li.LDA.gz
  compensation charges: gauss, rc=0.33, lmax=2
  cutoffs: 1.91(filt), 2.55(core),
  valence states:
                energy  radius
    2s(1.00)    -2.874   1.058
    2p(0.00)    -1.126   1.058
    *s          24.338   1.058

  Using partial waves for Li as LCAO basis

Reference energy: -196157.275402

Spin-polarized calculation.
Magnetic moment: 0.000000

Convergence criteria:
  Maximum total energy change: 0.0005 eV / electron
  Maximum integral of absolute density change: 0.0001 electrons
  Maximum integral of absolute eigenstate change: 4e-08 eV^2
  Maximum change in atomic force: 1e-06 eV / Ang
  Maximum number of iterations: 333

Symmetries present (total): 1

  ( 1  0  0)
  ( 0  1  0)
  ( 0  0  1)

144 k-points: 6 x 6 x 4 Monkhorst-Pack grid
144 k-points in the irreducible part of the Brillouin zone
       k-points in crystal coordinates                weights
   0:    -0.41666667   -0.41666667   -0.37500000          1/144
   1:    -0.41666667   -0.41666667   -0.12500000          1/144
   2:    -0.41666667   -0.41666667    0.12500000          1/144
   3:    -0.41666667   -0.41666667    0.37500000          1/144
   4:    -0.41666667   -0.25000000   -0.37500000          1/144
   5:    -0.41666667   -0.25000000   -0.12500000          1/144
   6:    -0.41666667   -0.25000000    0.12500000          1/144
   7:    -0.41666667   -0.25000000    0.37500000          1/144
   8:    -0.41666667   -0.08333333   -0.37500000          1/144
   9:    -0.41666667   -0.08333333   -0.12500000          1/144
          ...
 143:     0.41666667    0.41666667    0.37500000          1/144

Wave functions: Plane wave expansion
  Cutoff energy: 600.000 eV
  Number of coefficients (min, max): 9238, 9284
  Pulay-stress correction: 0.000000 eV/Ang^3 (de/decut=0.000000)
  Using FFTW library
  ScaLapack parameters: grid=1x1, blocksize=None
  Wavefunction extrapolation:
    Improved wavefunction reuse through dual PAW basis 

  Fermi-Dirac: width=0.0010 eV

Eigensolver
   Davidson(niter=2, smin=None, normalize=True) 

Densities:
  Coarse grid: 60*35*27 grid
  Fine grid: 120*70*54 grid
  Total Charge: 0.000000 

Density mixing:
  Method: difference
  Backend: pulay
  Linear mixing parameter: 0.05
  Mixing with 5 old densities
  Damping of long wave oscillations: 50 

Hamiltonian:
  XC and Coulomb potentials evaluated on a 120*70*54 grid
  Using the LDA Exchange-Correlation functional
 

Memory estimate:
  Process memory now: 12866.68 MiB
  Calculator: 346.50 MiB
    Density: 19.24 MiB
      Arrays: 7.57 MiB
      Localized functions: 8.64 MiB
      Mixer: 3.03 MiB
    Hamiltonian: 5.87 MiB
      Arrays: 5.62 MiB
      XC: 0.00 MiB
      Poisson: 0.00 MiB
      vbar: 0.25 MiB
    Wavefunctions: 321.38 MiB
      Arrays psit_nG: 285.59 MiB
      Eigensolver: 18.49 MiB
      Projections: 5.41 MiB
      Projectors: 8.92 MiB
      PW-descriptor: 2.96 MiB

Total number of cores used: 32
Parallelization over k-points: 16
Domain decomposition: 2 x 1 x 1

Number of atoms: 28
Number of atomic orbitals: 148
Number of bands in calculation: 112
Number of valence electrons: 180
Bands to converge: occupied

... initialized

Initializing position-dependent things.

Density initialized from atomic densities
Creating initial wave functions:
  112 bands from LCAO basis set

                                           
                                           
                                           
                                           
                                           
               O     O  P  O               
            PO           OMn     O         
                  O          MO            
            O        Li O                  
             Mn  On          OP            
         O         Li O                    
         Li     O P         O              
       Li                                  
                                           
                                           
                                           
                                           

Positions:
   0 O     -1.263197   -2.497779   -1.098475    ( 0.0000,  0.0000,  0.0000)
   1 O     -3.070823    2.922496    1.209491    ( 0.0000,  0.0000,  0.0000)
   2 O      1.985541    0.474863    1.428016    ( 0.0000,  0.0000,  0.0000)
   3 O      3.793120   -0.050100   -0.879950    ( 0.0000,  0.0000,  0.0000)
   4 O      1.985518    2.922485    1.428149    ( 0.0000,  0.0000,  0.0000)
   5 O      3.803144   -2.497790   -0.879818    ( 0.0000,  0.0000,  0.0000)
   6 O     -1.263220   -0.050157   -1.098342    ( 0.0000,  0.0000,  0.0000)
   7 O     -3.070798    0.474805    1.209623    ( 0.0000,  0.0000,  0.0000)
   8 O     -4.167835   -1.273920   -0.862116    ( 0.0000,  0.0000,  0.0000)
   9 O     -0.166037    1.698602    1.445528    ( 0.0000,  0.0000,  0.0000)
  10 O      4.890156    1.698625    1.191790    ( 0.0000,  0.0000,  0.0000)
  11 O      0.888358   -1.273896   -1.115855    ( 0.0000,  0.0000,  0.0000)
  12 Mn    -2.445557   -1.274211    0.312921    ( 0.0000,  0.0000,  1.0000)
  13 Mn    -1.888303    1.698892   -1.994948    ( 0.0000,  0.0000, -1.0000)
  14 Mn     3.167879    1.698917    0.016752    ( 0.0000,  0.0000, -1.0000)
  15 Mn     2.610624   -1.274187    2.324621    ( 0.0000,  0.0000,  1.0000)
  16 P     -0.529549   -1.273917   -1.724376    ( 0.0000,  0.0000,  0.0000)
  17 P     -3.804359    1.698599    0.583463    ( 0.0000,  0.0000,  0.0000)
  18 P      1.251870    1.698623    2.054050    ( 0.0000,  0.0000,  0.0000)
  19 P      4.526680   -1.273894   -0.253789    ( 0.0000,  0.0000,  0.0000)
  20 O     -0.544227   -1.273926    1.365380    ( 0.0000,  0.0000,  0.0000)
  21 O     -3.789411    1.698610   -0.942222    ( 0.0000,  0.0000,  0.0000)
  22 O      1.266548    1.698631   -1.035707    ( 0.0000,  0.0000,  0.0000)
  23 O      4.511733   -1.273905    1.271895    ( 0.0000,  0.0000,  0.0000)
  24 Li    -4.695087   -2.760584   -2.142877    ( 0.0000,  0.0000,  0.0000)
  25 Li     0.361147   -2.760561    0.164836    ( 0.0000,  0.0000,  0.0000)
  26 Li    -4.695074    0.212330   -2.142877    ( 0.0000,  0.0000,  0.0000)
  27 Li     0.361161    0.212353    0.164837    ( 0.0000,  0.0000,  0.0000)

Unit cell:
           periodic     x           y           z      points  spacing
  1. axis:    yes   10.112485    0.000045   -0.000035    60     0.1685
  2. axis:    yes    0.000026    5.945827    0.000001    35     0.1699
  3. axis:    yes   -0.000016    0.000000    4.615463    27     0.1709

  Lengths:  10.112485   5.945827   4.615463
  Angles:   89.999989  90.000396  89.999490

Effective grid spacing dv^(1/3) = 0.1698

                     log10-error:           total        iterations:
           time      wfs    density  force  energy       poisson  magmom
iter:   1  04:16:34                       -221.380897             +0.0000
iter:   2  04:17:11  -0.61  -0.93         -234.855931             +0.0000
iter:   3  04:17:48  -0.37  -0.97         -225.917510             -0.0000
iter:   4  04:18:26  -1.39  -1.29         -225.761148             +0.0000
iter:   5  04:19:03  -1.26  -1.39         -227.339970             +0.0000
iter:   6  04:19:40  -1.46  -1.46         -225.737077             +0.0000
iter:   7  04:20:18  -2.47  -2.04         -225.725393             +0.0000
iter:   8  04:20:55  -2.16  -1.99         -225.580562             +0.0000
iter:   9  04:21:32  -2.48  -2.10         -225.432431             +0.0000
iter:  10  04:22:10  -3.30  -2.54         -225.421951             +0.0000
iter:  11  04:22:47  -3.62  -2.81         -225.411445             +0.0000
iter:  12  04:23:24  -4.17  -3.06         -225.410444             +0.0000
iter:  13  04:24:02  -5.15  -3.30         -225.410352             -0.0000
iter:  14  04:24:39  -5.38  -3.32         -225.410167             -0.0000
iter:  15  04:25:16  -6.01  -3.43         -225.410179             -0.0000
iter:  16  04:25:53  -5.24  -3.47         -225.410518             +0.0000
iter:  17  04:26:31  -5.83  -3.57         -225.410406             -0.0000
iter:  18  04:27:08  -5.36  -3.70         -225.410139             +0.0000
iter:  19  04:27:45  -6.41  -4.04         -225.410143             +0.0000
iter:  20  04:28:22  -7.03  -4.29         -225.410143             +0.0000
iter:  21  04:29:00  -7.00  -4.33         -225.410132             +0.0000
iter:  22  04:29:47  -7.49  -4.34         -225.410128             +0.0000
iter:  23  04:30:34  -7.73  -4.38    -2.68-225.410127             +0.0000
iter:  24  04:31:21  -8.16  -4.47    -2.99-225.410126             +0.0000
iter:  25  04:32:08  -8.14  -4.52    -2.68-225.410126             +0.0000
iter:  26  04:32:55  -8.22  -4.66    -2.56-225.410126             +0.0000
iter:  27  04:33:42  -8.20  -4.86    -3.17-225.410126             +0.0000
iter:  28  04:34:28  -8.56  -4.93    -3.16-225.410125             +0.0000
iter:  29  04:35:15  -8.14  -5.01    -2.84-225.410125             +0.0000
iter:  30  04:36:02  -8.61  -5.12    -3.08-225.410126             +0.0000
iter:  31  04:36:49  -9.42  -5.19    -3.92-225.410125             +0.0000
iter:  32  04:37:36  -9.06  -5.23    -3.63-225.410125             +0.0000
iter:  33  04:38:23  -9.07  -5.28    -3.48-225.410125             +0.0000
iter:  34  04:39:10  -9.33  -5.59    -3.36-225.410125             +0.0000
iter:  35  04:39:57  -9.76  -5.85    -3.78-225.410125             +0.0000
iter:  36  04:40:44  -9.93  -5.92    -3.74-225.410125             +0.0000
iter:  37  04:41:31 -11.01  -6.14    -4.25-225.410125             +0.0000
iter:  38  04:42:18 -10.47  -6.16    -4.47-225.410125             +0.0000
iter:  39  04:43:05 -11.08  -6.18    -4.15-225.410125             +0.0000
iter:  40  04:43:52 -11.57  -6.25    -4.56-225.410125             +0.0000
iter:  41  04:44:39 -11.40  -6.37    -4.56-225.410125             +0.0000
iter:  42  04:45:26 -11.15  -6.43    -4.06-225.410125             +0.0000
iter:  43  04:46:13 -11.69  -6.66    -5.02-225.410125             +0.0000
iter:  44  04:47:00 -11.97  -6.78    -5.04-225.410125             +0.0000
iter:  45  04:47:47 -11.66  -6.91    -4.59-225.410125             +0.0000
iter:  46  04:48:34 -12.57  -7.04    -4.77-225.410125             +0.0000
iter:  47  04:49:21 -12.92  -7.18    -5.26-225.410125             +0.0000
iter:  48  04:50:08 -13.00  -7.22    -4.93-225.410125             +0.0000
iter:  49  04:50:55 -13.34  -7.49    -5.76-225.410125             +0.0000
iter:  50  04:51:41 -14.90  -7.67    -6.18-225.410125             +0.0000

Converged after 50 iterations.

Dipole moment: (19.047723, -1.428619, -4.185303) |e|*Ang

Total magnetic moment: (0.000000, 0.000000, 0.000000)
Local magnetic moments:
   0 O  ( 0.000000,  0.000000,  0.000651)
   1 O  ( 0.000000,  0.000000, -0.000685)
   2 O  ( 0.000000,  0.000000, -0.000622)
   3 O  ( 0.000000,  0.000000,  0.000649)
   4 O  ( 0.000000,  0.000000, -0.000652)
   5 O  ( 0.000000,  0.000000,  0.000645)
   6 O  ( 0.000000,  0.000000,  0.000647)
   7 O  ( 0.000000,  0.000000, -0.000678)
   8 O  ( 0.000000,  0.000000,  0.022459)
   9 O  ( 0.000000,  0.000000, -0.022330)
  10 O  ( 0.000000,  0.000000, -0.022387)
  11 O  ( 0.000000,  0.000000,  0.022355)
  12 Mn ( 0.000000,  0.000000,  4.575066)
  13 Mn ( 0.000000,  0.000000, -4.575043)
  14 Mn ( 0.000000,  0.000000, -4.575574)
  15 Mn ( 0.000000,  0.000000,  4.575410)
  16 P  ( 0.000000,  0.000000,  0.000806)
  17 P  ( 0.000000,  0.000000, -0.000808)
  18 P  ( 0.000000,  0.000000, -0.000822)
  19 P  ( 0.000000,  0.000000,  0.000801)
  20 O  ( 0.000000,  0.000000,  0.020680)
  21 O  ( 0.000000,  0.000000, -0.020725)
  22 O  ( 0.000000,  0.000000, -0.020667)
  23 O  ( 0.000000,  0.000000,  0.020725)
  24 Li ( 0.000000,  0.000000, -0.000005)
  25 Li ( 0.000000,  0.000000,  0.000000)
  26 Li ( 0.000000,  0.000000,  0.000004)
  27 Li ( 0.000000,  0.000000, -0.000001)

Energy contributions relative to reference atoms: (reference = -196157.275402)

Kinetic:       +297.101650
Potential:     -256.580624
External:        +0.000000
XC:            -267.711591
Entropy (-ST):   -0.000000
Local:           +1.780440
--------------------------
Free energy:   -225.410125
Extrapolated:  -225.410125

Spin contamination: 9.697750 electrons
Showing only first 2 kpts
                      Up                     Down
 Kpt  Band  Eigenvalues  Occupancy  Eigenvalues  Occupancy
  0    88      5.10722    0.00694      5.10516    0.00694
  0    89      5.16121    0.00694      5.15767    0.00694
  0    90      9.64639    0.00000      9.65193    0.00000
  0    91      9.67138    0.00000      9.66661    0.00000

  1    88      5.11839    0.00694      5.11674    0.00694
  1    89      5.17095    0.00694      5.16698    0.00694
  1    90      9.52777    0.00000      9.52998    0.00000
  1    91      9.54592    0.00000      9.54144    0.00000


Fermi level: 6.36976

Gap: 3.794 eV
Transition (v -> c):
  (s=0, k=68, n=89, [-0.08, 0.42, -0.38]) -> (s=1, k=81, n=90, [0.08, -0.08, -0.12])
Writing to born-0.01-5x+.gpw (mode='all')

Timing:                              incl.     excl.
-----------------------------------------------------------
Hamiltonian:                         0.417     0.002   0.0% |
 Atomic:                             0.065     0.065   0.0% |
  XC Correction:                     0.000     0.000   0.0% |
 Calculate atomic Hamiltonians:      0.170     0.170   0.0% |
 Communicate:                        0.009     0.009   0.0% |
 Initialize Hamiltonian:             0.000     0.000   0.0% |
 Poisson:                            0.002     0.002   0.0% |
 XC 3D grid:                         0.168     0.168   0.0% |
LCAO initialization:               150.810     0.676   0.0% |
 LCAO eigensolver:                  40.545     0.003   0.0% |
  Calculate projections:             0.057     0.057   0.0% |
  DenseAtomicCorrection:             0.083     0.083   0.0% |
  Distribute overlap matrix:         0.227     0.227   0.0% |
  Orbital Layouts:                   0.362     0.362   0.0% |
  Potential matrix:                 39.725    39.725   0.7% |
  Sum over cells:                    0.090     0.090   0.0% |
 LCAO to grid:                     107.170   107.170   2.0% ||
 Set positions (LCAO WFS):           2.419     0.370   0.0% |
  Basic WFS set positions:           0.001     0.001   0.0% |
  Basis functions set positions:     0.000     0.000   0.0% |
  P tci:                             1.079     1.079   0.0% |
  ST tci:                            0.708     0.708   0.0% |
  mktci:                             0.260     0.260   0.0% |
PWDescriptor:                        0.025     0.025   0.0% |
SCF-cycle:                        2150.378     6.259   0.1% |
 Davidson:                        1762.947   560.533  10.3% |---|
  Apply H:                         130.128   125.850   2.3% ||
   HMM T:                            4.278     4.278   0.1% |
  Subspace diag:                   263.163     0.161   0.0% |
   calc_h_matrix:                  173.217    45.577   0.8% |
    Apply H:                       127.640   123.624   2.3% ||
     HMM T:                          4.017     4.017   0.1% |
   diagonalize:                      6.122     6.122   0.1% |
   rotate_psi:                      83.664    83.664   1.5% ||
  calc. matrices:                  555.335   304.470   5.6% |-|
   Apply H:                        250.865   243.370   4.5% |-|
    HMM T:                           7.495     7.495   0.1% |
  diagonalize:                      83.551    83.551   1.5% ||
  rotate_psi:                      170.237   170.237   3.1% ||
 Density:                           73.774     0.001   0.0% |
  Atomic density matrices:           1.287     1.287   0.0% |
  Mix:                              11.275    11.275   0.2% |
  Multipole moments:                 0.029     0.029   0.0% |
  Pseudo density:                   61.182    61.181   1.1% |
   Symmetrize density:               0.001     0.001   0.0% |
 Forces:                           283.012   283.012   5.2% |-|
 Hamiltonian:                       20.328     0.118   0.0% |
  Atomic:                            2.954     2.953   0.1% |
   XC Correction:                    0.000     0.000   0.0% |
  Calculate atomic Hamiltonians:     8.310     8.310   0.2% |
  Communicate:                       0.084     0.084   0.0% |
  Poisson:                           0.077     0.077   0.0% |
  XC 3D grid:                        8.784     8.784   0.2% |
 Orthonormalize:                     4.057     0.004   0.0% |
  calc_s_matrix:                     0.483     0.483   0.0% |
  inverse-cholesky:                  0.055     0.055   0.0% |
  projections:                       2.656     2.656   0.0% |
  rotate_psi_s:                      0.859     0.859   0.0% |
Set symmetry:                        0.000     0.000   0.0% |
Other:                            3165.733  3165.733  57.9% |----------------------|
-----------------------------------------------------------
Total:                                      5467.362 100.0%

Memory usage: 12.58 GiB
Date: Mon Mar 22 05:44:25 2021
