
  ___ ___ ___ _ _ _  
 |   |   |_  | | | | 
 | | | | | . | | | | 
 |__ |  _|___|_____|  20.10.1b1
 |___|_|             

User:   madkru@g035.nifl.fysik.dtu.dk
Date:   Sun Mar 21 03:54:10 2021
Arch:   x86_64
Pid:    44316
Python: 3.7.4
gpaw:   /home/niflheim/madkru/venv_folder/gpaw/gpaw (d0d1ca1c71)
_gpaw:  /home/niflheim/madkru/venv_folder/gpaw/build/lib.linux-x86_64-sandybridge-3.7/
        _gpaw.cpython-37m-x86_64-linux-gnu.so (4fd39e8b1e)
ase:    /home/niflheim/madkru/venv_folder/ase/ase (version 3.21.0b1-7e6c206a91)
numpy:  /home/niflheim/madkru/venv_folder/lib/python3.7/site-packages/numpy (version 1.19.4)
scipy:  /home/niflheim/madkru/venv_folder/lib/python3.7/site-packages/scipy (version 1.5.4)
libxc:  4.3.4
units:  Angstrom and eV
cores: 32
OMP_NUM_THREADS: 1

Input parameters:
  convergence: {bands: occupied,
                density: 0.0001,
                eigenstates: 4e-08,
                energy: 0.0005,
                forces: 1e-06}
  kpts: [6 6 4]
  mode: {ecut: 600.0,
         gammacentered: False,
         name: pw}
  occupations: {fixmagmom: False,
                name: fermi-dirac,
                width: 0.001}
  setups: {Mn: :d,3.0}
  symmetry: {point_group: False,
             time_reversal: False}

System changes: positions, numbers, cell, pbc, initial_charges, initial_magmoms 

Initialize ...

O-setup:
  name: Oxygen
  id: 9b9d51c344dea68c822856295a461509
  Z: 8.0
  valence: 6
  core: 2
  charge: 0.0
  file: /home/modules/software/GPAW-setups/0.9.20000/O.LDA.gz
  compensation charges: gauss, rc=0.21, lmax=2
  cutoffs: 1.17(filt), 0.83(core),
  valence states:
                energy  radius
    2s(2.00)   -23.752   0.688
    2p(4.00)    -9.195   0.598
    *s           3.459   0.688
    *p          18.016   0.598
    *d           0.000   0.619

  Using partial waves for O as LCAO basis

Mn-setup:
  name: Manganese
  id: 0d715a8018be061a6e9ea6f2d364ac92
  Z: 25.0
  valence: 15
  core: 10
  charge: 0.0
  Hubbard U: 3.000000 eV (l=2, scale=True)
  file: /home/modules/software/GPAW-setups/0.9.20000/Mn.LDA.gz
  compensation charges: gauss, rc=0.38, lmax=2
  cutoffs: 2.14(filt), 0.86(core),
  valence states:
                energy  radius
    3s(2.00)   -85.387   1.275
    4s(2.00)    -5.282   1.275
    3p(6.00)   -54.493   1.281
    4p(0.00)    -1.471   1.281
    3d(5.00)    -7.009   1.138
    *d          20.203   1.138

  Using partial waves for Mn as LCAO basis

P-setup:
  name: Phosphorus
  id: a5561c299094968922a179ab894d2e2d
  Z: 15.0
  valence: 5
  core: 10
  charge: 0.0
  file: /home/modules/software/GPAW-setups/0.9.20000/P.LDA.gz
  compensation charges: gauss, rc=0.30, lmax=2
  cutoffs: 1.69(filt), 1.81(core),
  valence states:
                energy  radius
    3s(2.00)   -14.015   0.953
    3p(3.00)    -5.596   0.953
    *s          13.197   0.953
    *p          21.615   0.953
    *d           0.000   0.953

  Using partial waves for P as LCAO basis

Li-setup:
  name: Lithium
  id: b73562207f97a71b6967473b66fe8b65
  Z: 3.0
  valence: 1
  core: 2
  charge: 0.0
  file: /home/modules/software/GPAW-setups/0.9.20000/Li.LDA.gz
  compensation charges: gauss, rc=0.33, lmax=2
  cutoffs: 1.91(filt), 2.55(core),
  valence states:
                energy  radius
    2s(1.00)    -2.874   1.058
    2p(0.00)    -1.126   1.058
    *s          24.338   1.058

  Using partial waves for Li as LCAO basis

Reference energy: -196157.275402

Spin-polarized calculation.
Magnetic moment: 0.000000

Convergence criteria:
  Maximum total energy change: 0.0005 eV / electron
  Maximum integral of absolute density change: 0.0001 electrons
  Maximum integral of absolute eigenstate change: 4e-08 eV^2
  Maximum change in atomic force: 1e-06 eV / Ang
  Maximum number of iterations: 333

Symmetries present (total): 1

  ( 1  0  0)
  ( 0  1  0)
  ( 0  0  1)

144 k-points: 6 x 6 x 4 Monkhorst-Pack grid
144 k-points in the irreducible part of the Brillouin zone
       k-points in crystal coordinates                weights
   0:    -0.41666667   -0.41666667   -0.37500000          1/144
   1:    -0.41666667   -0.41666667   -0.12500000          1/144
   2:    -0.41666667   -0.41666667    0.12500000          1/144
   3:    -0.41666667   -0.41666667    0.37500000          1/144
   4:    -0.41666667   -0.25000000   -0.37500000          1/144
   5:    -0.41666667   -0.25000000   -0.12500000          1/144
   6:    -0.41666667   -0.25000000    0.12500000          1/144
   7:    -0.41666667   -0.25000000    0.37500000          1/144
   8:    -0.41666667   -0.08333333   -0.37500000          1/144
   9:    -0.41666667   -0.08333333   -0.12500000          1/144
          ...
 143:     0.41666667    0.41666667    0.37500000          1/144

Wave functions: Plane wave expansion
  Cutoff energy: 600.000 eV
  Number of coefficients (min, max): 9238, 9284
  Pulay-stress correction: 0.000000 eV/Ang^3 (de/decut=0.000000)
  Using FFTW library
  ScaLapack parameters: grid=1x1, blocksize=None
  Wavefunction extrapolation:
    Improved wavefunction reuse through dual PAW basis 

  Fermi-Dirac: width=0.0010 eV

Eigensolver
   Davidson(niter=2, smin=None, normalize=True) 

Densities:
  Coarse grid: 60*35*27 grid
  Fine grid: 120*70*54 grid
  Total Charge: 0.000000 

Density mixing:
  Method: difference
  Backend: pulay
  Linear mixing parameter: 0.05
  Mixing with 5 old densities
  Damping of long wave oscillations: 50 

Hamiltonian:
  XC and Coulomb potentials evaluated on a 120*70*54 grid
  Using the LDA Exchange-Correlation functional
 

Memory estimate:
  Process memory now: 127.34 MiB
  Calculator: 346.50 MiB
    Density: 19.24 MiB
      Arrays: 7.57 MiB
      Localized functions: 8.64 MiB
      Mixer: 3.03 MiB
    Hamiltonian: 5.87 MiB
      Arrays: 5.62 MiB
      XC: 0.00 MiB
      Poisson: 0.00 MiB
      vbar: 0.25 MiB
    Wavefunctions: 321.38 MiB
      Arrays psit_nG: 285.59 MiB
      Eigensolver: 18.49 MiB
      Projections: 5.41 MiB
      Projectors: 8.92 MiB
      PW-descriptor: 2.96 MiB

Total number of cores used: 32
Parallelization over k-points: 16
Domain decomposition: 2 x 1 x 1

Number of atoms: 28
Number of atomic orbitals: 148
Number of bands in calculation: 112
Number of valence electrons: 180
Bands to converge: occupied

... initialized

Initializing position-dependent things.

Density initialized from atomic densities
Creating initial wave functions:
  112 bands from LCAO basis set

                                           
                                           
                                           
                                           
                                           
               O     O  P  O               
            PO           OMn     O         
                  O          MO            
            O        Li O                  
             Mn  On          OP            
         O         Li O                    
         Li     O P         O              
       Li                                  
                                           
                                           
                                           
                                           

Positions:
   0 O     -1.273197   -2.497779   -1.098475    ( 0.0000,  0.0000,  0.0000)
   1 O     -3.070823    2.922496    1.209491    ( 0.0000,  0.0000,  0.0000)
   2 O      1.985541    0.474863    1.428016    ( 0.0000,  0.0000,  0.0000)
   3 O      3.793120   -0.050100   -0.879950    ( 0.0000,  0.0000,  0.0000)
   4 O      1.985518    2.922485    1.428149    ( 0.0000,  0.0000,  0.0000)
   5 O      3.793144   -2.497790   -0.879818    ( 0.0000,  0.0000,  0.0000)
   6 O     -1.263220   -0.050157   -1.098342    ( 0.0000,  0.0000,  0.0000)
   7 O     -3.070798    0.474805    1.209623    ( 0.0000,  0.0000,  0.0000)
   8 O     -4.167835   -1.273920   -0.862116    ( 0.0000,  0.0000,  0.0000)
   9 O     -0.166037    1.698602    1.445528    ( 0.0000,  0.0000,  0.0000)
  10 O      4.890156    1.698625    1.191790    ( 0.0000,  0.0000,  0.0000)
  11 O      0.888358   -1.273896   -1.115855    ( 0.0000,  0.0000,  0.0000)
  12 Mn    -2.445557   -1.274211    0.312921    ( 0.0000,  0.0000,  1.0000)
  13 Mn    -1.888303    1.698892   -1.994948    ( 0.0000,  0.0000, -1.0000)
  14 Mn     3.167879    1.698917    0.016752    ( 0.0000,  0.0000, -1.0000)
  15 Mn     2.610624   -1.274187    2.324621    ( 0.0000,  0.0000,  1.0000)
  16 P     -0.529549   -1.273917   -1.724376    ( 0.0000,  0.0000,  0.0000)
  17 P     -3.804359    1.698599    0.583463    ( 0.0000,  0.0000,  0.0000)
  18 P      1.251870    1.698623    2.054050    ( 0.0000,  0.0000,  0.0000)
  19 P      4.526680   -1.273894   -0.253789    ( 0.0000,  0.0000,  0.0000)
  20 O     -0.544227   -1.273926    1.365380    ( 0.0000,  0.0000,  0.0000)
  21 O     -3.789411    1.698610   -0.942222    ( 0.0000,  0.0000,  0.0000)
  22 O      1.266548    1.698631   -1.035707    ( 0.0000,  0.0000,  0.0000)
  23 O      4.511733   -1.273905    1.271895    ( 0.0000,  0.0000,  0.0000)
  24 Li    -4.695087   -2.760584   -2.142877    ( 0.0000,  0.0000,  0.0000)
  25 Li     0.361147   -2.760561    0.164836    ( 0.0000,  0.0000,  0.0000)
  26 Li    -4.695074    0.212330   -2.142877    ( 0.0000,  0.0000,  0.0000)
  27 Li     0.361161    0.212353    0.164837    ( 0.0000,  0.0000,  0.0000)

Unit cell:
           periodic     x           y           z      points  spacing
  1. axis:    yes   10.112485    0.000045   -0.000035    60     0.1685
  2. axis:    yes    0.000026    5.945827    0.000001    35     0.1699
  3. axis:    yes   -0.000016    0.000000    4.615463    27     0.1709

  Lengths:  10.112485   5.945827   4.615463
  Angles:   89.999989  90.000396  89.999490

Effective grid spacing dv^(1/3) = 0.1698

                     log10-error:           total        iterations:
           time      wfs    density  force  energy       poisson  magmom
iter:   1  03:57:14                       -221.372054             +0.0000
iter:   2  03:57:52  -0.61  -0.93         -234.815106             +0.0000
iter:   3  03:58:29  -0.37  -0.97         -225.905544             -0.0000
iter:   4  03:59:07  -1.39  -1.29         -225.761057             +0.0000
iter:   5  03:59:44  -1.27  -1.39         -227.318394             +0.0000
iter:   6  04:00:22  -1.47  -1.46         -225.736711             +0.0000
iter:   7  04:00:59  -2.48  -2.04         -225.723180             +0.0000
iter:   8  04:01:37  -2.13  -1.99         -225.600269             +0.0000
iter:   9  04:02:14  -2.44  -2.08         -225.431381             +0.0000
iter:  10  04:02:52  -3.32  -2.55         -225.421960             +0.0000
iter:  11  04:03:29  -3.68  -2.81         -225.411719             +0.0000
iter:  12  04:04:07  -4.12  -3.03         -225.410496             +0.0000
iter:  13  04:04:44  -5.08  -3.29         -225.410345             -0.0000
iter:  14  04:05:22  -5.39  -3.32         -225.410185             -0.0000
iter:  15  04:05:59  -6.08  -3.43         -225.410186             -0.0000
iter:  16  04:06:37  -5.38  -3.47         -225.410418             +0.0000
iter:  17  04:07:14  -5.77  -3.62         -225.410348             -0.0000
iter:  18  04:07:52  -5.59  -3.77         -225.410140             +0.0000
iter:  19  04:08:29  -6.08  -3.92         -225.410136             +0.0000
iter:  20  04:09:06  -6.79  -4.06         -225.410117             -0.0000
iter:  21  04:09:44  -7.07  -4.19         -225.410134             +0.0000
iter:  22  04:10:21  -7.14  -4.30         -225.410134             +0.0000
iter:  23  04:11:08  -7.88  -4.28         -225.410131             +0.0000
iter:  24  04:11:56  -7.71  -4.30    -2.48-225.410134             +0.0000
iter:  25  04:12:43  -7.45  -4.62    -2.75-225.410132             +0.0000
iter:  26  04:13:30  -8.04  -4.81    -3.16-225.410131             +0.0000
iter:  27  04:14:17  -8.67  -4.86    -3.05-225.410131             +0.0000
iter:  28  04:15:05  -8.40  -4.92    -2.70-225.410131             +0.0000
iter:  29  04:15:52  -9.04  -5.14    -3.26-225.410131             +0.0000
iter:  30  04:16:39  -8.60  -5.24    -3.29-225.410131             +0.0000
iter:  31  04:17:26  -9.20  -5.49    -3.47-225.410131             +0.0000
iter:  32  04:18:13  -9.99  -5.70    -3.81-225.410131             +0.0000
iter:  33  04:19:00  -9.69  -5.74    -3.82-225.410131             +0.0000
iter:  34  04:19:47 -10.04  -5.83    -4.08-225.410131             +0.0000
iter:  35  04:20:35  -9.66  -5.87    -3.52-225.410131             +0.0000
iter:  36  04:21:22 -10.09  -6.24    -4.17-225.410131             +0.0000
iter:  37  04:22:09 -11.48  -6.43    -4.74-225.410131             +0.0000
iter:  38  04:22:56 -10.27  -6.45    -4.26-225.410131             +0.0000
iter:  39  04:23:43 -11.62  -6.52    -4.55-225.410131             +0.0000
iter:  40  04:24:30 -11.48  -6.69    -4.74-225.410131             +0.0000
iter:  41  04:25:17 -11.57  -6.81    -5.01-225.410131             +0.0000
iter:  42  04:26:04 -11.61  -6.87    -4.66-225.410131             +0.0000
iter:  43  04:26:51 -11.63  -7.25    -4.95-225.410131             +0.0000
iter:  44  04:27:38 -13.23  -7.40    -5.51-225.410131             +0.0000
iter:  45  04:28:26 -13.47  -7.49    -5.36-225.410131             +0.0000
iter:  46  04:29:13 -13.16  -7.67    -5.72-225.410131             +0.0000
iter:  47  04:30:00 -13.42  -7.86    -5.73-225.410131             +0.0000
iter:  48  04:30:47 -13.73  -7.88    -5.73-225.410131             +0.0000
iter:  49  04:31:34 -14.74  -8.14    -5.96-225.410131             +0.0000
iter:  50  04:32:21 -15.12  -8.34    -6.07-225.410131             +0.0000

Converged after 50 iterations.

Dipole moment: (19.046852, -1.424440, -4.182173) |e|*Ang

Total magnetic moment: (0.000000, 0.000000, 0.000000)
Local magnetic moments:
   0 O  ( 0.000000,  0.000000,  0.000693)
   1 O  ( 0.000000,  0.000000, -0.000684)
   2 O  ( 0.000000,  0.000000, -0.000650)
   3 O  ( 0.000000,  0.000000,  0.000681)
   4 O  ( 0.000000,  0.000000, -0.000652)
   5 O  ( 0.000000,  0.000000,  0.000685)
   6 O  ( 0.000000,  0.000000,  0.000680)
   7 O  ( 0.000000,  0.000000, -0.000706)
   8 O  ( 0.000000,  0.000000,  0.022381)
   9 O  ( 0.000000,  0.000000, -0.022348)
  10 O  ( 0.000000,  0.000000, -0.022405)
  11 O  ( 0.000000,  0.000000,  0.022277)
  12 Mn ( 0.000000,  0.000000,  4.574677)
  13 Mn ( 0.000000,  0.000000, -4.574517)
  14 Mn ( 0.000000,  0.000000, -4.575058)
  15 Mn ( 0.000000,  0.000000,  4.575033)
  16 P  ( 0.000000,  0.000000,  0.000829)
  17 P  ( 0.000000,  0.000000, -0.000807)
  18 P  ( 0.000000,  0.000000, -0.000821)
  19 P  ( 0.000000,  0.000000,  0.000822)
  20 O  ( 0.000000,  0.000000,  0.020693)
  21 O  ( 0.000000,  0.000000, -0.020750)
  22 O  ( 0.000000,  0.000000, -0.020692)
  23 O  ( 0.000000,  0.000000,  0.020738)
  24 Li ( 0.000000,  0.000000, -0.000000)
  25 Li ( 0.000000,  0.000000,  0.000005)
  26 Li ( 0.000000,  0.000000,  0.000001)
  27 Li ( 0.000000,  0.000000, -0.000004)

Energy contributions relative to reference atoms: (reference = -196157.275402)

Kinetic:       +296.582085
Potential:     -256.187544
External:        +0.000000
XC:            -267.585734
Entropy (-ST):   -0.000000
Local:           +1.781062
--------------------------
Free energy:   -225.410131
Extrapolated:  -225.410131

Spin contamination: 9.696717 electrons
Showing only first 2 kpts
                      Up                     Down
 Kpt  Band  Eigenvalues  Occupancy  Eigenvalues  Occupancy
  0    88      5.10921    0.00694      5.11295    0.00694
  0    89      5.16321    0.00694      5.16507    0.00694
  0    90      9.65211    0.00000      9.65574    0.00000
  0    91      9.67741    0.00000      9.67085    0.00000

  1    88      5.12056    0.00694      5.12454    0.00694
  1    89      5.17284    0.00694      5.17439    0.00694
  1    90      9.53359    0.00000      9.53780    0.00000
  1    91      9.55177    0.00000      9.54903    0.00000


Fermi level: 6.37011

Gap: 3.792 eV
Transition (v -> c):
  (s=1, k=72, n=89, [0.08, -0.42, -0.38]) -> (s=0, k=86, n=90, [0.08, 0.08, 0.12])
Writing to born-0.01-0x-.gpw (mode='all')

Timing:                              incl.     excl.
-----------------------------------------------------------
Hamiltonian:                         0.412     0.002   0.0% |
 Atomic:                             0.060     0.060   0.0% |
  XC Correction:                     0.000     0.000   0.0% |
 Calculate atomic Hamiltonians:      0.173     0.173   0.0% |
 Communicate:                        0.000     0.000   0.0% |
 Initialize Hamiltonian:             0.000     0.000   0.0% |
 Poisson:                            0.002     0.002   0.0% |
 XC 3D grid:                         0.174     0.174   0.0% |
LCAO initialization:               142.309     0.679   0.0% |
 LCAO eigensolver:                  39.729     0.004   0.0% |
  Calculate projections:             0.057     0.057   0.0% |
  DenseAtomicCorrection:             0.083     0.083   0.0% |
  Distribute overlap matrix:         0.428     0.428   0.0% |
  Orbital Layouts:                   0.345     0.345   0.0% |
  Potential matrix:                 38.710    38.710   0.7% |
  Sum over cells:                    0.103     0.103   0.0% |
 LCAO to grid:                      99.470    99.470   1.9% ||
 Set positions (LCAO WFS):           2.431     0.374   0.0% |
  Basic WFS set positions:           0.002     0.002   0.0% |
  Basis functions set positions:     0.000     0.000   0.0% |
  P tci:                             1.119     1.119   0.0% |
  ST tci:                            0.718     0.718   0.0% |
  mktci:                             0.218     0.218   0.0% |
PWDescriptor:                        0.026     0.026   0.0% |
SCF-cycle:                        2146.615     8.592   0.2% |
 Davidson:                        1766.353   560.293  10.7% |---|
  Apply H:                         130.574   126.787   2.4% ||
   HMM T:                            3.787     3.787   0.1% |
  Subspace diag:                   264.160     0.158   0.0% |
   calc_h_matrix:                  174.689    45.471   0.9% |
    Apply H:                       129.217   125.550   2.4% ||
     HMM T:                          3.667     3.667   0.1% |
   diagonalize:                      5.931     5.931   0.1% |
   rotate_psi:                      83.383    83.383   1.6% ||
  calc. matrices:                  558.696   304.533   5.8% |-|
   Apply H:                        254.163   247.032   4.7% |-|
    HMM T:                           7.131     7.131   0.1% |
  diagonalize:                      83.175    83.175   1.6% ||
  rotate_psi:                      169.455   169.455   3.2% ||
 Density:                           73.835     0.001   0.0% |
  Atomic density matrices:           1.314     1.314   0.0% |
  Mix:                              11.237    11.237   0.2% |
  Multipole moments:                 0.031     0.031   0.0% |
  Pseudo density:                   61.251    61.250   1.2% |
   Symmetrize density:               0.002     0.002   0.0% |
 Forces:                           273.468   273.468   5.2% |-|
 Hamiltonian:                       20.284     0.122   0.0% |
  Atomic:                            2.924     2.924   0.1% |
   XC Correction:                    0.000     0.000   0.0% |
  Calculate atomic Hamiltonians:     8.320     8.320   0.2% |
  Communicate:                       0.122     0.122   0.0% |
  Poisson:                           0.081     0.081   0.0% |
  XC 3D grid:                        8.715     8.715   0.2% |
 Orthonormalize:                     4.083     0.004   0.0% |
  calc_s_matrix:                     0.486     0.486   0.0% |
  inverse-cholesky:                  0.051     0.051   0.0% |
  projections:                       2.679     2.679   0.1% |
  rotate_psi_s:                      0.863     0.863   0.0% |
Set symmetry:                        0.000     0.000   0.0% |
Other:                            2958.172  2958.172  56.4% |----------------------|
-----------------------------------------------------------
Total:                                      5247.533 100.0%

Memory usage: 11.80 GiB
Date: Sun Mar 21 05:21:37 2021
