
  ___ ___ ___ _ _ _  
 |   |   |_  | | | | 
 | | | | | . | | | | 
 |__ |  _|___|_____|  20.10.1b1
 |___|_|             

User:   madkru@g035.nifl.fysik.dtu.dk
Date:   Mon Mar 22 15:24:25 2021
Arch:   x86_64
Pid:    44316
Python: 3.7.4
gpaw:   /home/niflheim/madkru/venv_folder/gpaw/gpaw (d0d1ca1c71)
_gpaw:  /home/niflheim/madkru/venv_folder/gpaw/build/lib.linux-x86_64-sandybridge-3.7/
        _gpaw.cpython-37m-x86_64-linux-gnu.so (4fd39e8b1e)
ase:    /home/niflheim/madkru/venv_folder/ase/ase (version 3.21.0b1-7e6c206a91)
numpy:  /home/niflheim/madkru/venv_folder/lib/python3.7/site-packages/numpy (version 1.19.4)
scipy:  /home/niflheim/madkru/venv_folder/lib/python3.7/site-packages/scipy (version 1.5.4)
libxc:  4.3.4
units:  Angstrom and eV
cores: 32
OMP_NUM_THREADS: 1

Input parameters:
  convergence: {bands: occupied,
                density: 0.0001,
                eigenstates: 4e-08,
                energy: 0.0005,
                forces: 1e-06}
  kpts: [6 6 4]
  mode: {ecut: 600.0,
         gammacentered: False,
         name: pw}
  occupations: {fixmagmom: False,
                name: fermi-dirac,
                width: 0.001}
  setups: {Mn: :d,3.0}
  symmetry: {point_group: False,
             time_reversal: False}

System changes: positions, numbers, cell, pbc, initial_charges, initial_magmoms 

Initialize ...

O-setup:
  name: Oxygen
  id: 9b9d51c344dea68c822856295a461509
  Z: 8.0
  valence: 6
  core: 2
  charge: 0.0
  file: /home/modules/software/GPAW-setups/0.9.20000/O.LDA.gz
  compensation charges: gauss, rc=0.21, lmax=2
  cutoffs: 1.17(filt), 0.83(core),
  valence states:
                energy  radius
    2s(2.00)   -23.752   0.688
    2p(4.00)    -9.195   0.598
    *s           3.459   0.688
    *p          18.016   0.598
    *d           0.000   0.619

  Using partial waves for O as LCAO basis

Mn-setup:
  name: Manganese
  id: 0d715a8018be061a6e9ea6f2d364ac92
  Z: 25.0
  valence: 15
  core: 10
  charge: 0.0
  Hubbard U: 3.000000 eV (l=2, scale=True)
  file: /home/modules/software/GPAW-setups/0.9.20000/Mn.LDA.gz
  compensation charges: gauss, rc=0.38, lmax=2
  cutoffs: 2.14(filt), 0.86(core),
  valence states:
                energy  radius
    3s(2.00)   -85.387   1.275
    4s(2.00)    -5.282   1.275
    3p(6.00)   -54.493   1.281
    4p(0.00)    -1.471   1.281
    3d(5.00)    -7.009   1.138
    *d          20.203   1.138

  Using partial waves for Mn as LCAO basis

P-setup:
  name: Phosphorus
  id: a5561c299094968922a179ab894d2e2d
  Z: 15.0
  valence: 5
  core: 10
  charge: 0.0
  file: /home/modules/software/GPAW-setups/0.9.20000/P.LDA.gz
  compensation charges: gauss, rc=0.30, lmax=2
  cutoffs: 1.69(filt), 1.81(core),
  valence states:
                energy  radius
    3s(2.00)   -14.015   0.953
    3p(3.00)    -5.596   0.953
    *s          13.197   0.953
    *p          21.615   0.953
    *d           0.000   0.953

  Using partial waves for P as LCAO basis

Li-setup:
  name: Lithium
  id: b73562207f97a71b6967473b66fe8b65
  Z: 3.0
  valence: 1
  core: 2
  charge: 0.0
  file: /home/modules/software/GPAW-setups/0.9.20000/Li.LDA.gz
  compensation charges: gauss, rc=0.33, lmax=2
  cutoffs: 1.91(filt), 2.55(core),
  valence states:
                energy  radius
    2s(1.00)    -2.874   1.058
    2p(0.00)    -1.126   1.058
    *s          24.338   1.058

  Using partial waves for Li as LCAO basis

Reference energy: -196157.275402

Spin-polarized calculation.
Magnetic moment: 0.000000

Convergence criteria:
  Maximum total energy change: 0.0005 eV / electron
  Maximum integral of absolute density change: 0.0001 electrons
  Maximum integral of absolute eigenstate change: 4e-08 eV^2
  Maximum change in atomic force: 1e-06 eV / Ang
  Maximum number of iterations: 333

Symmetries present (total): 1

  ( 1  0  0)
  ( 0  1  0)
  ( 0  0  1)

144 k-points: 6 x 6 x 4 Monkhorst-Pack grid
144 k-points in the irreducible part of the Brillouin zone
       k-points in crystal coordinates                weights
   0:    -0.41666667   -0.41666667   -0.37500000          1/144
   1:    -0.41666667   -0.41666667   -0.12500000          1/144
   2:    -0.41666667   -0.41666667    0.12500000          1/144
   3:    -0.41666667   -0.41666667    0.37500000          1/144
   4:    -0.41666667   -0.25000000   -0.37500000          1/144
   5:    -0.41666667   -0.25000000   -0.12500000          1/144
   6:    -0.41666667   -0.25000000    0.12500000          1/144
   7:    -0.41666667   -0.25000000    0.37500000          1/144
   8:    -0.41666667   -0.08333333   -0.37500000          1/144
   9:    -0.41666667   -0.08333333   -0.12500000          1/144
          ...
 143:     0.41666667    0.41666667    0.37500000          1/144

Wave functions: Plane wave expansion
  Cutoff energy: 600.000 eV
  Number of coefficients (min, max): 9238, 9284
  Pulay-stress correction: 0.000000 eV/Ang^3 (de/decut=0.000000)
  Using FFTW library
  ScaLapack parameters: grid=1x1, blocksize=None
  Wavefunction extrapolation:
    Improved wavefunction reuse through dual PAW basis 

  Fermi-Dirac: width=0.0010 eV

Eigensolver
   Davidson(niter=2, smin=None, normalize=True) 

Densities:
  Coarse grid: 60*35*27 grid
  Fine grid: 120*70*54 grid
  Total Charge: 0.000000 

Density mixing:
  Method: difference
  Backend: pulay
  Linear mixing parameter: 0.05
  Mixing with 5 old densities
  Damping of long wave oscillations: 50 

Hamiltonian:
  XC and Coulomb potentials evaluated on a 120*70*54 grid
  Using the LDA Exchange-Correlation functional
 

Memory estimate:
  Process memory now: 13177.67 MiB
  Calculator: 346.50 MiB
    Density: 19.24 MiB
      Arrays: 7.57 MiB
      Localized functions: 8.64 MiB
      Mixer: 3.03 MiB
    Hamiltonian: 5.87 MiB
      Arrays: 5.62 MiB
      XC: 0.00 MiB
      Poisson: 0.00 MiB
      vbar: 0.25 MiB
    Wavefunctions: 321.38 MiB
      Arrays psit_nG: 285.59 MiB
      Eigensolver: 18.49 MiB
      Projections: 5.41 MiB
      Projectors: 8.92 MiB
      PW-descriptor: 2.96 MiB

Total number of cores used: 32
Parallelization over k-points: 16
Domain decomposition: 2 x 1 x 1

Number of atoms: 28
Number of atomic orbitals: 148
Number of bands in calculation: 112
Number of valence electrons: 180
Bands to converge: occupied

... initialized

Initializing position-dependent things.

Density initialized from atomic densities
Creating initial wave functions:
  112 bands from LCAO basis set

                                           
                                           
                                           
                                           
                                           
               O     O  P  O               
            PO           OMn     O         
                  O          MO            
            O        Li O                  
             Mn  On          OP            
         O         Li O                    
         Li     O P         O              
       Li                                  
                                           
                                           
                                           
                                           

Positions:
   0 O     -1.263197   -2.497779   -1.098475    ( 0.0000,  0.0000,  0.0000)
   1 O     -3.070823    2.922496    1.209491    ( 0.0000,  0.0000,  0.0000)
   2 O      1.985541    0.474863    1.428016    ( 0.0000,  0.0000,  0.0000)
   3 O      3.793120   -0.050100   -0.879950    ( 0.0000,  0.0000,  0.0000)
   4 O      1.985518    2.922485    1.428149    ( 0.0000,  0.0000,  0.0000)
   5 O      3.793144   -2.497790   -0.879818    ( 0.0000,  0.0000,  0.0000)
   6 O     -1.263220   -0.050157   -1.098342    ( 0.0000,  0.0000,  0.0000)
   7 O     -3.070798    0.484805    1.209623    ( 0.0000,  0.0000,  0.0000)
   8 O     -4.167835   -1.273920   -0.862116    ( 0.0000,  0.0000,  0.0000)
   9 O     -0.166037    1.698602    1.445528    ( 0.0000,  0.0000,  0.0000)
  10 O      4.890156    1.698625    1.191790    ( 0.0000,  0.0000,  0.0000)
  11 O      0.888358   -1.273896   -1.115855    ( 0.0000,  0.0000,  0.0000)
  12 Mn    -2.445557   -1.274211    0.312921    ( 0.0000,  0.0000,  1.0000)
  13 Mn    -1.888303    1.698892   -1.994948    ( 0.0000,  0.0000, -1.0000)
  14 Mn     3.167879    1.698917    0.016752    ( 0.0000,  0.0000, -1.0000)
  15 Mn     2.610624   -1.274187    2.324621    ( 0.0000,  0.0000,  1.0000)
  16 P     -0.529549   -1.273917   -1.724376    ( 0.0000,  0.0000,  0.0000)
  17 P     -3.804359    1.698599    0.583463    ( 0.0000,  0.0000,  0.0000)
  18 P      1.251870    1.698623    2.054050    ( 0.0000,  0.0000,  0.0000)
  19 P      4.526680   -1.273894   -0.253789    ( 0.0000,  0.0000,  0.0000)
  20 O     -0.544227   -1.273926    1.365380    ( 0.0000,  0.0000,  0.0000)
  21 O     -3.789411    1.698610   -0.942222    ( 0.0000,  0.0000,  0.0000)
  22 O      1.266548    1.698631   -1.035707    ( 0.0000,  0.0000,  0.0000)
  23 O      4.511733   -1.273905    1.271895    ( 0.0000,  0.0000,  0.0000)
  24 Li    -4.695087   -2.760584   -2.142877    ( 0.0000,  0.0000,  0.0000)
  25 Li     0.361147   -2.760561    0.164836    ( 0.0000,  0.0000,  0.0000)
  26 Li    -4.695074    0.212330   -2.142877    ( 0.0000,  0.0000,  0.0000)
  27 Li     0.361161    0.212353    0.164837    ( 0.0000,  0.0000,  0.0000)

Unit cell:
           periodic     x           y           z      points  spacing
  1. axis:    yes   10.112485    0.000045   -0.000035    60     0.1685
  2. axis:    yes    0.000026    5.945827    0.000001    35     0.1699
  3. axis:    yes   -0.000016    0.000000    4.615463    27     0.1709

  Lengths:  10.112485   5.945827   4.615463
  Angles:   89.999989  90.000396  89.999490

Effective grid spacing dv^(1/3) = 0.1698

                     log10-error:           total        iterations:
           time      wfs    density  force  energy       poisson  magmom
iter:   1  15:27:41                       -221.375059             +0.0000
iter:   2  15:28:18  -0.61  -0.93         -234.851380             +0.0000
iter:   3  15:28:55  -0.37  -0.97         -225.916310             -0.0000
iter:   4  15:29:32  -1.39  -1.29         -225.759965             +0.0000
iter:   5  15:30:10  -1.26  -1.39         -227.336099             +0.0000
iter:   6  15:30:47  -1.46  -1.46         -225.736324             +0.0000
iter:   7  15:31:24  -2.47  -2.04         -225.724274             +0.0000
iter:   8  15:32:01  -2.14  -1.99         -225.587237             +0.0000
iter:   9  15:32:39  -2.47  -2.09         -225.431192             +0.0000
iter:  10  15:33:16  -3.30  -2.54         -225.420888             +0.0000
iter:  11  15:33:53  -3.65  -2.81         -225.410714             +0.0000
iter:  12  15:34:31  -4.11  -3.05         -225.409594             +0.0000
iter:  13  15:35:08  -5.13  -3.29         -225.409482             +0.0000
iter:  14  15:35:45  -5.38  -3.32         -225.409307             +0.0000
iter:  15  15:36:22  -6.00  -3.43         -225.409310             +0.0000
iter:  16  15:37:00  -5.23  -3.47         -225.409648             -0.0000
iter:  17  15:37:37  -5.75  -3.57         -225.409534             +0.0000
iter:  18  15:38:14  -5.22  -3.71         -225.409256             -0.0000
iter:  19  15:38:52  -6.07  -4.13         -225.409259             -0.0000
iter:  20  15:39:29  -7.29  -4.51         -225.409260             +0.0000
iter:  21  15:40:16  -7.52  -4.53         -225.409260             +0.0000
iter:  22  15:41:03  -7.50  -4.62    -2.65-225.409261             -0.0000
iter:  23  15:41:50  -8.24  -4.69    -2.79-225.409260             +0.0000
iter:  24  15:42:37  -8.70  -4.79    -3.56-225.409260             +0.0000
iter:  25  15:43:24  -8.28  -4.86    -2.70-225.409259             +0.0000
iter:  26  15:44:11  -8.23  -4.98    -3.45-225.409259             +0.0000
iter:  27  15:44:58  -9.49  -5.08    -3.69-225.409259             +0.0000
iter:  28  15:45:45  -8.27  -5.11    -2.91-225.409259             -0.0000
iter:  29  15:46:32  -9.20  -5.25    -3.34-225.409259             +0.0000
iter:  30  15:47:18  -9.66  -5.37    -3.38-225.409259             +0.0000
iter:  31  15:48:05  -9.57  -5.48    -3.39-225.409259             +0.0000
iter:  32  15:48:52 -10.29  -5.55    -3.79-225.409259             +0.0000
iter:  33  15:49:39  -9.43  -5.65    -3.64-225.409259             -0.0000
iter:  34  15:50:26 -10.09  -5.53    -4.28-225.409259             +0.0000
iter:  35  15:51:13  -9.07  -5.46    -3.56-225.409259             -0.0000
iter:  36  15:52:00  -9.93  -5.81    -4.14-225.409259             -0.0000
iter:  37  15:52:47  -9.56  -5.84    -3.55-225.409259             -0.0000
iter:  38  15:53:34 -10.21  -5.76    -4.43-225.409259             +0.0000
iter:  39  15:54:21 -10.17  -5.92    -4.02-225.409259             -0.0000
iter:  40  15:55:08 -10.96  -6.23    -3.99-225.409259             -0.0000
iter:  41  15:55:55 -11.89  -6.57    -5.03-225.409259             -0.0000
iter:  42  15:56:42 -11.11  -6.57    -4.56-225.409259             -0.0000
iter:  43  15:57:29 -12.22  -6.81    -4.85-225.409259             -0.0000
iter:  44  15:58:16 -11.46  -6.88    -4.66-225.409259             -0.0000
iter:  45  15:59:03 -12.47  -7.12    -5.13-225.409259             -0.0000
iter:  46  15:59:50 -13.95  -7.45    -6.00-225.409259             -0.0000
iter:  47  16:00:36 -12.55  -7.52    -5.46-225.409259             -0.0000
iter:  48  16:01:23 -13.82  -7.68    -5.89-225.409259             -0.0000
iter:  49  16:02:11 -14.00  -7.84    -5.65-225.409259             -0.0000
iter:  50  16:02:58 -14.40  -8.00    -6.46-225.409259             -0.0000

Converged after 50 iterations.

Dipole moment: (19.053797, -1.269346, -4.181937) |e|*Ang

Total magnetic moment: (0.000000, 0.000000, -0.000000)
Local magnetic moments:
   0 O  ( 0.000000,  0.000000,  0.000810)
   1 O  ( 0.000000,  0.000000, -0.000601)
   2 O  ( 0.000000,  0.000000, -0.000653)
   3 O  ( 0.000000,  0.000000,  0.000678)
   4 O  ( 0.000000,  0.000000, -0.000659)
   5 O  ( 0.000000,  0.000000,  0.000677)
   6 O  ( 0.000000,  0.000000,  0.000617)
   7 O  ( 0.000000,  0.000000, -0.000902)
   8 O  ( 0.000000,  0.000000,  0.022337)
   9 O  ( 0.000000,  0.000000, -0.022365)
  10 O  ( 0.000000,  0.000000, -0.022534)
  11 O  ( 0.000000,  0.000000,  0.022353)
  12 Mn ( 0.000000,  0.000000,  4.576058)
  13 Mn ( 0.000000,  0.000000, -4.574987)
  14 Mn ( 0.000000,  0.000000, -4.575108)
  15 Mn ( 0.000000,  0.000000,  4.575029)
  16 P  ( 0.000000,  0.000000,  0.000796)
  17 P  ( 0.000000,  0.000000, -0.001097)
  18 P  ( 0.000000,  0.000000, -0.000818)
  19 P  ( 0.000000,  0.000000,  0.000803)
  20 O  ( 0.000000,  0.000000,  0.020654)
  21 O  ( 0.000000,  0.000000, -0.020808)
  22 O  ( 0.000000,  0.000000, -0.020694)
  23 O  ( 0.000000,  0.000000,  0.020711)
  24 Li ( 0.000000,  0.000000, -0.000002)
  25 Li ( 0.000000,  0.000000, -0.000001)
  26 Li ( 0.000000,  0.000000, -0.000025)
  27 Li ( 0.000000,  0.000000, -0.000000)

Energy contributions relative to reference atoms: (reference = -196157.275402)

Kinetic:       +297.365688
Potential:     -256.790061
External:        +0.000000
XC:            -267.764616
Entropy (-ST):   -0.000000
Local:           +1.779730
--------------------------
Free energy:   -225.409259
Extrapolated:  -225.409259

Spin contamination: 9.697804 electrons
Showing only first 2 kpts
                      Up                     Down
 Kpt  Band  Eigenvalues  Occupancy  Eigenvalues  Occupancy
  0    88      5.10196    0.00694      5.11311    0.00694
  0    89      5.15432    0.00694      5.16471    0.00694
  0    90      9.65523    0.00000      9.64376    0.00000
  0    91      9.67484    0.00000      9.66851    0.00000

  1    88      5.11319    0.00694      5.12465    0.00694
  1    89      5.16373    0.00694      5.17398    0.00694
  1    90      9.53740    0.00000      9.52548    0.00000
  1    91      9.55190    0.00000      9.54308    0.00000


Fermi level: 6.37000

Gap: 3.792 eV
Transition (v -> c):
  (s=1, k=92, n=89, [0.08, 0.42, -0.38]) -> (s=1, k=82, n=90, [0.08, -0.08, 0.12])
Writing to born-0.01-7y+.gpw (mode='all')

Timing:                              incl.     excl.
-----------------------------------------------------------
Hamiltonian:                         0.416     0.003   0.0% |
 Atomic:                             0.072     0.072   0.0% |
  XC Correction:                     0.000     0.000   0.0% |
 Calculate atomic Hamiltonians:      0.166     0.166   0.0% |
 Communicate:                        0.001     0.001   0.0% |
 Initialize Hamiltonian:             0.000     0.000   0.0% |
 Poisson:                            0.001     0.001   0.0% |
 XC 3D grid:                         0.173     0.173   0.0% |
LCAO initialization:               150.729     0.674   0.0% |
 LCAO eigensolver:                  40.531     0.002   0.0% |
  Calculate projections:             0.057     0.057   0.0% |
  DenseAtomicCorrection:             0.083     0.083   0.0% |
  Distribute overlap matrix:         0.007     0.007   0.0% |
  Orbital Layouts:                   0.361     0.361   0.0% |
  Potential matrix:                 39.918    39.918   0.8% |
  Sum over cells:                    0.103     0.103   0.0% |
 LCAO to grid:                     107.160   107.160   2.1% ||
 Set positions (LCAO WFS):           2.364     0.369   0.0% |
  Basic WFS set positions:           0.001     0.001   0.0% |
  Basis functions set positions:     0.000     0.000   0.0% |
  P tci:                             1.074     1.074   0.0% |
  ST tci:                            0.703     0.703   0.0% |
  mktci:                             0.217     0.217   0.0% |
PWDescriptor:                        0.026     0.026   0.0% |
SCF-cycle:                        2159.485     7.796   0.2% |
 Davidson:                        1761.599   559.647  10.8% |---|
  Apply H:                         129.359   125.777   2.4% ||
   HMM T:                            3.582     3.582   0.1% |
  Subspace diag:                   262.779     0.158   0.0% |
   calc_h_matrix:                  172.955    45.483   0.9% |
    Apply H:                       127.471   123.989   2.4% ||
     HMM T:                          3.482     3.482   0.1% |
   diagonalize:                      6.084     6.084   0.1% |
   rotate_psi:                      83.581    83.581   1.6% ||
  calc. matrices:                  556.411   304.349   5.9% |-|
   Apply H:                        252.062   245.479   4.7% |-|
    HMM T:                           6.584     6.584   0.1% |
  diagonalize:                      83.290    83.290   1.6% ||
  rotate_psi:                      170.113   170.113   3.3% ||
 Density:                           73.677     0.001   0.0% |
  Atomic density matrices:           1.312     1.312   0.0% |
  Mix:                              11.199    11.199   0.2% |
  Multipole moments:                 0.029     0.029   0.0% |
  Pseudo density:                   61.136    61.134   1.2% |
   Symmetrize density:               0.001     0.001   0.0% |
 Forces:                           292.109   292.109   5.6% |-|
 Hamiltonian:                       20.230     0.116   0.0% |
  Atomic:                            2.860     2.860   0.1% |
   XC Correction:                    0.000     0.000   0.0% |
  Calculate atomic Hamiltonians:     8.306     8.306   0.2% |
  Communicate:                       0.096     0.096   0.0% |
  Poisson:                           0.076     0.076   0.0% |
  XC 3D grid:                        8.776     8.776   0.2% |
 Orthonormalize:                     4.074     0.004   0.0% |
  calc_s_matrix:                     0.486     0.486   0.0% |
  inverse-cholesky:                  0.055     0.055   0.0% |
  projections:                       2.669     2.669   0.1% |
  rotate_psi_s:                      0.861     0.861   0.0% |
Set symmetry:                        0.000     0.000   0.0% |
Other:                            2861.357  2861.357  55.3% |---------------------|
-----------------------------------------------------------
Total:                                      5172.012 100.0%

Memory usage: 12.89 GiB
Date: Mon Mar 22 16:50:37 2021
