
  ___ ___ ___ _ _ _  
 |   |   |_  | | | | 
 | | | | | . | | | | 
 |__ |  _|___|_____|  20.10.1b1
 |___|_|             

User:   madkru@i018.nifl.fysik.dtu.dk
Date:   Wed Mar 24 19:34:53 2021
Arch:   x86_64
Pid:    26873
Python: 3.7.4
gpaw:   /home/niflheim/madkru/venv_folder/gpaw/gpaw (d224efde0f)
_gpaw:  /home/niflheim/madkru/venv_folder/gpaw/build/lib.linux-x86_64-ivybridge-3.7/
        _gpaw.cpython-37m-x86_64-linux-gnu.so (4fd39e8b1e)
ase:    /home/niflheim/madkru/venv_folder/ase/ase (version 3.21.0b1-4d5a73cb29)
numpy:  /home/niflheim/madkru/venv_folder/lib/python3.7/site-packages/numpy (version 1.19.4)
scipy:  /home/niflheim/madkru/venv_folder/lib/python3.7/site-packages/scipy (version 1.5.4)
libxc:  4.3.4
units:  Angstrom and eV
cores: 64
OMP_NUM_THREADS: 1

Input parameters:
  convergence: {bands: occupied,
                density: 0.0001,
                eigenstates: 4e-08,
                energy: 0.0005,
                forces: 1e-06}
  kpts: [6 6 4]
  mode: {ecut: 600.0,
         gammacentered: False,
         name: pw}
  occupations: {fixmagmom: False,
                name: fermi-dirac,
                width: 0.001}
  setups: {Mn: :d,3.0}
  symmetry: {point_group: False,
             time_reversal: False}

System changes: positions, numbers, cell, pbc, initial_charges, initial_magmoms 

Initialize ...

O-setup:
  name: Oxygen
  id: 9b9d51c344dea68c822856295a461509
  Z: 8.0
  valence: 6
  core: 2
  charge: 0.0
  file: /home/modules/software/GPAW-setups/0.9.20000/O.LDA.gz
  compensation charges: gauss, rc=0.21, lmax=2
  cutoffs: 1.17(filt), 0.83(core),
  valence states:
                energy  radius
    2s(2.00)   -23.752   0.688
    2p(4.00)    -9.195   0.598
    *s           3.459   0.688
    *p          18.016   0.598
    *d           0.000   0.619

  Using partial waves for O as LCAO basis

Mn-setup:
  name: Manganese
  id: 0d715a8018be061a6e9ea6f2d364ac92
  Z: 25.0
  valence: 15
  core: 10
  charge: 0.0
  Hubbard U: 3.000000 eV (l=2, scale=True)
  file: /home/modules/software/GPAW-setups/0.9.20000/Mn.LDA.gz
  compensation charges: gauss, rc=0.38, lmax=2
  cutoffs: 2.14(filt), 0.86(core),
  valence states:
                energy  radius
    3s(2.00)   -85.387   1.275
    4s(2.00)    -5.282   1.275
    3p(6.00)   -54.493   1.281
    4p(0.00)    -1.471   1.281
    3d(5.00)    -7.009   1.138
    *d          20.203   1.138

  Using partial waves for Mn as LCAO basis

P-setup:
  name: Phosphorus
  id: a5561c299094968922a179ab894d2e2d
  Z: 15.0
  valence: 5
  core: 10
  charge: 0.0
  file: /home/modules/software/GPAW-setups/0.9.20000/P.LDA.gz
  compensation charges: gauss, rc=0.30, lmax=2
  cutoffs: 1.69(filt), 1.81(core),
  valence states:
                energy  radius
    3s(2.00)   -14.015   0.953
    3p(3.00)    -5.596   0.953
    *s          13.197   0.953
    *p          21.615   0.953
    *d           0.000   0.953

  Using partial waves for P as LCAO basis

Li-setup:
  name: Lithium
  id: b73562207f97a71b6967473b66fe8b65
  Z: 3.0
  valence: 1
  core: 2
  charge: 0.0
  file: /home/modules/software/GPAW-setups/0.9.20000/Li.LDA.gz
  compensation charges: gauss, rc=0.33, lmax=2
  cutoffs: 1.91(filt), 2.55(core),
  valence states:
                energy  radius
    2s(1.00)    -2.874   1.058
    2p(0.00)    -1.126   1.058
    *s          24.338   1.058

  Using partial waves for Li as LCAO basis

Reference energy: -196157.275402

Spin-polarized calculation.
Magnetic moment: 0.000000

Convergence criteria:
  Maximum total energy change: 0.0005 eV / electron
  Maximum integral of absolute density change: 0.0001 electrons
  Maximum integral of absolute eigenstate change: 4e-08 eV^2
  Maximum change in atomic force: 1e-06 eV / Ang
  Maximum number of iterations: 333

Symmetries present (total): 1

  ( 1  0  0)
  ( 0  1  0)
  ( 0  0  1)

144 k-points: 6 x 6 x 4 Monkhorst-Pack grid
144 k-points in the irreducible part of the Brillouin zone
       k-points in crystal coordinates                weights
   0:    -0.41666667   -0.41666667   -0.37500000          1/144
   1:    -0.41666667   -0.41666667   -0.12500000          1/144
   2:    -0.41666667   -0.41666667    0.12500000          1/144
   3:    -0.41666667   -0.41666667    0.37500000          1/144
   4:    -0.41666667   -0.25000000   -0.37500000          1/144
   5:    -0.41666667   -0.25000000   -0.12500000          1/144
   6:    -0.41666667   -0.25000000    0.12500000          1/144
   7:    -0.41666667   -0.25000000    0.37500000          1/144
   8:    -0.41666667   -0.08333333   -0.37500000          1/144
   9:    -0.41666667   -0.08333333   -0.12500000          1/144
          ...
 143:     0.41666667    0.41666667    0.37500000          1/144

Wave functions: Plane wave expansion
  Cutoff energy: 600.000 eV
  Number of coefficients (min, max): 9238, 9284
  Pulay-stress correction: 0.000000 eV/Ang^3 (de/decut=0.000000)
  Using FFTW library
  ScaLapack parameters: grid=1x1, blocksize=None
  Wavefunction extrapolation:
    Improved wavefunction reuse through dual PAW basis 

  Fermi-Dirac: width=0.0010 eV

Eigensolver
   Davidson(niter=2, smin=None, normalize=True) 

Densities:
  Coarse grid: 60*35*27 grid
  Fine grid: 120*70*54 grid
  Total Charge: 0.000000 

Density mixing:
  Method: difference
  Backend: pulay
  Linear mixing parameter: 0.05
  Mixing with 5 old densities
  Damping of long wave oscillations: 50 

Hamiltonian:
  XC and Coulomb potentials evaluated on a 120*70*54 grid
  Using the LDA Exchange-Correlation functional
 

Memory estimate:
  Process memory now: 13522.14 MiB
  Calculator: 326.59 MiB
    Density: 9.67 MiB
      Arrays: 3.79 MiB
      Localized functions: 4.32 MiB
      Mixer: 1.56 MiB
    Hamiltonian: 2.94 MiB
      Arrays: 2.82 MiB
      XC: 0.00 MiB
      Poisson: 0.00 MiB
      vbar: 0.12 MiB
    Wavefunctions: 313.97 MiB
      Arrays psit_nG: 285.59 MiB
      Eigensolver: 18.49 MiB
      Projections: 2.71 MiB
      Projectors: 4.46 MiB
      PW-descriptor: 2.72 MiB

Total number of cores used: 64
Parallelization over k-points: 16
Domain decomposition: 2 x 2 x 1

Number of atoms: 28
Number of atomic orbitals: 148
Number of bands in calculation: 112
Number of valence electrons: 180
Bands to converge: occupied

... initialized

Initializing position-dependent things.

Density initialized from atomic densities
Creating initial wave functions:
  112 bands from LCAO basis set

                                           
                                           
                                           
                                           
                                           
               O     O  P  O               
            PO           OMn     O         
                  O          MO            
            O        Li O                  
             Mn  On          OP            
         O         Li O                    
         Li     O P         O              
       Li                                  
                                           
                                           
                                           
                                           

Positions:
   0 O     -1.263197   -2.497779   -1.098475    ( 0.0000,  0.0000,  0.0000)
   1 O     -3.070823    2.922496    1.209491    ( 0.0000,  0.0000,  0.0000)
   2 O      1.985541    0.474863    1.428016    ( 0.0000,  0.0000,  0.0000)
   3 O      3.793120   -0.050100   -0.879950    ( 0.0000,  0.0000,  0.0000)
   4 O      1.985518    2.922485    1.428149    ( 0.0000,  0.0000,  0.0000)
   5 O      3.793144   -2.497790   -0.879818    ( 0.0000,  0.0000,  0.0000)
   6 O     -1.263220   -0.050157   -1.098342    ( 0.0000,  0.0000,  0.0000)
   7 O     -3.070798    0.474805    1.209623    ( 0.0000,  0.0000,  0.0000)
   8 O     -4.167835   -1.273920   -0.862116    ( 0.0000,  0.0000,  0.0000)
   9 O     -0.166037    1.698602    1.445528    ( 0.0000,  0.0000,  0.0000)
  10 O      4.890156    1.698625    1.191790    ( 0.0000,  0.0000,  0.0000)
  11 O      0.888358   -1.273896   -1.115855    ( 0.0000,  0.0000,  0.0000)
  12 Mn    -2.445557   -1.274211    0.312921    ( 0.0000,  0.0000,  1.0000)
  13 Mn    -1.888303    1.698892   -1.994948    ( 0.0000,  0.0000, -1.0000)
  14 Mn     3.167879    1.698917    0.016752    ( 0.0000,  0.0000, -1.0000)
  15 Mn     2.610624   -1.274187    2.324621    ( 0.0000,  0.0000,  1.0000)
  16 P     -0.529549   -1.273917   -1.724376    ( 0.0000,  0.0000,  0.0000)
  17 P     -3.804359    1.698599    0.583463    ( 0.0000,  0.0000,  0.0000)
  18 P      1.251870    1.698623    2.054050    ( 0.0000,  0.0000,  0.0000)
  19 P      4.526680   -1.273894   -0.253789    ( 0.0000,  0.0000,  0.0000)
  20 O     -0.544227   -1.273926    1.365380    ( 0.0000,  0.0000,  0.0000)
  21 O     -3.789411    1.698610   -0.942222    ( 0.0000,  0.0000,  0.0000)
  22 O      1.256548    1.698631   -1.035707    ( 0.0000,  0.0000,  0.0000)
  23 O      4.511733   -1.273905    1.271895    ( 0.0000,  0.0000,  0.0000)
  24 Li    -4.695087   -2.760584   -2.142877    ( 0.0000,  0.0000,  0.0000)
  25 Li     0.361147   -2.760561    0.164836    ( 0.0000,  0.0000,  0.0000)
  26 Li    -4.695074    0.212330   -2.142877    ( 0.0000,  0.0000,  0.0000)
  27 Li     0.361161    0.212353    0.164837    ( 0.0000,  0.0000,  0.0000)

Unit cell:
           periodic     x           y           z      points  spacing
  1. axis:    yes   10.112485    0.000045   -0.000035    60     0.1685
  2. axis:    yes    0.000026    5.945827    0.000001    35     0.1699
  3. axis:    yes   -0.000016    0.000000    4.615463    27     0.1709

  Lengths:  10.112485   5.945827   4.615463
  Angles:   89.999989  90.000396  89.999490

Effective grid spacing dv^(1/3) = 0.1698

                     log10-error:           total        iterations:
           time      wfs    density  force  energy       poisson  magmom
iter:   1  19:36:28                       -221.379621             +0.0000
iter:   2  19:36:48  -0.61  -0.93         -234.849882             +0.0000
iter:   3  19:37:08  -0.37  -0.97         -225.915863             -0.0000
iter:   4  19:37:28  -1.39  -1.29         -225.761545             +0.0000
iter:   5  19:37:48  -1.26  -1.39         -227.338905             +0.0000
iter:   6  19:38:08  -1.46  -1.46         -225.737280             +0.0000
iter:   7  19:38:28  -2.47  -2.04         -225.725413             +0.0000
iter:   8  19:38:48  -2.15  -1.99         -225.585895             +0.0000
iter:   9  19:39:08  -2.47  -2.10         -225.432515             +0.0000
iter:  10  19:39:28  -3.30  -2.54         -225.422112             +0.0000
iter:  11  19:39:48  -3.64  -2.81         -225.411798             +0.0000
iter:  12  19:40:08  -4.15  -3.06         -225.410778             +0.0000
iter:  13  19:40:28  -5.15  -3.29         -225.410682             -0.0000
iter:  14  19:40:48  -5.38  -3.32         -225.410502             +0.0000
iter:  15  19:41:08  -6.02  -3.43         -225.410509             +0.0000
iter:  16  19:41:28  -5.26  -3.47         -225.410817             -0.0000
iter:  17  19:41:48  -5.79  -3.58         -225.410724             +0.0000
iter:  18  19:42:07  -5.29  -3.72         -225.410462             -0.0000
iter:  19  19:42:27  -6.05  -4.07         -225.410455             +0.0000
iter:  20  19:42:47  -7.29  -4.54         -225.410458             +0.0000
iter:  21  19:43:12  -7.87  -4.58         -225.410457             +0.0000
iter:  22  19:43:32  -6.92  -4.62         -225.410459             +0.0000
iter:  23  19:43:57  -7.72  -4.62    -2.24-225.410457             +0.0000
iter:  24  19:44:21  -7.45  -4.98    -2.95-225.410456             +0.0000
iter:  25  19:44:46  -8.30  -4.97    -3.09-225.410456             +0.0000
iter:  26  19:45:10  -9.15  -5.27    -3.27-225.410456             +0.0000
iter:  27  19:45:35  -9.63  -5.32    -3.50-225.410456             +0.0000
iter:  28  19:46:00  -8.95  -5.35    -3.07-225.410456             +0.0000
iter:  29  19:46:24 -10.13  -5.43    -3.90-225.410456             +0.0000
iter:  30  19:46:49  -9.61  -5.46    -3.60-225.410456             -0.0000
iter:  31  19:47:14 -10.29  -5.51    -4.38-225.410456             +0.0000
iter:  32  19:47:38  -9.46  -5.57    -3.32-225.410456             +0.0000
iter:  33  19:48:03 -10.09  -5.90    -4.04-225.410456             +0.0000
iter:  34  19:48:28 -10.28  -5.99    -3.99-225.410456             +0.0000
iter:  35  19:48:52 -10.67  -6.06    -3.67-225.410456             +0.0000
iter:  36  19:49:17 -11.03  -6.34    -4.45-225.410456             +0.0000
iter:  37  19:49:42 -11.72  -6.39    -4.40-225.410456             +0.0000
iter:  38  19:50:06 -11.40  -6.46    -4.36-225.410456             +0.0000
iter:  39  19:50:31 -12.23  -6.74    -4.74-225.410456             +0.0000
iter:  40  19:50:55 -11.57  -6.76    -4.43-225.410456             +0.0000
iter:  41  19:51:20 -12.23  -6.87    -4.65-225.410456             +0.0000
iter:  42  19:51:45 -12.38  -7.05    -4.86-225.410456             +0.0000
iter:  43  19:52:09 -12.55  -7.15    -5.00-225.410456             +0.0000
iter:  44  19:52:34 -13.25  -7.31    -5.37-225.410456             +0.0000
iter:  45  19:52:58 -13.05  -7.39    -5.55-225.410456             +0.0000
iter:  46  19:53:23 -13.47  -7.47    -5.41-225.410456             +0.0000
iter:  47  19:53:48 -13.79  -7.54    -5.46-225.410456             +0.0000
iter:  48  19:54:12 -14.03  -7.57    -5.15-225.410456             +0.0000
iter:  49  19:54:37 -14.55  -7.67    -6.09-225.410456             +0.0000

Converged after 49 iterations.

Dipole moment: (19.046100, -1.425532, -4.183237) |e|*Ang

Total magnetic moment: (0.000000, 0.000000, 0.000000)
Local magnetic moments:
   0 O  ( 0.000000,  0.000000,  0.000704)
   1 O  ( 0.000000,  0.000000, -0.000663)
   2 O  ( 0.000000,  0.000000, -0.000658)
   3 O  ( 0.000000,  0.000000,  0.000724)
   4 O  ( 0.000000,  0.000000, -0.000662)
   5 O  ( 0.000000,  0.000000,  0.000728)
   6 O  ( 0.000000,  0.000000,  0.000700)
   7 O  ( 0.000000,  0.000000, -0.000659)
   8 O  ( 0.000000,  0.000000,  0.022343)
   9 O  ( 0.000000,  0.000000, -0.022331)
  10 O  ( 0.000000,  0.000000, -0.022485)
  11 O  ( 0.000000,  0.000000,  0.022416)
  12 Mn ( 0.000000,  0.000000,  4.575074)
  13 Mn ( 0.000000,  0.000000, -4.575094)
  14 Mn ( 0.000000,  0.000000, -4.575427)
  15 Mn ( 0.000000,  0.000000,  4.575037)
  16 P  ( 0.000000,  0.000000,  0.000808)
  17 P  ( 0.000000,  0.000000, -0.000812)
  18 P  ( 0.000000,  0.000000, -0.000633)
  19 P  ( 0.000000,  0.000000,  0.000845)
  20 O  ( 0.000000,  0.000000,  0.020714)
  21 O  ( 0.000000,  0.000000, -0.020686)
  22 O  ( 0.000000,  0.000000, -0.020670)
  23 O  ( 0.000000,  0.000000,  0.020704)
  24 Li ( 0.000000,  0.000000,  0.000000)
  25 Li ( 0.000000,  0.000000,  0.000002)
  26 Li ( 0.000000,  0.000000,  0.000000)
  27 Li ( 0.000000,  0.000000,  0.000002)

Energy contributions relative to reference atoms: (reference = -196157.275402)

Kinetic:       +296.743210
Potential:     -256.302564
External:        +0.000000
XC:            -267.632379
Entropy (-ST):   -0.000000
Local:           +1.781277
--------------------------
Free energy:   -225.410456
Extrapolated:  -225.410456

Spin contamination: 9.697355 electrons
Showing only first 2 kpts
                      Up                     Down
 Kpt  Band  Eigenvalues  Occupancy  Eigenvalues  Occupancy
  0    88      5.10802    0.00694      5.10071    0.00694
  0    89      5.16020    0.00694      5.15723    0.00694
  0    90      9.63930    0.00000      9.65259    0.00000
  0    91      9.67405    0.00000      9.66822    0.00000

  1    88      5.11970    0.00694      5.11086    0.00694
  1    89      5.16960    0.00694      5.16645    0.00694
  1    90      9.52113    0.00000      9.53523    0.00000
  1    91      9.54952    0.00000      9.54201    0.00000


Fermi level: 6.36990

Gap: 3.794 eV
Transition (v -> c):
  (s=0, k=75, n=89, [0.08, -0.42, 0.38]) -> (s=0, k=57, n=90, [-0.08, -0.08, -0.12])
Writing to born-0.01-22x-.gpw (mode='all')

Timing:                              incl.     excl.
-----------------------------------------------------------
Hamiltonian:                         0.220     0.002   0.0% |
 Atomic:                             0.055     0.055   0.0% |
  XC Correction:                     0.000     0.000   0.0% |
 Calculate atomic Hamiltonians:      0.076     0.076   0.0% |
 Communicate:                        0.002     0.002   0.0% |
 Initialize Hamiltonian:             0.000     0.000   0.0% |
 Poisson:                            0.001     0.001   0.0% |
 XC 3D grid:                         0.084     0.084   0.0% |
LCAO initialization:                72.737     0.650   0.0% |
 LCAO eigensolver:                  19.484     0.002   0.0% |
  Calculate projections:             0.029     0.029   0.0% |
  DenseAtomicCorrection:             0.045     0.045   0.0% |
  Distribute overlap matrix:         0.009     0.009   0.0% |
  Orbital Layouts:                   0.434     0.434   0.0% |
  Potential matrix:                 18.868    18.868   0.6% |
  Sum over cells:                    0.099     0.099   0.0% |
 LCAO to grid:                      51.282    51.282   1.7% ||
 Set positions (LCAO WFS):           1.320     0.192   0.0% |
  Basic WFS set positions:           0.001     0.001   0.0% |
  Basis functions set positions:     0.000     0.000   0.0% |
  P tci:                             0.524     0.524   0.0% |
  ST tci:                            0.384     0.384   0.0% |
  mktci:                             0.219     0.219   0.0% |
PWDescriptor:                        0.024     0.024   0.0% |
SCF-cycle:                        1109.969     0.341   0.0% |
 Davidson:                         927.965   283.832   9.3% |---|
  Apply H:                          64.201    62.361   2.0% ||
   HMM T:                            1.840     1.840   0.1% |
  Subspace diag:                   134.777     0.139   0.0% |
   calc_h_matrix:                   86.944    22.345   0.7% |
    Apply H:                        64.599    62.720   2.1% ||
     HMM T:                          1.880     1.880   0.1% |
   diagonalize:                      6.663     6.663   0.2% |
   rotate_psi:                      41.031    41.031   1.3% ||
  calc. matrices:                  278.805   152.055   5.0% |-|
   Apply H:                        126.750   123.224   4.0% |-|
    HMM T:                           3.526     3.526   0.1% |
  diagonalize:                      77.340    77.340   2.5% ||
  rotate_psi:                       89.011    89.011   2.9% ||
 Density:                           37.093     0.001   0.0% |
  Atomic density matrices:           0.853     0.853   0.0% |
  Mix:                               5.117     5.117   0.2% |
  Multipole moments:                 0.017     0.017   0.0% |
  Pseudo density:                   31.104    31.102   1.0% |
   Symmetrize density:               0.001     0.001   0.0% |
 Forces:                           131.886   131.886   4.3% |-|
 Hamiltonian:                       10.597     0.101   0.0% |
  Atomic:                            2.655     2.655   0.1% |
   XC Correction:                    0.000     0.000   0.0% |
  Calculate atomic Hamiltonians:     3.642     3.642   0.1% |
  Communicate:                       0.080     0.080   0.0% |
  Poisson:                           0.029     0.029   0.0% |
  XC 3D grid:                        4.089     4.089   0.1% |
 Orthonormalize:                     2.087     0.003   0.0% |
  calc_s_matrix:                     0.244     0.244   0.0% |
  inverse-cholesky:                  0.073     0.073   0.0% |
  projections:                       1.333     1.333   0.0% |
  rotate_psi_s:                      0.434     0.434   0.0% |
Set symmetry:                        0.000     0.000   0.0% |
Other:                            1876.296  1876.296  61.3% |------------------------|
-----------------------------------------------------------
Total:                                      3059.246 100.0%

Memory usage: 13.24 GiB
Date: Wed Mar 24 20:25:52 2021
