
  ___ ___ ___ _ _ _  
 |   |   |_  | | | | 
 | | | | | . | | | | 
 |__ |  _|___|_____|  20.10.1b1
 |___|_|             

User:   madkru@i018.nifl.fysik.dtu.dk
Date:   Wed Mar 24 07:21:59 2021
Arch:   x86_64
Pid:    26873
Python: 3.7.4
gpaw:   /home/niflheim/madkru/venv_folder/gpaw/gpaw (d0d1ca1c71)
_gpaw:  /home/niflheim/madkru/venv_folder/gpaw/build/lib.linux-x86_64-ivybridge-3.7/
        _gpaw.cpython-37m-x86_64-linux-gnu.so (4fd39e8b1e)
ase:    /home/niflheim/madkru/venv_folder/ase/ase (version 3.21.0b1-7e6c206a91)
numpy:  /home/niflheim/madkru/venv_folder/lib/python3.7/site-packages/numpy (version 1.19.4)
scipy:  /home/niflheim/madkru/venv_folder/lib/python3.7/site-packages/scipy (version 1.5.4)
libxc:  4.3.4
units:  Angstrom and eV
cores: 64
OMP_NUM_THREADS: 1

Input parameters:
  convergence: {bands: occupied,
                density: 0.0001,
                eigenstates: 4e-08,
                energy: 0.0005,
                forces: 1e-06}
  kpts: [6 6 4]
  mode: {ecut: 600.0,
         gammacentered: False,
         name: pw}
  occupations: {fixmagmom: False,
                name: fermi-dirac,
                width: 0.001}
  setups: {Mn: :d,3.0}
  symmetry: {point_group: False,
             time_reversal: False}

System changes: positions, numbers, cell, pbc, initial_charges, initial_magmoms 

Initialize ...

O-setup:
  name: Oxygen
  id: 9b9d51c344dea68c822856295a461509
  Z: 8.0
  valence: 6
  core: 2
  charge: 0.0
  file: /home/modules/software/GPAW-setups/0.9.20000/O.LDA.gz
  compensation charges: gauss, rc=0.21, lmax=2
  cutoffs: 1.17(filt), 0.83(core),
  valence states:
                energy  radius
    2s(2.00)   -23.752   0.688
    2p(4.00)    -9.195   0.598
    *s           3.459   0.688
    *p          18.016   0.598
    *d           0.000   0.619

  Using partial waves for O as LCAO basis

Mn-setup:
  name: Manganese
  id: 0d715a8018be061a6e9ea6f2d364ac92
  Z: 25.0
  valence: 15
  core: 10
  charge: 0.0
  Hubbard U: 3.000000 eV (l=2, scale=True)
  file: /home/modules/software/GPAW-setups/0.9.20000/Mn.LDA.gz
  compensation charges: gauss, rc=0.38, lmax=2
  cutoffs: 2.14(filt), 0.86(core),
  valence states:
                energy  radius
    3s(2.00)   -85.387   1.275
    4s(2.00)    -5.282   1.275
    3p(6.00)   -54.493   1.281
    4p(0.00)    -1.471   1.281
    3d(5.00)    -7.009   1.138
    *d          20.203   1.138

  Using partial waves for Mn as LCAO basis

P-setup:
  name: Phosphorus
  id: a5561c299094968922a179ab894d2e2d
  Z: 15.0
  valence: 5
  core: 10
  charge: 0.0
  file: /home/modules/software/GPAW-setups/0.9.20000/P.LDA.gz
  compensation charges: gauss, rc=0.30, lmax=2
  cutoffs: 1.69(filt), 1.81(core),
  valence states:
                energy  radius
    3s(2.00)   -14.015   0.953
    3p(3.00)    -5.596   0.953
    *s          13.197   0.953
    *p          21.615   0.953
    *d           0.000   0.953

  Using partial waves for P as LCAO basis

Li-setup:
  name: Lithium
  id: b73562207f97a71b6967473b66fe8b65
  Z: 3.0
  valence: 1
  core: 2
  charge: 0.0
  file: /home/modules/software/GPAW-setups/0.9.20000/Li.LDA.gz
  compensation charges: gauss, rc=0.33, lmax=2
  cutoffs: 1.91(filt), 2.55(core),
  valence states:
                energy  radius
    2s(1.00)    -2.874   1.058
    2p(0.00)    -1.126   1.058
    *s          24.338   1.058

  Using partial waves for Li as LCAO basis

Reference energy: -196157.275402

Spin-polarized calculation.
Magnetic moment: 0.000000

Convergence criteria:
  Maximum total energy change: 0.0005 eV / electron
  Maximum integral of absolute density change: 0.0001 electrons
  Maximum integral of absolute eigenstate change: 4e-08 eV^2
  Maximum change in atomic force: 1e-06 eV / Ang
  Maximum number of iterations: 333

Symmetries present (total): 1

  ( 1  0  0)
  ( 0  1  0)
  ( 0  0  1)

144 k-points: 6 x 6 x 4 Monkhorst-Pack grid
144 k-points in the irreducible part of the Brillouin zone
       k-points in crystal coordinates                weights
   0:    -0.41666667   -0.41666667   -0.37500000          1/144
   1:    -0.41666667   -0.41666667   -0.12500000          1/144
   2:    -0.41666667   -0.41666667    0.12500000          1/144
   3:    -0.41666667   -0.41666667    0.37500000          1/144
   4:    -0.41666667   -0.25000000   -0.37500000          1/144
   5:    -0.41666667   -0.25000000   -0.12500000          1/144
   6:    -0.41666667   -0.25000000    0.12500000          1/144
   7:    -0.41666667   -0.25000000    0.37500000          1/144
   8:    -0.41666667   -0.08333333   -0.37500000          1/144
   9:    -0.41666667   -0.08333333   -0.12500000          1/144
          ...
 143:     0.41666667    0.41666667    0.37500000          1/144

Wave functions: Plane wave expansion
  Cutoff energy: 600.000 eV
  Number of coefficients (min, max): 9238, 9284
  Pulay-stress correction: 0.000000 eV/Ang^3 (de/decut=0.000000)
  Using FFTW library
  ScaLapack parameters: grid=1x1, blocksize=None
  Wavefunction extrapolation:
    Improved wavefunction reuse through dual PAW basis 

  Fermi-Dirac: width=0.0010 eV

Eigensolver
   Davidson(niter=2, smin=None, normalize=True) 

Densities:
  Coarse grid: 60*35*27 grid
  Fine grid: 120*70*54 grid
  Total Charge: 0.000000 

Density mixing:
  Method: difference
  Backend: pulay
  Linear mixing parameter: 0.05
  Mixing with 5 old densities
  Damping of long wave oscillations: 50 

Hamiltonian:
  XC and Coulomb potentials evaluated on a 120*70*54 grid
  Using the LDA Exchange-Correlation functional
 

Memory estimate:
  Process memory now: 12954.38 MiB
  Calculator: 326.59 MiB
    Density: 9.67 MiB
      Arrays: 3.79 MiB
      Localized functions: 4.32 MiB
      Mixer: 1.56 MiB
    Hamiltonian: 2.94 MiB
      Arrays: 2.82 MiB
      XC: 0.00 MiB
      Poisson: 0.00 MiB
      vbar: 0.12 MiB
    Wavefunctions: 313.97 MiB
      Arrays psit_nG: 285.59 MiB
      Eigensolver: 18.49 MiB
      Projections: 2.71 MiB
      Projectors: 4.46 MiB
      PW-descriptor: 2.72 MiB

Total number of cores used: 64
Parallelization over k-points: 16
Domain decomposition: 2 x 2 x 1

Number of atoms: 28
Number of atomic orbitals: 148
Number of bands in calculation: 112
Number of valence electrons: 180
Bands to converge: occupied

... initialized

Initializing position-dependent things.

Density initialized from atomic densities
Creating initial wave functions:
  112 bands from LCAO basis set

                                           
                                           
                                           
                                           
                                           
               O     O  P  O               
            PO           OMn     O         
                  O          MO            
            O        Li O                  
             Mn  On          OP            
         O         Li O                    
         Li     O P         O              
       Li                                  
                                           
                                           
                                           
                                           

Positions:
   0 O     -1.263197   -2.497779   -1.098475    ( 0.0000,  0.0000,  0.0000)
   1 O     -3.070823    2.922496    1.209491    ( 0.0000,  0.0000,  0.0000)
   2 O      1.985541    0.474863    1.428016    ( 0.0000,  0.0000,  0.0000)
   3 O      3.793120   -0.050100   -0.879950    ( 0.0000,  0.0000,  0.0000)
   4 O      1.985518    2.922485    1.428149    ( 0.0000,  0.0000,  0.0000)
   5 O      3.793144   -2.497790   -0.879818    ( 0.0000,  0.0000,  0.0000)
   6 O     -1.263220   -0.050157   -1.098342    ( 0.0000,  0.0000,  0.0000)
   7 O     -3.070798    0.474805    1.209623    ( 0.0000,  0.0000,  0.0000)
   8 O     -4.167835   -1.273920   -0.862116    ( 0.0000,  0.0000,  0.0000)
   9 O     -0.166037    1.698602    1.445528    ( 0.0000,  0.0000,  0.0000)
  10 O      4.890156    1.698625    1.191790    ( 0.0000,  0.0000,  0.0000)
  11 O      0.888358   -1.273896   -1.115855    ( 0.0000,  0.0000,  0.0000)
  12 Mn    -2.445557   -1.274211    0.312921    ( 0.0000,  0.0000,  1.0000)
  13 Mn    -1.888303    1.698892   -1.994948    ( 0.0000,  0.0000, -1.0000)
  14 Mn     3.167879    1.698917    0.016752    ( 0.0000,  0.0000, -1.0000)
  15 Mn     2.610624   -1.274187    2.324621    ( 0.0000,  0.0000,  1.0000)
  16 P     -0.529549   -1.273917   -1.724376    ( 0.0000,  0.0000,  0.0000)
  17 P     -3.804359    1.698599    0.593463    ( 0.0000,  0.0000,  0.0000)
  18 P      1.251870    1.698623    2.054050    ( 0.0000,  0.0000,  0.0000)
  19 P      4.526680   -1.273894   -0.253789    ( 0.0000,  0.0000,  0.0000)
  20 O     -0.544227   -1.273926    1.365380    ( 0.0000,  0.0000,  0.0000)
  21 O     -3.789411    1.698610   -0.942222    ( 0.0000,  0.0000,  0.0000)
  22 O      1.266548    1.698631   -1.035707    ( 0.0000,  0.0000,  0.0000)
  23 O      4.511733   -1.273905    1.271895    ( 0.0000,  0.0000,  0.0000)
  24 Li    -4.695087   -2.760584   -2.142877    ( 0.0000,  0.0000,  0.0000)
  25 Li     0.361147   -2.760561    0.164836    ( 0.0000,  0.0000,  0.0000)
  26 Li    -4.695074    0.212330   -2.142877    ( 0.0000,  0.0000,  0.0000)
  27 Li     0.361161    0.212353    0.164837    ( 0.0000,  0.0000,  0.0000)

Unit cell:
           periodic     x           y           z      points  spacing
  1. axis:    yes   10.112485    0.000045   -0.000035    60     0.1685
  2. axis:    yes    0.000026    5.945827    0.000001    35     0.1699
  3. axis:    yes   -0.000016    0.000000    4.615463    27     0.1709

  Lengths:  10.112485   5.945827   4.615463
  Angles:   89.999989  90.000396  89.999490

Effective grid spacing dv^(1/3) = 0.1698

                     log10-error:           total        iterations:
           time      wfs    density  force  energy       poisson  magmom
iter:   1  07:23:35                       -221.364591             +0.0000
iter:   2  07:23:55  -0.61  -0.93         -234.829073             +0.0000
iter:   3  07:24:15  -0.37  -0.97         -225.911167             -0.0000
iter:   4  07:24:35  -1.39  -1.29         -225.758147             +0.0000
iter:   5  07:24:55  -1.27  -1.39         -227.322367             +0.0000
iter:   6  07:25:15  -1.46  -1.46         -225.734669             +0.0000
iter:   7  07:25:35  -2.46  -2.04         -225.720918             +0.0000
iter:   8  07:25:55  -2.05  -1.99         -225.623224             +0.0000
iter:   9  07:26:15  -2.43  -2.04         -225.427229             +0.0000
iter:  10  07:26:35  -3.28  -2.56         -225.417621             +0.0000
iter:  11  07:26:54  -3.75  -2.84         -225.409340             +0.0000
iter:  12  07:27:14  -4.16  -3.01         -225.407808             +0.0000
iter:  13  07:27:34  -5.06  -3.28         -225.407649             +0.0000
iter:  14  07:27:54  -5.09  -3.32         -225.407577             +0.0000
iter:  15  07:28:14  -6.00  -3.42         -225.407478             +0.0000
iter:  16  07:28:34  -4.94  -3.47         -225.407629             -0.0000
iter:  17  07:28:54  -5.25  -3.54         -225.407637             +0.0000
iter:  18  07:29:14  -5.79  -3.86         -225.407457             -0.0000
iter:  19  07:29:33  -6.45  -4.01         -225.407445             -0.0000
iter:  20  07:29:53  -6.65  -4.08         -225.407449             -0.0000
iter:  21  07:30:13  -6.12  -4.23         -225.407437             -0.0000
iter:  22  07:30:33  -7.02  -4.46         -225.407432             +0.0000
iter:  23  07:30:57  -7.56  -4.50         -225.407431             +0.0000
iter:  24  07:31:17  -6.89  -4.59         -225.407436             -0.0000
iter:  25  07:31:37  -7.15  -4.53         -225.407432             -0.0000
iter:  26  07:32:02  -7.88  -4.74    -2.62-225.407433             -0.0000
iter:  27  07:32:26  -8.36  -4.85    -3.19-225.407433             +0.0000
iter:  28  07:32:51  -7.88  -4.93    -2.63-225.407434             +0.0000
iter:  29  07:33:15  -7.45  -4.93    -2.43-225.407433             +0.0000
iter:  30  07:33:40  -8.97  -5.10    -3.10-225.407433             +0.0000
iter:  31  07:34:04  -8.15  -5.21    -2.75-225.407433             +0.0000
iter:  32  07:34:29  -8.53  -5.43    -3.02-225.407433             +0.0000
iter:  33  07:34:53  -9.58  -5.66    -3.35-225.407433             +0.0000
iter:  34  07:35:18  -9.76  -5.73    -3.95-225.407433             +0.0000
iter:  35  07:35:42 -10.00  -5.77    -3.61-225.407433             +0.0000
iter:  36  07:36:07 -11.01  -5.91    -4.34-225.407433             +0.0000
iter:  37  07:36:31  -9.95  -5.94    -3.64-225.407433             +0.0000
iter:  38  07:36:56 -11.20  -6.14    -4.22-225.407433             +0.0000
iter:  39  07:37:20 -10.35  -6.19    -3.90-225.407433             -0.0000
iter:  40  07:37:45 -10.77  -6.30    -3.95-225.407433             +0.0000
iter:  41  07:38:09 -11.61  -6.39    -4.30-225.407433             +0.0000
iter:  42  07:38:34 -11.29  -6.55    -4.81-225.407433             +0.0000
iter:  43  07:38:58 -11.29  -6.67    -4.43-225.407433             +0.0000
iter:  44  07:39:23 -11.81  -6.80    -4.66-225.407433             +0.0000
iter:  45  07:39:47 -11.43  -6.98    -4.89-225.407433             +0.0000
iter:  46  07:40:12 -12.62  -7.08    -5.46-225.407433             +0.0000
iter:  47  07:40:36 -11.69  -7.12    -4.99-225.407433             -0.0000
iter:  48  07:41:01 -11.78  -7.19    -4.87-225.407433             -0.0000
iter:  49  07:41:25 -12.50  -7.70    -5.93-225.407433             -0.0000
iter:  50  07:41:50 -13.10  -7.73    -5.73-225.407433             -0.0000
iter:  51  07:42:15 -13.97  -7.76    -5.59-225.407433             +0.0000
iter:  52  07:42:39 -14.41  -7.76    -6.36-225.407433             +0.0000

Converged after 52 iterations.

Dipole moment: (19.051937, -1.420717, -4.106791) |e|*Ang

Total magnetic moment: (0.000000, 0.000000, 0.000000)
Local magnetic moments:
   0 O  ( 0.000000,  0.000000,  0.000660)
   1 O  ( 0.000000,  0.000000, -0.000809)
   2 O  ( 0.000000,  0.000000, -0.000659)
   3 O  ( 0.000000,  0.000000,  0.000693)
   4 O  ( 0.000000,  0.000000, -0.000664)
   5 O  ( 0.000000,  0.000000,  0.000697)
   6 O  ( 0.000000,  0.000000,  0.000656)
   7 O  ( 0.000000,  0.000000, -0.000805)
   8 O  ( 0.000000,  0.000000,  0.022368)
   9 O  ( 0.000000,  0.000000, -0.022299)
  10 O  ( 0.000000,  0.000000, -0.022179)
  11 O  ( 0.000000,  0.000000,  0.022369)
  12 Mn ( 0.000000,  0.000000,  4.575352)
  13 Mn ( 0.000000,  0.000000, -4.574968)
  14 Mn ( 0.000000,  0.000000, -4.575250)
  15 Mn ( 0.000000,  0.000000,  4.575033)
  16 P  ( 0.000000,  0.000000,  0.000799)
  17 P  ( 0.000000,  0.000000, -0.000701)
  18 P  ( 0.000000,  0.000000, -0.000811)
  19 P  ( 0.000000,  0.000000,  0.000816)
  20 O  ( 0.000000,  0.000000,  0.020689)
  21 O  ( 0.000000,  0.000000, -0.020941)
  22 O  ( 0.000000,  0.000000, -0.020738)
  23 O  ( 0.000000,  0.000000,  0.020708)
  24 Li ( 0.000000,  0.000000, -0.000003)
  25 Li ( 0.000000,  0.000000,  0.000000)
  26 Li ( 0.000000,  0.000000, -0.000003)
  27 Li ( 0.000000,  0.000000,  0.000000)

Energy contributions relative to reference atoms: (reference = -196157.275402)

Kinetic:       +296.886041
Potential:     -256.403400
External:        +0.000000
XC:            -267.670605
Entropy (-ST):   -0.000000
Local:           +1.780530
--------------------------
Free energy:   -225.407433
Extrapolated:  -225.407433

Spin contamination: 9.697356 electrons
Showing only first 2 kpts
                      Up                     Down
 Kpt  Band  Eigenvalues  Occupancy  Eigenvalues  Occupancy
  0    88      5.10332    0.00694      5.10813    0.00694
  0    89      5.15559    0.00694      5.16515    0.00694
  0    90      9.64988    0.00000      9.64665    0.00000
  0    91      9.67596    0.00000      9.66837    0.00000

  1    88      5.11469    0.00694      5.12002    0.00694
  1    89      5.16499    0.00694      5.17359    0.00694
  1    90      9.53204    0.00000      9.52892    0.00000
  1    91      9.54956    0.00000      9.54291    0.00000


Fermi level: 6.36964

Gap: 3.795 eV
Transition (v -> c):
  (s=1, k=68, n=89, [-0.08, 0.42, -0.38]) -> (s=0, k=85, n=90, [0.08, 0.08, -0.12])
Writing to born-0.01-17z+.gpw (mode='all')

Timing:                              incl.     excl.
-----------------------------------------------------------
Hamiltonian:                         0.222     0.002   0.0% |
 Atomic:                             0.059     0.059   0.0% |
  XC Correction:                     0.000     0.000   0.0% |
 Calculate atomic Hamiltonians:      0.074     0.074   0.0% |
 Communicate:                        0.001     0.001   0.0% |
 Initialize Hamiltonian:             0.000     0.000   0.0% |
 Poisson:                            0.001     0.001   0.0% |
 XC 3D grid:                         0.085     0.085   0.0% |
LCAO initialization:                73.360     0.648   0.0% |
 LCAO eigensolver:                  19.428     0.002   0.0% |
  Calculate projections:             0.029     0.029   0.0% |
  DenseAtomicCorrection:             0.045     0.045   0.0% |
  Distribute overlap matrix:         0.009     0.009   0.0% |
  Orbital Layouts:                   0.434     0.434   0.0% |
  Potential matrix:                 18.822    18.822   0.6% |
  Sum over cells:                    0.088     0.088   0.0% |
 LCAO to grid:                      51.972    51.972   1.6% ||
 Set positions (LCAO WFS):           1.312     0.190   0.0% |
  Basic WFS set positions:           0.001     0.001   0.0% |
  Basis functions set positions:     0.000     0.000   0.0% |
  P tci:                             0.521     0.521   0.0% |
  ST tci:                            0.383     0.383   0.0% |
  mktci:                             0.216     0.216   0.0% |
PWDescriptor:                        0.023     0.023   0.0% |
SCF-cycle:                        1164.867     0.347   0.0% |
 Davidson:                         980.053   301.467   9.3% |---|
  Apply H:                          67.415    65.448   2.0% ||
   HMM T:                            1.967     1.967   0.1% |
  Subspace diag:                   142.285     0.150   0.0% |
   calc_h_matrix:                   91.469    23.777   0.7% |
    Apply H:                        67.692    65.689   2.0% ||
     HMM T:                          2.003     2.003   0.1% |
   diagonalize:                      7.062     7.062   0.2% |
   rotate_psi:                      43.604    43.604   1.4% ||
  calc. matrices:                  292.678   161.209   5.0% |-|
   Apply H:                        131.469   127.832   4.0% |-|
    HMM T:                           3.637     3.637   0.1% |
  diagonalize:                      81.770    81.770   2.5% ||
  rotate_psi:                       94.439    94.439   2.9% ||
 Density:                           39.615     0.001   0.0% |
  Atomic density matrices:           0.804     0.804   0.0% |
  Mix:                               5.456     5.456   0.2% |
  Multipole moments:                 0.019     0.019   0.0% |
  Pseudo density:                   33.334    33.333   1.0% |
   Symmetrize density:               0.001     0.001   0.0% |
 Forces:                           131.477   131.477   4.1% |-|
 Hamiltonian:                       11.284     0.106   0.0% |
  Atomic:                            2.861     2.861   0.1% |
   XC Correction:                    0.000     0.000   0.0% |
  Calculate atomic Hamiltonians:     3.840     3.840   0.1% |
  Communicate:                       0.097     0.097   0.0% |
  Poisson:                           0.031     0.031   0.0% |
  XC 3D grid:                        4.349     4.349   0.1% |
 Orthonormalize:                     2.090     0.003   0.0% |
  calc_s_matrix:                     0.245     0.245   0.0% |
  inverse-cholesky:                  0.073     0.073   0.0% |
  projections:                       1.335     1.335   0.0% |
  rotate_psi_s:                      0.434     0.434   0.0% |
Set symmetry:                        0.000     0.000   0.0% |
Other:                            1988.603  1988.603  61.6% |------------------------|
-----------------------------------------------------------
Total:                                      3227.075 100.0%

Memory usage: 12.69 GiB
Date: Wed Mar 24 08:15:47 2021
