
  ___ ___ ___ _ _ _  
 |   |   |_  | | | | 
 | | | | | . | | | | 
 |__ |  _|___|_____|  20.10.1b1
 |___|_|             

User:   madkru@g035.nifl.fysik.dtu.dk
Date:   Sun Mar 21 14:09:32 2021
Arch:   x86_64
Pid:    44316
Python: 3.7.4
gpaw:   /home/niflheim/madkru/venv_folder/gpaw/gpaw (d0d1ca1c71)
_gpaw:  /home/niflheim/madkru/venv_folder/gpaw/build/lib.linux-x86_64-sandybridge-3.7/
        _gpaw.cpython-37m-x86_64-linux-gnu.so (4fd39e8b1e)
ase:    /home/niflheim/madkru/venv_folder/ase/ase (version 3.21.0b1-7e6c206a91)
numpy:  /home/niflheim/madkru/venv_folder/lib/python3.7/site-packages/numpy (version 1.19.4)
scipy:  /home/niflheim/madkru/venv_folder/lib/python3.7/site-packages/scipy (version 1.5.4)
libxc:  4.3.4
units:  Angstrom and eV
cores: 32
OMP_NUM_THREADS: 1

Input parameters:
  convergence: {bands: occupied,
                density: 0.0001,
                eigenstates: 4e-08,
                energy: 0.0005,
                forces: 1e-06}
  kpts: [6 6 4]
  mode: {ecut: 600.0,
         gammacentered: False,
         name: pw}
  occupations: {fixmagmom: False,
                name: fermi-dirac,
                width: 0.001}
  setups: {Mn: :d,3.0}
  symmetry: {point_group: False,
             time_reversal: False}

System changes: positions, numbers, cell, pbc, initial_charges, initial_magmoms 

Initialize ...

O-setup:
  name: Oxygen
  id: 9b9d51c344dea68c822856295a461509
  Z: 8.0
  valence: 6
  core: 2
  charge: 0.0
  file: /home/modules/software/GPAW-setups/0.9.20000/O.LDA.gz
  compensation charges: gauss, rc=0.21, lmax=2
  cutoffs: 1.17(filt), 0.83(core),
  valence states:
                energy  radius
    2s(2.00)   -23.752   0.688
    2p(4.00)    -9.195   0.598
    *s           3.459   0.688
    *p          18.016   0.598
    *d           0.000   0.619

  Using partial waves for O as LCAO basis

Mn-setup:
  name: Manganese
  id: 0d715a8018be061a6e9ea6f2d364ac92
  Z: 25.0
  valence: 15
  core: 10
  charge: 0.0
  Hubbard U: 3.000000 eV (l=2, scale=True)
  file: /home/modules/software/GPAW-setups/0.9.20000/Mn.LDA.gz
  compensation charges: gauss, rc=0.38, lmax=2
  cutoffs: 2.14(filt), 0.86(core),
  valence states:
                energy  radius
    3s(2.00)   -85.387   1.275
    4s(2.00)    -5.282   1.275
    3p(6.00)   -54.493   1.281
    4p(0.00)    -1.471   1.281
    3d(5.00)    -7.009   1.138
    *d          20.203   1.138

  Using partial waves for Mn as LCAO basis

P-setup:
  name: Phosphorus
  id: a5561c299094968922a179ab894d2e2d
  Z: 15.0
  valence: 5
  core: 10
  charge: 0.0
  file: /home/modules/software/GPAW-setups/0.9.20000/P.LDA.gz
  compensation charges: gauss, rc=0.30, lmax=2
  cutoffs: 1.69(filt), 1.81(core),
  valence states:
                energy  radius
    3s(2.00)   -14.015   0.953
    3p(3.00)    -5.596   0.953
    *s          13.197   0.953
    *p          21.615   0.953
    *d           0.000   0.953

  Using partial waves for P as LCAO basis

Li-setup:
  name: Lithium
  id: b73562207f97a71b6967473b66fe8b65
  Z: 3.0
  valence: 1
  core: 2
  charge: 0.0
  file: /home/modules/software/GPAW-setups/0.9.20000/Li.LDA.gz
  compensation charges: gauss, rc=0.33, lmax=2
  cutoffs: 1.91(filt), 2.55(core),
  valence states:
                energy  radius
    2s(1.00)    -2.874   1.058
    2p(0.00)    -1.126   1.058
    *s          24.338   1.058

  Using partial waves for Li as LCAO basis

Reference energy: -196157.275402

Spin-polarized calculation.
Magnetic moment: 0.000000

Convergence criteria:
  Maximum total energy change: 0.0005 eV / electron
  Maximum integral of absolute density change: 0.0001 electrons
  Maximum integral of absolute eigenstate change: 4e-08 eV^2
  Maximum change in atomic force: 1e-06 eV / Ang
  Maximum number of iterations: 333

Symmetries present (total): 1

  ( 1  0  0)
  ( 0  1  0)
  ( 0  0  1)

144 k-points: 6 x 6 x 4 Monkhorst-Pack grid
144 k-points in the irreducible part of the Brillouin zone
       k-points in crystal coordinates                weights
   0:    -0.41666667   -0.41666667   -0.37500000          1/144
   1:    -0.41666667   -0.41666667   -0.12500000          1/144
   2:    -0.41666667   -0.41666667    0.12500000          1/144
   3:    -0.41666667   -0.41666667    0.37500000          1/144
   4:    -0.41666667   -0.25000000   -0.37500000          1/144
   5:    -0.41666667   -0.25000000   -0.12500000          1/144
   6:    -0.41666667   -0.25000000    0.12500000          1/144
   7:    -0.41666667   -0.25000000    0.37500000          1/144
   8:    -0.41666667   -0.08333333   -0.37500000          1/144
   9:    -0.41666667   -0.08333333   -0.12500000          1/144
          ...
 143:     0.41666667    0.41666667    0.37500000          1/144

Wave functions: Plane wave expansion
  Cutoff energy: 600.000 eV
  Number of coefficients (min, max): 9238, 9284
  Pulay-stress correction: 0.000000 eV/Ang^3 (de/decut=0.000000)
  Using FFTW library
  ScaLapack parameters: grid=1x1, blocksize=None
  Wavefunction extrapolation:
    Improved wavefunction reuse through dual PAW basis 

  Fermi-Dirac: width=0.0010 eV

Eigensolver
   Davidson(niter=2, smin=None, normalize=True) 

Densities:
  Coarse grid: 60*35*27 grid
  Fine grid: 120*70*54 grid
  Total Charge: 0.000000 

Density mixing:
  Method: difference
  Backend: pulay
  Linear mixing parameter: 0.05
  Mixing with 5 old densities
  Damping of long wave oscillations: 50 

Hamiltonian:
  XC and Coulomb potentials evaluated on a 120*70*54 grid
  Using the LDA Exchange-Correlation functional
 

Memory estimate:
  Process memory now: 12475.00 MiB
  Calculator: 346.50 MiB
    Density: 19.24 MiB
      Arrays: 7.57 MiB
      Localized functions: 8.64 MiB
      Mixer: 3.03 MiB
    Hamiltonian: 5.87 MiB
      Arrays: 5.62 MiB
      XC: 0.00 MiB
      Poisson: 0.00 MiB
      vbar: 0.25 MiB
    Wavefunctions: 321.38 MiB
      Arrays psit_nG: 285.59 MiB
      Eigensolver: 18.49 MiB
      Projections: 5.41 MiB
      Projectors: 8.92 MiB
      PW-descriptor: 2.96 MiB

Total number of cores used: 32
Parallelization over k-points: 16
Domain decomposition: 2 x 1 x 1

Number of atoms: 28
Number of atomic orbitals: 148
Number of bands in calculation: 112
Number of valence electrons: 180
Bands to converge: occupied

... initialized

Initializing position-dependent things.

Density initialized from atomic densities
Creating initial wave functions:
  112 bands from LCAO basis set

                                           
                                           
                                           
                                           
                                           
               O     O  P  O               
            PO           OMn     O         
                  O          MO            
            O        Li O                  
             Mn  On          OP            
         O         Li O                    
         Li     O P         O              
       Li                                  
                                           
                                           
                                           
                                           

Positions:
   0 O     -1.263197   -2.497779   -1.098475    ( 0.0000,  0.0000,  0.0000)
   1 O     -3.070823    2.922496    1.209491    ( 0.0000,  0.0000,  0.0000)
   2 O      1.995541    0.474863    1.428016    ( 0.0000,  0.0000,  0.0000)
   3 O      3.793120   -0.050100   -0.879950    ( 0.0000,  0.0000,  0.0000)
   4 O      1.985518    2.922485    1.428149    ( 0.0000,  0.0000,  0.0000)
   5 O      3.793144   -2.497790   -0.879818    ( 0.0000,  0.0000,  0.0000)
   6 O     -1.263220   -0.050157   -1.098342    ( 0.0000,  0.0000,  0.0000)
   7 O     -3.070798    0.474805    1.209623    ( 0.0000,  0.0000,  0.0000)
   8 O     -4.167835   -1.273920   -0.862116    ( 0.0000,  0.0000,  0.0000)
   9 O     -0.166037    1.698602    1.445528    ( 0.0000,  0.0000,  0.0000)
  10 O      4.890156    1.698625    1.191790    ( 0.0000,  0.0000,  0.0000)
  11 O      0.888358   -1.273896   -1.115855    ( 0.0000,  0.0000,  0.0000)
  12 Mn    -2.445557   -1.274211    0.312921    ( 0.0000,  0.0000,  1.0000)
  13 Mn    -1.888303    1.698892   -1.994948    ( 0.0000,  0.0000, -1.0000)
  14 Mn     3.167879    1.698917    0.016752    ( 0.0000,  0.0000, -1.0000)
  15 Mn     2.610624   -1.274187    2.324621    ( 0.0000,  0.0000,  1.0000)
  16 P     -0.529549   -1.273917   -1.724376    ( 0.0000,  0.0000,  0.0000)
  17 P     -3.804359    1.698599    0.583463    ( 0.0000,  0.0000,  0.0000)
  18 P      1.251870    1.698623    2.054050    ( 0.0000,  0.0000,  0.0000)
  19 P      4.526680   -1.273894   -0.253789    ( 0.0000,  0.0000,  0.0000)
  20 O     -0.544227   -1.273926    1.365380    ( 0.0000,  0.0000,  0.0000)
  21 O     -3.789411    1.698610   -0.942222    ( 0.0000,  0.0000,  0.0000)
  22 O      1.266548    1.698631   -1.035707    ( 0.0000,  0.0000,  0.0000)
  23 O      4.511733   -1.273905    1.271895    ( 0.0000,  0.0000,  0.0000)
  24 Li    -4.695087   -2.760584   -2.142877    ( 0.0000,  0.0000,  0.0000)
  25 Li     0.361147   -2.760561    0.164836    ( 0.0000,  0.0000,  0.0000)
  26 Li    -4.695074    0.212330   -2.142877    ( 0.0000,  0.0000,  0.0000)
  27 Li     0.361161    0.212353    0.164837    ( 0.0000,  0.0000,  0.0000)

Unit cell:
           periodic     x           y           z      points  spacing
  1. axis:    yes   10.112485    0.000045   -0.000035    60     0.1685
  2. axis:    yes    0.000026    5.945827    0.000001    35     0.1699
  3. axis:    yes   -0.000016    0.000000    4.615463    27     0.1709

  Lengths:  10.112485   5.945827   4.615463
  Angles:   89.999989  90.000396  89.999490

Effective grid spacing dv^(1/3) = 0.1698

                     log10-error:           total        iterations:
           time      wfs    density  force  energy       poisson  magmom
iter:   1  14:12:47                       -221.372041             +0.0000
iter:   2  14:13:24  -0.61  -0.93         -234.815121             +0.0000
iter:   3  14:14:01  -0.37  -0.97         -225.905541             -0.0000
iter:   4  14:14:39  -1.39  -1.29         -225.761054             +0.0000
iter:   5  14:15:16  -1.27  -1.39         -227.318438             +0.0000
iter:   6  14:15:54  -1.47  -1.46         -225.736710             +0.0000
iter:   7  14:16:31  -2.48  -2.04         -225.723182             +0.0000
iter:   8  14:17:08  -2.13  -1.99         -225.600212             +0.0000
iter:   9  14:17:46  -2.44  -2.08         -225.431385             +0.0000
iter:  10  14:18:23  -3.32  -2.55         -225.421962             +0.0000
iter:  11  14:19:01  -3.68  -2.81         -225.411718             +0.0000
iter:  12  14:19:38  -4.12  -3.03         -225.410496             +0.0000
iter:  13  14:20:15  -5.08  -3.29         -225.410345             -0.0000
iter:  14  14:20:53  -5.39  -3.32         -225.410185             -0.0000
iter:  15  14:21:30  -6.08  -3.43         -225.410186             -0.0000
iter:  16  14:22:07  -5.37  -3.47         -225.410419             +0.0000
iter:  17  14:22:45  -5.77  -3.62         -225.410348             -0.0000
iter:  18  14:23:22  -5.59  -3.77         -225.410140             +0.0000
iter:  19  14:23:59  -6.08  -3.93         -225.410136             +0.0000
iter:  20  14:24:37  -6.79  -4.06         -225.410118             -0.0000
iter:  21  14:25:14  -7.08  -4.19         -225.410134             +0.0000
iter:  22  14:25:51  -7.14  -4.30         -225.410135             +0.0000
iter:  23  14:26:39  -7.87  -4.28         -225.410132             +0.0000
iter:  24  14:27:26  -7.71  -4.30    -2.49-225.410134             +0.0000
iter:  25  14:28:13  -7.44  -4.62    -2.75-225.410132             +0.0000
iter:  26  14:29:00  -8.03  -4.83    -3.15-225.410132             +0.0000
iter:  27  14:29:47  -8.63  -4.88    -3.05-225.410131             +0.0000
iter:  28  14:30:34  -8.42  -4.94    -2.72-225.410131             +0.0000
iter:  29  14:31:22  -8.84  -5.14    -3.18-225.410131             +0.0000
iter:  30  14:32:09  -8.59  -5.27    -3.38-225.410131             +0.0000
iter:  31  14:32:56  -9.36  -5.47    -3.65-225.410131             +0.0000
iter:  32  14:33:43 -10.20  -5.55    -3.92-225.410131             +0.0000
iter:  33  14:34:30  -9.25  -5.61    -3.62-225.410131             +0.0000
iter:  34  14:35:17  -9.95  -5.74    -3.83-225.410131             +0.0000
iter:  35  14:36:05 -10.67  -5.81    -4.42-225.410131             +0.0000
iter:  36  14:36:52  -9.50  -5.87    -3.69-225.410131             +0.0000
iter:  37  14:37:39 -10.17  -6.20    -3.83-225.410131             +0.0000
iter:  38  14:38:26 -11.09  -6.53    -4.71-225.410131             -0.0000
iter:  39  14:39:13 -10.70  -6.56    -4.37-225.410131             +0.0000
iter:  40  14:40:00 -11.12  -6.62    -4.40-225.410131             +0.0000
iter:  41  14:40:48 -12.37  -6.77    -5.08-225.410131             +0.0000
iter:  42  14:41:35 -12.94  -6.81    -5.18-225.410131             +0.0000
iter:  43  14:42:22 -11.75  -6.85    -4.78-225.410131             +0.0000
iter:  44  14:43:09 -12.41  -7.16    -5.68-225.410131             +0.0000
iter:  45  14:43:56 -13.27  -7.28    -5.73-225.410131             +0.0000
iter:  46  14:44:43 -13.18  -7.34    -5.23-225.410131             +0.0000
iter:  47  14:45:30 -13.14  -7.42    -5.38-225.410131             +0.0000
iter:  48  14:46:18 -14.11  -7.51    -5.98-225.410131             +0.0000
iter:  49  14:47:05 -13.10  -7.52    -5.31-225.410131             +0.0000
iter:  50  14:47:52 -13.42  -7.61    -5.41-225.410131             +0.0000
iter:  51  14:48:38 -13.80  -7.83    -6.25-225.410131             -0.0000

Converged after 51 iterations.

Dipole moment: (19.051962, -1.430492, -4.183113) |e|*Ang

Total magnetic moment: (0.000000, 0.000000, -0.000000)
Local magnetic moments:
   0 O  ( 0.000000,  0.000000,  0.000654)
   1 O  ( 0.000000,  0.000000, -0.000685)
   2 O  ( 0.000000,  0.000000, -0.000689)
   3 O  ( 0.000000,  0.000000,  0.000680)
   4 O  ( 0.000000,  0.000000, -0.000684)
   5 O  ( 0.000000,  0.000000,  0.000710)
   6 O  ( 0.000000,  0.000000,  0.000648)
   7 O  ( 0.000000,  0.000000, -0.000681)
   8 O  ( 0.000000,  0.000000,  0.022405)
   9 O  ( 0.000000,  0.000000, -0.022277)
  10 O  ( 0.000000,  0.000000, -0.022381)
  11 O  ( 0.000000,  0.000000,  0.022348)
  12 Mn ( 0.000000,  0.000000,  4.575058)
  13 Mn ( 0.000000,  0.000000, -4.575032)
  14 Mn ( 0.000000,  0.000000, -4.574677)
  15 Mn ( 0.000000,  0.000000,  4.574517)
  16 P  ( 0.000000,  0.000000,  0.000821)
  17 P  ( 0.000000,  0.000000, -0.000822)
  18 P  ( 0.000000,  0.000000, -0.000829)
  19 P  ( 0.000000,  0.000000,  0.000807)
  20 O  ( 0.000000,  0.000000,  0.020693)
  21 O  ( 0.000000,  0.000000, -0.020737)
  22 O  ( 0.000000,  0.000000, -0.020693)
  23 O  ( 0.000000,  0.000000,  0.020751)
  24 Li ( 0.000000,  0.000000, -0.000001)
  25 Li ( 0.000000,  0.000000,  0.000004)
  26 Li ( 0.000000,  0.000000,  0.000000)
  27 Li ( 0.000000,  0.000000, -0.000005)

Energy contributions relative to reference atoms: (reference = -196157.275402)

Kinetic:       +296.582045
Potential:     -256.187502
External:        +0.000000
XC:            -267.585724
Entropy (-ST):   -0.000000
Local:           +1.781050
--------------------------
Free energy:   -225.410131
Extrapolated:  -225.410131

Spin contamination: 9.696713 electrons
Showing only first 2 kpts
                      Up                     Down
 Kpt  Band  Eigenvalues  Occupancy  Eigenvalues  Occupancy
  0    88      5.11277    0.00694      5.10937    0.00694
  0    89      5.16513    0.00694      5.16309    0.00694
  0    90      9.65575    0.00000      9.65217    0.00000
  0    91      9.67089    0.00000      9.67730    0.00000

  1    88      5.12442    0.00694      5.12059    0.00694
  1    89      5.17440    0.00694      5.17276    0.00694
  1    90      9.53771    0.00000      9.53364    0.00000
  1    91      9.54910    0.00000      9.55181    0.00000


Fermi level: 6.37052

Gap: 3.792 eV
Transition (v -> c):
  (s=0, k=51, n=89, [-0.08, -0.42, 0.38]) -> (s=1, k=61, n=90, [-0.08, 0.08, -0.12])
Writing to born-0.01-2x+.gpw (mode='all')

Timing:                              incl.     excl.
-----------------------------------------------------------
Hamiltonian:                         0.405     0.002   0.0% |
 Atomic:                             0.057     0.057   0.0% |
  XC Correction:                     0.000     0.000   0.0% |
 Calculate atomic Hamiltonians:      0.167     0.167   0.0% |
 Communicate:                        0.002     0.002   0.0% |
 Initialize Hamiltonian:             0.000     0.000   0.0% |
 Poisson:                            0.001     0.001   0.0% |
 XC 3D grid:                         0.175     0.175   0.0% |
LCAO initialization:               152.398     0.676   0.0% |
 LCAO eigensolver:                  40.252     0.003   0.0% |
  Calculate projections:             0.057     0.057   0.0% |
  DenseAtomicCorrection:             0.083     0.083   0.0% |
  Distribute overlap matrix:         0.439     0.439   0.0% |
  Orbital Layouts:                   0.361     0.361   0.0% |
  Potential matrix:                 39.211    39.211   0.7% |
  Sum over cells:                    0.099     0.099   0.0% |
 LCAO to grid:                     109.105   109.105   2.1% ||
 Set positions (LCAO WFS):           2.365     0.371   0.0% |
  Basic WFS set positions:           0.001     0.001   0.0% |
  Basis functions set positions:     0.000     0.000   0.0% |
  P tci:                             1.074     1.074   0.0% |
  ST tci:                            0.704     0.704   0.0% |
  mktci:                             0.214     0.214   0.0% |
PWDescriptor:                        0.025     0.025   0.0% |
SCF-cycle:                        2191.465     0.407   0.0% |
 Davidson:                        1806.991   569.270  10.8% |---|
  Apply H:                         134.851   131.228   2.5% ||
   HMM T:                            3.624     3.624   0.1% |
  Subspace diag:                   271.662     0.162   0.0% |
   calc_h_matrix:                  180.172    46.471   0.9% |
    Apply H:                       133.702   130.152   2.5% ||
     HMM T:                          3.549     3.549   0.1% |
   diagonalize:                      6.234     6.234   0.1% |
   rotate_psi:                      85.093    85.093   1.6% ||
  calc. matrices:                  572.082   310.552   5.9% |-|
   Apply H:                        261.530   254.872   4.8% |-|
    HMM T:                           6.658     6.658   0.1% |
  diagonalize:                      85.456    85.456   1.6% ||
  rotate_psi:                      173.669   173.669   3.3% ||
 Density:                           76.384     0.001   0.0% |
  Atomic density matrices:           1.338     1.338   0.0% |
  Mix:                              11.591    11.591   0.2% |
  Multipole moments:                 0.029     0.029   0.0% |
  Pseudo density:                   63.423    63.422   1.2% |
   Symmetrize density:               0.001     0.001   0.0% |
 Forces:                           282.904   282.904   5.3% |-|
 Hamiltonian:                       20.706     0.121   0.0% |
  Atomic:                            2.921     2.920   0.1% |
   XC Correction:                    0.000     0.000   0.0% |
  Calculate atomic Hamiltonians:     8.539     8.539   0.2% |
  Communicate:                       0.099     0.099   0.0% |
  Poisson:                           0.081     0.081   0.0% |
  XC 3D grid:                        8.945     8.945   0.2% |
 Orthonormalize:                     4.073     0.004   0.0% |
  calc_s_matrix:                     0.485     0.485   0.0% |
  inverse-cholesky:                  0.055     0.055   0.0% |
  projections:                       2.667     2.667   0.1% |
  rotate_psi_s:                      0.862     0.862   0.0% |
Set symmetry:                        0.000     0.000   0.0% |
Other:                            2946.122  2946.122  55.7% |---------------------|
-----------------------------------------------------------
Total:                                      5290.415 100.0%

Memory usage: 12.20 GiB
Date: Sun Mar 21 15:37:43 2021
