
  ___ ___ ___ _ _ _  
 |   |   |_  | | | | 
 | | | | | . | | | | 
 |__ |  _|___|_____|  20.10.1b1
 |___|_|             

User:   madkru@i018.nifl.fysik.dtu.dk
Date:   Thu Mar 25 04:40:41 2021
Arch:   x86_64
Pid:    26873
Python: 3.7.4
gpaw:   /home/niflheim/madkru/venv_folder/gpaw/gpaw (d224efde0f)
_gpaw:  /home/niflheim/madkru/venv_folder/gpaw/build/lib.linux-x86_64-ivybridge-3.7/
        _gpaw.cpython-37m-x86_64-linux-gnu.so (4fd39e8b1e)
ase:    /home/niflheim/madkru/venv_folder/ase/ase (version 3.21.0b1-4d5a73cb29)
numpy:  /home/niflheim/madkru/venv_folder/lib/python3.7/site-packages/numpy (version 1.19.4)
scipy:  /home/niflheim/madkru/venv_folder/lib/python3.7/site-packages/scipy (version 1.5.4)
libxc:  4.3.4
units:  Angstrom and eV
cores: 64
OMP_NUM_THREADS: 1

Input parameters:
  convergence: {bands: occupied,
                density: 0.0001,
                eigenstates: 4e-08,
                energy: 0.0005,
                forces: 1e-06}
  kpts: [6 6 4]
  mode: {ecut: 600.0,
         gammacentered: False,
         name: pw}
  occupations: {fixmagmom: False,
                name: fermi-dirac,
                width: 0.001}
  setups: {Mn: :d,3.0}
  symmetry: {point_group: False,
             time_reversal: False}

System changes: positions, numbers, cell, pbc, initial_charges, initial_magmoms 

Initialize ...

O-setup:
  name: Oxygen
  id: 9b9d51c344dea68c822856295a461509
  Z: 8.0
  valence: 6
  core: 2
  charge: 0.0
  file: /home/modules/software/GPAW-setups/0.9.20000/O.LDA.gz
  compensation charges: gauss, rc=0.21, lmax=2
  cutoffs: 1.17(filt), 0.83(core),
  valence states:
                energy  radius
    2s(2.00)   -23.752   0.688
    2p(4.00)    -9.195   0.598
    *s           3.459   0.688
    *p          18.016   0.598
    *d           0.000   0.619

  Using partial waves for O as LCAO basis

Mn-setup:
  name: Manganese
  id: 0d715a8018be061a6e9ea6f2d364ac92
  Z: 25.0
  valence: 15
  core: 10
  charge: 0.0
  Hubbard U: 3.000000 eV (l=2, scale=True)
  file: /home/modules/software/GPAW-setups/0.9.20000/Mn.LDA.gz
  compensation charges: gauss, rc=0.38, lmax=2
  cutoffs: 2.14(filt), 0.86(core),
  valence states:
                energy  radius
    3s(2.00)   -85.387   1.275
    4s(2.00)    -5.282   1.275
    3p(6.00)   -54.493   1.281
    4p(0.00)    -1.471   1.281
    3d(5.00)    -7.009   1.138
    *d          20.203   1.138

  Using partial waves for Mn as LCAO basis

P-setup:
  name: Phosphorus
  id: a5561c299094968922a179ab894d2e2d
  Z: 15.0
  valence: 5
  core: 10
  charge: 0.0
  file: /home/modules/software/GPAW-setups/0.9.20000/P.LDA.gz
  compensation charges: gauss, rc=0.30, lmax=2
  cutoffs: 1.69(filt), 1.81(core),
  valence states:
                energy  radius
    3s(2.00)   -14.015   0.953
    3p(3.00)    -5.596   0.953
    *s          13.197   0.953
    *p          21.615   0.953
    *d           0.000   0.953

  Using partial waves for P as LCAO basis

Li-setup:
  name: Lithium
  id: b73562207f97a71b6967473b66fe8b65
  Z: 3.0
  valence: 1
  core: 2
  charge: 0.0
  file: /home/modules/software/GPAW-setups/0.9.20000/Li.LDA.gz
  compensation charges: gauss, rc=0.33, lmax=2
  cutoffs: 1.91(filt), 2.55(core),
  valence states:
                energy  radius
    2s(1.00)    -2.874   1.058
    2p(0.00)    -1.126   1.058
    *s          24.338   1.058

  Using partial waves for Li as LCAO basis

Reference energy: -196157.275402

Spin-polarized calculation.
Magnetic moment: 0.000000

Convergence criteria:
  Maximum total energy change: 0.0005 eV / electron
  Maximum integral of absolute density change: 0.0001 electrons
  Maximum integral of absolute eigenstate change: 4e-08 eV^2
  Maximum change in atomic force: 1e-06 eV / Ang
  Maximum number of iterations: 333

Symmetries present (total): 1

  ( 1  0  0)
  ( 0  1  0)
  ( 0  0  1)

144 k-points: 6 x 6 x 4 Monkhorst-Pack grid
144 k-points in the irreducible part of the Brillouin zone
       k-points in crystal coordinates                weights
   0:    -0.41666667   -0.41666667   -0.37500000          1/144
   1:    -0.41666667   -0.41666667   -0.12500000          1/144
   2:    -0.41666667   -0.41666667    0.12500000          1/144
   3:    -0.41666667   -0.41666667    0.37500000          1/144
   4:    -0.41666667   -0.25000000   -0.37500000          1/144
   5:    -0.41666667   -0.25000000   -0.12500000          1/144
   6:    -0.41666667   -0.25000000    0.12500000          1/144
   7:    -0.41666667   -0.25000000    0.37500000          1/144
   8:    -0.41666667   -0.08333333   -0.37500000          1/144
   9:    -0.41666667   -0.08333333   -0.12500000          1/144
          ...
 143:     0.41666667    0.41666667    0.37500000          1/144

Wave functions: Plane wave expansion
  Cutoff energy: 600.000 eV
  Number of coefficients (min, max): 9238, 9284
  Pulay-stress correction: 0.000000 eV/Ang^3 (de/decut=0.000000)
  Using FFTW library
  ScaLapack parameters: grid=1x1, blocksize=None
  Wavefunction extrapolation:
    Improved wavefunction reuse through dual PAW basis 

  Fermi-Dirac: width=0.0010 eV

Eigensolver
   Davidson(niter=2, smin=None, normalize=True) 

Densities:
  Coarse grid: 60*35*27 grid
  Fine grid: 120*70*54 grid
  Total Charge: 0.000000 

Density mixing:
  Method: difference
  Backend: pulay
  Linear mixing parameter: 0.05
  Mixing with 5 old densities
  Damping of long wave oscillations: 50 

Hamiltonian:
  XC and Coulomb potentials evaluated on a 120*70*54 grid
  Using the LDA Exchange-Correlation functional
 

Memory estimate:
  Process memory now: 13944.93 MiB
  Calculator: 326.59 MiB
    Density: 9.67 MiB
      Arrays: 3.79 MiB
      Localized functions: 4.32 MiB
      Mixer: 1.56 MiB
    Hamiltonian: 2.94 MiB
      Arrays: 2.82 MiB
      XC: 0.00 MiB
      Poisson: 0.00 MiB
      vbar: 0.12 MiB
    Wavefunctions: 313.97 MiB
      Arrays psit_nG: 285.59 MiB
      Eigensolver: 18.49 MiB
      Projections: 2.71 MiB
      Projectors: 4.46 MiB
      PW-descriptor: 2.72 MiB

Total number of cores used: 64
Parallelization over k-points: 16
Domain decomposition: 2 x 2 x 1

Number of atoms: 28
Number of atomic orbitals: 148
Number of bands in calculation: 112
Number of valence electrons: 180
Bands to converge: occupied

... initialized

Initializing position-dependent things.

Density initialized from atomic densities
Creating initial wave functions:
  112 bands from LCAO basis set

                                           
                                           
                                           
                                           
                                           
               O     O  P  O               
            PO           OMn     O         
                  O          MO            
            O        Li O                  
             Mn  On          OP            
         O         Li O                    
         Li     O P         O              
       Li                                  
                                           
                                           
                                           
                                           

Positions:
   0 O     -1.263197   -2.497779   -1.098475    ( 0.0000,  0.0000,  0.0000)
   1 O     -3.070823    2.922496    1.209491    ( 0.0000,  0.0000,  0.0000)
   2 O      1.985541    0.474863    1.428016    ( 0.0000,  0.0000,  0.0000)
   3 O      3.793120   -0.050100   -0.879950    ( 0.0000,  0.0000,  0.0000)
   4 O      1.985518    2.922485    1.428149    ( 0.0000,  0.0000,  0.0000)
   5 O      3.793144   -2.497790   -0.879818    ( 0.0000,  0.0000,  0.0000)
   6 O     -1.263220   -0.050157   -1.098342    ( 0.0000,  0.0000,  0.0000)
   7 O     -3.070798    0.474805    1.209623    ( 0.0000,  0.0000,  0.0000)
   8 O     -4.167835   -1.273920   -0.862116    ( 0.0000,  0.0000,  0.0000)
   9 O     -0.166037    1.698602    1.445528    ( 0.0000,  0.0000,  0.0000)
  10 O      4.890156    1.698625    1.191790    ( 0.0000,  0.0000,  0.0000)
  11 O      0.888358   -1.273896   -1.115855    ( 0.0000,  0.0000,  0.0000)
  12 Mn    -2.445557   -1.274211    0.312921    ( 0.0000,  0.0000,  1.0000)
  13 Mn    -1.888303    1.698892   -1.994948    ( 0.0000,  0.0000, -1.0000)
  14 Mn     3.167879    1.698917    0.016752    ( 0.0000,  0.0000, -1.0000)
  15 Mn     2.610624   -1.274187    2.324621    ( 0.0000,  0.0000,  1.0000)
  16 P     -0.529549   -1.273917   -1.724376    ( 0.0000,  0.0000,  0.0000)
  17 P     -3.804359    1.698599    0.583463    ( 0.0000,  0.0000,  0.0000)
  18 P      1.251870    1.698623    2.054050    ( 0.0000,  0.0000,  0.0000)
  19 P      4.526680   -1.273894   -0.253789    ( 0.0000,  0.0000,  0.0000)
  20 O     -0.544227   -1.273926    1.365380    ( 0.0000,  0.0000,  0.0000)
  21 O     -3.789411    1.698610   -0.942222    ( 0.0000,  0.0000,  0.0000)
  22 O      1.266548    1.698631   -1.035707    ( 0.0000,  0.0000,  0.0000)
  23 O      4.511733   -1.273905    1.271895    ( 0.0000,  0.0000,  0.0000)
  24 Li    -4.695087   -2.760584   -2.142877    ( 0.0000,  0.0000,  0.0000)
  25 Li     0.371147   -2.760561    0.164836    ( 0.0000,  0.0000,  0.0000)
  26 Li    -4.695074    0.212330   -2.142877    ( 0.0000,  0.0000,  0.0000)
  27 Li     0.361161    0.212353    0.164837    ( 0.0000,  0.0000,  0.0000)

Unit cell:
           periodic     x           y           z      points  spacing
  1. axis:    yes   10.112485    0.000045   -0.000035    60     0.1685
  2. axis:    yes    0.000026    5.945827    0.000001    35     0.1699
  3. axis:    yes   -0.000016    0.000000    4.615463    27     0.1709

  Lengths:  10.112485   5.945827   4.615463
  Angles:   89.999989  90.000396  89.999490

Effective grid spacing dv^(1/3) = 0.1698

                     log10-error:           total        iterations:
           time      wfs    density  force  energy       poisson  magmom
iter:   1  04:42:16                       -221.376825             +0.0000
iter:   2  04:42:35  -0.61  -0.93         -234.836104             +0.0000
iter:   3  04:42:55  -0.37  -0.97         -225.912166             -0.0000
iter:   4  04:43:15  -1.39  -1.29         -225.761721             +0.0000
iter:   5  04:43:35  -1.27  -1.39         -227.329990             +0.0000
iter:   6  04:43:55  -1.46  -1.46         -225.737524             +0.0000
iter:   7  04:44:15  -2.47  -2.04         -225.724943             +0.0000
iter:   8  04:44:35  -2.14  -1.99         -225.590671             +0.0000
iter:   9  04:44:54  -2.46  -2.09         -225.432563             +0.0000
iter:  10  04:45:14  -3.31  -2.55         -225.422624             +0.0000
iter:  11  04:45:34  -3.65  -2.81         -225.412198             +0.0000
iter:  12  04:45:54  -4.12  -3.05         -225.411093             +0.0000
iter:  13  04:46:14  -5.11  -3.29         -225.410973             -0.0000
iter:  14  04:46:34  -5.39  -3.32         -225.410799             -0.0000
iter:  15  04:46:54  -6.04  -3.43         -225.410806             -0.0000
iter:  16  04:47:14  -5.24  -3.47         -225.411147             +0.0000
iter:  17  04:47:34  -5.86  -3.58         -225.411033             -0.0000
iter:  18  04:47:54  -5.21  -3.70         -225.410749             +0.0000
iter:  19  04:48:14  -6.10  -4.14         -225.410752             -0.0000
iter:  20  04:48:33  -7.28  -4.54         -225.410754             -0.0000
iter:  21  04:48:58  -8.07  -4.57         -225.410754             -0.0000
iter:  22  04:49:23  -7.85  -4.63    -2.36-225.410754             -0.0000
iter:  23  04:49:47  -8.17  -4.88    -2.69-225.410753             -0.0000
iter:  24  04:50:12  -8.72  -5.12    -3.05-225.410753             -0.0000
iter:  25  04:50:36  -9.26  -5.21    -3.34-225.410753             -0.0000
iter:  26  04:51:01  -9.03  -5.32    -3.19-225.410753             -0.0000
iter:  27  04:51:25  -9.29  -5.52    -3.36-225.410753             -0.0000
iter:  28  04:51:50  -9.99  -5.58    -3.94-225.410753             -0.0000
iter:  29  04:52:14  -9.91  -5.61    -3.51-225.410753             -0.0000
iter:  30  04:52:39 -10.36  -5.72    -3.64-225.410753             -0.0000
iter:  31  04:53:04 -10.28  -5.75    -4.45-225.410753             -0.0000
iter:  32  04:53:28  -9.20  -5.81    -3.58-225.410753             -0.0000
iter:  33  04:53:53  -9.83  -5.90    -3.46-225.410753             -0.0000
iter:  34  04:54:17 -10.93  -6.12    -4.70-225.410753             -0.0000
iter:  35  04:54:42 -10.34  -6.15    -3.73-225.410753             -0.0000
iter:  36  04:55:06 -11.08  -6.29    -4.44-225.410753             -0.0000
iter:  37  04:55:31 -12.00  -6.31    -4.59-225.410753             -0.0000
iter:  38  04:55:56 -12.50  -6.33    -4.77-225.410753             -0.0000
iter:  39  04:56:20 -11.53  -6.33    -4.19-225.410753             -0.0000
iter:  40  04:56:45 -12.32  -6.36    -4.46-225.410753             -0.0000
iter:  41  04:57:09 -11.66  -6.41    -4.57-225.410753             -0.0000
iter:  42  04:57:34 -11.97  -6.48    -4.61-225.410753             -0.0000
iter:  43  04:57:58 -11.76  -6.60    -4.81-225.410753             -0.0000
iter:  44  04:58:23 -11.37  -6.66    -4.92-225.410753             -0.0000
iter:  45  04:58:48 -11.99  -6.75    -4.88-225.410753             -0.0000
iter:  46  04:59:12 -12.02  -6.85    -4.66-225.410753             -0.0000
iter:  47  04:59:37 -12.94  -7.16    -4.95-225.410753             -0.0000
iter:  48  05:00:01 -13.38  -7.20    -5.68-225.410753             -0.0000
iter:  49  05:00:26 -12.77  -7.26    -5.64-225.410753             -0.0000
iter:  50  05:00:50 -12.94  -7.38    -5.45-225.410753             -0.0000
iter:  51  05:01:15 -13.27  -7.45    -5.41-225.410753             -0.0000
iter:  52  05:01:39 -13.59  -7.48    -5.18-225.410753             -0.0000
iter:  53  05:02:04 -14.23  -7.50    -6.05-225.410753             -0.0000

Converged after 53 iterations.

Dipole moment: (19.034827, -1.426944, -4.182634) |e|*Ang

Total magnetic moment: (0.000000, 0.000000, -0.000000)
Local magnetic moments:
   0 O  ( 0.000000,  0.000000,  0.000646)
   1 O  ( 0.000000,  0.000000, -0.000674)
   2 O  ( 0.000000,  0.000000, -0.000663)
   3 O  ( 0.000000,  0.000000,  0.000667)
   4 O  ( 0.000000,  0.000000, -0.000682)
   5 O  ( 0.000000,  0.000000,  0.000670)
   6 O  ( 0.000000,  0.000000,  0.000657)
   7 O  ( 0.000000,  0.000000, -0.000669)
   8 O  ( 0.000000,  0.000000,  0.022343)
   9 O  ( 0.000000,  0.000000, -0.022338)
  10 O  ( 0.000000,  0.000000, -0.022392)
  11 O  ( 0.000000,  0.000000,  0.022398)
  12 Mn ( 0.000000,  0.000000,  4.575107)
  13 Mn ( 0.000000,  0.000000, -4.575066)
  14 Mn ( 0.000000,  0.000000, -4.575023)
  15 Mn ( 0.000000,  0.000000,  4.575003)
  16 P  ( 0.000000,  0.000000,  0.000803)
  17 P  ( 0.000000,  0.000000, -0.000813)
  18 P  ( 0.000000,  0.000000, -0.000820)
  19 P  ( 0.000000,  0.000000,  0.000821)
  20 O  ( 0.000000,  0.000000,  0.020698)
  21 O  ( 0.000000,  0.000000, -0.020702)
  22 O  ( 0.000000,  0.000000, -0.020720)
  23 O  ( 0.000000,  0.000000,  0.020714)
  24 Li ( 0.000000,  0.000000,  0.000000)
  25 Li ( 0.000000,  0.000000,  0.000023)
  26 Li ( 0.000000,  0.000000,  0.000000)
  27 Li ( 0.000000,  0.000000, -0.000000)

Energy contributions relative to reference atoms: (reference = -196157.275402)

Kinetic:       +296.839936
Potential:     -256.382711
External:        +0.000000
XC:            -267.648755
Entropy (-ST):   -0.000000
Local:           +1.780777
--------------------------
Free energy:   -225.410753
Extrapolated:  -225.410753

Spin contamination: 9.697233 electrons
Showing only first 2 kpts
                      Up                     Down
 Kpt  Band  Eigenvalues  Occupancy  Eigenvalues  Occupancy
  0    88      5.10899    0.00694      5.10927    0.00694
  0    89      5.16140    0.00694      5.16108    0.00694
  0    90      9.64959    0.00000      9.65377    0.00000
  0    91      9.67416    0.00000      9.66887    0.00000

  1    88      5.12053    0.00694      5.12087    0.00694
  1    89      5.17073    0.00694      5.17042    0.00694
  1    90      9.53116    0.00000      9.53620    0.00000
  1    91      9.54885    0.00000      9.54259    0.00000


Fermi level: 6.36992

Gap: 3.795 eV
Transition (v -> c):
  (s=0, k=48, n=89, [-0.08, -0.42, -0.38]) -> (s=1, k=81, n=90, [0.08, -0.08, -0.12])
Writing to born-0.01-25x+.gpw (mode='all')

Timing:                              incl.     excl.
-----------------------------------------------------------
Hamiltonian:                         0.218     0.002   0.0% |
 Atomic:                             0.055     0.055   0.0% |
  XC Correction:                     0.000     0.000   0.0% |
 Calculate atomic Hamiltonians:      0.074     0.074   0.0% |
 Communicate:                        0.002     0.002   0.0% |
 Initialize Hamiltonian:             0.000     0.000   0.0% |
 Poisson:                            0.001     0.001   0.0% |
 XC 3D grid:                         0.084     0.084   0.0% |
LCAO initialization:                68.991     0.647   0.0% |
 LCAO eigensolver:                  19.077     0.002   0.0% |
  Calculate projections:             0.029     0.029   0.0% |
  DenseAtomicCorrection:             0.045     0.045   0.0% |
  Distribute overlap matrix:         0.016     0.016   0.0% |
  Orbital Layouts:                   0.433     0.433   0.0% |
  Potential matrix:                 18.465    18.465   0.6% |
  Sum over cells:                    0.087     0.087   0.0% |
 LCAO to grid:                      47.951    47.951   1.6% ||
 Set positions (LCAO WFS):           1.316     0.192   0.0% |
  Basic WFS set positions:           0.001     0.001   0.0% |
  Basis functions set positions:     0.000     0.000   0.0% |
  P tci:                             0.525     0.525   0.0% |
  ST tci:                            0.382     0.382   0.0% |
  mktci:                             0.215     0.215   0.0% |
PWDescriptor:                        0.023     0.023   0.0% |
SCF-cycle:                        1212.788     3.624   0.1% |
 Davidson:                        1000.261   306.812  10.1% |---|
  Apply H:                          69.007    67.005   2.2% ||
   HMM T:                            2.002     2.002   0.1% |
  Subspace diag:                   145.027     0.154   0.0% |
   calc_h_matrix:                   93.149    24.207   0.8% |
    Apply H:                        68.942    66.921   2.2% ||
     HMM T:                          2.021     2.021   0.1% |
   diagonalize:                      7.245     7.245   0.2% |
   rotate_psi:                      44.479    44.479   1.5% ||
  calc. matrices:                  299.754   164.461   5.4% |-|
   Apply H:                        135.293   131.515   4.3% |-|
    HMM T:                           3.778     3.778   0.1% |
  diagonalize:                      83.355    83.355   2.8% ||
  rotate_psi:                       96.306    96.306   3.2% ||
 Density:                           39.916     0.001   0.0% |
  Atomic density matrices:           0.845     0.845   0.0% |
  Mix:                               5.550     5.550   0.2% |
  Multipole moments:                 0.020     0.020   0.0% |
  Pseudo density:                   33.500    33.498   1.1% |
   Symmetrize density:               0.002     0.002   0.0% |
 Forces:                           155.440   155.440   5.1% |-|
 Hamiltonian:                       11.455     0.111   0.0% |
  Atomic:                            2.839     2.839   0.1% |
   XC Correction:                    0.000     0.000   0.0% |
  Calculate atomic Hamiltonians:     3.921     3.921   0.1% |
  Communicate:                       0.100     0.100   0.0% |
  Poisson:                           0.032     0.032   0.0% |
  XC 3D grid:                        4.452     4.452   0.1% |
 Orthonormalize:                     2.091     0.003   0.0% |
  calc_s_matrix:                     0.245     0.245   0.0% |
  inverse-cholesky:                  0.073     0.073   0.0% |
  projections:                       1.335     1.335   0.0% |
  rotate_psi_s:                      0.436     0.436   0.0% |
Set symmetry:                        0.000     0.000   0.0% |
Other:                            1746.633  1746.633  57.7% |----------------------|
-----------------------------------------------------------
Total:                                      3028.652 100.0%

Memory usage: 13.66 GiB
Date: Thu Mar 25 05:31:10 2021
