
  ___ ___ ___ _ _ _  
 |   |   |_  | | | | 
 | | | | | . | | | | 
 |__ |  _|___|_____|  20.10.1b1
 |___|_|             

User:   madkru@g035.nifl.fysik.dtu.dk
Date:   Mon Mar 22 06:40:43 2021
Arch:   x86_64
Pid:    44316
Python: 3.7.4
gpaw:   /home/niflheim/madkru/venv_folder/gpaw/gpaw (d0d1ca1c71)
_gpaw:  /home/niflheim/madkru/venv_folder/gpaw/build/lib.linux-x86_64-sandybridge-3.7/
        _gpaw.cpython-37m-x86_64-linux-gnu.so (4fd39e8b1e)
ase:    /home/niflheim/madkru/venv_folder/ase/ase (version 3.21.0b1-7e6c206a91)
numpy:  /home/niflheim/madkru/venv_folder/lib/python3.7/site-packages/numpy (version 1.19.4)
scipy:  /home/niflheim/madkru/venv_folder/lib/python3.7/site-packages/scipy (version 1.5.4)
libxc:  4.3.4
units:  Angstrom and eV
cores: 32
OMP_NUM_THREADS: 1

Input parameters:
  convergence: {bands: occupied,
                density: 0.0001,
                eigenstates: 4e-08,
                energy: 0.0005,
                forces: 1e-06}
  kpts: [6 6 4]
  mode: {ecut: 600.0,
         gammacentered: False,
         name: pw}
  occupations: {fixmagmom: False,
                name: fermi-dirac,
                width: 0.001}
  setups: {Mn: :d,3.0}
  symmetry: {point_group: False,
             time_reversal: False}

System changes: positions, numbers, cell, pbc, initial_charges, initial_magmoms 

Initialize ...

O-setup:
  name: Oxygen
  id: 9b9d51c344dea68c822856295a461509
  Z: 8.0
  valence: 6
  core: 2
  charge: 0.0
  file: /home/modules/software/GPAW-setups/0.9.20000/O.LDA.gz
  compensation charges: gauss, rc=0.21, lmax=2
  cutoffs: 1.17(filt), 0.83(core),
  valence states:
                energy  radius
    2s(2.00)   -23.752   0.688
    2p(4.00)    -9.195   0.598
    *s           3.459   0.688
    *p          18.016   0.598
    *d           0.000   0.619

  Using partial waves for O as LCAO basis

Mn-setup:
  name: Manganese
  id: 0d715a8018be061a6e9ea6f2d364ac92
  Z: 25.0
  valence: 15
  core: 10
  charge: 0.0
  Hubbard U: 3.000000 eV (l=2, scale=True)
  file: /home/modules/software/GPAW-setups/0.9.20000/Mn.LDA.gz
  compensation charges: gauss, rc=0.38, lmax=2
  cutoffs: 2.14(filt), 0.86(core),
  valence states:
                energy  radius
    3s(2.00)   -85.387   1.275
    4s(2.00)    -5.282   1.275
    3p(6.00)   -54.493   1.281
    4p(0.00)    -1.471   1.281
    3d(5.00)    -7.009   1.138
    *d          20.203   1.138

  Using partial waves for Mn as LCAO basis

P-setup:
  name: Phosphorus
  id: a5561c299094968922a179ab894d2e2d
  Z: 15.0
  valence: 5
  core: 10
  charge: 0.0
  file: /home/modules/software/GPAW-setups/0.9.20000/P.LDA.gz
  compensation charges: gauss, rc=0.30, lmax=2
  cutoffs: 1.69(filt), 1.81(core),
  valence states:
                energy  radius
    3s(2.00)   -14.015   0.953
    3p(3.00)    -5.596   0.953
    *s          13.197   0.953
    *p          21.615   0.953
    *d           0.000   0.953

  Using partial waves for P as LCAO basis

Li-setup:
  name: Lithium
  id: b73562207f97a71b6967473b66fe8b65
  Z: 3.0
  valence: 1
  core: 2
  charge: 0.0
  file: /home/modules/software/GPAW-setups/0.9.20000/Li.LDA.gz
  compensation charges: gauss, rc=0.33, lmax=2
  cutoffs: 1.91(filt), 2.55(core),
  valence states:
                energy  radius
    2s(1.00)    -2.874   1.058
    2p(0.00)    -1.126   1.058
    *s          24.338   1.058

  Using partial waves for Li as LCAO basis

Reference energy: -196157.275402

Spin-polarized calculation.
Magnetic moment: 0.000000

Convergence criteria:
  Maximum total energy change: 0.0005 eV / electron
  Maximum integral of absolute density change: 0.0001 electrons
  Maximum integral of absolute eigenstate change: 4e-08 eV^2
  Maximum change in atomic force: 1e-06 eV / Ang
  Maximum number of iterations: 333

Symmetries present (total): 1

  ( 1  0  0)
  ( 0  1  0)
  ( 0  0  1)

144 k-points: 6 x 6 x 4 Monkhorst-Pack grid
144 k-points in the irreducible part of the Brillouin zone
       k-points in crystal coordinates                weights
   0:    -0.41666667   -0.41666667   -0.37500000          1/144
   1:    -0.41666667   -0.41666667   -0.12500000          1/144
   2:    -0.41666667   -0.41666667    0.12500000          1/144
   3:    -0.41666667   -0.41666667    0.37500000          1/144
   4:    -0.41666667   -0.25000000   -0.37500000          1/144
   5:    -0.41666667   -0.25000000   -0.12500000          1/144
   6:    -0.41666667   -0.25000000    0.12500000          1/144
   7:    -0.41666667   -0.25000000    0.37500000          1/144
   8:    -0.41666667   -0.08333333   -0.37500000          1/144
   9:    -0.41666667   -0.08333333   -0.12500000          1/144
          ...
 143:     0.41666667    0.41666667    0.37500000          1/144

Wave functions: Plane wave expansion
  Cutoff energy: 600.000 eV
  Number of coefficients (min, max): 9238, 9284
  Pulay-stress correction: 0.000000 eV/Ang^3 (de/decut=0.000000)
  Using FFTW library
  ScaLapack parameters: grid=1x1, blocksize=None
  Wavefunction extrapolation:
    Improved wavefunction reuse through dual PAW basis 

  Fermi-Dirac: width=0.0010 eV

Eigensolver
   Davidson(niter=2, smin=None, normalize=True) 

Densities:
  Coarse grid: 60*35*27 grid
  Fine grid: 120*70*54 grid
  Total Charge: 0.000000 

Density mixing:
  Method: difference
  Backend: pulay
  Linear mixing parameter: 0.05
  Mixing with 5 old densities
  Damping of long wave oscillations: 50 

Hamiltonian:
  XC and Coulomb potentials evaluated on a 120*70*54 grid
  Using the LDA Exchange-Correlation functional
 

Memory estimate:
  Process memory now: 12930.22 MiB
  Calculator: 346.50 MiB
    Density: 19.24 MiB
      Arrays: 7.57 MiB
      Localized functions: 8.64 MiB
      Mixer: 3.03 MiB
    Hamiltonian: 5.87 MiB
      Arrays: 5.62 MiB
      XC: 0.00 MiB
      Poisson: 0.00 MiB
      vbar: 0.25 MiB
    Wavefunctions: 321.38 MiB
      Arrays psit_nG: 285.59 MiB
      Eigensolver: 18.49 MiB
      Projections: 5.41 MiB
      Projectors: 8.92 MiB
      PW-descriptor: 2.96 MiB

Total number of cores used: 32
Parallelization over k-points: 16
Domain decomposition: 2 x 1 x 1

Number of atoms: 28
Number of atomic orbitals: 148
Number of bands in calculation: 112
Number of valence electrons: 180
Bands to converge: occupied

... initialized

Initializing position-dependent things.

Density initialized from atomic densities
Creating initial wave functions:
  112 bands from LCAO basis set

                                           
                                           
                                           
                                           
                                           
               O     O  P  O               
            PO           OMn     O         
                  O          MO            
            O        Li O                  
             Mn  On          OP            
         O         Li O                    
         Li     O P         O              
       Li                                  
                                           
                                           
                                           
                                           

Positions:
   0 O     -1.263197   -2.497779   -1.098475    ( 0.0000,  0.0000,  0.0000)
   1 O     -3.070823    2.922496    1.209491    ( 0.0000,  0.0000,  0.0000)
   2 O      1.985541    0.474863    1.428016    ( 0.0000,  0.0000,  0.0000)
   3 O      3.793120   -0.050100   -0.879950    ( 0.0000,  0.0000,  0.0000)
   4 O      1.985518    2.922485    1.428149    ( 0.0000,  0.0000,  0.0000)
   5 O      3.793144   -2.497790   -0.889818    ( 0.0000,  0.0000,  0.0000)
   6 O     -1.263220   -0.050157   -1.098342    ( 0.0000,  0.0000,  0.0000)
   7 O     -3.070798    0.474805    1.209623    ( 0.0000,  0.0000,  0.0000)
   8 O     -4.167835   -1.273920   -0.862116    ( 0.0000,  0.0000,  0.0000)
   9 O     -0.166037    1.698602    1.445528    ( 0.0000,  0.0000,  0.0000)
  10 O      4.890156    1.698625    1.191790    ( 0.0000,  0.0000,  0.0000)
  11 O      0.888358   -1.273896   -1.115855    ( 0.0000,  0.0000,  0.0000)
  12 Mn    -2.445557   -1.274211    0.312921    ( 0.0000,  0.0000,  1.0000)
  13 Mn    -1.888303    1.698892   -1.994948    ( 0.0000,  0.0000, -1.0000)
  14 Mn     3.167879    1.698917    0.016752    ( 0.0000,  0.0000, -1.0000)
  15 Mn     2.610624   -1.274187    2.324621    ( 0.0000,  0.0000,  1.0000)
  16 P     -0.529549   -1.273917   -1.724376    ( 0.0000,  0.0000,  0.0000)
  17 P     -3.804359    1.698599    0.583463    ( 0.0000,  0.0000,  0.0000)
  18 P      1.251870    1.698623    2.054050    ( 0.0000,  0.0000,  0.0000)
  19 P      4.526680   -1.273894   -0.253789    ( 0.0000,  0.0000,  0.0000)
  20 O     -0.544227   -1.273926    1.365380    ( 0.0000,  0.0000,  0.0000)
  21 O     -3.789411    1.698610   -0.942222    ( 0.0000,  0.0000,  0.0000)
  22 O      1.266548    1.698631   -1.035707    ( 0.0000,  0.0000,  0.0000)
  23 O      4.511733   -1.273905    1.271895    ( 0.0000,  0.0000,  0.0000)
  24 Li    -4.695087   -2.760584   -2.142877    ( 0.0000,  0.0000,  0.0000)
  25 Li     0.361147   -2.760561    0.164836    ( 0.0000,  0.0000,  0.0000)
  26 Li    -4.695074    0.212330   -2.142877    ( 0.0000,  0.0000,  0.0000)
  27 Li     0.361161    0.212353    0.164837    ( 0.0000,  0.0000,  0.0000)

Unit cell:
           periodic     x           y           z      points  spacing
  1. axis:    yes   10.112485    0.000045   -0.000035    60     0.1685
  2. axis:    yes    0.000026    5.945827    0.000001    35     0.1699
  3. axis:    yes   -0.000016    0.000000    4.615463    27     0.1709

  Lengths:  10.112485   5.945827   4.615463
  Angles:   89.999989  90.000396  89.999490

Effective grid spacing dv^(1/3) = 0.1698

                     log10-error:           total        iterations:
           time      wfs    density  force  energy       poisson  magmom
iter:   1  06:43:57                       -221.379228             +0.0000
iter:   2  06:44:35  -0.61  -0.93         -234.833421             +0.0000
iter:   3  06:45:12  -0.37  -0.97         -225.909779             -0.0000
iter:   4  06:45:49  -1.39  -1.29         -225.761369             +0.0000
iter:   5  06:46:27  -1.27  -1.39         -227.328444             +0.0000
iter:   6  06:47:04  -1.46  -1.46         -225.736998             +0.0000
iter:   7  06:47:41  -2.47  -2.04         -225.724320             +0.0000
iter:   8  06:48:19  -2.15  -1.99         -225.587981             +0.0000
iter:   9  06:48:56  -2.46  -2.09         -225.432043             +0.0000
iter:  10  06:49:33  -3.31  -2.55         -225.422110             +0.0000
iter:  11  06:50:11  -3.64  -2.81         -225.411615             +0.0000
iter:  12  06:50:48  -4.15  -3.05         -225.410572             +0.0000
iter:  13  06:51:25  -5.11  -3.29         -225.410463             -0.0000
iter:  14  06:52:02  -5.39  -3.32         -225.410289             -0.0000
iter:  15  06:52:40  -6.03  -3.43         -225.410296             -0.0000
iter:  16  06:53:17  -5.26  -3.47         -225.410621             +0.0000
iter:  17  06:53:54  -5.86  -3.58         -225.410519             -0.0000
iter:  18  06:54:32  -5.27  -3.71         -225.410245             +0.0000
iter:  19  06:55:09  -6.13  -4.09         -225.410242             +0.0000
iter:  20  06:55:46  -7.26  -4.50         -225.410246             -0.0000
iter:  21  06:56:33  -7.67  -4.55         -225.410244             +0.0000
iter:  22  06:57:10  -7.08  -4.61         -225.410244             +0.0000
iter:  23  06:57:57  -8.15  -4.70    -2.38-225.410244             +0.0000
iter:  24  06:58:44  -8.07  -4.83    -2.97-225.410243             -0.0000
iter:  25  06:59:31  -8.59  -4.99    -2.87-225.410243             +0.0000
iter:  26  07:00:18  -8.56  -5.17    -3.07-225.410243             +0.0000
iter:  27  07:01:05  -8.97  -5.46    -3.36-225.410243             +0.0000
iter:  28  07:01:52  -9.59  -5.58    -3.49-225.410243             +0.0000
iter:  29  07:02:39 -10.10  -5.62    -3.39-225.410243             +0.0000
iter:  30  07:03:27 -10.18  -5.68    -4.07-225.410243             +0.0000
iter:  31  07:04:13  -9.93  -5.71    -4.01-225.410243             +0.0000
iter:  32  07:05:01 -10.13  -5.80    -4.33-225.410243             +0.0000
iter:  33  07:05:48  -9.94  -5.85    -3.52-225.410243             +0.0000
iter:  34  07:06:35 -11.14  -6.54    -4.38-225.410243             -0.0000
iter:  35  07:07:22 -11.59  -6.57    -4.94-225.410243             +0.0000
iter:  36  07:08:09 -11.25  -6.60    -4.51-225.410243             +0.0000
iter:  37  07:08:56 -11.51  -6.92    -4.83-225.410243             +0.0000
iter:  38  07:09:43 -12.36  -6.99    -5.11-225.410243             +0.0000
iter:  39  07:10:30 -12.70  -7.07    -4.66-225.410243             +0.0000
iter:  40  07:11:17 -12.99  -7.28    -4.83-225.410243             +0.0000
iter:  41  07:12:04 -13.54  -7.46    -6.07-225.410243             +0.0000

Converged after 41 iterations.

Dipole moment: (19.053434, -1.425867, -4.203608) |e|*Ang

Total magnetic moment: (0.000000, 0.000000, 0.000000)
Local magnetic moments:
   0 O  ( 0.000000,  0.000000,  0.000667)
   1 O  ( 0.000000,  0.000000, -0.000664)
   2 O  ( 0.000000,  0.000000, -0.000754)
   3 O  ( 0.000000,  0.000000,  0.000700)
   4 O  ( 0.000000,  0.000000, -0.000611)
   5 O  ( 0.000000,  0.000000,  0.000862)
   6 O  ( 0.000000,  0.000000,  0.000666)
   7 O  ( 0.000000,  0.000000, -0.000658)
   8 O  ( 0.000000,  0.000000,  0.022437)
   9 O  ( 0.000000,  0.000000, -0.022371)
  10 O  ( 0.000000,  0.000000, -0.022324)
  11 O  ( 0.000000,  0.000000,  0.022385)
  12 Mn ( 0.000000,  0.000000,  4.575067)
  13 Mn ( 0.000000,  0.000000, -4.575030)
  14 Mn ( 0.000000,  0.000000, -4.575409)
  15 Mn ( 0.000000,  0.000000,  4.574679)
  16 P  ( 0.000000,  0.000000,  0.000820)
  17 P  ( 0.000000,  0.000000, -0.000811)
  18 P  ( 0.000000,  0.000000, -0.000805)
  19 P  ( 0.000000,  0.000000,  0.000974)
  20 O  ( 0.000000,  0.000000,  0.020712)
  21 O  ( 0.000000,  0.000000, -0.020700)
  22 O  ( 0.000000,  0.000000, -0.020694)
  23 O  ( 0.000000,  0.000000,  0.020713)
  24 Li ( 0.000000,  0.000000,  0.000008)
  25 Li ( 0.000000,  0.000000, -0.000001)
  26 Li ( 0.000000,  0.000000,  0.000000)
  27 Li ( 0.000000,  0.000000,  0.000001)

Energy contributions relative to reference atoms: (reference = -196157.275402)

Kinetic:       +296.591890
Potential:     -256.191322
External:        +0.000000
XC:            -267.592398
Entropy (-ST):   -0.000000
Local:           +1.781587
--------------------------
Free energy:   -225.410243
Extrapolated:  -225.410243

Spin contamination: 9.697160 electrons
Showing only first 2 kpts
                      Up                     Down
 Kpt  Band  Eigenvalues  Occupancy  Eigenvalues  Occupancy
  0    88      5.11209    0.00694      5.10774    0.00694
  0    89      5.16313    0.00694      5.15937    0.00694
  0    90      9.65276    0.00000      9.65352    0.00000
  0    91      9.67106    0.00000      9.67444    0.00000

  1    88      5.12393    0.00694      5.11938    0.00694
  1    89      5.17280    0.00694      5.16891    0.00694
  1    90      9.53533    0.00000      9.53477    0.00000
  1    91      9.54504    0.00000      9.54720    0.00000


Fermi level: 6.37027

Gap: 3.792 eV
Transition (v -> c):
  (s=0, k=92, n=89, [0.08, 0.42, -0.38]) -> (s=1, k=61, n=90, [-0.08, 0.08, -0.12])
Writing to born-0.01-5z-.gpw (mode='all')

Timing:                              incl.     excl.
-----------------------------------------------------------
Hamiltonian:                         0.425     0.002   0.0% |
 Atomic:                             0.068     0.068   0.0% |
  XC Correction:                     0.000     0.000   0.0% |
 Calculate atomic Hamiltonians:      0.165     0.165   0.0% |
 Communicate:                        0.014     0.014   0.0% |
 Initialize Hamiltonian:             0.000     0.000   0.0% |
 Poisson:                            0.001     0.001   0.0% |
 XC 3D grid:                         0.174     0.174   0.0% |
LCAO initialization:               152.621     0.678   0.0% |
 LCAO eigensolver:                  40.462     0.003   0.0% |
  Calculate projections:             0.057     0.057   0.0% |
  DenseAtomicCorrection:             0.082     0.082   0.0% |
  Distribute overlap matrix:         0.461     0.461   0.0% |
  Orbital Layouts:                   0.362     0.362   0.0% |
  Potential matrix:                 39.410    39.410   0.8% |
  Sum over cells:                    0.088     0.088   0.0% |
 LCAO to grid:                     109.100   109.100   2.2% ||
 Set positions (LCAO WFS):           2.381     0.371   0.0% |
  Basic WFS set positions:           0.001     0.001   0.0% |
  Basis functions set positions:     0.000     0.000   0.0% |
  P tci:                             1.085     1.085   0.0% |
  ST tci:                            0.709     0.709   0.0% |
  mktci:                             0.215     0.215   0.0% |
PWDescriptor:                        0.025     0.025   0.0% |
SCF-cycle:                        1726.440     5.713   0.1% |
 Davidson:                        1445.230   458.880   9.4% |---|
  Apply H:                         106.210   103.133   2.1% ||
   HMM T:                            3.077     3.077   0.1% |
  Subspace diag:                   215.956     0.130   0.0% |
   calc_h_matrix:                  142.418    37.335   0.8% |
    Apply H:                       105.083   102.080   2.1% ||
     HMM T:                          3.003     3.003   0.1% |
   diagonalize:                      5.002     5.002   0.1% |
   rotate_psi:                      68.406    68.406   1.4% ||
  calc. matrices:                  456.093   249.642   5.1% |-|
   Apply H:                        206.451   200.730   4.1% |-|
    HMM T:                           5.721     5.721   0.1% |
  diagonalize:                      68.668    68.668   1.4% ||
  rotate_psi:                      139.423   139.423   2.9% ||
 Density:                           59.915     0.001   0.0% |
  Atomic density matrices:           1.059     1.059   0.0% |
  Mix:                               9.227     9.227   0.2% |
  Multipole moments:                 0.024     0.024   0.0% |
  Pseudo density:                   49.604    49.602   1.0% |
   Symmetrize density:               0.001     0.001   0.0% |
 Forces:                           194.989   194.989   4.0% |-|
 Hamiltonian:                       16.525     0.095   0.0% |
  Atomic:                            2.337     2.336   0.0% |
   XC Correction:                    0.000     0.000   0.0% |
  Calculate atomic Hamiltonians:     6.793     6.793   0.1% |
  Communicate:                       0.075     0.075   0.0% |
  Poisson:                           0.062     0.062   0.0% |
  XC 3D grid:                        7.164     7.164   0.1% |
 Orthonormalize:                     4.069     0.003   0.0% |
  calc_s_matrix:                     0.485     0.485   0.0% |
  inverse-cholesky:                  0.055     0.055   0.0% |
  projections:                       2.666     2.666   0.1% |
  rotate_psi_s:                      0.859     0.859   0.0% |
Set symmetry:                        0.000     0.000   0.0% |
Other:                            3004.297  3004.297  61.5% |------------------------|
-----------------------------------------------------------
Total:                                      4883.809 100.0%

Memory usage: 12.65 GiB
Date: Mon Mar 22 08:02:07 2021
