
  ___ ___ ___ _ _ _  
 |   |   |_  | | | | 
 | | | | | . | | | | 
 |__ |  _|___|_____|  20.10.1b1
 |___|_|             

User:   madkru@g035.nifl.fysik.dtu.dk
Date:   Sun Mar 21 22:48:05 2021
Arch:   x86_64
Pid:    44316
Python: 3.7.4
gpaw:   /home/niflheim/madkru/venv_folder/gpaw/gpaw (d0d1ca1c71)
_gpaw:  /home/niflheim/madkru/venv_folder/gpaw/build/lib.linux-x86_64-sandybridge-3.7/
        _gpaw.cpython-37m-x86_64-linux-gnu.so (4fd39e8b1e)
ase:    /home/niflheim/madkru/venv_folder/ase/ase (version 3.21.0b1-7e6c206a91)
numpy:  /home/niflheim/madkru/venv_folder/lib/python3.7/site-packages/numpy (version 1.19.4)
scipy:  /home/niflheim/madkru/venv_folder/lib/python3.7/site-packages/scipy (version 1.5.4)
libxc:  4.3.4
units:  Angstrom and eV
cores: 32
OMP_NUM_THREADS: 1

Input parameters:
  convergence: {bands: occupied,
                density: 0.0001,
                eigenstates: 4e-08,
                energy: 0.0005,
                forces: 1e-06}
  kpts: [6 6 4]
  mode: {ecut: 600.0,
         gammacentered: False,
         name: pw}
  occupations: {fixmagmom: False,
                name: fermi-dirac,
                width: 0.001}
  setups: {Mn: :d,3.0}
  symmetry: {point_group: False,
             time_reversal: False}

System changes: positions, numbers, cell, pbc, initial_charges, initial_magmoms 

Initialize ...

O-setup:
  name: Oxygen
  id: 9b9d51c344dea68c822856295a461509
  Z: 8.0
  valence: 6
  core: 2
  charge: 0.0
  file: /home/modules/software/GPAW-setups/0.9.20000/O.LDA.gz
  compensation charges: gauss, rc=0.21, lmax=2
  cutoffs: 1.17(filt), 0.83(core),
  valence states:
                energy  radius
    2s(2.00)   -23.752   0.688
    2p(4.00)    -9.195   0.598
    *s           3.459   0.688
    *p          18.016   0.598
    *d           0.000   0.619

  Using partial waves for O as LCAO basis

Mn-setup:
  name: Manganese
  id: 0d715a8018be061a6e9ea6f2d364ac92
  Z: 25.0
  valence: 15
  core: 10
  charge: 0.0
  Hubbard U: 3.000000 eV (l=2, scale=True)
  file: /home/modules/software/GPAW-setups/0.9.20000/Mn.LDA.gz
  compensation charges: gauss, rc=0.38, lmax=2
  cutoffs: 2.14(filt), 0.86(core),
  valence states:
                energy  radius
    3s(2.00)   -85.387   1.275
    4s(2.00)    -5.282   1.275
    3p(6.00)   -54.493   1.281
    4p(0.00)    -1.471   1.281
    3d(5.00)    -7.009   1.138
    *d          20.203   1.138

  Using partial waves for Mn as LCAO basis

P-setup:
  name: Phosphorus
  id: a5561c299094968922a179ab894d2e2d
  Z: 15.0
  valence: 5
  core: 10
  charge: 0.0
  file: /home/modules/software/GPAW-setups/0.9.20000/P.LDA.gz
  compensation charges: gauss, rc=0.30, lmax=2
  cutoffs: 1.69(filt), 1.81(core),
  valence states:
                energy  radius
    3s(2.00)   -14.015   0.953
    3p(3.00)    -5.596   0.953
    *s          13.197   0.953
    *p          21.615   0.953
    *d           0.000   0.953

  Using partial waves for P as LCAO basis

Li-setup:
  name: Lithium
  id: b73562207f97a71b6967473b66fe8b65
  Z: 3.0
  valence: 1
  core: 2
  charge: 0.0
  file: /home/modules/software/GPAW-setups/0.9.20000/Li.LDA.gz
  compensation charges: gauss, rc=0.33, lmax=2
  cutoffs: 1.91(filt), 2.55(core),
  valence states:
                energy  radius
    2s(1.00)    -2.874   1.058
    2p(0.00)    -1.126   1.058
    *s          24.338   1.058

  Using partial waves for Li as LCAO basis

Reference energy: -196157.275402

Spin-polarized calculation.
Magnetic moment: 0.000000

Convergence criteria:
  Maximum total energy change: 0.0005 eV / electron
  Maximum integral of absolute density change: 0.0001 electrons
  Maximum integral of absolute eigenstate change: 4e-08 eV^2
  Maximum change in atomic force: 1e-06 eV / Ang
  Maximum number of iterations: 333

Symmetries present (total): 1

  ( 1  0  0)
  ( 0  1  0)
  ( 0  0  1)

144 k-points: 6 x 6 x 4 Monkhorst-Pack grid
144 k-points in the irreducible part of the Brillouin zone
       k-points in crystal coordinates                weights
   0:    -0.41666667   -0.41666667   -0.37500000          1/144
   1:    -0.41666667   -0.41666667   -0.12500000          1/144
   2:    -0.41666667   -0.41666667    0.12500000          1/144
   3:    -0.41666667   -0.41666667    0.37500000          1/144
   4:    -0.41666667   -0.25000000   -0.37500000          1/144
   5:    -0.41666667   -0.25000000   -0.12500000          1/144
   6:    -0.41666667   -0.25000000    0.12500000          1/144
   7:    -0.41666667   -0.25000000    0.37500000          1/144
   8:    -0.41666667   -0.08333333   -0.37500000          1/144
   9:    -0.41666667   -0.08333333   -0.12500000          1/144
          ...
 143:     0.41666667    0.41666667    0.37500000          1/144

Wave functions: Plane wave expansion
  Cutoff energy: 600.000 eV
  Number of coefficients (min, max): 9238, 9284
  Pulay-stress correction: 0.000000 eV/Ang^3 (de/decut=0.000000)
  Using FFTW library
  ScaLapack parameters: grid=1x1, blocksize=None
  Wavefunction extrapolation:
    Improved wavefunction reuse through dual PAW basis 

  Fermi-Dirac: width=0.0010 eV

Eigensolver
   Davidson(niter=2, smin=None, normalize=True) 

Densities:
  Coarse grid: 60*35*27 grid
  Fine grid: 120*70*54 grid
  Total Charge: 0.000000 

Density mixing:
  Method: difference
  Backend: pulay
  Linear mixing parameter: 0.05
  Mixing with 5 old densities
  Damping of long wave oscillations: 50 

Hamiltonian:
  XC and Coulomb potentials evaluated on a 120*70*54 grid
  Using the LDA Exchange-Correlation functional
 

Memory estimate:
  Process memory now: 12708.52 MiB
  Calculator: 346.50 MiB
    Density: 19.24 MiB
      Arrays: 7.57 MiB
      Localized functions: 8.64 MiB
      Mixer: 3.03 MiB
    Hamiltonian: 5.87 MiB
      Arrays: 5.62 MiB
      XC: 0.00 MiB
      Poisson: 0.00 MiB
      vbar: 0.25 MiB
    Wavefunctions: 321.38 MiB
      Arrays psit_nG: 285.59 MiB
      Eigensolver: 18.49 MiB
      Projections: 5.41 MiB
      Projectors: 8.92 MiB
      PW-descriptor: 2.96 MiB

Total number of cores used: 32
Parallelization over k-points: 16
Domain decomposition: 2 x 1 x 1

Number of atoms: 28
Number of atomic orbitals: 148
Number of bands in calculation: 112
Number of valence electrons: 180
Bands to converge: occupied

... initialized

Initializing position-dependent things.

Density initialized from atomic densities
Creating initial wave functions:
  112 bands from LCAO basis set

                                           
                                           
                                           
                                           
                                           
               O     O  P  O               
            PO           OMn     O         
                  O          MO            
            O        Li O                  
             Mn  On          OP            
         O         Li O                    
         Li     O P         O              
       Li                                  
                                           
                                           
                                           
                                           

Positions:
   0 O     -1.263197   -2.497779   -1.098475    ( 0.0000,  0.0000,  0.0000)
   1 O     -3.070823    2.922496    1.209491    ( 0.0000,  0.0000,  0.0000)
   2 O      1.985541    0.474863    1.428016    ( 0.0000,  0.0000,  0.0000)
   3 O      3.793120   -0.050100   -0.879950    ( 0.0000,  0.0000,  0.0000)
   4 O      1.975518    2.922485    1.428149    ( 0.0000,  0.0000,  0.0000)
   5 O      3.793144   -2.497790   -0.879818    ( 0.0000,  0.0000,  0.0000)
   6 O     -1.263220   -0.050157   -1.098342    ( 0.0000,  0.0000,  0.0000)
   7 O     -3.070798    0.474805    1.209623    ( 0.0000,  0.0000,  0.0000)
   8 O     -4.167835   -1.273920   -0.862116    ( 0.0000,  0.0000,  0.0000)
   9 O     -0.166037    1.698602    1.445528    ( 0.0000,  0.0000,  0.0000)
  10 O      4.890156    1.698625    1.191790    ( 0.0000,  0.0000,  0.0000)
  11 O      0.888358   -1.273896   -1.115855    ( 0.0000,  0.0000,  0.0000)
  12 Mn    -2.445557   -1.274211    0.312921    ( 0.0000,  0.0000,  1.0000)
  13 Mn    -1.888303    1.698892   -1.994948    ( 0.0000,  0.0000, -1.0000)
  14 Mn     3.167879    1.698917    0.016752    ( 0.0000,  0.0000, -1.0000)
  15 Mn     2.610624   -1.274187    2.324621    ( 0.0000,  0.0000,  1.0000)
  16 P     -0.529549   -1.273917   -1.724376    ( 0.0000,  0.0000,  0.0000)
  17 P     -3.804359    1.698599    0.583463    ( 0.0000,  0.0000,  0.0000)
  18 P      1.251870    1.698623    2.054050    ( 0.0000,  0.0000,  0.0000)
  19 P      4.526680   -1.273894   -0.253789    ( 0.0000,  0.0000,  0.0000)
  20 O     -0.544227   -1.273926    1.365380    ( 0.0000,  0.0000,  0.0000)
  21 O     -3.789411    1.698610   -0.942222    ( 0.0000,  0.0000,  0.0000)
  22 O      1.266548    1.698631   -1.035707    ( 0.0000,  0.0000,  0.0000)
  23 O      4.511733   -1.273905    1.271895    ( 0.0000,  0.0000,  0.0000)
  24 Li    -4.695087   -2.760584   -2.142877    ( 0.0000,  0.0000,  0.0000)
  25 Li     0.361147   -2.760561    0.164836    ( 0.0000,  0.0000,  0.0000)
  26 Li    -4.695074    0.212330   -2.142877    ( 0.0000,  0.0000,  0.0000)
  27 Li     0.361161    0.212353    0.164837    ( 0.0000,  0.0000,  0.0000)

Unit cell:
           periodic     x           y           z      points  spacing
  1. axis:    yes   10.112485    0.000045   -0.000035    60     0.1685
  2. axis:    yes    0.000026    5.945827    0.000001    35     0.1699
  3. axis:    yes   -0.000016    0.000000    4.615463    27     0.1709

  Lengths:  10.112485   5.945827   4.615463
  Angles:   89.999989  90.000396  89.999490

Effective grid spacing dv^(1/3) = 0.1698

                     log10-error:           total        iterations:
           time      wfs    density  force  energy       poisson  magmom
iter:   1  22:51:21                       -221.380905             +0.0000
iter:   2  22:51:58  -0.61  -0.93         -234.855903             +0.0000
iter:   3  22:52:36  -0.37  -0.97         -225.917521             -0.0000
iter:   4  22:53:13  -1.39  -1.29         -225.761157             +0.0000
iter:   5  22:53:51  -1.26  -1.39         -227.339939             +0.0000
iter:   6  22:54:28  -1.46  -1.46         -225.737082             +0.0000
iter:   7  22:55:06  -2.47  -2.04         -225.725394             +0.0000
iter:   8  22:55:43  -2.16  -1.99         -225.580739             +0.0000
iter:   9  22:56:21  -2.48  -2.10         -225.432422             +0.0000
iter:  10  22:56:58  -3.30  -2.54         -225.421950             +0.0000
iter:  11  22:57:35  -3.62  -2.81         -225.411449             +0.0000
iter:  12  22:58:13  -4.17  -3.06         -225.410446             +0.0000
iter:  13  22:58:50  -5.15  -3.30         -225.410354             -0.0000
iter:  14  22:59:28  -5.38  -3.32         -225.410169             -0.0000
iter:  15  23:00:05  -6.01  -3.43         -225.410182             -0.0000
iter:  16  23:00:42  -5.24  -3.47         -225.410519             +0.0000
iter:  17  23:01:20  -5.83  -3.58         -225.410408             -0.0000
iter:  18  23:01:57  -5.35  -3.70         -225.410141             +0.0000
iter:  19  23:02:35  -6.40  -4.05         -225.410144             +0.0000
iter:  20  23:03:12  -7.04  -4.30         -225.410144             +0.0000
iter:  21  23:03:49  -7.02  -4.34         -225.410134             +0.0000
iter:  22  23:04:36  -7.52  -4.35         -225.410131             +0.0000
iter:  23  23:05:23  -7.75  -4.39    -2.68-225.410129             +0.0000
iter:  24  23:06:11  -8.21  -4.49    -3.03-225.410129             +0.0000
iter:  25  23:06:58  -8.07  -4.53    -2.66-225.410128             +0.0000
iter:  26  23:07:45  -8.16  -4.68    -2.56-225.410128             +0.0000
iter:  27  23:08:32  -8.16  -4.89    -3.27-225.410128             +0.0000
iter:  28  23:09:20  -8.54  -4.94    -3.06-225.410128             +0.0000
iter:  29  23:10:07  -8.19  -5.04    -2.87-225.410128             +0.0000
iter:  30  23:10:54  -8.72  -5.14    -3.06-225.410128             +0.0000
iter:  31  23:11:41  -9.56  -5.26    -3.90-225.410128             +0.0000
iter:  32  23:12:28  -9.19  -5.29    -3.69-225.410128             +0.0000
iter:  33  23:13:16  -9.02  -5.34    -3.09-225.410128             +0.0000
iter:  34  23:14:03  -9.70  -5.41    -3.55-225.410128             +0.0000
iter:  35  23:14:50  -9.72  -5.45    -3.56-225.410128             +0.0000
iter:  36  23:15:37  -9.60  -5.52    -3.38-225.410128             +0.0000
iter:  37  23:16:24 -10.34  -5.94    -3.96-225.410128             +0.0000
iter:  38  23:17:11 -10.91  -6.10    -4.20-225.410128             +0.0000
iter:  39  23:17:58 -10.80  -6.14    -4.01-225.410128             +0.0000
iter:  40  23:18:45 -11.09  -6.21    -4.63-225.410128             -0.0000
iter:  41  23:19:32 -11.40  -6.28    -4.69-225.410128             +0.0000
iter:  42  23:20:19 -10.40  -6.33    -4.00-225.410128             -0.0000
iter:  43  23:21:07 -11.83  -6.58    -4.53-225.410128             -0.0000
iter:  44  23:21:54 -12.32  -6.67    -4.83-225.410128             -0.0000
iter:  45  23:22:41 -11.87  -6.74    -4.49-225.410128             -0.0000
iter:  46  23:23:28 -11.06  -6.72    -4.35-225.410128             -0.0000
iter:  47  23:24:15 -12.53  -6.79    -5.23-225.410128             -0.0000
iter:  48  23:25:02 -12.97  -6.80    -5.17-225.410128             +0.0000
iter:  49  23:25:49 -12.58  -6.84    -5.05-225.410128             -0.0000
iter:  50  23:26:36 -12.76  -6.84    -5.29-225.410128             -0.0000
iter:  51  23:27:23 -12.64  -6.87    -5.43-225.410128             -0.0000
iter:  52  23:28:10 -12.27  -6.90    -4.78-225.410128             -0.0000
iter:  53  23:28:57 -12.74  -7.28    -5.29-225.410128             -0.0000
iter:  54  23:29:44 -13.37  -7.37    -5.77-225.410128             -0.0000
iter:  55  23:30:31 -13.77  -7.40    -5.33-225.410128             -0.0000
iter:  56  23:31:18 -13.44  -7.63    -5.46-225.410128             -0.0000
iter:  57  23:32:05 -14.67  -7.87    -6.58-225.410128             -0.0000

Converged after 57 iterations.

Dipole moment: (19.053302, -1.424368, -4.182389) |e|*Ang

Total magnetic moment: (0.000000, 0.000000, -0.000000)
Local magnetic moments:
   0 O  ( 0.000000,  0.000000,  0.000676)
   1 O  ( 0.000000,  0.000000, -0.000659)
   2 O  ( 0.000000,  0.000000, -0.000641)
   3 O  ( 0.000000,  0.000000,  0.000631)
   4 O  ( 0.000000,  0.000000, -0.000636)
   5 O  ( 0.000000,  0.000000,  0.000660)
   6 O  ( 0.000000,  0.000000,  0.000670)
   7 O  ( 0.000000,  0.000000, -0.000655)
   8 O  ( 0.000000,  0.000000,  0.022330)
   9 O  ( 0.000000,  0.000000, -0.022458)
  10 O  ( 0.000000,  0.000000, -0.022355)
  11 O  ( 0.000000,  0.000000,  0.022387)
  12 Mn ( 0.000000,  0.000000,  4.575074)
  13 Mn ( 0.000000,  0.000000, -4.575035)
  14 Mn ( 0.000000,  0.000000, -4.575441)
  15 Mn ( 0.000000,  0.000000,  4.575544)
  16 P  ( 0.000000,  0.000000,  0.000803)
  17 P  ( 0.000000,  0.000000, -0.000811)
  18 P  ( 0.000000,  0.000000, -0.000796)
  19 P  ( 0.000000,  0.000000,  0.000826)
  20 O  ( 0.000000,  0.000000,  0.020725)
  21 O  ( 0.000000,  0.000000, -0.020679)
  22 O  ( 0.000000,  0.000000, -0.020725)
  23 O  ( 0.000000,  0.000000,  0.020666)
  24 Li ( 0.000000,  0.000000, -0.000000)
  25 Li ( 0.000000,  0.000000,  0.000005)
  26 Li ( 0.000000,  0.000000,  0.000001)
  27 Li ( 0.000000,  0.000000, -0.000004)

Energy contributions relative to reference atoms: (reference = -196157.275402)

Kinetic:       +297.101886
Potential:     -256.580892
External:        +0.000000
XC:            -267.711614
Entropy (-ST):   -0.000000
Local:           +1.780492
--------------------------
Free energy:   -225.410128
Extrapolated:  -225.410128

Spin contamination: 9.697750 electrons
Showing only first 2 kpts
                      Up                     Down
 Kpt  Band  Eigenvalues  Occupancy  Eigenvalues  Occupancy
  0    88      5.10482    0.00694      5.10749    0.00694
  0    89      5.15790    0.00694      5.16096    0.00694
  0    90      9.64575    0.00000      9.65104    0.00000
  0    91      9.67392    0.00000      9.66581    0.00000

  1    88      5.11637    0.00694      5.11914    0.00694
  1    89      5.16726    0.00694      5.17013    0.00694
  1    90      9.52282    0.00000      9.53352    0.00000
  1    91      9.54904    0.00000      9.53991    0.00000


Fermi level: 6.36933

Gap: 3.794 eV
Transition (v -> c):
  (s=1, k=72, n=89, [0.08, -0.42, -0.38]) -> (s=0, k=61, n=90, [-0.08, 0.08, -0.12])
Writing to born-0.01-4x-.gpw (mode='all')

Timing:                              incl.     excl.
-----------------------------------------------------------
Hamiltonian:                         0.407     0.002   0.0% |
 Atomic:                             0.058     0.058   0.0% |
  XC Correction:                     0.000     0.000   0.0% |
 Calculate atomic Hamiltonians:      0.166     0.166   0.0% |
 Communicate:                        0.005     0.005   0.0% |
 Initialize Hamiltonian:             0.000     0.000   0.0% |
 Poisson:                            0.001     0.001   0.0% |
 XC 3D grid:                         0.175     0.175   0.0% |
LCAO initialization:               153.199     0.677   0.0% |
 LCAO eigensolver:                  40.477     0.002   0.0% |
  Calculate projections:             0.056     0.056   0.0% |
  DenseAtomicCorrection:             0.082     0.082   0.0% |
  Distribute overlap matrix:         0.007     0.007   0.0% |
  Orbital Layouts:                   0.363     0.363   0.0% |
  Potential matrix:                 39.873    39.873   0.7% |
  Sum over cells:                    0.093     0.093   0.0% |
 LCAO to grid:                     109.667   109.667   1.9% ||
 Set positions (LCAO WFS):           2.378     0.370   0.0% |
  Basic WFS set positions:           0.001     0.001   0.0% |
  Basis functions set positions:     0.000     0.000   0.0% |
  P tci:                             1.082     1.082   0.0% |
  ST tci:                            0.709     0.709   0.0% |
  mktci:                             0.216     0.216   0.0% |
PWDescriptor:                        0.025     0.025   0.0% |
SCF-cycle:                        2485.062    16.701   0.3% |
 Davidson:                        2005.298   638.864  11.3% |----|
  Apply H:                         146.831   142.354   2.5% ||
   HMM T:                            4.478     4.478   0.1% |
  Subspace diag:                   298.338     0.178   0.0% |
   calc_h_matrix:                  196.070    51.817   0.9% |
    Apply H:                       144.253   139.909   2.5% ||
     HMM T:                          4.343     4.343   0.1% |
   diagonalize:                      6.940     6.940   0.1% |
   rotate_psi:                      95.150    95.150   1.7% ||
  calc. matrices:                  632.466   346.653   6.1% |-|
   Apply H:                        285.813   277.370   4.9% |-|
    HMM T:                           8.443     8.443   0.1% |
  diagonalize:                      95.215    95.215   1.7% ||
  rotate_psi:                      193.583   193.583   3.4% ||
 Density:                           84.777     0.002   0.0% |
  Atomic density matrices:           1.471     1.471   0.0% |
  Mix:                              12.814    12.814   0.2% |
  Multipole moments:                 0.033     0.033   0.0% |
  Pseudo density:                   70.457    70.455   1.2% |
   Symmetrize density:               0.002     0.002   0.0% |
 Forces:                           351.040   351.040   6.2% |-|
 Hamiltonian:                       23.176     0.144   0.0% |
  Atomic:                            3.293     3.292   0.1% |
   XC Correction:                    0.000     0.000   0.0% |
  Calculate atomic Hamiltonians:     9.574     9.574   0.2% |
  Communicate:                       0.105     0.105   0.0% |
  Poisson:                           0.096     0.096   0.0% |
  XC 3D grid:                        9.965     9.965   0.2% |
 Orthonormalize:                     4.069     0.004   0.0% |
  calc_s_matrix:                     0.485     0.485   0.0% |
  inverse-cholesky:                  0.055     0.055   0.0% |
  projections:                       2.665     2.665   0.0% |
  rotate_psi_s:                      0.861     0.861   0.0% |
Set symmetry:                        0.000     0.000   0.0% |
Other:                            3006.297  3006.297  53.3% |--------------------|
-----------------------------------------------------------
Total:                                      5644.990 100.0%

Memory usage: 12.44 GiB
Date: Mon Mar 22 00:22:10 2021
