
  ___ ___ ___ _ _ _  
 |   |   |_  | | | | 
 | | | | | . | | | | 
 |__ |  _|___|_____|  20.10.1b1
 |___|_|             

User:   madkru@i018.nifl.fysik.dtu.dk
Date:   Thu Mar 25 07:37:02 2021
Arch:   x86_64
Pid:    26873
Python: 3.7.4
gpaw:   /home/niflheim/madkru/venv_folder/gpaw/gpaw (d224efde0f)
_gpaw:  /home/niflheim/madkru/venv_folder/gpaw/build/lib.linux-x86_64-ivybridge-3.7/
        _gpaw.cpython-37m-x86_64-linux-gnu.so (4fd39e8b1e)
ase:    /home/niflheim/madkru/venv_folder/ase/ase (version 3.21.0b1-4d5a73cb29)
numpy:  /home/niflheim/madkru/venv_folder/lib/python3.7/site-packages/numpy (version 1.19.4)
scipy:  /home/niflheim/madkru/venv_folder/lib/python3.7/site-packages/scipy (version 1.5.4)
libxc:  4.3.4
units:  Angstrom and eV
cores: 64
OMP_NUM_THREADS: 1

Input parameters:
  convergence: {bands: occupied,
                density: 0.0001,
                eigenstates: 4e-08,
                energy: 0.0005,
                forces: 1e-06}
  kpts: [6 6 4]
  mode: {ecut: 600.0,
         gammacentered: False,
         name: pw}
  occupations: {fixmagmom: False,
                name: fermi-dirac,
                width: 0.001}
  setups: {Mn: :d,3.0}
  symmetry: {point_group: False,
             time_reversal: False}

System changes: positions, numbers, cell, pbc, initial_charges, initial_magmoms 

Initialize ...

O-setup:
  name: Oxygen
  id: 9b9d51c344dea68c822856295a461509
  Z: 8.0
  valence: 6
  core: 2
  charge: 0.0
  file: /home/modules/software/GPAW-setups/0.9.20000/O.LDA.gz
  compensation charges: gauss, rc=0.21, lmax=2
  cutoffs: 1.17(filt), 0.83(core),
  valence states:
                energy  radius
    2s(2.00)   -23.752   0.688
    2p(4.00)    -9.195   0.598
    *s           3.459   0.688
    *p          18.016   0.598
    *d           0.000   0.619

  Using partial waves for O as LCAO basis

Mn-setup:
  name: Manganese
  id: 0d715a8018be061a6e9ea6f2d364ac92
  Z: 25.0
  valence: 15
  core: 10
  charge: 0.0
  Hubbard U: 3.000000 eV (l=2, scale=True)
  file: /home/modules/software/GPAW-setups/0.9.20000/Mn.LDA.gz
  compensation charges: gauss, rc=0.38, lmax=2
  cutoffs: 2.14(filt), 0.86(core),
  valence states:
                energy  radius
    3s(2.00)   -85.387   1.275
    4s(2.00)    -5.282   1.275
    3p(6.00)   -54.493   1.281
    4p(0.00)    -1.471   1.281
    3d(5.00)    -7.009   1.138
    *d          20.203   1.138

  Using partial waves for Mn as LCAO basis

P-setup:
  name: Phosphorus
  id: a5561c299094968922a179ab894d2e2d
  Z: 15.0
  valence: 5
  core: 10
  charge: 0.0
  file: /home/modules/software/GPAW-setups/0.9.20000/P.LDA.gz
  compensation charges: gauss, rc=0.30, lmax=2
  cutoffs: 1.69(filt), 1.81(core),
  valence states:
                energy  radius
    3s(2.00)   -14.015   0.953
    3p(3.00)    -5.596   0.953
    *s          13.197   0.953
    *p          21.615   0.953
    *d           0.000   0.953

  Using partial waves for P as LCAO basis

Li-setup:
  name: Lithium
  id: b73562207f97a71b6967473b66fe8b65
  Z: 3.0
  valence: 1
  core: 2
  charge: 0.0
  file: /home/modules/software/GPAW-setups/0.9.20000/Li.LDA.gz
  compensation charges: gauss, rc=0.33, lmax=2
  cutoffs: 1.91(filt), 2.55(core),
  valence states:
                energy  radius
    2s(1.00)    -2.874   1.058
    2p(0.00)    -1.126   1.058
    *s          24.338   1.058

  Using partial waves for Li as LCAO basis

Reference energy: -196157.275402

Spin-polarized calculation.
Magnetic moment: 0.000000

Convergence criteria:
  Maximum total energy change: 0.0005 eV / electron
  Maximum integral of absolute density change: 0.0001 electrons
  Maximum integral of absolute eigenstate change: 4e-08 eV^2
  Maximum change in atomic force: 1e-06 eV / Ang
  Maximum number of iterations: 333

Symmetries present (total): 1

  ( 1  0  0)
  ( 0  1  0)
  ( 0  0  1)

144 k-points: 6 x 6 x 4 Monkhorst-Pack grid
144 k-points in the irreducible part of the Brillouin zone
       k-points in crystal coordinates                weights
   0:    -0.41666667   -0.41666667   -0.37500000          1/144
   1:    -0.41666667   -0.41666667   -0.12500000          1/144
   2:    -0.41666667   -0.41666667    0.12500000          1/144
   3:    -0.41666667   -0.41666667    0.37500000          1/144
   4:    -0.41666667   -0.25000000   -0.37500000          1/144
   5:    -0.41666667   -0.25000000   -0.12500000          1/144
   6:    -0.41666667   -0.25000000    0.12500000          1/144
   7:    -0.41666667   -0.25000000    0.37500000          1/144
   8:    -0.41666667   -0.08333333   -0.37500000          1/144
   9:    -0.41666667   -0.08333333   -0.12500000          1/144
          ...
 143:     0.41666667    0.41666667    0.37500000          1/144

Wave functions: Plane wave expansion
  Cutoff energy: 600.000 eV
  Number of coefficients (min, max): 9238, 9284
  Pulay-stress correction: 0.000000 eV/Ang^3 (de/decut=0.000000)
  Using FFTW library
  ScaLapack parameters: grid=1x1, blocksize=None
  Wavefunction extrapolation:
    Improved wavefunction reuse through dual PAW basis 

  Fermi-Dirac: width=0.0010 eV

Eigensolver
   Davidson(niter=2, smin=None, normalize=True) 

Densities:
  Coarse grid: 60*35*27 grid
  Fine grid: 120*70*54 grid
  Total Charge: 0.000000 

Density mixing:
  Method: difference
  Backend: pulay
  Linear mixing parameter: 0.05
  Mixing with 5 old densities
  Damping of long wave oscillations: 50 

Hamiltonian:
  XC and Coulomb potentials evaluated on a 120*70*54 grid
  Using the LDA Exchange-Correlation functional
 

Memory estimate:
  Process memory now: 14079.91 MiB
  Calculator: 326.59 MiB
    Density: 9.67 MiB
      Arrays: 3.79 MiB
      Localized functions: 4.32 MiB
      Mixer: 1.56 MiB
    Hamiltonian: 2.94 MiB
      Arrays: 2.82 MiB
      XC: 0.00 MiB
      Poisson: 0.00 MiB
      vbar: 0.12 MiB
    Wavefunctions: 313.97 MiB
      Arrays psit_nG: 285.59 MiB
      Eigensolver: 18.49 MiB
      Projections: 2.71 MiB
      Projectors: 4.46 MiB
      PW-descriptor: 2.72 MiB

Total number of cores used: 64
Parallelization over k-points: 16
Domain decomposition: 2 x 2 x 1

Number of atoms: 28
Number of atomic orbitals: 148
Number of bands in calculation: 112
Number of valence electrons: 180
Bands to converge: occupied

... initialized

Initializing position-dependent things.

Density initialized from atomic densities
Creating initial wave functions:
  112 bands from LCAO basis set

                                           
                                           
                                           
                                           
                                           
               O     O  P  O               
            PO           OMn     O         
                  O          MO            
            O        Li O                  
             Mn  On          OP            
         O         Li O                    
         Li     O P         O              
       Li                                  
                                           
                                           
                                           
                                           

Positions:
   0 O     -1.263197   -2.497779   -1.098475    ( 0.0000,  0.0000,  0.0000)
   1 O     -3.070823    2.922496    1.209491    ( 0.0000,  0.0000,  0.0000)
   2 O      1.985541    0.474863    1.428016    ( 0.0000,  0.0000,  0.0000)
   3 O      3.793120   -0.050100   -0.879950    ( 0.0000,  0.0000,  0.0000)
   4 O      1.985518    2.922485    1.428149    ( 0.0000,  0.0000,  0.0000)
   5 O      3.793144   -2.497790   -0.879818    ( 0.0000,  0.0000,  0.0000)
   6 O     -1.263220   -0.050157   -1.098342    ( 0.0000,  0.0000,  0.0000)
   7 O     -3.070798    0.474805    1.209623    ( 0.0000,  0.0000,  0.0000)
   8 O     -4.167835   -1.273920   -0.862116    ( 0.0000,  0.0000,  0.0000)
   9 O     -0.166037    1.698602    1.445528    ( 0.0000,  0.0000,  0.0000)
  10 O      4.890156    1.698625    1.191790    ( 0.0000,  0.0000,  0.0000)
  11 O      0.888358   -1.273896   -1.115855    ( 0.0000,  0.0000,  0.0000)
  12 Mn    -2.445557   -1.274211    0.312921    ( 0.0000,  0.0000,  1.0000)
  13 Mn    -1.888303    1.698892   -1.994948    ( 0.0000,  0.0000, -1.0000)
  14 Mn     3.167879    1.698917    0.016752    ( 0.0000,  0.0000, -1.0000)
  15 Mn     2.610624   -1.274187    2.324621    ( 0.0000,  0.0000,  1.0000)
  16 P     -0.529549   -1.273917   -1.724376    ( 0.0000,  0.0000,  0.0000)
  17 P     -3.804359    1.698599    0.583463    ( 0.0000,  0.0000,  0.0000)
  18 P      1.251870    1.698623    2.054050    ( 0.0000,  0.0000,  0.0000)
  19 P      4.526680   -1.273894   -0.253789    ( 0.0000,  0.0000,  0.0000)
  20 O     -0.544227   -1.273926    1.365380    ( 0.0000,  0.0000,  0.0000)
  21 O     -3.789411    1.698610   -0.942222    ( 0.0000,  0.0000,  0.0000)
  22 O      1.266548    1.698631   -1.035707    ( 0.0000,  0.0000,  0.0000)
  23 O      4.511733   -1.273905    1.271895    ( 0.0000,  0.0000,  0.0000)
  24 Li    -4.695087   -2.760584   -2.142877    ( 0.0000,  0.0000,  0.0000)
  25 Li     0.361147   -2.760561    0.164836    ( 0.0000,  0.0000,  0.0000)
  26 Li    -4.685074    0.212330   -2.142877    ( 0.0000,  0.0000,  0.0000)
  27 Li     0.361161    0.212353    0.164837    ( 0.0000,  0.0000,  0.0000)

Unit cell:
           periodic     x           y           z      points  spacing
  1. axis:    yes   10.112485    0.000045   -0.000035    60     0.1685
  2. axis:    yes    0.000026    5.945827    0.000001    35     0.1699
  3. axis:    yes   -0.000016    0.000000    4.615463    27     0.1709

  Lengths:  10.112485   5.945827   4.615463
  Angles:   89.999989  90.000396  89.999490

Effective grid spacing dv^(1/3) = 0.1698

                     log10-error:           total        iterations:
           time      wfs    density  force  energy       poisson  magmom
iter:   1  07:38:36                       -221.376818             +0.0000
iter:   2  07:38:56  -0.61  -0.93         -234.836101             +0.0000
iter:   3  07:39:16  -0.37  -0.97         -225.912179             -0.0000
iter:   4  07:39:36  -1.39  -1.29         -225.761720             +0.0000
iter:   5  07:39:56  -1.27  -1.39         -227.329985             +0.0000
iter:   6  07:40:16  -1.46  -1.46         -225.737524             +0.0000
iter:   7  07:40:36  -2.47  -2.04         -225.724942             +0.0000
iter:   8  07:40:56  -2.14  -1.99         -225.590728             +0.0000
iter:   9  07:41:16  -2.46  -2.09         -225.432558             +0.0000
iter:  10  07:41:36  -3.31  -2.55         -225.422623             +0.0000
iter:  11  07:41:56  -3.65  -2.81         -225.412199             +0.0000
iter:  12  07:42:16  -4.12  -3.05         -225.411093             +0.0000
iter:  13  07:42:36  -5.11  -3.29         -225.410972             -0.0000
iter:  14  07:42:56  -5.39  -3.32         -225.410799             -0.0000
iter:  15  07:43:16  -6.04  -3.43         -225.410806             -0.0000
iter:  16  07:43:35  -5.24  -3.47         -225.411147             +0.0000
iter:  17  07:43:55  -5.86  -3.58         -225.411033             -0.0000
iter:  18  07:44:15  -5.21  -3.70         -225.410748             +0.0000
iter:  19  07:44:35  -6.10  -4.14         -225.410752             -0.0000
iter:  20  07:44:55  -7.28  -4.54         -225.410754             -0.0000
iter:  21  07:45:20  -8.05  -4.57         -225.410753             -0.0000
iter:  22  07:45:45  -7.86  -4.63    -2.37-225.410753             -0.0000
iter:  23  07:46:09  -8.17  -4.87    -2.69-225.410753             -0.0000
iter:  24  07:46:34  -8.61  -5.10    -3.03-225.410753             -0.0000
iter:  25  07:46:59  -9.24  -5.20    -3.32-225.410753             -0.0000
iter:  26  07:47:23  -8.87  -5.31    -3.14-225.410753             -0.0000
iter:  27  07:47:48  -9.15  -5.51    -3.32-225.410753             -0.0000
iter:  28  07:48:12 -10.17  -5.59    -4.09-225.410753             -0.0000
iter:  29  07:48:37  -9.77  -5.62    -3.36-225.410753             -0.0000
iter:  30  07:49:02 -10.62  -5.79    -3.84-225.410753             -0.0000
iter:  31  07:49:26 -10.46  -5.83    -3.85-225.410753             -0.0000
iter:  32  07:49:51  -9.64  -5.91    -3.94-225.410753             -0.0000
iter:  33  07:50:16 -11.07  -6.17    -4.29-225.410753             -0.0000
iter:  34  07:50:40  -9.78  -6.19    -3.68-225.410753             -0.0000
iter:  35  07:51:05 -10.52  -6.18    -3.89-225.410753             +0.0000
iter:  36  07:51:30 -11.60  -6.74    -5.10-225.410753             +0.0000
iter:  37  07:51:54 -12.28  -6.79    -4.55-225.410753             +0.0000
iter:  38  07:52:19 -11.54  -6.83    -4.60-225.410753             +0.0000
iter:  39  07:52:44 -12.38  -6.94    -4.70-225.410753             +0.0000
iter:  40  07:53:08 -12.16  -7.09    -4.95-225.410753             +0.0000
iter:  41  07:53:33 -12.56  -7.12    -5.07-225.410753             +0.0000
iter:  42  07:53:58 -13.55  -7.20    -5.53-225.410753             +0.0000
iter:  43  07:54:22 -13.06  -7.25    -5.13-225.410753             +0.0000
iter:  44  07:54:47 -14.07  -7.31    -5.52-225.410753             +0.0000
iter:  45  07:55:11 -12.95  -7.33    -5.53-225.410753             -0.0000
iter:  46  07:55:36 -13.78  -7.45    -5.68-225.410753             +0.0000
iter:  47  07:56:01 -14.03  -7.52    -5.74-225.410753             +0.0000
iter:  48  07:56:25 -13.11  -7.61    -5.41-225.410753             +0.0000
iter:  49  07:56:50 -13.53  -7.82    -5.67-225.410753             +0.0000
iter:  50  07:57:15 -14.11  -7.95    -5.83-225.410753             +0.0000
iter:  51  07:57:39 -14.90  -8.01    -6.20-225.410753             +0.0000

Converged after 51 iterations.

Dipole moment: (19.055749, -1.425937, -4.182631) |e|*Ang

Total magnetic moment: (0.000000, 0.000000, 0.000000)
Local magnetic moments:
   0 O  ( 0.000000,  0.000000,  0.000663)
   1 O  ( 0.000000,  0.000000, -0.000675)
   2 O  ( 0.000000,  0.000000, -0.000662)
   3 O  ( 0.000000,  0.000000,  0.000651)
   4 O  ( 0.000000,  0.000000, -0.000665)
   5 O  ( 0.000000,  0.000000,  0.000669)
   6 O  ( 0.000000,  0.000000,  0.000658)
   7 O  ( 0.000000,  0.000000, -0.000686)
   8 O  ( 0.000000,  0.000000,  0.022398)
   9 O  ( 0.000000,  0.000000, -0.022392)
  10 O  ( 0.000000,  0.000000, -0.022338)
  11 O  ( 0.000000,  0.000000,  0.022343)
  12 Mn ( 0.000000,  0.000000,  4.575034)
  13 Mn ( 0.000000,  0.000000, -4.574993)
  14 Mn ( 0.000000,  0.000000, -4.575097)
  15 Mn ( 0.000000,  0.000000,  4.575076)
  16 P  ( 0.000000,  0.000000,  0.000816)
  17 P  ( 0.000000,  0.000000, -0.000825)
  18 P  ( 0.000000,  0.000000, -0.000808)
  19 P  ( 0.000000,  0.000000,  0.000808)
  20 O  ( 0.000000,  0.000000,  0.020715)
  21 O  ( 0.000000,  0.000000, -0.020720)
  22 O  ( 0.000000,  0.000000, -0.020703)
  23 O  ( 0.000000,  0.000000,  0.020697)
  24 Li ( 0.000000,  0.000000, -0.000000)
  25 Li ( 0.000000,  0.000000,  0.000000)
  26 Li ( 0.000000,  0.000000,  0.000023)
  27 Li ( 0.000000,  0.000000,  0.000000)

Energy contributions relative to reference atoms: (reference = -196157.275402)

Kinetic:       +296.839648
Potential:     -256.382424
External:        +0.000000
XC:            -267.648738
Entropy (-ST):   -0.000000
Local:           +1.780761
--------------------------
Free energy:   -225.410753
Extrapolated:  -225.410753

Spin contamination: 9.697233 electrons
Showing only first 2 kpts
                      Up                     Down
 Kpt  Band  Eigenvalues  Occupancy  Eigenvalues  Occupancy
  0    88      5.10926    0.00694      5.10901    0.00694
  0    89      5.16112    0.00694      5.16135    0.00694
  0    90      9.65382    0.00000      9.64949    0.00000
  0    91      9.66909    0.00000      9.67398    0.00000

  1    88      5.12082    0.00694      5.12057    0.00694
  1    89      5.17041    0.00694      5.17074    0.00694
  1    90      9.53653    0.00000      9.53075    0.00000
  1    91      9.54314    0.00000      9.54838    0.00000


Fermi level: 6.36998

Gap: 3.795 eV
Transition (v -> c):
  (s=0, k=72, n=89, [0.08, -0.42, -0.38]) -> (s=1, k=86, n=90, [0.08, 0.08, 0.12])
Writing to born-0.01-26x+.gpw (mode='all')

Timing:                              incl.     excl.
-----------------------------------------------------------
Hamiltonian:                         0.219     0.002   0.0% |
 Atomic:                             0.055     0.055   0.0% |
  XC Correction:                     0.000     0.000   0.0% |
 Calculate atomic Hamiltonians:      0.075     0.075   0.0% |
 Communicate:                        0.002     0.002   0.0% |
 Initialize Hamiltonian:             0.000     0.000   0.0% |
 Poisson:                            0.001     0.001   0.0% |
 XC 3D grid:                         0.084     0.084   0.0% |
LCAO initialization:                70.750     0.651   0.0% |
 LCAO eigensolver:                  19.271     0.002   0.0% |
  Calculate projections:             0.029     0.029   0.0% |
  DenseAtomicCorrection:             0.045     0.045   0.0% |
  Distribute overlap matrix:         0.008     0.008   0.0% |
  Orbital Layouts:                   0.432     0.432   0.0% |
  Potential matrix:                 18.655    18.655   0.6% |
  Sum over cells:                    0.099     0.099   0.0% |
 LCAO to grid:                      49.501    49.501   1.6% ||
 Set positions (LCAO WFS):           1.327     0.192   0.0% |
  Basic WFS set positions:           0.001     0.001   0.0% |
  Basis functions set positions:     0.000     0.000   0.0% |
  P tci:                             0.531     0.531   0.0% |
  ST tci:                            0.385     0.385   0.0% |
  mktci:                             0.217     0.217   0.0% |
PWDescriptor:                        0.024     0.024   0.0% |
SCF-cycle:                        1164.695     0.542   0.0% |
 Davidson:                         966.287   295.755   9.5% |---|
  Apply H:                          66.990    65.108   2.1% ||
   HMM T:                            1.882     1.882   0.1% |
  Subspace diag:                   139.996     0.148   0.0% |
   calc_h_matrix:                   90.103    23.286   0.8% |
    Apply H:                        66.816    64.903   2.1% ||
     HMM T:                          1.913     1.913   0.1% |
   diagonalize:                      6.948     6.948   0.2% |
   rotate_psi:                      42.798    42.798   1.4% ||
  calc. matrices:                  290.254   158.240   5.1% |-|
   Apply H:                        132.014   128.391   4.1% |-|
    HMM T:                           3.623     3.623   0.1% |
  diagonalize:                      80.539    80.539   2.6% ||
  rotate_psi:                       92.752    92.752   3.0% ||
 Density:                           38.688     0.001   0.0% |
  Atomic density matrices:           0.819     0.819   0.0% |
  Mix:                               5.351     5.351   0.2% |
  Multipole moments:                 0.019     0.019   0.0% |
  Pseudo density:                   32.498    32.497   1.0% |
   Symmetrize density:               0.001     0.001   0.0% |
 Forces:                           146.011   146.011   4.7% |-|
 Hamiltonian:                       11.076     0.108   0.0% |
  Atomic:                            2.796     2.796   0.1% |
   XC Correction:                    0.000     0.000   0.0% |
  Calculate atomic Hamiltonians:     3.781     3.781   0.1% |
  Communicate:                       0.094     0.094   0.0% |
  Poisson:                           0.032     0.032   0.0% |
  XC 3D grid:                        4.266     4.266   0.1% |
 Orthonormalize:                     2.092     0.003   0.0% |
  calc_s_matrix:                     0.245     0.245   0.0% |
  inverse-cholesky:                  0.072     0.072   0.0% |
  projections:                       1.337     1.337   0.0% |
  rotate_psi_s:                      0.435     0.435   0.0% |
Set symmetry:                        0.000     0.000   0.0% |
Other:                            1866.574  1866.574  60.2% |-----------------------|
-----------------------------------------------------------
Total:                                      3102.262 100.0%

Memory usage: 13.79 GiB
Date: Thu Mar 25 08:28:45 2021
