
  ___ ___ ___ _ _ _  
 |   |   |_  | | | | 
 | | | | | . | | | | 
 |__ |  _|___|_____|  20.10.1b1
 |___|_|             

User:   madkru@g035.nifl.fysik.dtu.dk
Date:   Mon Mar 22 21:37:18 2021
Arch:   x86_64
Pid:    44316
Python: 3.7.4
gpaw:   /home/niflheim/madkru/venv_folder/gpaw/gpaw (d0d1ca1c71)
_gpaw:  /home/niflheim/madkru/venv_folder/gpaw/build/lib.linux-x86_64-sandybridge-3.7/
        _gpaw.cpython-37m-x86_64-linux-gnu.so (4fd39e8b1e)
ase:    /home/niflheim/madkru/venv_folder/ase/ase (version 3.21.0b1-7e6c206a91)
numpy:  /home/niflheim/madkru/venv_folder/lib/python3.7/site-packages/numpy (version 1.19.4)
scipy:  /home/niflheim/madkru/venv_folder/lib/python3.7/site-packages/scipy (version 1.5.4)
libxc:  4.3.4
units:  Angstrom and eV
cores: 32
OMP_NUM_THREADS: 1

Input parameters:
  convergence: {bands: occupied,
                density: 0.0001,
                eigenstates: 4e-08,
                energy: 0.0005,
                forces: 1e-06}
  kpts: [6 6 4]
  mode: {ecut: 600.0,
         gammacentered: False,
         name: pw}
  occupations: {fixmagmom: False,
                name: fermi-dirac,
                width: 0.001}
  setups: {Mn: :d,3.0}
  symmetry: {point_group: False,
             time_reversal: False}

System changes: positions, numbers, cell, pbc, initial_charges, initial_magmoms 

Initialize ...

O-setup:
  name: Oxygen
  id: 9b9d51c344dea68c822856295a461509
  Z: 8.0
  valence: 6
  core: 2
  charge: 0.0
  file: /home/modules/software/GPAW-setups/0.9.20000/O.LDA.gz
  compensation charges: gauss, rc=0.21, lmax=2
  cutoffs: 1.17(filt), 0.83(core),
  valence states:
                energy  radius
    2s(2.00)   -23.752   0.688
    2p(4.00)    -9.195   0.598
    *s           3.459   0.688
    *p          18.016   0.598
    *d           0.000   0.619

  Using partial waves for O as LCAO basis

Mn-setup:
  name: Manganese
  id: 0d715a8018be061a6e9ea6f2d364ac92
  Z: 25.0
  valence: 15
  core: 10
  charge: 0.0
  Hubbard U: 3.000000 eV (l=2, scale=True)
  file: /home/modules/software/GPAW-setups/0.9.20000/Mn.LDA.gz
  compensation charges: gauss, rc=0.38, lmax=2
  cutoffs: 2.14(filt), 0.86(core),
  valence states:
                energy  radius
    3s(2.00)   -85.387   1.275
    4s(2.00)    -5.282   1.275
    3p(6.00)   -54.493   1.281
    4p(0.00)    -1.471   1.281
    3d(5.00)    -7.009   1.138
    *d          20.203   1.138

  Using partial waves for Mn as LCAO basis

P-setup:
  name: Phosphorus
  id: a5561c299094968922a179ab894d2e2d
  Z: 15.0
  valence: 5
  core: 10
  charge: 0.0
  file: /home/modules/software/GPAW-setups/0.9.20000/P.LDA.gz
  compensation charges: gauss, rc=0.30, lmax=2
  cutoffs: 1.69(filt), 1.81(core),
  valence states:
                energy  radius
    3s(2.00)   -14.015   0.953
    3p(3.00)    -5.596   0.953
    *s          13.197   0.953
    *p          21.615   0.953
    *d           0.000   0.953

  Using partial waves for P as LCAO basis

Li-setup:
  name: Lithium
  id: b73562207f97a71b6967473b66fe8b65
  Z: 3.0
  valence: 1
  core: 2
  charge: 0.0
  file: /home/modules/software/GPAW-setups/0.9.20000/Li.LDA.gz
  compensation charges: gauss, rc=0.33, lmax=2
  cutoffs: 1.91(filt), 2.55(core),
  valence states:
                energy  radius
    2s(1.00)    -2.874   1.058
    2p(0.00)    -1.126   1.058
    *s          24.338   1.058

  Using partial waves for Li as LCAO basis

Reference energy: -196157.275402

Spin-polarized calculation.
Magnetic moment: 0.000000

Convergence criteria:
  Maximum total energy change: 0.0005 eV / electron
  Maximum integral of absolute density change: 0.0001 electrons
  Maximum integral of absolute eigenstate change: 4e-08 eV^2
  Maximum change in atomic force: 1e-06 eV / Ang
  Maximum number of iterations: 333

Symmetries present (total): 1

  ( 1  0  0)
  ( 0  1  0)
  ( 0  0  1)

144 k-points: 6 x 6 x 4 Monkhorst-Pack grid
144 k-points in the irreducible part of the Brillouin zone
       k-points in crystal coordinates                weights
   0:    -0.41666667   -0.41666667   -0.37500000          1/144
   1:    -0.41666667   -0.41666667   -0.12500000          1/144
   2:    -0.41666667   -0.41666667    0.12500000          1/144
   3:    -0.41666667   -0.41666667    0.37500000          1/144
   4:    -0.41666667   -0.25000000   -0.37500000          1/144
   5:    -0.41666667   -0.25000000   -0.12500000          1/144
   6:    -0.41666667   -0.25000000    0.12500000          1/144
   7:    -0.41666667   -0.25000000    0.37500000          1/144
   8:    -0.41666667   -0.08333333   -0.37500000          1/144
   9:    -0.41666667   -0.08333333   -0.12500000          1/144
          ...
 143:     0.41666667    0.41666667    0.37500000          1/144

Wave functions: Plane wave expansion
  Cutoff energy: 600.000 eV
  Number of coefficients (min, max): 9238, 9284
  Pulay-stress correction: 0.000000 eV/Ang^3 (de/decut=0.000000)
  Using FFTW library
  ScaLapack parameters: grid=1x1, blocksize=None
  Wavefunction extrapolation:
    Improved wavefunction reuse through dual PAW basis 

  Fermi-Dirac: width=0.0010 eV

Eigensolver
   Davidson(niter=2, smin=None, normalize=True) 

Densities:
  Coarse grid: 60*35*27 grid
  Fine grid: 120*70*54 grid
  Total Charge: 0.000000 

Density mixing:
  Method: difference
  Backend: pulay
  Linear mixing parameter: 0.05
  Mixing with 5 old densities
  Damping of long wave oscillations: 50 

Hamiltonian:
  XC and Coulomb potentials evaluated on a 120*70*54 grid
  Using the LDA Exchange-Correlation functional
 

Memory estimate:
  Process memory now: 13334.15 MiB
  Calculator: 346.50 MiB
    Density: 19.24 MiB
      Arrays: 7.57 MiB
      Localized functions: 8.64 MiB
      Mixer: 3.03 MiB
    Hamiltonian: 5.87 MiB
      Arrays: 5.62 MiB
      XC: 0.00 MiB
      Poisson: 0.00 MiB
      vbar: 0.25 MiB
    Wavefunctions: 321.38 MiB
      Arrays psit_nG: 285.59 MiB
      Eigensolver: 18.49 MiB
      Projections: 5.41 MiB
      Projectors: 8.92 MiB
      PW-descriptor: 2.96 MiB

Total number of cores used: 32
Parallelization over k-points: 16
Domain decomposition: 2 x 1 x 1

Number of atoms: 28
Number of atomic orbitals: 148
Number of bands in calculation: 112
Number of valence electrons: 180
Bands to converge: occupied

... initialized

Initializing position-dependent things.

Density initialized from atomic densities
Creating initial wave functions:
  112 bands from LCAO basis set

                                           
                                           
                                           
                                           
                                           
               O     O  P  O               
            PO           OMn     O         
                  O          MO            
            O        Li O                  
             Mn  On          OP            
         O         Li O                    
         Li     O P         O              
       Li                                  
                                           
                                           
                                           
                                           

Positions:
   0 O     -1.263197   -2.497779   -1.098475    ( 0.0000,  0.0000,  0.0000)
   1 O     -3.070823    2.922496    1.209491    ( 0.0000,  0.0000,  0.0000)
   2 O      1.985541    0.474863    1.428016    ( 0.0000,  0.0000,  0.0000)
   3 O      3.793120   -0.050100   -0.879950    ( 0.0000,  0.0000,  0.0000)
   4 O      1.985518    2.922485    1.428149    ( 0.0000,  0.0000,  0.0000)
   5 O      3.793144   -2.497790   -0.879818    ( 0.0000,  0.0000,  0.0000)
   6 O     -1.263220   -0.050157   -1.098342    ( 0.0000,  0.0000,  0.0000)
   7 O     -3.070798    0.474805    1.209623    ( 0.0000,  0.0000,  0.0000)
   8 O     -4.167835   -1.273920   -0.852116    ( 0.0000,  0.0000,  0.0000)
   9 O     -0.166037    1.698602    1.445528    ( 0.0000,  0.0000,  0.0000)
  10 O      4.890156    1.698625    1.191790    ( 0.0000,  0.0000,  0.0000)
  11 O      0.888358   -1.273896   -1.115855    ( 0.0000,  0.0000,  0.0000)
  12 Mn    -2.445557   -1.274211    0.312921    ( 0.0000,  0.0000,  1.0000)
  13 Mn    -1.888303    1.698892   -1.994948    ( 0.0000,  0.0000, -1.0000)
  14 Mn     3.167879    1.698917    0.016752    ( 0.0000,  0.0000, -1.0000)
  15 Mn     2.610624   -1.274187    2.324621    ( 0.0000,  0.0000,  1.0000)
  16 P     -0.529549   -1.273917   -1.724376    ( 0.0000,  0.0000,  0.0000)
  17 P     -3.804359    1.698599    0.583463    ( 0.0000,  0.0000,  0.0000)
  18 P      1.251870    1.698623    2.054050    ( 0.0000,  0.0000,  0.0000)
  19 P      4.526680   -1.273894   -0.253789    ( 0.0000,  0.0000,  0.0000)
  20 O     -0.544227   -1.273926    1.365380    ( 0.0000,  0.0000,  0.0000)
  21 O     -3.789411    1.698610   -0.942222    ( 0.0000,  0.0000,  0.0000)
  22 O      1.266548    1.698631   -1.035707    ( 0.0000,  0.0000,  0.0000)
  23 O      4.511733   -1.273905    1.271895    ( 0.0000,  0.0000,  0.0000)
  24 Li    -4.695087   -2.760584   -2.142877    ( 0.0000,  0.0000,  0.0000)
  25 Li     0.361147   -2.760561    0.164836    ( 0.0000,  0.0000,  0.0000)
  26 Li    -4.695074    0.212330   -2.142877    ( 0.0000,  0.0000,  0.0000)
  27 Li     0.361161    0.212353    0.164837    ( 0.0000,  0.0000,  0.0000)

Unit cell:
           periodic     x           y           z      points  spacing
  1. axis:    yes   10.112485    0.000045   -0.000035    60     0.1685
  2. axis:    yes    0.000026    5.945827    0.000001    35     0.1699
  3. axis:    yes   -0.000016    0.000000    4.615463    27     0.1709

  Lengths:  10.112485   5.945827   4.615463
  Angles:   89.999989  90.000396  89.999490

Effective grid spacing dv^(1/3) = 0.1698

                     log10-error:           total        iterations:
           time      wfs    density  force  energy       poisson  magmom
iter:   1  21:40:35                       -221.371137             +0.0000
iter:   2  21:41:12  -0.61  -0.93         -234.825192             +0.0000
iter:   3  21:41:49  -0.37  -0.97         -225.909511             -0.0000
iter:   4  21:42:26  -1.39  -1.29         -225.760392             +0.0000
iter:   5  21:43:04  -1.27  -1.39         -227.325304             +0.0000
iter:   6  21:43:41  -1.47  -1.46         -225.737029             +0.0000
iter:   7  21:44:18  -2.48  -2.04         -225.724821             +0.0000
iter:   8  21:44:55  -2.21  -1.99         -225.569589             +0.0000
iter:   9  21:45:33  -2.49  -2.12         -225.434034             +0.0000
iter:  10  21:46:10  -3.30  -2.53         -225.422896             +0.0000
iter:  11  21:46:47  -3.53  -2.80         -225.411092             +0.0000
iter:  12  21:47:24  -4.19  -3.05         -225.410353             -0.0000
iter:  13  21:48:01  -5.00  -3.30         -225.410441             -0.0000
iter:  14  21:48:39  -5.26  -3.32         -225.410249             -0.0000
iter:  15  21:49:16  -5.88  -3.45         -225.410275             -0.0000
iter:  16  21:49:53  -5.27  -3.50         -225.410638             +0.0000
iter:  17  21:50:30  -6.30  -3.56         -225.410483             -0.0000
iter:  18  21:51:07  -6.06  -3.61         -225.410397             +0.0000
iter:  19  21:51:45  -6.37  -3.78         -225.410358             -0.0000
iter:  20  21:52:22  -5.99  -3.91         -225.410255             -0.0000
iter:  21  21:52:59  -6.13  -3.95         -225.410213             +0.0000
iter:  22  21:53:37  -6.67  -4.28         -225.410216             -0.0000
iter:  23  21:54:24  -7.54  -4.34         -225.410215             -0.0000
iter:  24  21:55:11  -7.77  -4.41    -2.85-225.410213             +0.0000
iter:  25  21:55:48  -6.71  -4.44         -225.410210             +0.0000
iter:  26  21:56:35  -8.07  -4.63    -2.15-225.410209             +0.0000
iter:  27  21:57:22  -7.50  -4.66    -2.60-225.410209             +0.0000
iter:  28  21:58:09  -8.03  -4.84    -2.68-225.410209             +0.0000
iter:  29  21:58:56  -8.70  -4.92    -3.03-225.410209             +0.0000
iter:  30  21:59:44  -8.95  -4.99    -3.55-225.410209             +0.0000
iter:  31  22:00:31  -9.30  -5.03    -3.22-225.410209             +0.0000
iter:  32  22:01:18  -9.02  -5.15    -3.65-225.410209             +0.0000
iter:  33  22:02:05  -9.72  -5.27    -3.39-225.410209             +0.0000
iter:  34  22:02:52  -9.41  -5.36    -3.25-225.410209             +0.0000
iter:  35  22:03:39  -8.94  -5.45    -3.59-225.410209             +0.0000
iter:  36  22:04:26  -9.72  -5.74    -3.67-225.410209             +0.0000
iter:  37  22:05:13  -9.96  -6.18    -3.97-225.410209             +0.0000
iter:  38  22:06:00 -11.12  -6.46    -4.69-225.410209             +0.0000
iter:  39  22:06:47 -11.61  -6.53    -4.91-225.410209             -0.0000
iter:  40  22:07:35 -11.52  -6.55    -4.37-225.410209             -0.0000
iter:  41  22:08:22 -11.55  -6.61    -4.67-225.410209             +0.0000
iter:  42  22:09:09 -11.91  -6.67    -5.02-225.410209             +0.0000
iter:  43  22:09:56 -11.76  -6.74    -4.71-225.410209             +0.0000
iter:  44  22:10:43 -12.32  -6.85    -5.52-225.410209             +0.0000
iter:  45  22:11:30 -12.11  -6.89    -4.70-225.410209             +0.0000
iter:  46  22:12:17 -11.76  -7.06    -4.89-225.410209             -0.0000
iter:  47  22:13:05 -12.87  -7.16    -5.53-225.410209             -0.0000
iter:  48  22:13:52 -11.46  -7.22    -4.90-225.410209             -0.0000
iter:  49  22:14:39 -11.89  -7.19    -4.99-225.410209             -0.0000
iter:  50  22:15:26 -12.63  -7.67    -5.89-225.410209             +0.0000
iter:  51  22:16:13 -13.17  -7.68    -6.27-225.410209             +0.0000

Converged after 51 iterations.

Dipole moment: (19.053286, -1.426053, -4.157374) |e|*Ang

Total magnetic moment: (0.000000, 0.000000, 0.000000)
Local magnetic moments:
   0 O  ( 0.000000,  0.000000,  0.000676)
   1 O  ( 0.000000,  0.000000, -0.000637)
   2 O  ( 0.000000,  0.000000, -0.000658)
   3 O  ( 0.000000,  0.000000,  0.000717)
   4 O  ( 0.000000,  0.000000, -0.000662)
   5 O  ( 0.000000,  0.000000,  0.000721)
   6 O  ( 0.000000,  0.000000,  0.000672)
   7 O  ( 0.000000,  0.000000, -0.000633)
   8 O  ( 0.000000,  0.000000,  0.022388)
   9 O  ( 0.000000,  0.000000, -0.022373)
  10 O  ( 0.000000,  0.000000, -0.022354)
  11 O  ( 0.000000,  0.000000,  0.022346)
  12 Mn ( 0.000000,  0.000000,  4.574618)
  13 Mn ( 0.000000,  0.000000, -4.575022)
  14 Mn ( 0.000000,  0.000000, -4.575063)
  15 Mn ( 0.000000,  0.000000,  4.575089)
  16 P  ( 0.000000,  0.000000,  0.000819)
  17 P  ( 0.000000,  0.000000, -0.000806)
  18 P  ( 0.000000,  0.000000, -0.000806)
  19 P  ( 0.000000,  0.000000,  0.000882)
  20 O  ( 0.000000,  0.000000,  0.020666)
  21 O  ( 0.000000,  0.000000, -0.020702)
  22 O  ( 0.000000,  0.000000, -0.020703)
  23 O  ( 0.000000,  0.000000,  0.020794)
  24 Li ( 0.000000,  0.000000, -0.000005)
  25 Li ( 0.000000,  0.000000,  0.000000)
  26 Li ( 0.000000,  0.000000, -0.000005)
  27 Li ( 0.000000,  0.000000,  0.000000)

Energy contributions relative to reference atoms: (reference = -196157.275402)

Kinetic:       +297.197083
Potential:     -256.663972
External:        +0.000000
XC:            -267.722800
Entropy (-ST):   -0.000000
Local:           +1.779481
--------------------------
Free energy:   -225.410209
Extrapolated:  -225.410209

Spin contamination: 9.697094 electrons
Showing only first 2 kpts
                      Up                     Down
 Kpt  Band  Eigenvalues  Occupancy  Eigenvalues  Occupancy
  0    88      5.11608    0.00694      5.10960    0.00694
  0    89      5.16696    0.00694      5.16111    0.00694
  0    90      9.65277    0.00000      9.65438    0.00000
  0    91      9.67108    0.00000      9.67393    0.00000

  1    88      5.12728    0.00694      5.12108    0.00694
  1    89      5.17685    0.00694      5.17035    0.00694
  1    90      9.53518    0.00000      9.53491    0.00000
  1    91      9.54501    0.00000      9.54740    0.00000


Fermi level: 6.37119

Gap: 3.791 eV
Transition (v -> c):
  (s=0, k=72, n=89, [0.08, -0.42, -0.38]) -> (s=1, k=58, n=90, [-0.08, -0.08, 0.12])
Writing to born-0.01-8z+.gpw (mode='all')

Timing:                              incl.     excl.
-----------------------------------------------------------
Hamiltonian:                         0.427     0.002   0.0% |
 Atomic:                             0.077     0.077   0.0% |
  XC Correction:                     0.000     0.000   0.0% |
 Calculate atomic Hamiltonians:      0.168     0.168   0.0% |
 Communicate:                        0.009     0.009   0.0% |
 Initialize Hamiltonian:             0.000     0.000   0.0% |
 Poisson:                            0.001     0.001   0.0% |
 XC 3D grid:                         0.169     0.169   0.0% |
LCAO initialization:               150.377     0.676   0.0% |
 LCAO eigensolver:                  40.357     0.002   0.0% |
  Calculate projections:             0.056     0.056   0.0% |
  DenseAtomicCorrection:             0.082     0.082   0.0% |
  Distribute overlap matrix:         0.006     0.006   0.0% |
  Orbital Layouts:                   0.361     0.361   0.0% |
  Potential matrix:                 39.749    39.749   0.8% |
  Sum over cells:                    0.099     0.099   0.0% |
 LCAO to grid:                     106.981   106.981   2.1% ||
 Set positions (LCAO WFS):           2.364     0.367   0.0% |
  Basic WFS set positions:           0.001     0.001   0.0% |
  Basis functions set positions:     0.000     0.000   0.0% |
  P tci:                             1.075     1.075   0.0% |
  ST tci:                            0.705     0.705   0.0% |
  mktci:                             0.216     0.216   0.0% |
PWDescriptor:                        0.025     0.025   0.0% |
SCF-cycle:                        2182.530    14.940   0.3% |
 Davidson:                        1794.717   571.371  11.0% |---|
  Apply H:                         131.488   127.582   2.5% ||
   HMM T:                            3.906     3.906   0.1% |
  Subspace diag:                   267.086     0.162   0.0% |
   calc_h_matrix:                  175.412    46.321   0.9% |
    Apply H:                       129.091   125.300   2.4% ||
     HMM T:                          3.791     3.791   0.1% |
   diagonalize:                      6.213     6.213   0.1% |
   rotate_psi:                      85.299    85.299   1.6% ||
  calc. matrices:                  566.140   310.314   6.0% |-|
   Apply H:                        255.825   248.482   4.8% |-|
    HMM T:                           7.344     7.344   0.1% |
  diagonalize:                      85.016    85.016   1.6% ||
  rotate_psi:                      173.616   173.616   3.3% ||
 Density:                           75.136     0.001   0.0% |
  Atomic density matrices:           1.314     1.314   0.0% |
  Mix:                              11.404    11.404   0.2% |
  Multipole moments:                 0.029     0.029   0.0% |
  Pseudo density:                   62.387    62.386   1.2% |
   Symmetrize density:               0.001     0.001   0.0% |
 Forces:                           273.045   273.045   5.3% |-|
 Hamiltonian:                       20.635     0.119   0.0% |
  Atomic:                            2.960     2.960   0.1% |
   XC Correction:                    0.000     0.000   0.0% |
  Calculate atomic Hamiltonians:     8.454     8.454   0.2% |
  Communicate:                       0.088     0.088   0.0% |
  Poisson:                           0.076     0.076   0.0% |
  XC 3D grid:                        8.937     8.937   0.2% |
 Orthonormalize:                     4.058     0.004   0.0% |
  calc_s_matrix:                     0.484     0.484   0.0% |
  inverse-cholesky:                  0.054     0.054   0.0% |
  projections:                       2.655     2.655   0.1% |
  rotate_psi_s:                      0.862     0.862   0.0% |
Set symmetry:                        0.000     0.000   0.0% |
Other:                            2863.268  2863.268  55.1% |---------------------|
-----------------------------------------------------------
Total:                                      5196.628 100.0%

Memory usage: 13.06 GiB
Date: Mon Mar 22 23:03:55 2021
