
  ___ ___ ___ _ _ _  
 |   |   |_  | | | | 
 | | | | | . | | | | 
 |__ |  _|___|_____|  20.10.1b1
 |___|_|             

User:   madkru@i018.nifl.fysik.dtu.dk
Date:   Tue Mar 23 23:08:15 2021
Arch:   x86_64
Pid:    26873
Python: 3.7.4
gpaw:   /home/niflheim/madkru/venv_folder/gpaw/gpaw (d0d1ca1c71)
_gpaw:  /home/niflheim/madkru/venv_folder/gpaw/build/lib.linux-x86_64-ivybridge-3.7/
        _gpaw.cpython-37m-x86_64-linux-gnu.so (4fd39e8b1e)
ase:    /home/niflheim/madkru/venv_folder/ase/ase (version 3.21.0b1-7e6c206a91)
numpy:  /home/niflheim/madkru/venv_folder/lib/python3.7/site-packages/numpy (version 1.19.4)
scipy:  /home/niflheim/madkru/venv_folder/lib/python3.7/site-packages/scipy (version 1.5.4)
libxc:  4.3.4
units:  Angstrom and eV
cores: 64
OMP_NUM_THREADS: 1

Input parameters:
  convergence: {bands: occupied,
                density: 0.0001,
                eigenstates: 4e-08,
                energy: 0.0005,
                forces: 1e-06}
  kpts: [6 6 4]
  mode: {ecut: 600.0,
         gammacentered: False,
         name: pw}
  occupations: {fixmagmom: False,
                name: fermi-dirac,
                width: 0.001}
  setups: {Mn: :d,3.0}
  symmetry: {point_group: False,
             time_reversal: False}

System changes: positions, numbers, cell, pbc, initial_charges, initial_magmoms 

Initialize ...

O-setup:
  name: Oxygen
  id: 9b9d51c344dea68c822856295a461509
  Z: 8.0
  valence: 6
  core: 2
  charge: 0.0
  file: /home/modules/software/GPAW-setups/0.9.20000/O.LDA.gz
  compensation charges: gauss, rc=0.21, lmax=2
  cutoffs: 1.17(filt), 0.83(core),
  valence states:
                energy  radius
    2s(2.00)   -23.752   0.688
    2p(4.00)    -9.195   0.598
    *s           3.459   0.688
    *p          18.016   0.598
    *d           0.000   0.619

  Using partial waves for O as LCAO basis

Mn-setup:
  name: Manganese
  id: 0d715a8018be061a6e9ea6f2d364ac92
  Z: 25.0
  valence: 15
  core: 10
  charge: 0.0
  Hubbard U: 3.000000 eV (l=2, scale=True)
  file: /home/modules/software/GPAW-setups/0.9.20000/Mn.LDA.gz
  compensation charges: gauss, rc=0.38, lmax=2
  cutoffs: 2.14(filt), 0.86(core),
  valence states:
                energy  radius
    3s(2.00)   -85.387   1.275
    4s(2.00)    -5.282   1.275
    3p(6.00)   -54.493   1.281
    4p(0.00)    -1.471   1.281
    3d(5.00)    -7.009   1.138
    *d          20.203   1.138

  Using partial waves for Mn as LCAO basis

P-setup:
  name: Phosphorus
  id: a5561c299094968922a179ab894d2e2d
  Z: 15.0
  valence: 5
  core: 10
  charge: 0.0
  file: /home/modules/software/GPAW-setups/0.9.20000/P.LDA.gz
  compensation charges: gauss, rc=0.30, lmax=2
  cutoffs: 1.69(filt), 1.81(core),
  valence states:
                energy  radius
    3s(2.00)   -14.015   0.953
    3p(3.00)    -5.596   0.953
    *s          13.197   0.953
    *p          21.615   0.953
    *d           0.000   0.953

  Using partial waves for P as LCAO basis

Li-setup:
  name: Lithium
  id: b73562207f97a71b6967473b66fe8b65
  Z: 3.0
  valence: 1
  core: 2
  charge: 0.0
  file: /home/modules/software/GPAW-setups/0.9.20000/Li.LDA.gz
  compensation charges: gauss, rc=0.33, lmax=2
  cutoffs: 1.91(filt), 2.55(core),
  valence states:
                energy  radius
    2s(1.00)    -2.874   1.058
    2p(0.00)    -1.126   1.058
    *s          24.338   1.058

  Using partial waves for Li as LCAO basis

Reference energy: -196157.275402

Spin-polarized calculation.
Magnetic moment: 0.000000

Convergence criteria:
  Maximum total energy change: 0.0005 eV / electron
  Maximum integral of absolute density change: 0.0001 electrons
  Maximum integral of absolute eigenstate change: 4e-08 eV^2
  Maximum change in atomic force: 1e-06 eV / Ang
  Maximum number of iterations: 333

Symmetries present (total): 1

  ( 1  0  0)
  ( 0  1  0)
  ( 0  0  1)

144 k-points: 6 x 6 x 4 Monkhorst-Pack grid
144 k-points in the irreducible part of the Brillouin zone
       k-points in crystal coordinates                weights
   0:    -0.41666667   -0.41666667   -0.37500000          1/144
   1:    -0.41666667   -0.41666667   -0.12500000          1/144
   2:    -0.41666667   -0.41666667    0.12500000          1/144
   3:    -0.41666667   -0.41666667    0.37500000          1/144
   4:    -0.41666667   -0.25000000   -0.37500000          1/144
   5:    -0.41666667   -0.25000000   -0.12500000          1/144
   6:    -0.41666667   -0.25000000    0.12500000          1/144
   7:    -0.41666667   -0.25000000    0.37500000          1/144
   8:    -0.41666667   -0.08333333   -0.37500000          1/144
   9:    -0.41666667   -0.08333333   -0.12500000          1/144
          ...
 143:     0.41666667    0.41666667    0.37500000          1/144

Wave functions: Plane wave expansion
  Cutoff energy: 600.000 eV
  Number of coefficients (min, max): 9238, 9284
  Pulay-stress correction: 0.000000 eV/Ang^3 (de/decut=0.000000)
  Using FFTW library
  ScaLapack parameters: grid=1x1, blocksize=None
  Wavefunction extrapolation:
    Improved wavefunction reuse through dual PAW basis 

  Fermi-Dirac: width=0.0010 eV

Eigensolver
   Davidson(niter=2, smin=None, normalize=True) 

Densities:
  Coarse grid: 60*35*27 grid
  Fine grid: 120*70*54 grid
  Total Charge: 0.000000 

Density mixing:
  Method: difference
  Backend: pulay
  Linear mixing parameter: 0.05
  Mixing with 5 old densities
  Damping of long wave oscillations: 50 

Hamiltonian:
  XC and Coulomb potentials evaluated on a 120*70*54 grid
  Using the LDA Exchange-Correlation functional
 

Memory estimate:
  Process memory now: 12583.09 MiB
  Calculator: 326.59 MiB
    Density: 9.67 MiB
      Arrays: 3.79 MiB
      Localized functions: 4.32 MiB
      Mixer: 1.56 MiB
    Hamiltonian: 2.94 MiB
      Arrays: 2.82 MiB
      XC: 0.00 MiB
      Poisson: 0.00 MiB
      vbar: 0.12 MiB
    Wavefunctions: 313.97 MiB
      Arrays psit_nG: 285.59 MiB
      Eigensolver: 18.49 MiB
      Projections: 2.71 MiB
      Projectors: 4.46 MiB
      PW-descriptor: 2.72 MiB

Total number of cores used: 64
Parallelization over k-points: 16
Domain decomposition: 2 x 2 x 1

Number of atoms: 28
Number of atomic orbitals: 148
Number of bands in calculation: 112
Number of valence electrons: 180
Bands to converge: occupied

... initialized

Initializing position-dependent things.

Density initialized from atomic densities
Creating initial wave functions:
  112 bands from LCAO basis set

                                           
                                           
                                           
                                           
                                           
               O     O  P  O               
            PO           OMn     O         
                  O          MO            
            O        Li O                  
             Mn  On          OP            
         O         Li O                    
         Li     O P         O              
       Li                                  
                                           
                                           
                                           
                                           

Positions:
   0 O     -1.263197   -2.497779   -1.098475    ( 0.0000,  0.0000,  0.0000)
   1 O     -3.070823    2.922496    1.209491    ( 0.0000,  0.0000,  0.0000)
   2 O      1.985541    0.474863    1.428016    ( 0.0000,  0.0000,  0.0000)
   3 O      3.793120   -0.050100   -0.879950    ( 0.0000,  0.0000,  0.0000)
   4 O      1.985518    2.922485    1.428149    ( 0.0000,  0.0000,  0.0000)
   5 O      3.793144   -2.497790   -0.879818    ( 0.0000,  0.0000,  0.0000)
   6 O     -1.263220   -0.050157   -1.098342    ( 0.0000,  0.0000,  0.0000)
   7 O     -3.070798    0.474805    1.209623    ( 0.0000,  0.0000,  0.0000)
   8 O     -4.167835   -1.273920   -0.862116    ( 0.0000,  0.0000,  0.0000)
   9 O     -0.166037    1.698602    1.445528    ( 0.0000,  0.0000,  0.0000)
  10 O      4.890156    1.698625    1.191790    ( 0.0000,  0.0000,  0.0000)
  11 O      0.888358   -1.273896   -1.115855    ( 0.0000,  0.0000,  0.0000)
  12 Mn    -2.445557   -1.274211    0.312921    ( 0.0000,  0.0000,  1.0000)
  13 Mn    -1.888303    1.698892   -1.994948    ( 0.0000,  0.0000, -1.0000)
  14 Mn     3.167879    1.698917    0.016752    ( 0.0000,  0.0000, -1.0000)
  15 Mn     2.600624   -1.274187    2.324621    ( 0.0000,  0.0000,  1.0000)
  16 P     -0.529549   -1.273917   -1.724376    ( 0.0000,  0.0000,  0.0000)
  17 P     -3.804359    1.698599    0.583463    ( 0.0000,  0.0000,  0.0000)
  18 P      1.251870    1.698623    2.054050    ( 0.0000,  0.0000,  0.0000)
  19 P      4.526680   -1.273894   -0.253789    ( 0.0000,  0.0000,  0.0000)
  20 O     -0.544227   -1.273926    1.365380    ( 0.0000,  0.0000,  0.0000)
  21 O     -3.789411    1.698610   -0.942222    ( 0.0000,  0.0000,  0.0000)
  22 O      1.266548    1.698631   -1.035707    ( 0.0000,  0.0000,  0.0000)
  23 O      4.511733   -1.273905    1.271895    ( 0.0000,  0.0000,  0.0000)
  24 Li    -4.695087   -2.760584   -2.142877    ( 0.0000,  0.0000,  0.0000)
  25 Li     0.361147   -2.760561    0.164836    ( 0.0000,  0.0000,  0.0000)
  26 Li    -4.695074    0.212330   -2.142877    ( 0.0000,  0.0000,  0.0000)
  27 Li     0.361161    0.212353    0.164837    ( 0.0000,  0.0000,  0.0000)

Unit cell:
           periodic     x           y           z      points  spacing
  1. axis:    yes   10.112485    0.000045   -0.000035    60     0.1685
  2. axis:    yes    0.000026    5.945827    0.000001    35     0.1699
  3. axis:    yes   -0.000016    0.000000    4.615463    27     0.1709

  Lengths:  10.112485   5.945827   4.615463
  Angles:   89.999989  90.000396  89.999490

Effective grid spacing dv^(1/3) = 0.1698

                     log10-error:           total        iterations:
           time      wfs    density  force  energy       poisson  magmom
iter:   1  23:09:49                       -221.376786             +0.0000
iter:   2  23:10:09  -0.61  -0.93         -234.841831             +0.0000
iter:   3  23:10:29  -0.37  -0.97         -225.914386             -0.0000
iter:   4  23:10:49  -1.39  -1.29         -225.761382             +0.0000
iter:   5  23:11:08  -1.27  -1.39         -227.335406             +0.0000
iter:   6  23:11:28  -1.46  -1.46         -225.736885             +0.0000
iter:   7  23:11:48  -2.47  -2.04         -225.724914             +0.0000
iter:   8  23:12:08  -2.17  -1.99         -225.578032             +0.0000
iter:   9  23:12:27  -2.48  -2.11         -225.433222             +0.0000
iter:  10  23:12:47  -3.30  -2.53         -225.422391             +0.0000
iter:  11  23:13:07  -3.60  -2.80         -225.411483             +0.0000
iter:  12  23:13:27  -4.19  -3.06         -225.410547             +0.0000
iter:  13  23:13:46  -5.14  -3.30         -225.410477             -0.0000
iter:  14  23:14:06  -5.37  -3.32         -225.410285             -0.0000
iter:  15  23:14:26  -5.97  -3.44         -225.410305             -0.0000
iter:  16  23:14:46  -5.19  -3.48         -225.410705             +0.0000
iter:  17  23:15:06  -6.13  -3.56         -225.410548             -0.0000
iter:  18  23:15:25  -5.69  -3.66         -225.410336             +0.0000
iter:  19  23:15:45  -6.72  -3.94         -225.410345             +0.0000
iter:  20  23:16:05  -5.92  -4.05         -225.410270             -0.0000
iter:  21  23:16:25  -6.67  -4.17         -225.410253             +0.0000
iter:  22  23:16:44  -7.17  -4.22         -225.410256             -0.0000
iter:  23  23:17:09  -7.40  -4.25         -225.410253             +0.0000
iter:  24  23:17:29  -7.38  -4.32         -225.410251             +0.0000
iter:  25  23:17:53  -7.94  -4.36    -2.37-225.410251             +0.0000
iter:  26  23:18:18  -7.85  -4.49    -2.38-225.410251             +0.0000
iter:  27  23:18:43  -8.51  -4.96    -3.19-225.410250             +0.0000
iter:  28  23:19:07  -7.82  -5.05    -3.04-225.410250             +0.0000
iter:  29  23:19:32  -8.73  -5.26    -3.57-225.410250             +0.0000
iter:  30  23:19:56  -9.68  -5.28    -3.63-225.410250             -0.0000
iter:  31  23:20:21  -9.41  -5.32    -3.56-225.410250             +0.0000
iter:  32  23:20:46  -8.71  -5.37    -3.09-225.410250             +0.0000
iter:  33  23:21:10  -9.56  -5.57    -3.92-225.410250             +0.0000
iter:  34  23:21:35  -9.10  -5.60    -3.53-225.410250             +0.0000
iter:  35  23:21:59 -10.16  -5.77    -3.98-225.410250             +0.0000
iter:  36  23:22:24  -9.63  -5.81    -3.71-225.410250             +0.0000
iter:  37  23:22:49 -10.01  -5.94    -4.01-225.410250             +0.0000
iter:  38  23:23:13 -10.58  -6.09    -4.11-225.410250             +0.0000
iter:  39  23:23:38 -11.15  -6.18    -4.20-225.410250             +0.0000
iter:  40  23:24:02 -11.24  -6.25    -4.13-225.410250             +0.0000
iter:  41  23:24:27 -11.55  -6.36    -4.36-225.410250             +0.0000
iter:  42  23:24:51 -11.92  -6.39    -4.93-225.410250             +0.0000
iter:  43  23:25:16 -11.99  -6.40    -4.63-225.410250             +0.0000
iter:  44  23:25:41 -10.94  -6.43    -4.18-225.410250             +0.0000
iter:  45  23:26:05 -11.97  -6.63    -5.14-225.410250             +0.0000
iter:  46  23:26:30 -12.05  -6.66    -4.71-225.410250             +0.0000
iter:  47  23:26:54 -12.39  -6.73    -5.26-225.410250             +0.0000
iter:  48  23:27:19 -12.75  -6.83    -5.30-225.410250             +0.0000
iter:  49  23:27:44 -12.37  -6.89    -4.85-225.410250             +0.0000
iter:  50  23:28:08 -12.09  -6.96    -4.67-225.410250             +0.0000
iter:  51  23:28:33 -13.24  -7.26    -5.49-225.410250             -0.0000
iter:  52  23:28:57 -12.58  -7.32    -5.10-225.410250             +0.0000
iter:  53  23:29:22 -13.55  -7.59    -5.90-225.410250             +0.0000
iter:  54  23:29:46 -13.49  -7.62    -5.29-225.410250             +0.0000
iter:  55  23:30:11 -14.65  -7.74    -6.22-225.410250             +0.0000

Converged after 55 iterations.

Dipole moment: (19.044105, -1.426356, -4.181864) |e|*Ang

Total magnetic moment: (0.000000, 0.000000, 0.000000)
Local magnetic moments:
   0 O  ( 0.000000,  0.000000,  0.000682)
   1 O  ( 0.000000,  0.000000, -0.000689)
   2 O  ( 0.000000,  0.000000, -0.000500)
   3 O  ( 0.000000,  0.000000,  0.000372)
   4 O  ( 0.000000,  0.000000, -0.000504)
   5 O  ( 0.000000,  0.000000,  0.000376)
   6 O  ( 0.000000,  0.000000,  0.000678)
   7 O  ( 0.000000,  0.000000, -0.000685)
   8 O  ( 0.000000,  0.000000,  0.022410)
   9 O  ( 0.000000,  0.000000, -0.022348)
  10 O  ( 0.000000,  0.000000, -0.022389)
  11 O  ( 0.000000,  0.000000,  0.022696)
  12 Mn ( 0.000000,  0.000000,  4.575080)
  13 Mn ( 0.000000,  0.000000, -4.575035)
  14 Mn ( 0.000000,  0.000000, -4.575127)
  15 Mn ( 0.000000,  0.000000,  4.574780)
  16 P  ( 0.000000,  0.000000,  0.000917)
  17 P  ( 0.000000,  0.000000, -0.000819)
  18 P  ( 0.000000,  0.000000, -0.000752)
  19 P  ( 0.000000,  0.000000,  0.000661)
  20 O  ( 0.000000,  0.000000,  0.020705)
  21 O  ( 0.000000,  0.000000, -0.020730)
  22 O  ( 0.000000,  0.000000, -0.020670)
  23 O  ( 0.000000,  0.000000,  0.020451)
  24 Li ( 0.000000,  0.000000,  0.000003)
  25 Li ( 0.000000,  0.000000,  0.000014)
  26 Li ( 0.000000,  0.000000,  0.000003)
  27 Li ( 0.000000,  0.000000,  0.000014)

Energy contributions relative to reference atoms: (reference = -196157.275402)

Kinetic:       +296.850184
Potential:     -256.396401
External:        +0.000000
XC:            -267.644666
Entropy (-ST):   -0.000000
Local:           +1.780634
--------------------------
Free energy:   -225.410250
Extrapolated:  -225.410250

Spin contamination: 9.697496 electrons
Showing only first 2 kpts
                      Up                     Down
 Kpt  Band  Eigenvalues  Occupancy  Eigenvalues  Occupancy
  0    88      5.11209    0.00694      5.10979    0.00694
  0    89      5.16270    0.00694      5.16245    0.00694
  0    90      9.65411    0.00000      9.65188    0.00000
  0    91      9.66990    0.00000      9.67207    0.00000

  1    88      5.12336    0.00694      5.12141    0.00694
  1    89      5.17203    0.00694      5.17158    0.00694
  1    90      9.53682    0.00000      9.53348    0.00000
  1    91      9.54359    0.00000      9.54433    0.00000


Fermi level: 6.37073

Gap: 3.791 eV
Transition (v -> c):
  (s=0, k=71, n=89, [-0.08, 0.42, 0.38]) -> (s=1, k=85, n=90, [0.08, 0.08, -0.12])
Writing to born-0.01-15x-.gpw (mode='all')

Timing:                              incl.     excl.
-----------------------------------------------------------
Hamiltonian:                         0.225     0.002   0.0% |
 Atomic:                             0.062     0.062   0.0% |
  XC Correction:                     0.000     0.000   0.0% |
 Calculate atomic Hamiltonians:      0.075     0.075   0.0% |
 Communicate:                        0.001     0.001   0.0% |
 Initialize Hamiltonian:             0.000     0.000   0.0% |
 Poisson:                            0.001     0.001   0.0% |
 XC 3D grid:                         0.084     0.084   0.0% |
LCAO initialization:                70.370     0.653   0.0% |
 LCAO eigensolver:                  19.423     0.002   0.0% |
  Calculate projections:             0.029     0.029   0.0% |
  DenseAtomicCorrection:             0.045     0.045   0.0% |
  Distribute overlap matrix:         0.009     0.009   0.0% |
  Orbital Layouts:                   0.432     0.432   0.0% |
  Potential matrix:                 18.818    18.818   0.6% |
  Sum over cells:                    0.089     0.089   0.0% |
 LCAO to grid:                      48.971    48.971   1.5% ||
 Set positions (LCAO WFS):           1.322     0.191   0.0% |
  Basic WFS set positions:           0.001     0.001   0.0% |
  Basis functions set positions:     0.000     0.000   0.0% |
  P tci:                             0.527     0.527   0.0% |
  ST tci:                            0.385     0.385   0.0% |
  mktci:                             0.217     0.217   0.0% |
PWDescriptor:                        0.023     0.023   0.0% |
SCF-cycle:                        1244.434     1.930   0.1% |
 Davidson:                        1034.127   318.518   9.6% |---|
  Apply H:                          70.854    68.771   2.1% ||
   HMM T:                            2.083     2.083   0.1% |
  Subspace diag:                   149.683     0.154   0.0% |
   calc_h_matrix:                   95.845    25.128   0.8% |
    Apply H:                        70.716    68.631   2.1% ||
     HMM T:                          2.086     2.086   0.1% |
   diagonalize:                      7.477     7.477   0.2% |
   rotate_psi:                      46.207    46.207   1.4% ||
  calc. matrices:                  308.311   170.192   5.1% |-|
   Apply H:                        138.120   134.230   4.0% |-|
    HMM T:                           3.889     3.889   0.1% |
  diagonalize:                      86.762    86.762   2.6% ||
  rotate_psi:                       99.999    99.999   3.0% ||
 Density:                           40.824     0.001   0.0% |
  Atomic density matrices:           0.855     0.855   0.0% |
  Mix:                               5.767     5.767   0.2% |
  Multipole moments:                 0.019     0.019   0.0% |
  Pseudo density:                   34.182    34.180   1.0% |
   Symmetrize density:               0.001     0.001   0.0% |
 Forces:                           153.536   153.536   4.6% |-|
 Hamiltonian:                       11.932     0.114   0.0% |
  Atomic:                            2.988     2.987   0.1% |
   XC Correction:                    0.000     0.000   0.0% |
  Calculate atomic Hamiltonians:     4.111     4.111   0.1% |
  Communicate:                       0.089     0.089   0.0% |
  Poisson:                           0.032     0.032   0.0% |
  XC 3D grid:                        4.598     4.598   0.1% |
 Orthonormalize:                     2.086     0.003   0.0% |
  calc_s_matrix:                     0.245     0.245   0.0% |
  inverse-cholesky:                  0.072     0.072   0.0% |
  projections:                       1.331     1.331   0.0% |
  rotate_psi_s:                      0.435     0.435   0.0% |
Set symmetry:                        0.000     0.000   0.0% |
Other:                            2003.012  2003.012  60.4% |-----------------------|
-----------------------------------------------------------
Total:                                      3318.064 100.0%

Memory usage: 12.33 GiB
Date: Wed Mar 24 00:03:33 2021
