
  ___ ___ ___ _ _ _  
 |   |   |_  | | | | 
 | | | | | . | | | | 
 |__ |  _|___|_____|  20.10.1b1
 |___|_|             

User:   madkru@g035.nifl.fysik.dtu.dk
Date:   Sun Mar 21 05:29:13 2021
Arch:   x86_64
Pid:    44316
Python: 3.7.4
gpaw:   /home/niflheim/madkru/venv_folder/gpaw/gpaw (d0d1ca1c71)
_gpaw:  /home/niflheim/madkru/venv_folder/gpaw/build/lib.linux-x86_64-sandybridge-3.7/
        _gpaw.cpython-37m-x86_64-linux-gnu.so (4fd39e8b1e)
ase:    /home/niflheim/madkru/venv_folder/ase/ase (version 3.21.0b1-7e6c206a91)
numpy:  /home/niflheim/madkru/venv_folder/lib/python3.7/site-packages/numpy (version 1.19.4)
scipy:  /home/niflheim/madkru/venv_folder/lib/python3.7/site-packages/scipy (version 1.5.4)
libxc:  4.3.4
units:  Angstrom and eV
cores: 32
OMP_NUM_THREADS: 1

Input parameters:
  convergence: {bands: occupied,
                density: 0.0001,
                eigenstates: 4e-08,
                energy: 0.0005,
                forces: 1e-06}
  kpts: [6 6 4]
  mode: {ecut: 600.0,
         gammacentered: False,
         name: pw}
  occupations: {fixmagmom: False,
                name: fermi-dirac,
                width: 0.001}
  setups: {Mn: :d,3.0}
  symmetry: {point_group: False,
             time_reversal: False}

System changes: positions, numbers, cell, pbc, initial_charges, initial_magmoms 

Initialize ...

O-setup:
  name: Oxygen
  id: 9b9d51c344dea68c822856295a461509
  Z: 8.0
  valence: 6
  core: 2
  charge: 0.0
  file: /home/modules/software/GPAW-setups/0.9.20000/O.LDA.gz
  compensation charges: gauss, rc=0.21, lmax=2
  cutoffs: 1.17(filt), 0.83(core),
  valence states:
                energy  radius
    2s(2.00)   -23.752   0.688
    2p(4.00)    -9.195   0.598
    *s           3.459   0.688
    *p          18.016   0.598
    *d           0.000   0.619

  Using partial waves for O as LCAO basis

Mn-setup:
  name: Manganese
  id: 0d715a8018be061a6e9ea6f2d364ac92
  Z: 25.0
  valence: 15
  core: 10
  charge: 0.0
  Hubbard U: 3.000000 eV (l=2, scale=True)
  file: /home/modules/software/GPAW-setups/0.9.20000/Mn.LDA.gz
  compensation charges: gauss, rc=0.38, lmax=2
  cutoffs: 2.14(filt), 0.86(core),
  valence states:
                energy  radius
    3s(2.00)   -85.387   1.275
    4s(2.00)    -5.282   1.275
    3p(6.00)   -54.493   1.281
    4p(0.00)    -1.471   1.281
    3d(5.00)    -7.009   1.138
    *d          20.203   1.138

  Using partial waves for Mn as LCAO basis

P-setup:
  name: Phosphorus
  id: a5561c299094968922a179ab894d2e2d
  Z: 15.0
  valence: 5
  core: 10
  charge: 0.0
  file: /home/modules/software/GPAW-setups/0.9.20000/P.LDA.gz
  compensation charges: gauss, rc=0.30, lmax=2
  cutoffs: 1.69(filt), 1.81(core),
  valence states:
                energy  radius
    3s(2.00)   -14.015   0.953
    3p(3.00)    -5.596   0.953
    *s          13.197   0.953
    *p          21.615   0.953
    *d           0.000   0.953

  Using partial waves for P as LCAO basis

Li-setup:
  name: Lithium
  id: b73562207f97a71b6967473b66fe8b65
  Z: 3.0
  valence: 1
  core: 2
  charge: 0.0
  file: /home/modules/software/GPAW-setups/0.9.20000/Li.LDA.gz
  compensation charges: gauss, rc=0.33, lmax=2
  cutoffs: 1.91(filt), 2.55(core),
  valence states:
                energy  radius
    2s(1.00)    -2.874   1.058
    2p(0.00)    -1.126   1.058
    *s          24.338   1.058

  Using partial waves for Li as LCAO basis

Reference energy: -196157.275402

Spin-polarized calculation.
Magnetic moment: 0.000000

Convergence criteria:
  Maximum total energy change: 0.0005 eV / electron
  Maximum integral of absolute density change: 0.0001 electrons
  Maximum integral of absolute eigenstate change: 4e-08 eV^2
  Maximum change in atomic force: 1e-06 eV / Ang
  Maximum number of iterations: 333

Symmetries present (total): 1

  ( 1  0  0)
  ( 0  1  0)
  ( 0  0  1)

144 k-points: 6 x 6 x 4 Monkhorst-Pack grid
144 k-points in the irreducible part of the Brillouin zone
       k-points in crystal coordinates                weights
   0:    -0.41666667   -0.41666667   -0.37500000          1/144
   1:    -0.41666667   -0.41666667   -0.12500000          1/144
   2:    -0.41666667   -0.41666667    0.12500000          1/144
   3:    -0.41666667   -0.41666667    0.37500000          1/144
   4:    -0.41666667   -0.25000000   -0.37500000          1/144
   5:    -0.41666667   -0.25000000   -0.12500000          1/144
   6:    -0.41666667   -0.25000000    0.12500000          1/144
   7:    -0.41666667   -0.25000000    0.37500000          1/144
   8:    -0.41666667   -0.08333333   -0.37500000          1/144
   9:    -0.41666667   -0.08333333   -0.12500000          1/144
          ...
 143:     0.41666667    0.41666667    0.37500000          1/144

Wave functions: Plane wave expansion
  Cutoff energy: 600.000 eV
  Number of coefficients (min, max): 9238, 9284
  Pulay-stress correction: 0.000000 eV/Ang^3 (de/decut=0.000000)
  Using FFTW library
  ScaLapack parameters: grid=1x1, blocksize=None
  Wavefunction extrapolation:
    Improved wavefunction reuse through dual PAW basis 

  Fermi-Dirac: width=0.0010 eV

Eigensolver
   Davidson(niter=2, smin=None, normalize=True) 

Densities:
  Coarse grid: 60*35*27 grid
  Fine grid: 120*70*54 grid
  Total Charge: 0.000000 

Density mixing:
  Method: difference
  Backend: pulay
  Linear mixing parameter: 0.05
  Mixing with 5 old densities
  Damping of long wave oscillations: 50 

Hamiltonian:
  XC and Coulomb potentials evaluated on a 120*70*54 grid
  Using the LDA Exchange-Correlation functional
 

Memory estimate:
  Process memory now: 12125.39 MiB
  Calculator: 346.50 MiB
    Density: 19.24 MiB
      Arrays: 7.57 MiB
      Localized functions: 8.64 MiB
      Mixer: 3.03 MiB
    Hamiltonian: 5.87 MiB
      Arrays: 5.62 MiB
      XC: 0.00 MiB
      Poisson: 0.00 MiB
      vbar: 0.25 MiB
    Wavefunctions: 321.38 MiB
      Arrays psit_nG: 285.59 MiB
      Eigensolver: 18.49 MiB
      Projections: 5.41 MiB
      Projectors: 8.92 MiB
      PW-descriptor: 2.96 MiB

Total number of cores used: 32
Parallelization over k-points: 16
Domain decomposition: 2 x 1 x 1

Number of atoms: 28
Number of atomic orbitals: 148
Number of bands in calculation: 112
Number of valence electrons: 180
Bands to converge: occupied

... initialized

Initializing position-dependent things.

Density initialized from atomic densities
Creating initial wave functions:
  112 bands from LCAO basis set

                                           
                                           
                                           
                                           
                                           
               O     O  P  O               
            PO           OMn     O         
                  O          MO            
            O        Li O                  
             Mn  On          OP            
         O         Li O                    
         Li     O P         O              
       Li                                  
                                           
                                           
                                           
                                           

Positions:
   0 O     -1.263197   -2.507779   -1.098475    ( 0.0000,  0.0000,  0.0000)
   1 O     -3.070823    2.922496    1.209491    ( 0.0000,  0.0000,  0.0000)
   2 O      1.985541    0.474863    1.428016    ( 0.0000,  0.0000,  0.0000)
   3 O      3.793120   -0.050100   -0.879950    ( 0.0000,  0.0000,  0.0000)
   4 O      1.985518    2.922485    1.428149    ( 0.0000,  0.0000,  0.0000)
   5 O      3.793144   -2.497790   -0.879818    ( 0.0000,  0.0000,  0.0000)
   6 O     -1.263220   -0.050157   -1.098342    ( 0.0000,  0.0000,  0.0000)
   7 O     -3.070798    0.474805    1.209623    ( 0.0000,  0.0000,  0.0000)
   8 O     -4.167835   -1.273920   -0.862116    ( 0.0000,  0.0000,  0.0000)
   9 O     -0.166037    1.698602    1.445528    ( 0.0000,  0.0000,  0.0000)
  10 O      4.890156    1.698625    1.191790    ( 0.0000,  0.0000,  0.0000)
  11 O      0.888358   -1.273896   -1.115855    ( 0.0000,  0.0000,  0.0000)
  12 Mn    -2.445557   -1.274211    0.312921    ( 0.0000,  0.0000,  1.0000)
  13 Mn    -1.888303    1.698892   -1.994948    ( 0.0000,  0.0000, -1.0000)
  14 Mn     3.167879    1.698917    0.016752    ( 0.0000,  0.0000, -1.0000)
  15 Mn     2.610624   -1.274187    2.324621    ( 0.0000,  0.0000,  1.0000)
  16 P     -0.529549   -1.273917   -1.724376    ( 0.0000,  0.0000,  0.0000)
  17 P     -3.804359    1.698599    0.583463    ( 0.0000,  0.0000,  0.0000)
  18 P      1.251870    1.698623    2.054050    ( 0.0000,  0.0000,  0.0000)
  19 P      4.526680   -1.273894   -0.253789    ( 0.0000,  0.0000,  0.0000)
  20 O     -0.544227   -1.273926    1.365380    ( 0.0000,  0.0000,  0.0000)
  21 O     -3.789411    1.698610   -0.942222    ( 0.0000,  0.0000,  0.0000)
  22 O      1.266548    1.698631   -1.035707    ( 0.0000,  0.0000,  0.0000)
  23 O      4.511733   -1.273905    1.271895    ( 0.0000,  0.0000,  0.0000)
  24 Li    -4.695087   -2.760584   -2.142877    ( 0.0000,  0.0000,  0.0000)
  25 Li     0.361147   -2.760561    0.164836    ( 0.0000,  0.0000,  0.0000)
  26 Li    -4.695074    0.212330   -2.142877    ( 0.0000,  0.0000,  0.0000)
  27 Li     0.361161    0.212353    0.164837    ( 0.0000,  0.0000,  0.0000)

Unit cell:
           periodic     x           y           z      points  spacing
  1. axis:    yes   10.112485    0.000045   -0.000035    60     0.1685
  2. axis:    yes    0.000026    5.945827    0.000001    35     0.1699
  3. axis:    yes   -0.000016    0.000000    4.615463    27     0.1709

  Lengths:  10.112485   5.945827   4.615463
  Angles:   89.999989  90.000396  89.999490

Effective grid spacing dv^(1/3) = 0.1698

                     log10-error:           total        iterations:
           time      wfs    density  force  energy       poisson  magmom
iter:   1  05:32:13                       -221.376624             +0.0000
iter:   2  05:32:50  -0.61  -0.93         -234.818042             +0.0000
iter:   3  05:33:27  -0.37  -0.97         -225.905101             -0.0000
iter:   4  05:34:04  -1.39  -1.29         -225.760556             +0.0000
iter:   5  05:34:42  -1.27  -1.39         -227.320181             +0.0000
iter:   6  05:35:19  -1.47  -1.46         -225.735773             +0.0000
iter:   7  05:35:56  -2.48  -2.04         -225.722510             +0.0000
iter:   8  05:36:33  -2.14  -1.99         -225.594116             +0.0000
iter:   9  05:37:11  -2.45  -2.08         -225.430809             +0.0000
iter:  10  05:37:48  -3.32  -2.55         -225.421308             +0.0000
iter:  11  05:38:25  -3.66  -2.81         -225.410756             +0.0000
iter:  12  05:39:02  -4.11  -3.04         -225.409649             +0.0000
iter:  13  05:39:39  -5.08  -3.29         -225.409517             -0.0000
iter:  14  05:40:17  -5.40  -3.32         -225.409348             -0.0000
iter:  15  05:40:54  -6.05  -3.44         -225.409355             -0.0000
iter:  16  05:41:31  -5.33  -3.48         -225.409634             +0.0000
iter:  17  05:42:08  -5.80  -3.60         -225.409544             -0.0000
iter:  18  05:42:45  -5.38  -3.74         -225.409297             +0.0000
iter:  19  05:43:23  -6.02  -4.01         -225.409304             -0.0000
iter:  20  05:44:00  -7.03  -4.27         -225.409298             -0.0000
iter:  21  05:44:47  -7.66  -4.34         -225.409302             -0.0000
iter:  22  05:45:33  -7.45  -4.44    -2.34-225.409304             -0.0000
iter:  23  05:46:20  -7.75  -4.41    -2.91-225.409301             -0.0000
iter:  24  05:47:07  -8.10  -4.45    -2.70-225.409301             -0.0000
iter:  25  05:47:54  -7.71  -4.55    -3.03-225.409300             +0.0000
iter:  26  05:48:41  -8.36  -4.66    -3.18-225.409301             -0.0000
iter:  27  05:49:27  -9.06  -4.74    -3.41-225.409301             +0.0000
iter:  28  05:50:14  -8.28  -4.80    -2.66-225.409300             -0.0000
iter:  29  05:51:01  -9.27  -5.11    -3.83-225.409300             +0.0000
iter:  30  05:51:48  -8.69  -5.14    -3.39-225.409300             +0.0000
iter:  31  05:52:34  -8.81  -5.19    -2.91-225.409300             +0.0000
iter:  32  05:53:21  -9.64  -5.26    -3.38-225.409300             +0.0000
iter:  33  05:54:08 -10.84  -5.39    -4.63-225.409300             +0.0000
iter:  34  05:54:55  -9.51  -5.39    -3.29-225.409300             +0.0000
iter:  35  05:55:41  -9.26  -5.58    -3.73-225.409300             +0.0000
iter:  36  05:56:28  -9.80  -5.64    -3.65-225.409300             +0.0000
iter:  37  05:57:15  -9.23  -5.79    -3.35-225.409300             +0.0000
iter:  38  05:58:02 -10.24  -5.85    -3.70-225.409300             +0.0000
iter:  39  05:58:49 -11.15  -6.02    -4.31-225.409300             +0.0000
iter:  40  05:59:36 -10.68  -6.08    -4.59-225.409300             +0.0000
iter:  41  06:00:22 -10.89  -6.13    -4.26-225.409300             +0.0000
iter:  42  06:01:09  -9.90  -6.20    -4.26-225.409300             +0.0000
iter:  43  06:01:56 -10.43  -6.26    -4.11-225.409300             -0.0000
iter:  44  06:02:43 -10.86  -6.82    -4.79-225.409300             +0.0000
iter:  45  06:03:30 -11.95  -7.02    -4.87-225.409300             +0.0000
iter:  46  06:04:17 -11.88  -6.99    -5.08-225.409300             -0.0000
iter:  47  06:05:03 -12.13  -7.15    -5.26-225.409300             +0.0000
iter:  48  06:05:50 -11.70  -7.24    -4.91-225.409300             +0.0000
iter:  49  06:06:37 -11.76  -7.19    -5.05-225.409300             -0.0000
iter:  50  06:07:24 -13.17  -7.53    -5.92-225.409300             -0.0000
iter:  51  06:08:10 -13.86  -7.57    -5.68-225.409300             -0.0000
iter:  52  06:08:57 -13.59  -7.66    -5.55-225.409300             -0.0000
iter:  53  06:09:44 -14.27  -7.92    -6.23-225.409300             -0.0000

Converged after 53 iterations.

Dipole moment: (19.051608, -1.421155, -4.182642) |e|*Ang

Total magnetic moment: (0.000000, 0.000000, -0.000000)
Local magnetic moments:
   0 O  ( 0.000000,  0.000000,  0.000428)
   1 O  ( 0.000000,  0.000000, -0.000716)
   2 O  ( 0.000000,  0.000000, -0.000655)
   3 O  ( 0.000000,  0.000000,  0.000673)
   4 O  ( 0.000000,  0.000000, -0.000655)
   5 O  ( 0.000000,  0.000000,  0.000679)
   6 O  ( 0.000000,  0.000000,  0.000729)
   7 O  ( 0.000000,  0.000000, -0.000521)
   8 O  ( 0.000000,  0.000000,  0.022371)
   9 O  ( 0.000000,  0.000000, -0.022398)
  10 O  ( 0.000000,  0.000000, -0.022383)
  11 O  ( 0.000000,  0.000000,  0.022199)
  12 Mn ( 0.000000,  0.000000,  4.575102)
  13 Mn ( 0.000000,  0.000000, -4.573989)
  14 Mn ( 0.000000,  0.000000, -4.575072)
  15 Mn ( 0.000000,  0.000000,  4.574991)
  16 P  ( 0.000000,  0.000000,  0.000524)
  17 P  ( 0.000000,  0.000000, -0.000832)
  18 P  ( 0.000000,  0.000000, -0.000826)
  19 P  ( 0.000000,  0.000000,  0.000810)
  20 O  ( 0.000000,  0.000000,  0.020608)
  21 O  ( 0.000000,  0.000000, -0.020764)
  22 O  ( 0.000000,  0.000000, -0.020706)
  23 O  ( 0.000000,  0.000000,  0.020723)
  24 Li ( 0.000000,  0.000000, -0.000000)
  25 Li ( 0.000000,  0.000000, -0.000026)
  26 Li ( 0.000000,  0.000000, -0.000001)
  27 Li ( 0.000000,  0.000000, -0.000002)

Energy contributions relative to reference atoms: (reference = -196157.275402)

Kinetic:       +296.336753
Potential:     -255.992659
External:        +0.000000
XC:            -267.535073
Entropy (-ST):   -0.000000
Local:           +1.781678
--------------------------
Free energy:   -225.409300
Extrapolated:  -225.409300

Spin contamination: 9.696658 electrons
Showing only first 2 kpts
                      Up                     Down
 Kpt  Band  Eigenvalues  Occupancy  Eigenvalues  Occupancy
  0    88      5.10577    0.00694      5.11638    0.00694
  0    89      5.15714    0.00694      5.16867    0.00694
  0    90      9.65512    0.00000      9.64832    0.00000
  0    91      9.68000    0.00000      9.66826    0.00000

  1    88      5.11755    0.00694      5.12780    0.00694
  1    89      5.16635    0.00694      5.17834    0.00694
  1    90      9.53649    0.00000      9.52743    0.00000
  1    91      9.55410    0.00000      9.54224    0.00000


Fermi level: 6.37076

Gap: 3.785 eV
Transition (v -> c):
  (s=1, k=72, n=89, [0.08, -0.42, -0.38]) -> (s=1, k=57, n=90, [-0.08, -0.08, -0.12])
Writing to born-0.01-0y-.gpw (mode='all')

Timing:                              incl.     excl.
-----------------------------------------------------------
Hamiltonian:                         0.393     0.002   0.0% |
 Atomic:                             0.057     0.057   0.0% |
  XC Correction:                     0.000     0.000   0.0% |
 Calculate atomic Hamiltonians:      0.155     0.155   0.0% |
 Communicate:                        0.002     0.002   0.0% |
 Initialize Hamiltonian:             0.000     0.000   0.0% |
 Poisson:                            0.001     0.001   0.0% |
 XC 3D grid:                         0.175     0.175   0.0% |
LCAO initialization:               130.243     0.676   0.0% |
 LCAO eigensolver:                  39.576     0.002   0.0% |
  Calculate projections:             0.057     0.057   0.0% |
  DenseAtomicCorrection:             0.082     0.082   0.0% |
  Distribute overlap matrix:         0.327     0.327   0.0% |
  Orbital Layouts:                   0.361     0.361   0.0% |
  Potential matrix:                 38.656    38.656   0.7% |
  Sum over cells:                    0.089     0.089   0.0% |
 LCAO to grid:                      87.624    87.624   1.7% ||
 Set positions (LCAO WFS):           2.368     0.368   0.0% |
  Basic WFS set positions:           0.001     0.001   0.0% |
  Basis functions set positions:     0.000     0.000   0.0% |
  P tci:                             1.076     1.076   0.0% |
  ST tci:                            0.707     0.707   0.0% |
  mktci:                             0.215     0.215   0.0% |
PWDescriptor:                        0.025     0.025   0.0% |
SCF-cycle:                        2297.983    10.161   0.2% |
 Davidson:                        1867.443   593.043  11.4% |----|
  Apply H:                         137.892   133.980   2.6% ||
   HMM T:                            3.911     3.911   0.1% |
  Subspace diag:                   279.182     0.168   0.0% |
   calc_h_matrix:                  183.792    48.345   0.9% |
    Apply H:                       135.447   131.737   2.5% ||
     HMM T:                          3.710     3.710   0.1% |
   diagonalize:                      6.497     6.497   0.1% |
   rotate_psi:                      88.725    88.725   1.7% ||
  calc. matrices:                  588.592   322.978   6.2% |-|
   Apply H:                        265.614   258.634   5.0% |-|
    HMM T:                           6.980     6.980   0.1% |
  diagonalize:                      88.154    88.154   1.7% ||
  rotate_psi:                      180.579   180.579   3.5% ||
 Density:                           77.723     0.001   0.0% |
  Atomic density matrices:           1.386     1.386   0.0% |
  Mix:                              11.959    11.959   0.2% |
  Multipole moments:                 0.031     0.031   0.0% |
  Pseudo density:                   64.347    64.345   1.2% |
   Symmetrize density:               0.001     0.001   0.0% |
 Forces:                           317.058   317.058   6.1% |-|
 Hamiltonian:                       21.517     0.120   0.0% |
  Atomic:                            3.161     3.160   0.1% |
   XC Correction:                    0.000     0.000   0.0% |
  Calculate atomic Hamiltonians:     8.768     8.768   0.2% |
  Communicate:                       0.085     0.085   0.0% |
  Poisson:                           0.085     0.085   0.0% |
  XC 3D grid:                        9.298     9.298   0.2% |
 Orthonormalize:                     4.082     0.004   0.0% |
  calc_s_matrix:                     0.484     0.484   0.0% |
  inverse-cholesky:                  0.054     0.054   0.0% |
  projections:                       2.681     2.681   0.1% |
  rotate_psi_s:                      0.859     0.859   0.0% |
Set symmetry:                        0.000     0.000   0.0% |
Other:                            2774.545  2774.545  53.3% |--------------------|
-----------------------------------------------------------
Total:                                      5203.189 100.0%

Memory usage: 11.87 GiB
Date: Sun Mar 21 06:55:56 2021
