
  ___ ___ ___ _ _ _  
 |   |   |_  | | | | 
 | | | | | . | | | | 
 |__ |  _|___|_____|  20.10.1b1
 |___|_|             

User:   madkru@g035.nifl.fysik.dtu.dk
Date:   Mon Mar 22 12:59:40 2021
Arch:   x86_64
Pid:    44316
Python: 3.7.4
gpaw:   /home/niflheim/madkru/venv_folder/gpaw/gpaw (d0d1ca1c71)
_gpaw:  /home/niflheim/madkru/venv_folder/gpaw/build/lib.linux-x86_64-sandybridge-3.7/
        _gpaw.cpython-37m-x86_64-linux-gnu.so (4fd39e8b1e)
ase:    /home/niflheim/madkru/venv_folder/ase/ase (version 3.21.0b1-7e6c206a91)
numpy:  /home/niflheim/madkru/venv_folder/lib/python3.7/site-packages/numpy (version 1.19.4)
scipy:  /home/niflheim/madkru/venv_folder/lib/python3.7/site-packages/scipy (version 1.5.4)
libxc:  4.3.4
units:  Angstrom and eV
cores: 32
OMP_NUM_THREADS: 1

Input parameters:
  convergence: {bands: occupied,
                density: 0.0001,
                eigenstates: 4e-08,
                energy: 0.0005,
                forces: 1e-06}
  kpts: [6 6 4]
  mode: {ecut: 600.0,
         gammacentered: False,
         name: pw}
  occupations: {fixmagmom: False,
                name: fermi-dirac,
                width: 0.001}
  setups: {Mn: :d,3.0}
  symmetry: {point_group: False,
             time_reversal: False}

System changes: positions, numbers, cell, pbc, initial_charges, initial_magmoms 

Initialize ...

O-setup:
  name: Oxygen
  id: 9b9d51c344dea68c822856295a461509
  Z: 8.0
  valence: 6
  core: 2
  charge: 0.0
  file: /home/modules/software/GPAW-setups/0.9.20000/O.LDA.gz
  compensation charges: gauss, rc=0.21, lmax=2
  cutoffs: 1.17(filt), 0.83(core),
  valence states:
                energy  radius
    2s(2.00)   -23.752   0.688
    2p(4.00)    -9.195   0.598
    *s           3.459   0.688
    *p          18.016   0.598
    *d           0.000   0.619

  Using partial waves for O as LCAO basis

Mn-setup:
  name: Manganese
  id: 0d715a8018be061a6e9ea6f2d364ac92
  Z: 25.0
  valence: 15
  core: 10
  charge: 0.0
  Hubbard U: 3.000000 eV (l=2, scale=True)
  file: /home/modules/software/GPAW-setups/0.9.20000/Mn.LDA.gz
  compensation charges: gauss, rc=0.38, lmax=2
  cutoffs: 2.14(filt), 0.86(core),
  valence states:
                energy  radius
    3s(2.00)   -85.387   1.275
    4s(2.00)    -5.282   1.275
    3p(6.00)   -54.493   1.281
    4p(0.00)    -1.471   1.281
    3d(5.00)    -7.009   1.138
    *d          20.203   1.138

  Using partial waves for Mn as LCAO basis

P-setup:
  name: Phosphorus
  id: a5561c299094968922a179ab894d2e2d
  Z: 15.0
  valence: 5
  core: 10
  charge: 0.0
  file: /home/modules/software/GPAW-setups/0.9.20000/P.LDA.gz
  compensation charges: gauss, rc=0.30, lmax=2
  cutoffs: 1.69(filt), 1.81(core),
  valence states:
                energy  radius
    3s(2.00)   -14.015   0.953
    3p(3.00)    -5.596   0.953
    *s          13.197   0.953
    *p          21.615   0.953
    *d           0.000   0.953

  Using partial waves for P as LCAO basis

Li-setup:
  name: Lithium
  id: b73562207f97a71b6967473b66fe8b65
  Z: 3.0
  valence: 1
  core: 2
  charge: 0.0
  file: /home/modules/software/GPAW-setups/0.9.20000/Li.LDA.gz
  compensation charges: gauss, rc=0.33, lmax=2
  cutoffs: 1.91(filt), 2.55(core),
  valence states:
                energy  radius
    2s(1.00)    -2.874   1.058
    2p(0.00)    -1.126   1.058
    *s          24.338   1.058

  Using partial waves for Li as LCAO basis

Reference energy: -196157.275402

Spin-polarized calculation.
Magnetic moment: 0.000000

Convergence criteria:
  Maximum total energy change: 0.0005 eV / electron
  Maximum integral of absolute density change: 0.0001 electrons
  Maximum integral of absolute eigenstate change: 4e-08 eV^2
  Maximum change in atomic force: 1e-06 eV / Ang
  Maximum number of iterations: 333

Symmetries present (total): 1

  ( 1  0  0)
  ( 0  1  0)
  ( 0  0  1)

144 k-points: 6 x 6 x 4 Monkhorst-Pack grid
144 k-points in the irreducible part of the Brillouin zone
       k-points in crystal coordinates                weights
   0:    -0.41666667   -0.41666667   -0.37500000          1/144
   1:    -0.41666667   -0.41666667   -0.12500000          1/144
   2:    -0.41666667   -0.41666667    0.12500000          1/144
   3:    -0.41666667   -0.41666667    0.37500000          1/144
   4:    -0.41666667   -0.25000000   -0.37500000          1/144
   5:    -0.41666667   -0.25000000   -0.12500000          1/144
   6:    -0.41666667   -0.25000000    0.12500000          1/144
   7:    -0.41666667   -0.25000000    0.37500000          1/144
   8:    -0.41666667   -0.08333333   -0.37500000          1/144
   9:    -0.41666667   -0.08333333   -0.12500000          1/144
          ...
 143:     0.41666667    0.41666667    0.37500000          1/144

Wave functions: Plane wave expansion
  Cutoff energy: 600.000 eV
  Number of coefficients (min, max): 9238, 9284
  Pulay-stress correction: 0.000000 eV/Ang^3 (de/decut=0.000000)
  Using FFTW library
  ScaLapack parameters: grid=1x1, blocksize=None
  Wavefunction extrapolation:
    Improved wavefunction reuse through dual PAW basis 

  Fermi-Dirac: width=0.0010 eV

Eigensolver
   Davidson(niter=2, smin=None, normalize=True) 

Densities:
  Coarse grid: 60*35*27 grid
  Fine grid: 120*70*54 grid
  Total Charge: 0.000000 

Density mixing:
  Method: difference
  Backend: pulay
  Linear mixing parameter: 0.05
  Mixing with 5 old densities
  Damping of long wave oscillations: 50 

Hamiltonian:
  XC and Coulomb potentials evaluated on a 120*70*54 grid
  Using the LDA Exchange-Correlation functional
 

Memory estimate:
  Process memory now: 13101.09 MiB
  Calculator: 346.50 MiB
    Density: 19.24 MiB
      Arrays: 7.57 MiB
      Localized functions: 8.64 MiB
      Mixer: 3.03 MiB
    Hamiltonian: 5.87 MiB
      Arrays: 5.62 MiB
      XC: 0.00 MiB
      Poisson: 0.00 MiB
      vbar: 0.25 MiB
    Wavefunctions: 321.38 MiB
      Arrays psit_nG: 285.59 MiB
      Eigensolver: 18.49 MiB
      Projections: 5.41 MiB
      Projectors: 8.92 MiB
      PW-descriptor: 2.96 MiB

Total number of cores used: 32
Parallelization over k-points: 16
Domain decomposition: 2 x 1 x 1

Number of atoms: 28
Number of atomic orbitals: 148
Number of bands in calculation: 112
Number of valence electrons: 180
Bands to converge: occupied

... initialized

Initializing position-dependent things.

Density initialized from atomic densities
Creating initial wave functions:
  112 bands from LCAO basis set

                                           
                                           
                                           
                                           
                                           
               O     O  P  O               
            PO           OMn     O         
                  O          MO            
            O        Li O                  
             Mn  On          OP            
         O         Li O                    
         Li     O P         O              
       Li                                  
                                           
                                           
                                           
                                           

Positions:
   0 O     -1.263197   -2.497779   -1.098475    ( 0.0000,  0.0000,  0.0000)
   1 O     -3.070823    2.922496    1.209491    ( 0.0000,  0.0000,  0.0000)
   2 O      1.985541    0.474863    1.428016    ( 0.0000,  0.0000,  0.0000)
   3 O      3.793120   -0.050100   -0.879950    ( 0.0000,  0.0000,  0.0000)
   4 O      1.985518    2.922485    1.428149    ( 0.0000,  0.0000,  0.0000)
   5 O      3.793144   -2.497790   -0.879818    ( 0.0000,  0.0000,  0.0000)
   6 O     -1.263220   -0.050157   -1.098342    ( 0.0000,  0.0000,  0.0000)
   7 O     -3.080798    0.474805    1.209623    ( 0.0000,  0.0000,  0.0000)
   8 O     -4.167835   -1.273920   -0.862116    ( 0.0000,  0.0000,  0.0000)
   9 O     -0.166037    1.698602    1.445528    ( 0.0000,  0.0000,  0.0000)
  10 O      4.890156    1.698625    1.191790    ( 0.0000,  0.0000,  0.0000)
  11 O      0.888358   -1.273896   -1.115855    ( 0.0000,  0.0000,  0.0000)
  12 Mn    -2.445557   -1.274211    0.312921    ( 0.0000,  0.0000,  1.0000)
  13 Mn    -1.888303    1.698892   -1.994948    ( 0.0000,  0.0000, -1.0000)
  14 Mn     3.167879    1.698917    0.016752    ( 0.0000,  0.0000, -1.0000)
  15 Mn     2.610624   -1.274187    2.324621    ( 0.0000,  0.0000,  1.0000)
  16 P     -0.529549   -1.273917   -1.724376    ( 0.0000,  0.0000,  0.0000)
  17 P     -3.804359    1.698599    0.583463    ( 0.0000,  0.0000,  0.0000)
  18 P      1.251870    1.698623    2.054050    ( 0.0000,  0.0000,  0.0000)
  19 P      4.526680   -1.273894   -0.253789    ( 0.0000,  0.0000,  0.0000)
  20 O     -0.544227   -1.273926    1.365380    ( 0.0000,  0.0000,  0.0000)
  21 O     -3.789411    1.698610   -0.942222    ( 0.0000,  0.0000,  0.0000)
  22 O      1.266548    1.698631   -1.035707    ( 0.0000,  0.0000,  0.0000)
  23 O      4.511733   -1.273905    1.271895    ( 0.0000,  0.0000,  0.0000)
  24 Li    -4.695087   -2.760584   -2.142877    ( 0.0000,  0.0000,  0.0000)
  25 Li     0.361147   -2.760561    0.164836    ( 0.0000,  0.0000,  0.0000)
  26 Li    -4.695074    0.212330   -2.142877    ( 0.0000,  0.0000,  0.0000)
  27 Li     0.361161    0.212353    0.164837    ( 0.0000,  0.0000,  0.0000)

Unit cell:
           periodic     x           y           z      points  spacing
  1. axis:    yes   10.112485    0.000045   -0.000035    60     0.1685
  2. axis:    yes    0.000026    5.945827    0.000001    35     0.1699
  3. axis:    yes   -0.000016    0.000000    4.615463    27     0.1709

  Lengths:  10.112485   5.945827   4.615463
  Angles:   89.999989  90.000396  89.999490

Effective grid spacing dv^(1/3) = 0.1698

                     log10-error:           total        iterations:
           time      wfs    density  force  energy       poisson  magmom
iter:   1  13:02:55                       -221.380914             +0.0000
iter:   2  13:03:32  -0.61  -0.93         -234.855921             +0.0000
iter:   3  13:04:10  -0.37  -0.97         -225.917519             -0.0000
iter:   4  13:04:47  -1.39  -1.29         -225.761153             +0.0000
iter:   5  13:05:24  -1.26  -1.39         -227.339937             +0.0000
iter:   6  13:06:01  -1.46  -1.46         -225.737077             +0.0000
iter:   7  13:06:39  -2.47  -2.04         -225.725390             +0.0000
iter:   8  13:07:16  -2.16  -1.99         -225.580658             +0.0000
iter:   9  13:07:53  -2.48  -2.10         -225.432423             +0.0000
iter:  10  13:08:31  -3.30  -2.54         -225.421948             +0.0000
iter:  11  13:09:08  -3.62  -2.81         -225.411445             +0.0000
iter:  12  13:09:45  -4.17  -3.06         -225.410443             +0.0000
iter:  13  13:10:22  -5.15  -3.30         -225.410351             -0.0000
iter:  14  13:11:00  -5.38  -3.32         -225.410166             -0.0000
iter:  15  13:11:37  -6.01  -3.43         -225.410178             -0.0000
iter:  16  13:12:14  -5.24  -3.47         -225.410516             -0.0000
iter:  17  13:12:51  -5.83  -3.57         -225.410405             -0.0000
iter:  18  13:13:29  -5.36  -3.70         -225.410138             +0.0000
iter:  19  13:14:06  -6.40  -4.05         -225.410141             -0.0000
iter:  20  13:14:43  -7.04  -4.30         -225.410141             -0.0000
iter:  21  13:15:21  -7.01  -4.33         -225.410131             -0.0000
iter:  22  13:16:08  -7.51  -4.35         -225.410127             -0.0000
iter:  23  13:16:55  -7.74  -4.38    -2.68-225.410126             -0.0000
iter:  24  13:17:42  -8.18  -4.48    -3.01-225.410125             -0.0000
iter:  25  13:18:28  -8.11  -4.53    -2.67-225.410125             -0.0000
iter:  26  13:19:16  -8.17  -4.68    -2.56-225.410125             -0.0000
iter:  27  13:20:02  -8.10  -4.88    -3.25-225.410125             -0.0000
iter:  28  13:20:49  -8.57  -4.93    -3.10-225.410124             +0.0000
iter:  29  13:21:37  -8.18  -5.02    -2.85-225.410124             -0.0000
iter:  30  13:22:23  -8.63  -5.13    -3.06-225.410125             +0.0000
iter:  31  13:23:10  -9.43  -5.21    -3.90-225.410124             +0.0000
iter:  32  13:23:57  -9.06  -5.25    -3.65-225.410124             +0.0000
iter:  33  13:24:44  -9.08  -5.30    -3.07-225.410124             +0.0000
iter:  34  13:25:31  -9.97  -5.35    -3.68-225.410124             +0.0000
iter:  35  13:26:19  -9.47  -5.38    -3.38-225.410124             +0.0000
iter:  36  13:27:05  -9.67  -5.45    -3.48-225.410124             +0.0000
iter:  37  13:27:52  -9.80  -5.65    -3.47-225.410124             +0.0000
iter:  38  13:28:39 -11.29  -5.97    -4.26-225.410124             +0.0000
iter:  39  13:29:26 -10.25  -5.94    -3.74-225.410124             +0.0000
iter:  40  13:30:13 -11.56  -6.07    -5.02-225.410124             +0.0000
iter:  41  13:31:00 -10.96  -6.10    -4.12-225.410124             +0.0000
iter:  42  13:31:47 -11.20  -6.25    -4.48-225.410124             +0.0000
iter:  43  13:32:34 -10.80  -6.27    -4.25-225.410124             +0.0000
iter:  44  13:33:21 -11.54  -6.43    -4.86-225.410124             +0.0000
iter:  45  13:34:08 -11.70  -6.53    -4.39-225.410124             -0.0000
iter:  46  13:34:55 -11.87  -6.64    -4.54-225.410124             +0.0000
iter:  47  13:35:42 -12.25  -6.75    -5.35-225.410124             +0.0000
iter:  48  13:36:29 -11.91  -6.79    -5.35-225.410124             +0.0000
iter:  49  13:37:16 -12.38  -6.86    -4.75-225.410124             +0.0000
iter:  50  13:38:03 -12.83  -6.83    -4.82-225.410124             +0.0000
iter:  51  13:38:50 -13.43  -6.91    -5.56-225.410124             +0.0000
iter:  52  13:39:37 -12.37  -6.94    -5.02-225.410124             +0.0000
iter:  53  13:40:24 -13.20  -7.13    -5.27-225.410124             +0.0000
iter:  54  13:41:11 -12.71  -7.22    -5.21-225.410124             +0.0000
iter:  55  13:41:58 -13.72  -7.69    -5.67-225.410124             +0.0000
iter:  56  13:42:45 -14.59  -7.84    -6.09-225.410124             +0.0000

Converged after 56 iterations.

Dipole moment: (19.057261, -1.422574, -4.181838) |e|*Ang

Total magnetic moment: (0.000000, 0.000000, 0.000000)
Local magnetic moments:
   0 O  ( 0.000000,  0.000000,  0.000627)
   1 O  ( 0.000000,  0.000000, -0.000653)
   2 O  ( 0.000000,  0.000000, -0.000647)
   3 O  ( 0.000000,  0.000000,  0.000680)
   4 O  ( 0.000000,  0.000000, -0.000651)
   5 O  ( 0.000000,  0.000000,  0.000682)
   6 O  ( 0.000000,  0.000000,  0.000647)
   7 O  ( 0.000000,  0.000000, -0.000641)
   8 O  ( 0.000000,  0.000000,  0.022387)
   9 O  ( 0.000000,  0.000000, -0.022355)
  10 O  ( 0.000000,  0.000000, -0.022459)
  11 O  ( 0.000000,  0.000000,  0.022330)
  12 Mn ( 0.000000,  0.000000,  4.575574)
  13 Mn ( 0.000000,  0.000000, -4.575410)
  14 Mn ( 0.000000,  0.000000, -4.575066)
  15 Mn ( 0.000000,  0.000000,  4.575043)
  16 P  ( 0.000000,  0.000000,  0.000821)
  17 P  ( 0.000000,  0.000000, -0.000801)
  18 P  ( 0.000000,  0.000000, -0.000806)
  19 P  ( 0.000000,  0.000000,  0.000808)
  20 O  ( 0.000000,  0.000000,  0.020667)
  21 O  ( 0.000000,  0.000000, -0.020725)
  22 O  ( 0.000000,  0.000000, -0.020680)
  23 O  ( 0.000000,  0.000000,  0.020725)
  24 Li ( 0.000000,  0.000000, -0.000004)
  25 Li ( 0.000000,  0.000000,  0.000001)
  26 Li ( 0.000000,  0.000000,  0.000005)
  27 Li ( 0.000000,  0.000000, -0.000000)

Energy contributions relative to reference atoms: (reference = -196157.275402)

Kinetic:       +297.101860
Potential:     -256.580866
External:        +0.000000
XC:            -267.711607
Entropy (-ST):   -0.000000
Local:           +1.780489
--------------------------
Free energy:   -225.410124
Extrapolated:  -225.410124

Spin contamination: 9.697746 electrons
Showing only first 2 kpts
                      Up                     Down
 Kpt  Band  Eigenvalues  Occupancy  Eigenvalues  Occupancy
  0    88      5.10524    0.00694      5.10707    0.00694
  0    89      5.15750    0.00694      5.16139    0.00694
  0    90      9.65196    0.00000      9.64621    0.00000
  0    91      9.66670    0.00000      9.67150    0.00000

  1    88      5.11672    0.00694      5.11831    0.00694
  1    89      5.16688    0.00694      5.17099    0.00694
  1    90      9.53011    0.00000      9.52775    0.00000
  1    91      9.54141    0.00000      9.54594    0.00000


Fermi level: 6.36934

Gap: 3.794 eV
Transition (v -> c):
  (s=1, k=95, n=89, [0.08, 0.42, 0.38]) -> (s=0, k=58, n=90, [-0.08, -0.08, 0.12])
Writing to born-0.01-7x-.gpw (mode='all')

Timing:                              incl.     excl.
-----------------------------------------------------------
Hamiltonian:                         0.411     0.002   0.0% |
 Atomic:                             0.060     0.060   0.0% |
  XC Correction:                     0.000     0.000   0.0% |
 Calculate atomic Hamiltonians:      0.161     0.161   0.0% |
 Communicate:                        0.013     0.013   0.0% |
 Initialize Hamiltonian:             0.000     0.000   0.0% |
 Poisson:                            0.001     0.001   0.0% |
 XC 3D grid:                         0.173     0.173   0.0% |
LCAO initialization:               151.918     0.678   0.0% |
 LCAO eigensolver:                  40.385     0.002   0.0% |
  Calculate projections:             0.056     0.056   0.0% |
  DenseAtomicCorrection:             0.083     0.083   0.0% |
  Distribute overlap matrix:         0.007     0.007   0.0% |
  Orbital Layouts:                   0.362     0.362   0.0% |
  Potential matrix:                 39.787    39.787   0.7% |
  Sum over cells:                    0.089     0.089   0.0% |
 LCAO to grid:                     108.485   108.485   2.0% ||
 Set positions (LCAO WFS):           2.370     0.369   0.0% |
  Basic WFS set positions:           0.001     0.001   0.0% |
  Basis functions set positions:     0.000     0.000   0.0% |
  P tci:                             1.078     1.078   0.0% |
  ST tci:                            0.706     0.706   0.0% |
  mktci:                             0.216     0.216   0.0% |
PWDescriptor:                        0.025     0.025   0.0% |
SCF-cycle:                        2431.646     9.645   0.2% |
 Davidson:                        1971.111   627.324  11.8% |----|
  Apply H:                         144.281   139.983   2.6% ||
   HMM T:                            4.298     4.298   0.1% |
  Subspace diag:                   293.418     0.176   0.0% |
   calc_h_matrix:                  192.988    50.886   1.0% |
    Apply H:                       142.102   137.925   2.6% ||
     HMM T:                          4.177     4.177   0.1% |
   diagonalize:                      6.800     6.800   0.1% |
   rotate_psi:                      93.454    93.454   1.8% ||
  calc. matrices:                  622.576   340.676   6.4% |--|
   Apply H:                        281.900   273.753   5.1% |-|
    HMM T:                           8.148     8.148   0.2% |
  diagonalize:                      93.251    93.251   1.7% ||
  rotate_psi:                      190.261   190.261   3.6% ||
 Density:                           83.213     0.001   0.0% |
  Atomic density matrices:           1.500     1.500   0.0% |
  Mix:                              12.570    12.570   0.2% |
  Multipole moments:                 0.033     0.033   0.0% |
  Pseudo density:                   69.109    69.107   1.3% ||
   Symmetrize density:               0.001     0.001   0.0% |
 Forces:                           340.891   340.891   6.4% |--|
 Hamiltonian:                       22.721     0.127   0.0% |
  Atomic:                            3.350     3.350   0.1% |
   XC Correction:                    0.000     0.000   0.0% |
  Calculate atomic Hamiltonians:     9.271     9.271   0.2% |
  Communicate:                       0.069     0.069   0.0% |
  Poisson:                           0.083     0.083   0.0% |
  XC 3D grid:                        9.821     9.821   0.2% |
 Orthonormalize:                     4.065     0.004   0.0% |
  calc_s_matrix:                     0.485     0.485   0.0% |
  inverse-cholesky:                  0.055     0.055   0.0% |
  projections:                       2.662     2.662   0.0% |
  rotate_psi_s:                      0.859     0.859   0.0% |
Set symmetry:                        0.000     0.000   0.0% |
Other:                            2751.047  2751.047  51.6% |--------------------|
-----------------------------------------------------------
Total:                                      5335.047 100.0%

Memory usage: 12.83 GiB
Date: Mon Mar 22 14:28:35 2021
