
  ___ ___ ___ _ _ _  
 |   |   |_  | | | | 
 | | | | | . | | | | 
 |__ |  _|___|_____|  20.10.1b1
 |___|_|             

User:   madkru@g035.nifl.fysik.dtu.dk
Date:   Mon Mar 22 18:28:24 2021
Arch:   x86_64
Pid:    44316
Python: 3.7.4
gpaw:   /home/niflheim/madkru/venv_folder/gpaw/gpaw (d0d1ca1c71)
_gpaw:  /home/niflheim/madkru/venv_folder/gpaw/build/lib.linux-x86_64-sandybridge-3.7/
        _gpaw.cpython-37m-x86_64-linux-gnu.so (4fd39e8b1e)
ase:    /home/niflheim/madkru/venv_folder/ase/ase (version 3.21.0b1-7e6c206a91)
numpy:  /home/niflheim/madkru/venv_folder/lib/python3.7/site-packages/numpy (version 1.19.4)
scipy:  /home/niflheim/madkru/venv_folder/lib/python3.7/site-packages/scipy (version 1.5.4)
libxc:  4.3.4
units:  Angstrom and eV
cores: 32
OMP_NUM_THREADS: 1

Input parameters:
  convergence: {bands: occupied,
                density: 0.0001,
                eigenstates: 4e-08,
                energy: 0.0005,
                forces: 1e-06}
  kpts: [6 6 4]
  mode: {ecut: 600.0,
         gammacentered: False,
         name: pw}
  occupations: {fixmagmom: False,
                name: fermi-dirac,
                width: 0.001}
  setups: {Mn: :d,3.0}
  symmetry: {point_group: False,
             time_reversal: False}

System changes: positions, numbers, cell, pbc, initial_charges, initial_magmoms 

Initialize ...

O-setup:
  name: Oxygen
  id: 9b9d51c344dea68c822856295a461509
  Z: 8.0
  valence: 6
  core: 2
  charge: 0.0
  file: /home/modules/software/GPAW-setups/0.9.20000/O.LDA.gz
  compensation charges: gauss, rc=0.21, lmax=2
  cutoffs: 1.17(filt), 0.83(core),
  valence states:
                energy  radius
    2s(2.00)   -23.752   0.688
    2p(4.00)    -9.195   0.598
    *s           3.459   0.688
    *p          18.016   0.598
    *d           0.000   0.619

  Using partial waves for O as LCAO basis

Mn-setup:
  name: Manganese
  id: 0d715a8018be061a6e9ea6f2d364ac92
  Z: 25.0
  valence: 15
  core: 10
  charge: 0.0
  Hubbard U: 3.000000 eV (l=2, scale=True)
  file: /home/modules/software/GPAW-setups/0.9.20000/Mn.LDA.gz
  compensation charges: gauss, rc=0.38, lmax=2
  cutoffs: 2.14(filt), 0.86(core),
  valence states:
                energy  radius
    3s(2.00)   -85.387   1.275
    4s(2.00)    -5.282   1.275
    3p(6.00)   -54.493   1.281
    4p(0.00)    -1.471   1.281
    3d(5.00)    -7.009   1.138
    *d          20.203   1.138

  Using partial waves for Mn as LCAO basis

P-setup:
  name: Phosphorus
  id: a5561c299094968922a179ab894d2e2d
  Z: 15.0
  valence: 5
  core: 10
  charge: 0.0
  file: /home/modules/software/GPAW-setups/0.9.20000/P.LDA.gz
  compensation charges: gauss, rc=0.30, lmax=2
  cutoffs: 1.69(filt), 1.81(core),
  valence states:
                energy  radius
    3s(2.00)   -14.015   0.953
    3p(3.00)    -5.596   0.953
    *s          13.197   0.953
    *p          21.615   0.953
    *d           0.000   0.953

  Using partial waves for P as LCAO basis

Li-setup:
  name: Lithium
  id: b73562207f97a71b6967473b66fe8b65
  Z: 3.0
  valence: 1
  core: 2
  charge: 0.0
  file: /home/modules/software/GPAW-setups/0.9.20000/Li.LDA.gz
  compensation charges: gauss, rc=0.33, lmax=2
  cutoffs: 1.91(filt), 2.55(core),
  valence states:
                energy  radius
    2s(1.00)    -2.874   1.058
    2p(0.00)    -1.126   1.058
    *s          24.338   1.058

  Using partial waves for Li as LCAO basis

Reference energy: -196157.275402

Spin-polarized calculation.
Magnetic moment: 0.000000

Convergence criteria:
  Maximum total energy change: 0.0005 eV / electron
  Maximum integral of absolute density change: 0.0001 electrons
  Maximum integral of absolute eigenstate change: 4e-08 eV^2
  Maximum change in atomic force: 1e-06 eV / Ang
  Maximum number of iterations: 333

Symmetries present (total): 1

  ( 1  0  0)
  ( 0  1  0)
  ( 0  0  1)

144 k-points: 6 x 6 x 4 Monkhorst-Pack grid
144 k-points in the irreducible part of the Brillouin zone
       k-points in crystal coordinates                weights
   0:    -0.41666667   -0.41666667   -0.37500000          1/144
   1:    -0.41666667   -0.41666667   -0.12500000          1/144
   2:    -0.41666667   -0.41666667    0.12500000          1/144
   3:    -0.41666667   -0.41666667    0.37500000          1/144
   4:    -0.41666667   -0.25000000   -0.37500000          1/144
   5:    -0.41666667   -0.25000000   -0.12500000          1/144
   6:    -0.41666667   -0.25000000    0.12500000          1/144
   7:    -0.41666667   -0.25000000    0.37500000          1/144
   8:    -0.41666667   -0.08333333   -0.37500000          1/144
   9:    -0.41666667   -0.08333333   -0.12500000          1/144
          ...
 143:     0.41666667    0.41666667    0.37500000          1/144

Wave functions: Plane wave expansion
  Cutoff energy: 600.000 eV
  Number of coefficients (min, max): 9238, 9284
  Pulay-stress correction: 0.000000 eV/Ang^3 (de/decut=0.000000)
  Using FFTW library
  ScaLapack parameters: grid=1x1, blocksize=None
  Wavefunction extrapolation:
    Improved wavefunction reuse through dual PAW basis 

  Fermi-Dirac: width=0.0010 eV

Eigensolver
   Davidson(niter=2, smin=None, normalize=True) 

Densities:
  Coarse grid: 60*35*27 grid
  Fine grid: 120*70*54 grid
  Total Charge: 0.000000 

Density mixing:
  Method: difference
  Backend: pulay
  Linear mixing parameter: 0.05
  Mixing with 5 old densities
  Damping of long wave oscillations: 50 

Hamiltonian:
  XC and Coulomb potentials evaluated on a 120*70*54 grid
  Using the LDA Exchange-Correlation functional
 

Memory estimate:
  Process memory now: 13251.18 MiB
  Calculator: 346.50 MiB
    Density: 19.24 MiB
      Arrays: 7.57 MiB
      Localized functions: 8.64 MiB
      Mixer: 3.03 MiB
    Hamiltonian: 5.87 MiB
      Arrays: 5.62 MiB
      XC: 0.00 MiB
      Poisson: 0.00 MiB
      vbar: 0.25 MiB
    Wavefunctions: 321.38 MiB
      Arrays psit_nG: 285.59 MiB
      Eigensolver: 18.49 MiB
      Projections: 5.41 MiB
      Projectors: 8.92 MiB
      PW-descriptor: 2.96 MiB

Total number of cores used: 32
Parallelization over k-points: 16
Domain decomposition: 2 x 1 x 1

Number of atoms: 28
Number of atomic orbitals: 148
Number of bands in calculation: 112
Number of valence electrons: 180
Bands to converge: occupied

... initialized

Initializing position-dependent things.

Density initialized from atomic densities
Creating initial wave functions:
  112 bands from LCAO basis set

                                           
                                           
                                           
                                           
                                           
               O     O  P  O               
            PO           OMn     O         
                  O          MO            
            O        Li O                  
             Mn  On          OP            
         O         Li O                    
         Li     O P         O              
       Li                                  
                                           
                                           
                                           
                                           

Positions:
   0 O     -1.263197   -2.497779   -1.098475    ( 0.0000,  0.0000,  0.0000)
   1 O     -3.070823    2.922496    1.209491    ( 0.0000,  0.0000,  0.0000)
   2 O      1.985541    0.474863    1.428016    ( 0.0000,  0.0000,  0.0000)
   3 O      3.793120   -0.050100   -0.879950    ( 0.0000,  0.0000,  0.0000)
   4 O      1.985518    2.922485    1.428149    ( 0.0000,  0.0000,  0.0000)
   5 O      3.793144   -2.497790   -0.879818    ( 0.0000,  0.0000,  0.0000)
   6 O     -1.263220   -0.050157   -1.098342    ( 0.0000,  0.0000,  0.0000)
   7 O     -3.070798    0.474805    1.209623    ( 0.0000,  0.0000,  0.0000)
   8 O     -4.157835   -1.273920   -0.862116    ( 0.0000,  0.0000,  0.0000)
   9 O     -0.166037    1.698602    1.445528    ( 0.0000,  0.0000,  0.0000)
  10 O      4.890156    1.698625    1.191790    ( 0.0000,  0.0000,  0.0000)
  11 O      0.888358   -1.273896   -1.115855    ( 0.0000,  0.0000,  0.0000)
  12 Mn    -2.445557   -1.274211    0.312921    ( 0.0000,  0.0000,  1.0000)
  13 Mn    -1.888303    1.698892   -1.994948    ( 0.0000,  0.0000, -1.0000)
  14 Mn     3.167879    1.698917    0.016752    ( 0.0000,  0.0000, -1.0000)
  15 Mn     2.610624   -1.274187    2.324621    ( 0.0000,  0.0000,  1.0000)
  16 P     -0.529549   -1.273917   -1.724376    ( 0.0000,  0.0000,  0.0000)
  17 P     -3.804359    1.698599    0.583463    ( 0.0000,  0.0000,  0.0000)
  18 P      1.251870    1.698623    2.054050    ( 0.0000,  0.0000,  0.0000)
  19 P      4.526680   -1.273894   -0.253789    ( 0.0000,  0.0000,  0.0000)
  20 O     -0.544227   -1.273926    1.365380    ( 0.0000,  0.0000,  0.0000)
  21 O     -3.789411    1.698610   -0.942222    ( 0.0000,  0.0000,  0.0000)
  22 O      1.266548    1.698631   -1.035707    ( 0.0000,  0.0000,  0.0000)
  23 O      4.511733   -1.273905    1.271895    ( 0.0000,  0.0000,  0.0000)
  24 Li    -4.695087   -2.760584   -2.142877    ( 0.0000,  0.0000,  0.0000)
  25 Li     0.361147   -2.760561    0.164836    ( 0.0000,  0.0000,  0.0000)
  26 Li    -4.695074    0.212330   -2.142877    ( 0.0000,  0.0000,  0.0000)
  27 Li     0.361161    0.212353    0.164837    ( 0.0000,  0.0000,  0.0000)

Unit cell:
           periodic     x           y           z      points  spacing
  1. axis:    yes   10.112485    0.000045   -0.000035    60     0.1685
  2. axis:    yes    0.000026    5.945827    0.000001    35     0.1699
  3. axis:    yes   -0.000016    0.000000    4.615463    27     0.1709

  Lengths:  10.112485   5.945827   4.615463
  Angles:   89.999989  90.000396  89.999490

Effective grid spacing dv^(1/3) = 0.1698

                     log10-error:           total        iterations:
           time      wfs    density  force  energy       poisson  magmom
iter:   1  18:31:40                       -221.367602             +0.0000
iter:   2  18:32:18  -0.61  -0.93         -234.810272             +0.0000
iter:   3  18:32:55  -0.37  -0.97         -225.905317             -0.0000
iter:   4  18:33:33  -1.39  -1.29         -225.760430             +0.0000
iter:   5  18:34:10  -1.27  -1.39         -227.311653             +0.0000
iter:   6  18:34:47  -1.47  -1.46         -225.735517             +0.0000
iter:   7  18:35:25  -2.46  -2.04         -225.720304             +0.0000
iter:   8  18:36:02  -2.03  -1.99         -225.635219             +0.0000
iter:   9  18:36:40  -2.40  -2.03         -225.426762             +0.0000
iter:  10  18:37:17  -3.30  -2.60         -225.418559             +0.0000
iter:  11  18:37:54  -3.79  -2.86         -225.410861             +0.0000
iter:  12  18:38:31  -4.21  -3.00         -225.409233             +0.0000
iter:  13  18:39:09  -5.01  -3.27         -225.409006             +0.0000
iter:  14  18:39:46  -4.99  -3.33         -225.409030             +0.0000
iter:  15  18:40:23  -6.05  -3.42         -225.408894             +0.0000
iter:  16  18:41:00  -4.97  -3.47         -225.409006             -0.0000
iter:  17  18:41:38  -6.45  -3.50         -225.409031             -0.0000
iter:  18  18:42:15  -5.47  -3.51         -225.408971             -0.0000
iter:  19  18:42:52  -5.75  -3.58         -225.408936             -0.0000
iter:  20  18:43:29  -6.92  -3.69         -225.408901             -0.0000
iter:  21  18:44:07  -6.22  -3.74         -225.408839             -0.0000
iter:  22  18:44:44  -7.02  -3.87         -225.408850             -0.0000
iter:  23  18:45:21  -6.63  -3.94         -225.408869             -0.0000
iter:  24  18:45:59  -5.94  -4.02         -225.408806             -0.0000
iter:  25  18:46:36  -6.37  -4.22         -225.408832             -0.0000
iter:  26  18:47:13  -6.49  -4.25         -225.408805             -0.0000
iter:  27  18:47:50  -6.97  -4.60         -225.408805             -0.0000
iter:  28  18:48:37  -7.78  -4.62         -225.408804             -0.0000
iter:  29  18:49:24  -7.91  -4.71    -3.03-225.408803             -0.0000
iter:  30  18:50:11  -8.15  -4.76    -2.77-225.408804             -0.0000
iter:  31  18:50:58  -8.74  -4.86    -3.42-225.408804             -0.0000
iter:  32  18:51:45  -8.58  -4.90    -3.26-225.408804             -0.0000
iter:  33  18:52:32  -9.11  -5.00    -3.57-225.408804             -0.0000
iter:  34  18:53:19  -8.87  -5.06    -3.15-225.408804             -0.0000
iter:  35  18:54:06  -9.42  -5.23    -3.36-225.408804             -0.0000
iter:  36  18:54:53  -9.67  -5.29    -3.23-225.408804             -0.0000
iter:  37  18:55:40  -9.78  -5.43    -4.02-225.408804             -0.0000
iter:  38  18:56:27  -9.09  -5.48    -3.55-225.408804             -0.0000
iter:  39  18:57:14  -9.73  -5.58    -4.13-225.408804             -0.0000
iter:  40  18:58:01  -9.71  -5.63    -3.74-225.408804             +0.0000
iter:  41  18:58:48  -9.26  -5.74    -3.56-225.408804             -0.0000
iter:  42  18:59:35 -10.60  -5.82    -4.56-225.408804             -0.0000
iter:  43  19:00:22 -11.06  -5.83    -4.51-225.408804             -0.0000
iter:  44  19:01:09 -10.19  -5.85    -3.77-225.408804             -0.0000
iter:  45  19:01:56 -10.58  -6.06    -4.21-225.408804             -0.0000
iter:  46  19:02:43 -11.22  -6.13    -4.40-225.408804             -0.0000
iter:  47  19:03:30 -11.07  -6.24    -4.35-225.408804             +0.0000
iter:  48  19:04:17 -11.29  -6.36    -4.39-225.408804             +0.0000
iter:  49  19:05:04 -11.73  -6.44    -4.36-225.408804             +0.0000
iter:  50  19:05:51 -11.33  -6.51    -4.65-225.408804             +0.0000
iter:  51  19:06:38 -12.34  -6.59    -5.31-225.408804             +0.0000
iter:  52  19:07:25 -11.77  -6.61    -4.38-225.408804             -0.0000
iter:  53  19:08:12 -11.26  -6.91    -4.64-225.408804             -0.0000
iter:  54  19:08:59 -12.47  -6.84    -5.37-225.408804             +0.0000
iter:  55  19:09:46 -11.40  -6.85    -4.68-225.408804             -0.0000
iter:  56  19:10:33 -12.51  -7.05    -4.91-225.408804             +0.0000
iter:  57  19:11:20 -13.21  -7.16    -5.42-225.408804             -0.0000
iter:  58  19:12:07 -11.97  -7.21    -4.75-225.408804             +0.0000
iter:  59  19:12:54 -12.15  -7.44    -5.25-225.408804             -0.0000
iter:  60  19:13:41 -13.01  -8.05    -6.18-225.408804             -0.0000

Converged after 60 iterations.

Dipole moment: (19.044789, -1.428211, -4.178608) |e|*Ang

Total magnetic moment: (0.000000, 0.000000, -0.000000)
Local magnetic moments:
   0 O  ( 0.000000,  0.000000,  0.000661)
   1 O  ( 0.000000,  0.000000, -0.000634)
   2 O  ( 0.000000,  0.000000, -0.000661)
   3 O  ( 0.000000,  0.000000,  0.000735)
   4 O  ( 0.000000,  0.000000, -0.000665)
   5 O  ( 0.000000,  0.000000,  0.000740)
   6 O  ( 0.000000,  0.000000,  0.000657)
   7 O  ( 0.000000,  0.000000, -0.000630)
   8 O  ( 0.000000,  0.000000,  0.022597)
   9 O  ( 0.000000,  0.000000, -0.022322)
  10 O  ( 0.000000,  0.000000, -0.022409)
  11 O  ( 0.000000,  0.000000,  0.022422)
  12 Mn ( 0.000000,  0.000000,  4.574176)
  13 Mn ( 0.000000,  0.000000, -4.575013)
  14 Mn ( 0.000000,  0.000000, -4.575063)
  15 Mn ( 0.000000,  0.000000,  4.575038)
  16 P  ( 0.000000,  0.000000,  0.000818)
  17 P  ( 0.000000,  0.000000, -0.000789)
  18 P  ( 0.000000,  0.000000, -0.000821)
  19 P  ( 0.000000,  0.000000,  0.000948)
  20 O  ( 0.000000,  0.000000,  0.020583)
  21 O  ( 0.000000,  0.000000, -0.020700)
  22 O  ( 0.000000,  0.000000, -0.020704)
  23 O  ( 0.000000,  0.000000,  0.020675)
  24 Li ( 0.000000,  0.000000,  0.000026)
  25 Li ( 0.000000,  0.000000, -0.000000)
  26 Li ( 0.000000,  0.000000,  0.000026)
  27 Li ( 0.000000,  0.000000, -0.000000)

Energy contributions relative to reference atoms: (reference = -196157.275402)

Kinetic:       +296.223071
Potential:     -255.902114
External:        +0.000000
XC:            -267.511658
Entropy (-ST):   -0.000000
Local:           +1.781898
--------------------------
Free energy:   -225.408804
Extrapolated:  -225.408804

Spin contamination: 9.697112 electrons
Showing only first 2 kpts
                      Up                     Down
 Kpt  Band  Eigenvalues  Occupancy  Eigenvalues  Occupancy
  0    88      5.11366    0.00694      5.10713    0.00694
  0    89      5.18132    0.00694      5.16078    0.00694
  0    90      9.64514    0.00000      9.65407    0.00000
  0    91      9.67620    0.00000      9.67525    0.00000

  1    88      5.12509    0.00694      5.11872    0.00694
  1    89      5.19192    0.00694      5.17004    0.00694
  1    90      9.52613    0.00000      9.53389    0.00000
  1    91      9.55121    0.00000      9.55360    0.00000


Fermi level: 6.37345

Gap: 3.779 eV
Transition (v -> c):
  (s=0, k=75, n=89, [0.08, -0.42, 0.38]) -> (s=0, k=86, n=90, [0.08, 0.08, 0.12])
Writing to born-0.01-8x+.gpw (mode='all')

Timing:                              incl.     excl.
-----------------------------------------------------------
Hamiltonian:                         0.415     0.002   0.0% |
 Atomic:                             0.071     0.071   0.0% |
  XC Correction:                     0.000     0.000   0.0% |
 Calculate atomic Hamiltonians:      0.165     0.165   0.0% |
 Communicate:                        0.001     0.001   0.0% |
 Initialize Hamiltonian:             0.000     0.000   0.0% |
 Poisson:                            0.001     0.001   0.0% |
 XC 3D grid:                         0.174     0.174   0.0% |
LCAO initialization:               152.354     0.679   0.0% |
 LCAO eigensolver:                  40.916     0.003   0.0% |
  Calculate projections:             0.058     0.058   0.0% |
  DenseAtomicCorrection:             0.083     0.083   0.0% |
  Distribute overlap matrix:         0.007     0.007   0.0% |
  Orbital Layouts:                   0.362     0.362   0.0% |
  Potential matrix:                 40.302    40.302   0.7% |
  Sum over cells:                    0.102     0.102   0.0% |
 LCAO to grid:                     108.371   108.371   1.9% ||
 Set positions (LCAO WFS):           2.389     0.371   0.0% |
  Basic WFS set positions:           0.001     0.001   0.0% |
  Basis functions set positions:     0.000     0.000   0.0% |
  P tci:                             1.088     1.088   0.0% |
  ST tci:                            0.710     0.710   0.0% |
  mktci:                             0.218     0.218   0.0% |
PWDescriptor:                        0.025     0.025   0.0% |
SCF-cycle:                        2561.838     4.567   0.1% |
 Davidson:                        2118.734   671.401  11.7% |----|
  Apply H:                         156.758   151.992   2.7% ||
   HMM T:                            4.766     4.766   0.1% |
  Subspace diag:                   317.312     0.190   0.0% |
   calc_h_matrix:                  209.412    54.666   1.0% |
    Apply H:                       154.746   150.137   2.6% ||
     HMM T:                          4.609     4.609   0.1% |
   diagonalize:                      7.292     7.292   0.1% |
   rotate_psi:                     100.417   100.417   1.8% ||
  calc. matrices:                  668.487   365.491   6.4% |--|
   Apply H:                        302.996   294.396   5.1% |-|
    HMM T:                           8.600     8.600   0.1% |
  diagonalize:                     100.169   100.169   1.7% ||
  rotate_psi:                      204.607   204.607   3.6% ||
 Density:                           88.527     0.002   0.0% |
  Atomic density matrices:           1.602     1.602   0.0% |
  Mix:                              13.532    13.532   0.2% |
  Multipole moments:                 0.034     0.034   0.0% |
  Pseudo density:                   73.357    73.355   1.3% ||
   Symmetrize density:               0.002     0.002   0.0% |
 Forces:                           321.574   321.574   5.6% |-|
 Hamiltonian:                       24.375     0.138   0.0% |
  Atomic:                            3.452     3.452   0.1% |
   XC Correction:                    0.000     0.000   0.0% |
  Calculate atomic Hamiltonians:    10.025    10.025   0.2% |
  Communicate:                       0.108     0.108   0.0% |
  Poisson:                           0.092     0.092   0.0% |
  XC 3D grid:                       10.560    10.560   0.2% |
 Orthonormalize:                     4.062     0.004   0.0% |
  calc_s_matrix:                     0.484     0.484   0.0% |
  inverse-cholesky:                  0.054     0.054   0.0% |
  projections:                       2.661     2.661   0.0% |
  rotate_psi_s:                      0.859     0.859   0.0% |
Set symmetry:                        0.000     0.000   0.0% |
Other:                            3019.664  3019.664  52.7% |--------------------|
-----------------------------------------------------------
Total:                                      5734.296 100.0%

Memory usage: 12.97 GiB
Date: Mon Mar 22 20:03:59 2021
