
  ___ ___ ___ _ _ _  
 |   |   |_  | | | | 
 | | | | | . | | | | 
 |__ |  _|___|_____|  20.10.1b1
 |___|_|             

User:   madkru@i018.nifl.fysik.dtu.dk
Date:   Wed Mar 24 14:13:43 2021
Arch:   x86_64
Pid:    26873
Python: 3.7.4
gpaw:   /home/niflheim/madkru/venv_folder/gpaw/gpaw (d224efde0f)
_gpaw:  /home/niflheim/madkru/venv_folder/gpaw/build/lib.linux-x86_64-ivybridge-3.7/
        _gpaw.cpython-37m-x86_64-linux-gnu.so (4fd39e8b1e)
ase:    /home/niflheim/madkru/venv_folder/ase/ase (version 3.21.0b1-4d5a73cb29)
numpy:  /home/niflheim/madkru/venv_folder/lib/python3.7/site-packages/numpy (version 1.19.4)
scipy:  /home/niflheim/madkru/venv_folder/lib/python3.7/site-packages/scipy (version 1.5.4)
libxc:  4.3.4
units:  Angstrom and eV
cores: 64
OMP_NUM_THREADS: 1

Input parameters:
  convergence: {bands: occupied,
                density: 0.0001,
                eigenstates: 4e-08,
                energy: 0.0005,
                forces: 1e-06}
  kpts: [6 6 4]
  mode: {ecut: 600.0,
         gammacentered: False,
         name: pw}
  occupations: {fixmagmom: False,
                name: fermi-dirac,
                width: 0.001}
  setups: {Mn: :d,3.0}
  symmetry: {point_group: False,
             time_reversal: False}

System changes: positions, numbers, cell, pbc, initial_charges, initial_magmoms 

Initialize ...

O-setup:
  name: Oxygen
  id: 9b9d51c344dea68c822856295a461509
  Z: 8.0
  valence: 6
  core: 2
  charge: 0.0
  file: /home/modules/software/GPAW-setups/0.9.20000/O.LDA.gz
  compensation charges: gauss, rc=0.21, lmax=2
  cutoffs: 1.17(filt), 0.83(core),
  valence states:
                energy  radius
    2s(2.00)   -23.752   0.688
    2p(4.00)    -9.195   0.598
    *s           3.459   0.688
    *p          18.016   0.598
    *d           0.000   0.619

  Using partial waves for O as LCAO basis

Mn-setup:
  name: Manganese
  id: 0d715a8018be061a6e9ea6f2d364ac92
  Z: 25.0
  valence: 15
  core: 10
  charge: 0.0
  Hubbard U: 3.000000 eV (l=2, scale=True)
  file: /home/modules/software/GPAW-setups/0.9.20000/Mn.LDA.gz
  compensation charges: gauss, rc=0.38, lmax=2
  cutoffs: 2.14(filt), 0.86(core),
  valence states:
                energy  radius
    3s(2.00)   -85.387   1.275
    4s(2.00)    -5.282   1.275
    3p(6.00)   -54.493   1.281
    4p(0.00)    -1.471   1.281
    3d(5.00)    -7.009   1.138
    *d          20.203   1.138

  Using partial waves for Mn as LCAO basis

P-setup:
  name: Phosphorus
  id: a5561c299094968922a179ab894d2e2d
  Z: 15.0
  valence: 5
  core: 10
  charge: 0.0
  file: /home/modules/software/GPAW-setups/0.9.20000/P.LDA.gz
  compensation charges: gauss, rc=0.30, lmax=2
  cutoffs: 1.69(filt), 1.81(core),
  valence states:
                energy  radius
    3s(2.00)   -14.015   0.953
    3p(3.00)    -5.596   0.953
    *s          13.197   0.953
    *p          21.615   0.953
    *d           0.000   0.953

  Using partial waves for P as LCAO basis

Li-setup:
  name: Lithium
  id: b73562207f97a71b6967473b66fe8b65
  Z: 3.0
  valence: 1
  core: 2
  charge: 0.0
  file: /home/modules/software/GPAW-setups/0.9.20000/Li.LDA.gz
  compensation charges: gauss, rc=0.33, lmax=2
  cutoffs: 1.91(filt), 2.55(core),
  valence states:
                energy  radius
    2s(1.00)    -2.874   1.058
    2p(0.00)    -1.126   1.058
    *s          24.338   1.058

  Using partial waves for Li as LCAO basis

Reference energy: -196157.275402

Spin-polarized calculation.
Magnetic moment: 0.000000

Convergence criteria:
  Maximum total energy change: 0.0005 eV / electron
  Maximum integral of absolute density change: 0.0001 electrons
  Maximum integral of absolute eigenstate change: 4e-08 eV^2
  Maximum change in atomic force: 1e-06 eV / Ang
  Maximum number of iterations: 333

Symmetries present (total): 1

  ( 1  0  0)
  ( 0  1  0)
  ( 0  0  1)

144 k-points: 6 x 6 x 4 Monkhorst-Pack grid
144 k-points in the irreducible part of the Brillouin zone
       k-points in crystal coordinates                weights
   0:    -0.41666667   -0.41666667   -0.37500000          1/144
   1:    -0.41666667   -0.41666667   -0.12500000          1/144
   2:    -0.41666667   -0.41666667    0.12500000          1/144
   3:    -0.41666667   -0.41666667    0.37500000          1/144
   4:    -0.41666667   -0.25000000   -0.37500000          1/144
   5:    -0.41666667   -0.25000000   -0.12500000          1/144
   6:    -0.41666667   -0.25000000    0.12500000          1/144
   7:    -0.41666667   -0.25000000    0.37500000          1/144
   8:    -0.41666667   -0.08333333   -0.37500000          1/144
   9:    -0.41666667   -0.08333333   -0.12500000          1/144
          ...
 143:     0.41666667    0.41666667    0.37500000          1/144

Wave functions: Plane wave expansion
  Cutoff energy: 600.000 eV
  Number of coefficients (min, max): 9238, 9284
  Pulay-stress correction: 0.000000 eV/Ang^3 (de/decut=0.000000)
  Using FFTW library
  ScaLapack parameters: grid=1x1, blocksize=None
  Wavefunction extrapolation:
    Improved wavefunction reuse through dual PAW basis 

  Fermi-Dirac: width=0.0010 eV

Eigensolver
   Davidson(niter=2, smin=None, normalize=True) 

Densities:
  Coarse grid: 60*35*27 grid
  Fine grid: 120*70*54 grid
  Total Charge: 0.000000 

Density mixing:
  Method: difference
  Backend: pulay
  Linear mixing parameter: 0.05
  Mixing with 5 old densities
  Damping of long wave oscillations: 50 

Hamiltonian:
  XC and Coulomb potentials evaluated on a 120*70*54 grid
  Using the LDA Exchange-Correlation functional
 

Memory estimate:
  Process memory now: 13281.38 MiB
  Calculator: 326.59 MiB
    Density: 9.67 MiB
      Arrays: 3.79 MiB
      Localized functions: 4.32 MiB
      Mixer: 1.56 MiB
    Hamiltonian: 2.94 MiB
      Arrays: 2.82 MiB
      XC: 0.00 MiB
      Poisson: 0.00 MiB
      vbar: 0.12 MiB
    Wavefunctions: 313.97 MiB
      Arrays psit_nG: 285.59 MiB
      Eigensolver: 18.49 MiB
      Projections: 2.71 MiB
      Projectors: 4.46 MiB
      PW-descriptor: 2.72 MiB

Total number of cores used: 64
Parallelization over k-points: 16
Domain decomposition: 2 x 2 x 1

Number of atoms: 28
Number of atomic orbitals: 148
Number of bands in calculation: 112
Number of valence electrons: 180
Bands to converge: occupied

... initialized

Initializing position-dependent things.

Density initialized from atomic densities
Creating initial wave functions:
  112 bands from LCAO basis set

                                           
                                           
                                           
                                           
                                           
               O     O  P  O               
            PO           OMn     O         
                  O          MO            
            O        Li O                  
             Mn  On          OP            
         O         Li O                    
         Li     O P         O              
       Li                                  
                                           
                                           
                                           
                                           

Positions:
   0 O     -1.263197   -2.497779   -1.098475    ( 0.0000,  0.0000,  0.0000)
   1 O     -3.070823    2.922496    1.209491    ( 0.0000,  0.0000,  0.0000)
   2 O      1.985541    0.474863    1.428016    ( 0.0000,  0.0000,  0.0000)
   3 O      3.793120   -0.050100   -0.879950    ( 0.0000,  0.0000,  0.0000)
   4 O      1.985518    2.922485    1.428149    ( 0.0000,  0.0000,  0.0000)
   5 O      3.793144   -2.497790   -0.879818    ( 0.0000,  0.0000,  0.0000)
   6 O     -1.263220   -0.050157   -1.098342    ( 0.0000,  0.0000,  0.0000)
   7 O     -3.070798    0.474805    1.209623    ( 0.0000,  0.0000,  0.0000)
   8 O     -4.167835   -1.273920   -0.862116    ( 0.0000,  0.0000,  0.0000)
   9 O     -0.166037    1.698602    1.445528    ( 0.0000,  0.0000,  0.0000)
  10 O      4.890156    1.698625    1.191790    ( 0.0000,  0.0000,  0.0000)
  11 O      0.888358   -1.273896   -1.115855    ( 0.0000,  0.0000,  0.0000)
  12 Mn    -2.445557   -1.274211    0.312921    ( 0.0000,  0.0000,  1.0000)
  13 Mn    -1.888303    1.698892   -1.994948    ( 0.0000,  0.0000, -1.0000)
  14 Mn     3.167879    1.698917    0.016752    ( 0.0000,  0.0000, -1.0000)
  15 Mn     2.610624   -1.274187    2.324621    ( 0.0000,  0.0000,  1.0000)
  16 P     -0.529549   -1.273917   -1.724376    ( 0.0000,  0.0000,  0.0000)
  17 P     -3.804359    1.698599    0.583463    ( 0.0000,  0.0000,  0.0000)
  18 P      1.251870    1.698623    2.054050    ( 0.0000,  0.0000,  0.0000)
  19 P      4.526680   -1.273894   -0.253789    ( 0.0000,  0.0000,  0.0000)
  20 O     -0.534227   -1.273926    1.365380    ( 0.0000,  0.0000,  0.0000)
  21 O     -3.789411    1.698610   -0.942222    ( 0.0000,  0.0000,  0.0000)
  22 O      1.266548    1.698631   -1.035707    ( 0.0000,  0.0000,  0.0000)
  23 O      4.511733   -1.273905    1.271895    ( 0.0000,  0.0000,  0.0000)
  24 Li    -4.695087   -2.760584   -2.142877    ( 0.0000,  0.0000,  0.0000)
  25 Li     0.361147   -2.760561    0.164836    ( 0.0000,  0.0000,  0.0000)
  26 Li    -4.695074    0.212330   -2.142877    ( 0.0000,  0.0000,  0.0000)
  27 Li     0.361161    0.212353    0.164837    ( 0.0000,  0.0000,  0.0000)

Unit cell:
           periodic     x           y           z      points  spacing
  1. axis:    yes   10.112485    0.000045   -0.000035    60     0.1685
  2. axis:    yes    0.000026    5.945827    0.000001    35     0.1699
  3. axis:    yes   -0.000016    0.000000    4.615463    27     0.1709

  Lengths:  10.112485   5.945827   4.615463
  Angles:   89.999989  90.000396  89.999490

Effective grid spacing dv^(1/3) = 0.1698

                     log10-error:           total        iterations:
           time      wfs    density  force  energy       poisson  magmom
iter:   1  14:15:18                       -221.379621             +0.0000
iter:   2  14:15:38  -0.61  -0.93         -234.849942             +0.0000
iter:   3  14:15:57  -0.37  -0.97         -225.915839             -0.0000
iter:   4  14:16:17  -1.39  -1.29         -225.761540             +0.0000
iter:   5  14:16:37  -1.26  -1.39         -227.338969             +0.0000
iter:   6  14:16:57  -1.46  -1.46         -225.737277             +0.0000
iter:   7  14:17:17  -2.47  -2.04         -225.725415             +0.0000
iter:   8  14:17:36  -2.15  -1.99         -225.585801             +0.0000
iter:   9  14:17:56  -2.47  -2.10         -225.432519             +0.0000
iter:  10  14:18:16  -3.30  -2.54         -225.422111             +0.0000
iter:  11  14:18:36  -3.64  -2.81         -225.411795             +0.0000
iter:  12  14:18:55  -4.15  -3.06         -225.410776             +0.0000
iter:  13  14:19:15  -5.15  -3.30         -225.410680             -0.0000
iter:  14  14:19:35  -5.38  -3.32         -225.410500             +0.0000
iter:  15  14:19:55  -6.02  -3.43         -225.410507             +0.0000
iter:  16  14:20:15  -5.26  -3.47         -225.410815             -0.0000
iter:  17  14:20:34  -5.79  -3.58         -225.410723             +0.0000
iter:  18  14:20:54  -5.29  -3.72         -225.410460             -0.0000
iter:  19  14:21:14  -6.05  -4.07         -225.410454             -0.0000
iter:  20  14:21:34  -7.29  -4.53         -225.410456             +0.0000
iter:  21  14:21:58  -7.86  -4.58         -225.410456             +0.0000
iter:  22  14:22:18  -6.92  -4.62         -225.410457             +0.0000
iter:  23  14:22:43  -7.73  -4.62    -2.25-225.410456             +0.0000
iter:  24  14:23:07  -7.54  -4.95    -3.02-225.410455             +0.0000
iter:  25  14:23:32  -8.41  -4.98    -3.10-225.410455             +0.0000
iter:  26  14:23:56  -9.23  -5.23    -3.20-225.410455             -0.0000
iter:  27  14:24:21  -9.75  -5.27    -3.64-225.410455             -0.0000
iter:  28  14:24:45  -8.63  -5.31    -2.97-225.410454             -0.0000
iter:  29  14:25:10  -9.94  -5.42    -3.87-225.410454             +0.0000
iter:  30  14:25:34  -8.93  -5.47    -3.20-225.410454             -0.0000
iter:  31  14:25:59 -10.03  -5.88    -3.62-225.410454             +0.0000
iter:  32  14:26:23 -11.02  -6.06    -4.10-225.410454             -0.0000
iter:  33  14:26:48 -11.05  -6.15    -4.21-225.410454             -0.0000
iter:  34  14:27:12 -11.40  -6.23    -4.44-225.410454             -0.0000
iter:  35  14:27:37 -11.00  -6.28    -4.40-225.410454             +0.0000
iter:  36  14:28:01 -11.54  -6.33    -4.44-225.410454             -0.0000
iter:  37  14:28:26 -12.10  -6.38    -4.70-225.410454             +0.0000
iter:  38  14:28:50 -12.02  -6.42    -4.60-225.410454             +0.0000
iter:  39  14:29:15 -12.03  -6.47    -4.61-225.410454             +0.0000
iter:  40  14:29:40 -11.67  -6.50    -4.35-225.410454             -0.0000
iter:  41  14:30:04 -12.24  -6.81    -4.59-225.410454             +0.0000
iter:  42  14:30:29 -11.98  -6.99    -4.72-225.410454             +0.0000
iter:  43  14:30:53 -12.88  -7.20    -5.56-225.410454             +0.0000
iter:  44  14:31:18 -12.91  -7.25    -4.95-225.410454             +0.0000
iter:  45  14:31:42 -13.74  -7.36    -5.73-225.410454             +0.0000
iter:  46  14:32:07 -13.02  -7.41    -5.25-225.410454             +0.0000
iter:  47  14:32:31 -13.55  -7.62    -5.97-225.410454             +0.0000
iter:  48  14:32:56 -12.91  -7.70    -5.24-225.410454             +0.0000
iter:  49  14:33:20 -13.93  -7.71    -5.43-225.410454             +0.0000
iter:  50  14:33:45 -13.51  -8.04    -5.57-225.410454             +0.0000
iter:  51  14:34:09 -14.47  -8.20    -5.86-225.410454             +0.0000
iter:  52  14:34:34 -15.11  -8.51    -6.16-225.410454             +0.0000

Converged after 52 iterations.

Dipole moment: (19.277629, -1.428281, -4.182305) |e|*Ang

Total magnetic moment: (0.000000, 0.000000, 0.000000)
Local magnetic moments:
   0 O  ( 0.000000,  0.000000,  0.000662)
   1 O  ( 0.000000,  0.000000, -0.000728)
   2 O  ( 0.000000,  0.000000, -0.000700)
   3 O  ( 0.000000,  0.000000,  0.000659)
   4 O  ( 0.000000,  0.000000, -0.000704)
   5 O  ( 0.000000,  0.000000,  0.000663)
   6 O  ( 0.000000,  0.000000,  0.000658)
   7 O  ( 0.000000,  0.000000, -0.000724)
   8 O  ( 0.000000,  0.000000,  0.022485)
   9 O  ( 0.000000,  0.000000, -0.022416)
  10 O  ( 0.000000,  0.000000, -0.022343)
  11 O  ( 0.000000,  0.000000,  0.022331)
  12 Mn ( 0.000000,  0.000000,  4.575427)
  13 Mn ( 0.000000,  0.000000, -4.575037)
  14 Mn ( 0.000000,  0.000000, -4.575074)
  15 Mn ( 0.000000,  0.000000,  4.575094)
  16 P  ( 0.000000,  0.000000,  0.000633)
  17 P  ( 0.000000,  0.000000, -0.000845)
  18 P  ( 0.000000,  0.000000, -0.000809)
  19 P  ( 0.000000,  0.000000,  0.000812)
  20 O  ( 0.000000,  0.000000,  0.020670)
  21 O  ( 0.000000,  0.000000, -0.020703)
  22 O  ( 0.000000,  0.000000, -0.020714)
  23 O  ( 0.000000,  0.000000,  0.020686)
  24 Li ( 0.000000,  0.000000, -0.000000)
  25 Li ( 0.000000,  0.000000, -0.000002)
  26 Li ( 0.000000,  0.000000, -0.000000)
  27 Li ( 0.000000,  0.000000, -0.000002)

Energy contributions relative to reference atoms: (reference = -196157.275402)

Kinetic:       +296.743038
Potential:     -256.302348
External:        +0.000000
XC:            -267.632378
Entropy (-ST):   -0.000000
Local:           +1.781233
--------------------------
Free energy:   -225.410454
Extrapolated:  -225.410454

Spin contamination: 9.697357 electrons
Showing only first 2 kpts
                      Up                     Down
 Kpt  Band  Eigenvalues  Occupancy  Eigenvalues  Occupancy
  0    88      5.10069    0.00694      5.10803    0.00694
  0    89      5.15722    0.00694      5.16022    0.00694
  0    90      9.65260    0.00000      9.63929    0.00000
  0    91      9.66823    0.00000      9.67404    0.00000

  1    88      5.11085    0.00694      5.11971    0.00694
  1    89      5.16643    0.00694      5.16962    0.00694
  1    90      9.53524    0.00000      9.52112    0.00000
  1    91      9.54202    0.00000      9.54951    0.00000


Fermi level: 6.36949

Gap: 3.794 eV
Transition (v -> c):
  (s=1, k=68, n=89, [-0.08, 0.42, -0.38]) -> (s=1, k=57, n=90, [-0.08, -0.08, -0.12])
Writing to born-0.01-20x+.gpw (mode='all')

Timing:                              incl.     excl.
-----------------------------------------------------------
Hamiltonian:                         0.217     0.002   0.0% |
 Atomic:                             0.053     0.053   0.0% |
  XC Correction:                     0.000     0.000   0.0% |
 Calculate atomic Hamiltonians:      0.075     0.075   0.0% |
 Communicate:                        0.002     0.002   0.0% |
 Initialize Hamiltonian:             0.000     0.000   0.0% |
 Poisson:                            0.001     0.001   0.0% |
 XC 3D grid:                         0.084     0.084   0.0% |
LCAO initialization:                71.428     0.649   0.0% |
 LCAO eigensolver:                  19.396     0.002   0.0% |
  Calculate projections:             0.029     0.029   0.0% |
  DenseAtomicCorrection:             0.045     0.045   0.0% |
  Distribute overlap matrix:         0.009     0.009   0.0% |
  Orbital Layouts:                   0.433     0.433   0.0% |
  Potential matrix:                 18.779    18.779   0.6% |
  Sum over cells:                    0.099     0.099   0.0% |
 LCAO to grid:                      50.058    50.058   1.7% ||
 Set positions (LCAO WFS):           1.324     0.192   0.0% |
  Basic WFS set positions:           0.001     0.001   0.0% |
  Basis functions set positions:     0.000     0.000   0.0% |
  P tci:                             0.528     0.528   0.0% |
  ST tci:                            0.384     0.384   0.0% |
  mktci:                             0.218     0.218   0.0% |
PWDescriptor:                        0.023     0.023   0.0% |
SCF-cycle:                        1178.316     2.134   0.1% |
 Davidson:                         977.707   301.196  10.2% |---|
  Apply H:                          66.838    64.866   2.2% ||
   HMM T:                            1.972     1.972   0.1% |
  Subspace diag:                   141.476     0.148   0.0% |
   calc_h_matrix:                   90.624    23.764   0.8% |
    Apply H:                        66.860    64.869   2.2% ||
     HMM T:                          1.991     1.991   0.1% |
   diagonalize:                      7.089     7.089   0.2% |
   rotate_psi:                      43.614    43.614   1.5% ||
  calc. matrices:                  291.419   161.021   5.5% |-|
   Apply H:                        130.397   126.737   4.3% |-|
    HMM T:                           3.661     3.661   0.1% |
  diagonalize:                      82.299    82.299   2.8% ||
  rotate_psi:                       94.480    94.480   3.2% ||
 Density:                           39.521     0.001   0.0% |
  Atomic density matrices:           0.808     0.808   0.0% |
  Mix:                               5.477     5.477   0.2% |
  Multipole moments:                 0.019     0.019   0.0% |
  Pseudo density:                   33.215    33.214   1.1% |
   Symmetrize density:               0.002     0.002   0.0% |
 Forces:                           145.641   145.641   4.9% |-|
 Hamiltonian:                       11.225     0.107   0.0% |
  Atomic:                            2.800     2.799   0.1% |
   XC Correction:                    0.000     0.000   0.0% |
  Calculate atomic Hamiltonians:     3.831     3.831   0.1% |
  Communicate:                       0.107     0.107   0.0% |
  Poisson:                           0.030     0.030   0.0% |
  XC 3D grid:                        4.350     4.350   0.1% |
 Orthonormalize:                     2.087     0.003   0.0% |
  calc_s_matrix:                     0.245     0.245   0.0% |
  inverse-cholesky:                  0.073     0.073   0.0% |
  projections:                       1.332     1.332   0.0% |
  rotate_psi_s:                      0.434     0.434   0.0% |
Set symmetry:                        0.000     0.000   0.0% |
Other:                            1699.477  1699.477  57.6% |----------------------|
-----------------------------------------------------------
Total:                                      2949.460 100.0%

Memory usage: 13.01 GiB
Date: Wed Mar 24 15:02:52 2021
