
  ___ ___ ___ _ _ _  
 |   |   |_  | | | | 
 | | | | | . | | | | 
 |__ |  _|___|_____|  20.10.1b1
 |___|_|             

User:   madkru@i018.nifl.fysik.dtu.dk
Date:   Wed Mar 24 01:37:30 2021
Arch:   x86_64
Pid:    26873
Python: 3.7.4
gpaw:   /home/niflheim/madkru/venv_folder/gpaw/gpaw (d0d1ca1c71)
_gpaw:  /home/niflheim/madkru/venv_folder/gpaw/build/lib.linux-x86_64-ivybridge-3.7/
        _gpaw.cpython-37m-x86_64-linux-gnu.so (4fd39e8b1e)
ase:    /home/niflheim/madkru/venv_folder/ase/ase (version 3.21.0b1-7e6c206a91)
numpy:  /home/niflheim/madkru/venv_folder/lib/python3.7/site-packages/numpy (version 1.19.4)
scipy:  /home/niflheim/madkru/venv_folder/lib/python3.7/site-packages/scipy (version 1.5.4)
libxc:  4.3.4
units:  Angstrom and eV
cores: 64
OMP_NUM_THREADS: 1

Input parameters:
  convergence: {bands: occupied,
                density: 0.0001,
                eigenstates: 4e-08,
                energy: 0.0005,
                forces: 1e-06}
  kpts: [6 6 4]
  mode: {ecut: 600.0,
         gammacentered: False,
         name: pw}
  occupations: {fixmagmom: False,
                name: fermi-dirac,
                width: 0.001}
  setups: {Mn: :d,3.0}
  symmetry: {point_group: False,
             time_reversal: False}

System changes: positions, numbers, cell, pbc, initial_charges, initial_magmoms 

Initialize ...

O-setup:
  name: Oxygen
  id: 9b9d51c344dea68c822856295a461509
  Z: 8.0
  valence: 6
  core: 2
  charge: 0.0
  file: /home/modules/software/GPAW-setups/0.9.20000/O.LDA.gz
  compensation charges: gauss, rc=0.21, lmax=2
  cutoffs: 1.17(filt), 0.83(core),
  valence states:
                energy  radius
    2s(2.00)   -23.752   0.688
    2p(4.00)    -9.195   0.598
    *s           3.459   0.688
    *p          18.016   0.598
    *d           0.000   0.619

  Using partial waves for O as LCAO basis

Mn-setup:
  name: Manganese
  id: 0d715a8018be061a6e9ea6f2d364ac92
  Z: 25.0
  valence: 15
  core: 10
  charge: 0.0
  Hubbard U: 3.000000 eV (l=2, scale=True)
  file: /home/modules/software/GPAW-setups/0.9.20000/Mn.LDA.gz
  compensation charges: gauss, rc=0.38, lmax=2
  cutoffs: 2.14(filt), 0.86(core),
  valence states:
                energy  radius
    3s(2.00)   -85.387   1.275
    4s(2.00)    -5.282   1.275
    3p(6.00)   -54.493   1.281
    4p(0.00)    -1.471   1.281
    3d(5.00)    -7.009   1.138
    *d          20.203   1.138

  Using partial waves for Mn as LCAO basis

P-setup:
  name: Phosphorus
  id: a5561c299094968922a179ab894d2e2d
  Z: 15.0
  valence: 5
  core: 10
  charge: 0.0
  file: /home/modules/software/GPAW-setups/0.9.20000/P.LDA.gz
  compensation charges: gauss, rc=0.30, lmax=2
  cutoffs: 1.69(filt), 1.81(core),
  valence states:
                energy  radius
    3s(2.00)   -14.015   0.953
    3p(3.00)    -5.596   0.953
    *s          13.197   0.953
    *p          21.615   0.953
    *d           0.000   0.953

  Using partial waves for P as LCAO basis

Li-setup:
  name: Lithium
  id: b73562207f97a71b6967473b66fe8b65
  Z: 3.0
  valence: 1
  core: 2
  charge: 0.0
  file: /home/modules/software/GPAW-setups/0.9.20000/Li.LDA.gz
  compensation charges: gauss, rc=0.33, lmax=2
  cutoffs: 1.91(filt), 2.55(core),
  valence states:
                energy  radius
    2s(1.00)    -2.874   1.058
    2p(0.00)    -1.126   1.058
    *s          24.338   1.058

  Using partial waves for Li as LCAO basis

Reference energy: -196157.275402

Spin-polarized calculation.
Magnetic moment: 0.000000

Convergence criteria:
  Maximum total energy change: 0.0005 eV / electron
  Maximum integral of absolute density change: 0.0001 electrons
  Maximum integral of absolute eigenstate change: 4e-08 eV^2
  Maximum change in atomic force: 1e-06 eV / Ang
  Maximum number of iterations: 333

Symmetries present (total): 1

  ( 1  0  0)
  ( 0  1  0)
  ( 0  0  1)

144 k-points: 6 x 6 x 4 Monkhorst-Pack grid
144 k-points in the irreducible part of the Brillouin zone
       k-points in crystal coordinates                weights
   0:    -0.41666667   -0.41666667   -0.37500000          1/144
   1:    -0.41666667   -0.41666667   -0.12500000          1/144
   2:    -0.41666667   -0.41666667    0.12500000          1/144
   3:    -0.41666667   -0.41666667    0.37500000          1/144
   4:    -0.41666667   -0.25000000   -0.37500000          1/144
   5:    -0.41666667   -0.25000000   -0.12500000          1/144
   6:    -0.41666667   -0.25000000    0.12500000          1/144
   7:    -0.41666667   -0.25000000    0.37500000          1/144
   8:    -0.41666667   -0.08333333   -0.37500000          1/144
   9:    -0.41666667   -0.08333333   -0.12500000          1/144
          ...
 143:     0.41666667    0.41666667    0.37500000          1/144

Wave functions: Plane wave expansion
  Cutoff energy: 600.000 eV
  Number of coefficients (min, max): 9238, 9284
  Pulay-stress correction: 0.000000 eV/Ang^3 (de/decut=0.000000)
  Using FFTW library
  ScaLapack parameters: grid=1x1, blocksize=None
  Wavefunction extrapolation:
    Improved wavefunction reuse through dual PAW basis 

  Fermi-Dirac: width=0.0010 eV

Eigensolver
   Davidson(niter=2, smin=None, normalize=True) 

Densities:
  Coarse grid: 60*35*27 grid
  Fine grid: 120*70*54 grid
  Total Charge: 0.000000 

Density mixing:
  Method: difference
  Backend: pulay
  Linear mixing parameter: 0.05
  Mixing with 5 old densities
  Damping of long wave oscillations: 50 

Hamiltonian:
  XC and Coulomb potentials evaluated on a 120*70*54 grid
  Using the LDA Exchange-Correlation functional
 

Memory estimate:
  Process memory now: 12715.77 MiB
  Calculator: 326.59 MiB
    Density: 9.67 MiB
      Arrays: 3.79 MiB
      Localized functions: 4.32 MiB
      Mixer: 1.56 MiB
    Hamiltonian: 2.94 MiB
      Arrays: 2.82 MiB
      XC: 0.00 MiB
      Poisson: 0.00 MiB
      vbar: 0.12 MiB
    Wavefunctions: 313.97 MiB
      Arrays psit_nG: 285.59 MiB
      Eigensolver: 18.49 MiB
      Projections: 2.71 MiB
      Projectors: 4.46 MiB
      PW-descriptor: 2.72 MiB

Total number of cores used: 64
Parallelization over k-points: 16
Domain decomposition: 2 x 2 x 1

Number of atoms: 28
Number of atomic orbitals: 148
Number of bands in calculation: 112
Number of valence electrons: 180
Bands to converge: occupied

... initialized

Initializing position-dependent things.

Density initialized from atomic densities
Creating initial wave functions:
  112 bands from LCAO basis set

                                           
                                           
                                           
                                           
                                           
               O     O  P  O               
            PO           OMn     O         
                  O          MO            
            O        Li O                  
             Mn  On          OP            
         O         Li O                    
         Li     O P         O              
       Li                                  
                                           
                                           
                                           
                                           

Positions:
   0 O     -1.263197   -2.497779   -1.098475    ( 0.0000,  0.0000,  0.0000)
   1 O     -3.070823    2.922496    1.209491    ( 0.0000,  0.0000,  0.0000)
   2 O      1.985541    0.474863    1.428016    ( 0.0000,  0.0000,  0.0000)
   3 O      3.793120   -0.050100   -0.879950    ( 0.0000,  0.0000,  0.0000)
   4 O      1.985518    2.922485    1.428149    ( 0.0000,  0.0000,  0.0000)
   5 O      3.793144   -2.497790   -0.879818    ( 0.0000,  0.0000,  0.0000)
   6 O     -1.263220   -0.050157   -1.098342    ( 0.0000,  0.0000,  0.0000)
   7 O     -3.070798    0.474805    1.209623    ( 0.0000,  0.0000,  0.0000)
   8 O     -4.167835   -1.273920   -0.862116    ( 0.0000,  0.0000,  0.0000)
   9 O     -0.166037    1.698602    1.445528    ( 0.0000,  0.0000,  0.0000)
  10 O      4.890156    1.698625    1.191790    ( 0.0000,  0.0000,  0.0000)
  11 O      0.888358   -1.273896   -1.115855    ( 0.0000,  0.0000,  0.0000)
  12 Mn    -2.445557   -1.274211    0.312921    ( 0.0000,  0.0000,  1.0000)
  13 Mn    -1.888303    1.698892   -1.994948    ( 0.0000,  0.0000, -1.0000)
  14 Mn     3.167879    1.698917    0.016752    ( 0.0000,  0.0000, -1.0000)
  15 Mn     2.610624   -1.274187    2.334621    ( 0.0000,  0.0000,  1.0000)
  16 P     -0.529549   -1.273917   -1.724376    ( 0.0000,  0.0000,  0.0000)
  17 P     -3.804359    1.698599    0.583463    ( 0.0000,  0.0000,  0.0000)
  18 P      1.251870    1.698623    2.054050    ( 0.0000,  0.0000,  0.0000)
  19 P      4.526680   -1.273894   -0.253789    ( 0.0000,  0.0000,  0.0000)
  20 O     -0.544227   -1.273926    1.365380    ( 0.0000,  0.0000,  0.0000)
  21 O     -3.789411    1.698610   -0.942222    ( 0.0000,  0.0000,  0.0000)
  22 O      1.266548    1.698631   -1.035707    ( 0.0000,  0.0000,  0.0000)
  23 O      4.511733   -1.273905    1.271895    ( 0.0000,  0.0000,  0.0000)
  24 Li    -4.695087   -2.760584   -2.142877    ( 0.0000,  0.0000,  0.0000)
  25 Li     0.361147   -2.760561    0.164836    ( 0.0000,  0.0000,  0.0000)
  26 Li    -4.695074    0.212330   -2.142877    ( 0.0000,  0.0000,  0.0000)
  27 Li     0.361161    0.212353    0.164837    ( 0.0000,  0.0000,  0.0000)

Unit cell:
           periodic     x           y           z      points  spacing
  1. axis:    yes   10.112485    0.000045   -0.000035    60     0.1685
  2. axis:    yes    0.000026    5.945827    0.000001    35     0.1699
  3. axis:    yes   -0.000016    0.000000    4.615463    27     0.1709

  Lengths:  10.112485   5.945827   4.615463
  Angles:   89.999989  90.000396  89.999490

Effective grid spacing dv^(1/3) = 0.1698

                     log10-error:           total        iterations:
           time      wfs    density  force  energy       poisson  magmom
iter:   1  01:39:02                       -221.376085             +0.0000
iter:   2  01:39:22  -0.61  -0.93         -234.829226             +0.0000
iter:   3  01:39:42  -0.37  -0.97         -225.910800             -0.0000
iter:   4  01:40:02  -1.39  -1.29         -225.761329             +0.0000
iter:   5  01:40:22  -1.27  -1.39         -227.323310             +0.0000
iter:   6  01:40:42  -1.47  -1.46         -225.737477             +0.0000
iter:   7  01:41:02  -2.47  -2.04         -225.724284             +0.0000
iter:   8  01:41:21  -2.12  -1.99         -225.601738             +0.0000
iter:   9  01:41:41  -2.45  -2.07         -225.431873             +0.0000
iter:  10  01:42:01  -3.31  -2.55         -225.422095             +0.0000
iter:  11  01:42:21  -3.68  -2.81         -225.412070             +0.0000
iter:  12  01:42:41  -4.13  -3.03         -225.410822             +0.0000
iter:  13  01:43:01  -5.10  -3.29         -225.410678             -0.0000
iter:  14  01:43:21  -5.36  -3.32         -225.410520             +0.0000
iter:  15  01:43:41  -6.06  -3.43         -225.410514             +0.0000
iter:  16  01:44:01  -5.31  -3.47         -225.410794             -0.0000
iter:  17  01:44:20  -5.78  -3.59         -225.410719             -0.0000
iter:  18  01:44:40  -5.37  -3.73         -225.410460             -0.0000
iter:  19  01:45:00  -6.02  -4.00         -225.410466             -0.0000
iter:  20  01:45:20  -6.98  -4.29         -225.410457             +0.0000
iter:  21  01:45:45  -7.55  -4.35         -225.410464             -0.0000
iter:  22  01:46:05  -7.26  -4.45         -225.410467             -0.0000
iter:  23  01:46:29  -8.39  -4.44    -2.17-225.410467             -0.0000
iter:  24  01:46:54  -8.17  -4.46    -2.92-225.410466             -0.0000
iter:  25  01:47:14  -7.20  -4.63         -225.410463             -0.0000
iter:  26  01:47:38  -8.15  -4.96    -2.47-225.410463             -0.0000
iter:  27  01:48:03  -8.20  -5.19    -2.89-225.410463             -0.0000
iter:  28  01:48:28  -8.40  -5.12    -2.87-225.410463             -0.0000
iter:  29  01:48:52  -9.71  -5.72    -3.89-225.410463             -0.0000
iter:  30  01:49:17  -9.13  -5.81    -3.72-225.410463             -0.0000
iter:  31  01:49:42  -9.71  -5.75    -3.47-225.410463             -0.0000
iter:  32  01:50:06  -9.89  -6.12    -4.09-225.410463             -0.0000
iter:  33  01:50:31 -11.12  -6.19    -4.44-225.410463             -0.0000
iter:  34  01:50:55 -10.87  -6.23    -4.30-225.410463             -0.0000
iter:  35  01:51:20 -12.02  -6.26    -4.47-225.410463             -0.0000
iter:  36  01:51:44 -10.56  -6.35    -3.97-225.410463             -0.0000
iter:  37  01:52:09 -11.31  -6.81    -5.05-225.410463             -0.0000
iter:  38  01:52:33 -12.33  -6.87    -5.01-225.410463             -0.0000
iter:  39  01:52:58 -12.14  -6.92    -4.78-225.410463             -0.0000
iter:  40  01:53:23 -12.95  -7.35    -5.73-225.410463             -0.0000
iter:  41  01:53:47 -13.11  -7.36    -5.34-225.410463             -0.0000
iter:  42  01:54:12 -13.63  -7.41    -5.30-225.410463             -0.0000
iter:  43  01:54:36 -12.77  -7.49    -5.30-225.410463             -0.0000
iter:  44  01:55:01 -13.24  -7.55    -5.47-225.410463             -0.0000
iter:  45  01:55:25 -13.46  -8.02    -5.67-225.410463             -0.0000
iter:  46  01:55:50 -14.27  -8.01    -5.93-225.410463             -0.0000
iter:  47  01:56:15 -14.98  -8.13    -6.47-225.410463             -0.0000

Converged after 47 iterations.

Dipole moment: (19.053161, -1.426228, -4.170624) |e|*Ang

Total magnetic moment: (0.000000, 0.000000, -0.000000)
Local magnetic moments:
   0 O  ( 0.000000,  0.000000,  0.000690)
   1 O  ( 0.000000,  0.000000, -0.000676)
   2 O  ( 0.000000,  0.000000, -0.000781)
   3 O  ( 0.000000,  0.000000,  0.000961)
   4 O  ( 0.000000,  0.000000, -0.000785)
   5 O  ( 0.000000,  0.000000,  0.000965)
   6 O  ( 0.000000,  0.000000,  0.000685)
   7 O  ( 0.000000,  0.000000, -0.000672)
   8 O  ( 0.000000,  0.000000,  0.022375)
   9 O  ( 0.000000,  0.000000, -0.022424)
  10 O  ( 0.000000,  0.000000, -0.022353)
  11 O  ( 0.000000,  0.000000,  0.022499)
  12 Mn ( 0.000000,  0.000000,  4.575082)
  13 Mn ( 0.000000,  0.000000, -4.575035)
  14 Mn ( 0.000000,  0.000000, -4.574999)
  15 Mn ( 0.000000,  0.000000,  4.574958)
  16 P  ( 0.000000,  0.000000,  0.000913)
  17 P  ( 0.000000,  0.000000, -0.000817)
  18 P  ( 0.000000,  0.000000, -0.000960)
  19 P  ( 0.000000,  0.000000,  0.000829)
  20 O  ( 0.000000,  0.000000,  0.020704)
  21 O  ( 0.000000,  0.000000, -0.020696)
  22 O  ( 0.000000,  0.000000, -0.020749)
  23 O  ( 0.000000,  0.000000,  0.020546)
  24 Li ( 0.000000,  0.000000,  0.000003)
  25 Li ( 0.000000,  0.000000,  0.000003)
  26 Li ( 0.000000,  0.000000,  0.000003)
  27 Li ( 0.000000,  0.000000,  0.000003)

Energy contributions relative to reference atoms: (reference = -196157.275402)

Kinetic:       +296.902311
Potential:     -256.431115
External:        +0.000000
XC:            -267.662213
Entropy (-ST):   -0.000000
Local:           +1.780556
--------------------------
Free energy:   -225.410463
Extrapolated:  -225.410463

Spin contamination: 9.696948 electrons
Showing only first 2 kpts
                      Up                     Down
 Kpt  Band  Eigenvalues  Occupancy  Eigenvalues  Occupancy
  0    88      5.10979    0.00694      5.10866    0.00694
  0    89      5.16061    0.00694      5.16032    0.00694
  0    90      9.65209    0.00000      9.65301    0.00000
  0    91      9.67059    0.00000      9.67998    0.00000

  1    88      5.12190    0.00694      5.12035    0.00694
  1    89      5.17117    0.00694      5.16993    0.00694
  1    90      9.53476    0.00000      9.53415    0.00000
  1    91      9.54452    0.00000      9.54984    0.00000


Fermi level: 6.36990

Gap: 3.796 eV
Transition (v -> c):
  (s=0, k=71, n=89, [-0.08, 0.42, 0.38]) -> (s=0, k=58, n=90, [-0.08, -0.08, 0.12])
Writing to born-0.01-15z+.gpw (mode='all')

Timing:                              incl.     excl.
-----------------------------------------------------------
Hamiltonian:                         0.225     0.002   0.0% |
 Atomic:                             0.061     0.061   0.0% |
  XC Correction:                     0.000     0.000   0.0% |
 Calculate atomic Hamiltonians:      0.075     0.075   0.0% |
 Communicate:                        0.001     0.001   0.0% |
 Initialize Hamiltonian:             0.000     0.000   0.0% |
 Poisson:                            0.001     0.001   0.0% |
 XC 3D grid:                         0.084     0.084   0.0% |
LCAO initialization:                67.873     0.645   0.0% |
 LCAO eigensolver:                  19.158     0.002   0.0% |
  Calculate projections:             0.029     0.029   0.0% |
  DenseAtomicCorrection:             0.045     0.045   0.0% |
  Distribute overlap matrix:         0.009     0.009   0.0% |
  Orbital Layouts:                   0.432     0.432   0.0% |
  Potential matrix:                 18.542    18.542   0.6% |
  Sum over cells:                    0.099     0.099   0.0% |
 LCAO to grid:                      46.726    46.726   1.5% ||
 Set positions (LCAO WFS):           1.343     0.189   0.0% |
  Basic WFS set positions:           0.001     0.001   0.0% |
  Basis functions set positions:     0.000     0.000   0.0% |
  P tci:                             0.518     0.518   0.0% |
  ST tci:                            0.380     0.380   0.0% |
  mktci:                             0.254     0.254   0.0% |
PWDescriptor:                        0.023     0.023   0.0% |
SCF-cycle:                        1055.238     2.292   0.1% |
 Davidson:                         887.799   272.316   8.9% |---|
  Apply H:                          61.216    59.570   2.0% ||
   HMM T:                            1.646     1.646   0.1% |
  Subspace diag:                   128.778     0.135   0.0% |
   calc_h_matrix:                   82.752    21.479   0.7% |
    Apply H:                        61.274    59.598   2.0% ||
     HMM T:                          1.676     1.676   0.1% |
   diagonalize:                      6.418     6.418   0.2% |
   rotate_psi:                      39.473    39.473   1.3% ||
  calc. matrices:                  265.801   145.850   4.8% |-|
   Apply H:                        119.951   116.916   3.8% |-|
    HMM T:                           3.035     3.035   0.1% |
  diagonalize:                      74.281    74.281   2.4% ||
  rotate_psi:                       85.406    85.406   2.8% ||
 Density:                           35.296     0.001   0.0% |
  Atomic density matrices:           0.763     0.763   0.0% |
  Mix:                               4.943     4.943   0.2% |
  Multipole moments:                 0.017     0.017   0.0% |
  Pseudo density:                   29.572    29.571   1.0% |
   Symmetrize density:               0.001     0.001   0.0% |
 Forces:                           117.607   117.607   3.9% |-|
 Hamiltonian:                       10.154     0.100   0.0% |
  Atomic:                            2.548     2.548   0.1% |
   XC Correction:                    0.000     0.000   0.0% |
  Calculate atomic Hamiltonians:     3.475     3.475   0.1% |
  Communicate:                       0.067     0.067   0.0% |
  Poisson:                           0.030     0.030   0.0% |
  XC 3D grid:                        3.934     3.934   0.1% |
 Orthonormalize:                     2.090     0.003   0.0% |
  calc_s_matrix:                     0.245     0.245   0.0% |
  inverse-cholesky:                  0.073     0.073   0.0% |
  projections:                       1.333     1.333   0.0% |
  rotate_psi_s:                      0.437     0.437   0.0% |
Set symmetry:                        0.000     0.000   0.0% |
Other:                            1926.147  1926.147  63.2% |------------------------|
-----------------------------------------------------------
Total:                                      3049.506 100.0%

Memory usage: 12.42 GiB
Date: Wed Mar 24 02:28:20 2021
