
  ___ ___ ___ _ _ _  
 |   |   |_  | | | | 
 | | | | | . | | | | 
 |__ |  _|___|_____|  20.10.1b1
 |___|_|             

User:   madkru@i018.nifl.fysik.dtu.dk
Date:   Tue Mar 23 22:37:02 2021
Arch:   x86_64
Pid:    26873
Python: 3.7.4
gpaw:   /home/niflheim/madkru/venv_folder/gpaw/gpaw (d0d1ca1c71)
_gpaw:  /home/niflheim/madkru/venv_folder/gpaw/build/lib.linux-x86_64-ivybridge-3.7/
        _gpaw.cpython-37m-x86_64-linux-gnu.so (4fd39e8b1e)
ase:    /home/niflheim/madkru/venv_folder/ase/ase (version 3.21.0b1-7e6c206a91)
numpy:  /home/niflheim/madkru/venv_folder/lib/python3.7/site-packages/numpy (version 1.19.4)
scipy:  /home/niflheim/madkru/venv_folder/lib/python3.7/site-packages/scipy (version 1.5.4)
libxc:  4.3.4
units:  Angstrom and eV
cores: 64
OMP_NUM_THREADS: 1

Input parameters:
  convergence: {bands: occupied,
                density: 0.0001,
                eigenstates: 4e-08,
                energy: 0.0005,
                forces: 1e-06}
  kpts: [6 6 4]
  mode: {ecut: 600.0,
         gammacentered: False,
         name: pw}
  occupations: {fixmagmom: False,
                name: fermi-dirac,
                width: 0.001}
  setups: {Mn: :d,3.0}
  symmetry: {point_group: False,
             time_reversal: False}

System changes: positions, numbers, cell, pbc, initial_charges, initial_magmoms 

Initialize ...

O-setup:
  name: Oxygen
  id: 9b9d51c344dea68c822856295a461509
  Z: 8.0
  valence: 6
  core: 2
  charge: 0.0
  file: /home/modules/software/GPAW-setups/0.9.20000/O.LDA.gz
  compensation charges: gauss, rc=0.21, lmax=2
  cutoffs: 1.17(filt), 0.83(core),
  valence states:
                energy  radius
    2s(2.00)   -23.752   0.688
    2p(4.00)    -9.195   0.598
    *s           3.459   0.688
    *p          18.016   0.598
    *d           0.000   0.619

  Using partial waves for O as LCAO basis

Mn-setup:
  name: Manganese
  id: 0d715a8018be061a6e9ea6f2d364ac92
  Z: 25.0
  valence: 15
  core: 10
  charge: 0.0
  Hubbard U: 3.000000 eV (l=2, scale=True)
  file: /home/modules/software/GPAW-setups/0.9.20000/Mn.LDA.gz
  compensation charges: gauss, rc=0.38, lmax=2
  cutoffs: 2.14(filt), 0.86(core),
  valence states:
                energy  radius
    3s(2.00)   -85.387   1.275
    4s(2.00)    -5.282   1.275
    3p(6.00)   -54.493   1.281
    4p(0.00)    -1.471   1.281
    3d(5.00)    -7.009   1.138
    *d          20.203   1.138

  Using partial waves for Mn as LCAO basis

P-setup:
  name: Phosphorus
  id: a5561c299094968922a179ab894d2e2d
  Z: 15.0
  valence: 5
  core: 10
  charge: 0.0
  file: /home/modules/software/GPAW-setups/0.9.20000/P.LDA.gz
  compensation charges: gauss, rc=0.30, lmax=2
  cutoffs: 1.69(filt), 1.81(core),
  valence states:
                energy  radius
    3s(2.00)   -14.015   0.953
    3p(3.00)    -5.596   0.953
    *s          13.197   0.953
    *p          21.615   0.953
    *d           0.000   0.953

  Using partial waves for P as LCAO basis

Li-setup:
  name: Lithium
  id: b73562207f97a71b6967473b66fe8b65
  Z: 3.0
  valence: 1
  core: 2
  charge: 0.0
  file: /home/modules/software/GPAW-setups/0.9.20000/Li.LDA.gz
  compensation charges: gauss, rc=0.33, lmax=2
  cutoffs: 1.91(filt), 2.55(core),
  valence states:
                energy  radius
    2s(1.00)    -2.874   1.058
    2p(0.00)    -1.126   1.058
    *s          24.338   1.058

  Using partial waves for Li as LCAO basis

Reference energy: -196157.275402

Spin-polarized calculation.
Magnetic moment: 0.000000

Convergence criteria:
  Maximum total energy change: 0.0005 eV / electron
  Maximum integral of absolute density change: 0.0001 electrons
  Maximum integral of absolute eigenstate change: 4e-08 eV^2
  Maximum change in atomic force: 1e-06 eV / Ang
  Maximum number of iterations: 333

Symmetries present (total): 1

  ( 1  0  0)
  ( 0  1  0)
  ( 0  0  1)

144 k-points: 6 x 6 x 4 Monkhorst-Pack grid
144 k-points in the irreducible part of the Brillouin zone
       k-points in crystal coordinates                weights
   0:    -0.41666667   -0.41666667   -0.37500000          1/144
   1:    -0.41666667   -0.41666667   -0.12500000          1/144
   2:    -0.41666667   -0.41666667    0.12500000          1/144
   3:    -0.41666667   -0.41666667    0.37500000          1/144
   4:    -0.41666667   -0.25000000   -0.37500000          1/144
   5:    -0.41666667   -0.25000000   -0.12500000          1/144
   6:    -0.41666667   -0.25000000    0.12500000          1/144
   7:    -0.41666667   -0.25000000    0.37500000          1/144
   8:    -0.41666667   -0.08333333   -0.37500000          1/144
   9:    -0.41666667   -0.08333333   -0.12500000          1/144
          ...
 143:     0.41666667    0.41666667    0.37500000          1/144

Wave functions: Plane wave expansion
  Cutoff energy: 600.000 eV
  Number of coefficients (min, max): 9238, 9284
  Pulay-stress correction: 0.000000 eV/Ang^3 (de/decut=0.000000)
  Using FFTW library
  ScaLapack parameters: grid=1x1, blocksize=None
  Wavefunction extrapolation:
    Improved wavefunction reuse through dual PAW basis 

  Fermi-Dirac: width=0.0010 eV

Eigensolver
   Davidson(niter=2, smin=None, normalize=True) 

Densities:
  Coarse grid: 60*35*27 grid
  Fine grid: 120*70*54 grid
  Total Charge: 0.000000 

Density mixing:
  Method: difference
  Backend: pulay
  Linear mixing parameter: 0.05
  Mixing with 5 old densities
  Damping of long wave oscillations: 50 

Hamiltonian:
  XC and Coulomb potentials evaluated on a 120*70*54 grid
  Using the LDA Exchange-Correlation functional
 

Memory estimate:
  Process memory now: 12574.93 MiB
  Calculator: 326.59 MiB
    Density: 9.67 MiB
      Arrays: 3.79 MiB
      Localized functions: 4.32 MiB
      Mixer: 1.56 MiB
    Hamiltonian: 2.94 MiB
      Arrays: 2.82 MiB
      XC: 0.00 MiB
      Poisson: 0.00 MiB
      vbar: 0.12 MiB
    Wavefunctions: 313.97 MiB
      Arrays psit_nG: 285.59 MiB
      Eigensolver: 18.49 MiB
      Projections: 2.71 MiB
      Projectors: 4.46 MiB
      PW-descriptor: 2.72 MiB

Total number of cores used: 64
Parallelization over k-points: 16
Domain decomposition: 2 x 2 x 1

Number of atoms: 28
Number of atomic orbitals: 148
Number of bands in calculation: 112
Number of valence electrons: 180
Bands to converge: occupied

... initialized

Initializing position-dependent things.

Density initialized from atomic densities
Creating initial wave functions:
  112 bands from LCAO basis set

                                           
                                           
                                           
                                           
                                           
               O     O  P  O               
            PO           OMn     O         
                  O          MO            
            O        Li O                  
             Mn  On          OP            
         O         Li O                    
         Li     O P         O              
       Li                                  
                                           
                                           
                                           
                                           

Positions:
   0 O     -1.263197   -2.497779   -1.098475    ( 0.0000,  0.0000,  0.0000)
   1 O     -3.070823    2.922496    1.209491    ( 0.0000,  0.0000,  0.0000)
   2 O      1.985541    0.474863    1.428016    ( 0.0000,  0.0000,  0.0000)
   3 O      3.793120   -0.050100   -0.879950    ( 0.0000,  0.0000,  0.0000)
   4 O      1.985518    2.922485    1.428149    ( 0.0000,  0.0000,  0.0000)
   5 O      3.793144   -2.497790   -0.879818    ( 0.0000,  0.0000,  0.0000)
   6 O     -1.263220   -0.050157   -1.098342    ( 0.0000,  0.0000,  0.0000)
   7 O     -3.070798    0.474805    1.209623    ( 0.0000,  0.0000,  0.0000)
   8 O     -4.167835   -1.273920   -0.862116    ( 0.0000,  0.0000,  0.0000)
   9 O     -0.166037    1.698602    1.445528    ( 0.0000,  0.0000,  0.0000)
  10 O      4.890156    1.698625    1.191790    ( 0.0000,  0.0000,  0.0000)
  11 O      0.888358   -1.273896   -1.115855    ( 0.0000,  0.0000,  0.0000)
  12 Mn    -2.445557   -1.274211    0.312921    ( 0.0000,  0.0000,  1.0000)
  13 Mn    -1.888303    1.698892   -1.994948    ( 0.0000,  0.0000, -1.0000)
  14 Mn     3.167879    1.698917    0.026752    ( 0.0000,  0.0000, -1.0000)
  15 Mn     2.610624   -1.274187    2.324621    ( 0.0000,  0.0000,  1.0000)
  16 P     -0.529549   -1.273917   -1.724376    ( 0.0000,  0.0000,  0.0000)
  17 P     -3.804359    1.698599    0.583463    ( 0.0000,  0.0000,  0.0000)
  18 P      1.251870    1.698623    2.054050    ( 0.0000,  0.0000,  0.0000)
  19 P      4.526680   -1.273894   -0.253789    ( 0.0000,  0.0000,  0.0000)
  20 O     -0.544227   -1.273926    1.365380    ( 0.0000,  0.0000,  0.0000)
  21 O     -3.789411    1.698610   -0.942222    ( 0.0000,  0.0000,  0.0000)
  22 O      1.266548    1.698631   -1.035707    ( 0.0000,  0.0000,  0.0000)
  23 O      4.511733   -1.273905    1.271895    ( 0.0000,  0.0000,  0.0000)
  24 Li    -4.695087   -2.760584   -2.142877    ( 0.0000,  0.0000,  0.0000)
  25 Li     0.361147   -2.760561    0.164836    ( 0.0000,  0.0000,  0.0000)
  26 Li    -4.695074    0.212330   -2.142877    ( 0.0000,  0.0000,  0.0000)
  27 Li     0.361161    0.212353    0.164837    ( 0.0000,  0.0000,  0.0000)

Unit cell:
           periodic     x           y           z      points  spacing
  1. axis:    yes   10.112485    0.000045   -0.000035    60     0.1685
  2. axis:    yes    0.000026    5.945827    0.000001    35     0.1699
  3. axis:    yes   -0.000016    0.000000    4.615463    27     0.1709

  Lengths:  10.112485   5.945827   4.615463
  Angles:   89.999989  90.000396  89.999490

Effective grid spacing dv^(1/3) = 0.1698

                     log10-error:           total        iterations:
           time      wfs    density  force  energy       poisson  magmom
iter:   1  22:38:34                       -221.376097             +0.0000
iter:   2  22:38:54  -0.61  -0.93         -234.829253             +0.0000
iter:   3  22:39:14  -0.37  -0.97         -225.910802             -0.0000
iter:   4  22:39:34  -1.39  -1.29         -225.761352             +0.0000
iter:   5  22:39:54  -1.27  -1.39         -227.323175             +0.0000
iter:   6  22:40:14  -1.47  -1.46         -225.737493             +0.0000
iter:   7  22:40:33  -2.47  -2.04         -225.724301             +0.0000
iter:   8  22:40:53  -2.12  -1.99         -225.601970             +0.0000
iter:   9  22:41:13  -2.45  -2.07         -225.431873             +0.0000
iter:  10  22:41:33  -3.31  -2.55         -225.422093             +0.0000
iter:  11  22:41:52  -3.68  -2.81         -225.412081             +0.0000
iter:  12  22:42:12  -4.13  -3.03         -225.410832             +0.0000
iter:  13  22:42:32  -5.10  -3.29         -225.410688             -0.0000
iter:  14  22:42:52  -5.36  -3.32         -225.410530             +0.0000
iter:  15  22:43:12  -6.06  -3.43         -225.410524             +0.0000
iter:  16  22:43:32  -5.31  -3.47         -225.410802             -0.0000
iter:  17  22:43:51  -5.78  -3.59         -225.410729             +0.0000
iter:  18  22:44:11  -5.37  -3.73         -225.410471             -0.0000
iter:  19  22:44:31  -6.01  -3.99         -225.410476             +0.0000
iter:  20  22:44:51  -6.97  -4.29         -225.410466             +0.0000
iter:  21  22:45:15  -7.52  -4.35         -225.410474             +0.0000
iter:  22  22:45:35  -7.23  -4.46         -225.410477             +0.0000
iter:  23  22:46:00  -8.25  -4.44    -2.15-225.410478             +0.0000
iter:  24  22:46:24  -8.81  -4.46    -3.44-225.410477             +0.0000
iter:  25  22:46:44  -7.06  -4.52         -225.410473             +0.0000
iter:  26  22:47:08  -8.02  -4.78    -2.43-225.410473             +0.0000
iter:  27  22:47:33  -8.46  -4.96    -3.17-225.410473             +0.0000
iter:  28  22:47:57  -9.01  -5.00    -3.07-225.410473             +0.0000
iter:  29  22:48:22  -8.17  -5.05    -2.88-225.410473             +0.0000
iter:  30  22:48:46  -8.80  -5.24    -3.15-225.410473             +0.0000
iter:  31  22:49:11  -9.43  -5.49    -3.73-225.410473             +0.0000
iter:  32  22:49:35  -9.79  -5.56    -3.34-225.410473             +0.0000
iter:  33  22:50:00  -9.46  -5.59    -3.96-225.410473             +0.0000
iter:  34  22:50:24 -10.29  -5.70    -3.91-225.410473             +0.0000
iter:  35  22:50:49  -9.09  -5.73    -3.66-225.410473             +0.0000
iter:  36  22:51:13  -9.55  -5.81    -3.69-225.410473             +0.0000
iter:  37  22:51:38 -10.53  -6.36    -4.92-225.410473             +0.0000
iter:  38  22:52:02 -11.74  -6.33    -5.51-225.410473             +0.0000
iter:  39  22:52:27 -11.42  -6.35    -4.37-225.410473             +0.0000
iter:  40  22:52:51 -10.82  -6.52    -4.27-225.410473             +0.0000
iter:  41  22:53:16 -12.31  -6.51    -5.51-225.410473             +0.0000
iter:  42  22:53:40 -10.69  -6.52    -4.36-225.410473             +0.0000
iter:  43  22:54:05 -11.10  -6.53    -4.37-225.410473             +0.0000
iter:  44  22:54:29 -12.41  -6.63    -5.20-225.410473             +0.0000
iter:  45  22:54:54 -11.60  -6.72    -4.83-225.410473             +0.0000
iter:  46  22:55:18 -11.47  -6.77    -4.42-225.410473             +0.0000
iter:  47  22:55:43 -11.88  -6.90    -4.83-225.410473             +0.0000
iter:  48  22:56:07 -12.48  -7.31    -4.97-225.410473             +0.0000
iter:  49  22:56:32 -12.89  -7.32    -5.23-225.410473             +0.0000
iter:  50  22:56:56 -13.92  -7.47    -5.44-225.410473             +0.0000
iter:  51  22:57:21 -14.34  -7.64    -5.90-225.410473             -0.0000
iter:  52  22:57:45 -13.84  -7.68    -5.60-225.410473             -0.0000
iter:  53  22:58:10 -14.42  -7.73    -5.69-225.410473             +0.0000
iter:  54  22:58:34 -14.65  -7.78    -5.81-225.410473             +0.0000
iter:  55  22:58:59 -14.26  -7.86    -5.97-225.410473             -0.0000
iter:  56  22:59:23 -15.17  -8.03    -6.25-225.410473             +0.0000

Converged after 56 iterations.

Dipole moment: (19.053151, -1.427673, -4.380540) |e|*Ang

Total magnetic moment: (0.000000, 0.000000, 0.000000)
Local magnetic moments:
   0 O  ( 0.000000,  0.000000,  0.000667)
   1 O  ( 0.000000,  0.000000, -0.000698)
   2 O  ( 0.000000,  0.000000, -0.000953)
   3 O  ( 0.000000,  0.000000,  0.000790)
   4 O  ( 0.000000,  0.000000, -0.000957)
   5 O  ( 0.000000,  0.000000,  0.000794)
   6 O  ( 0.000000,  0.000000,  0.000663)
   7 O  ( 0.000000,  0.000000, -0.000694)
   8 O  ( 0.000000,  0.000000,  0.022424)
   9 O  ( 0.000000,  0.000000, -0.022375)
  10 O  ( 0.000000,  0.000000, -0.022499)
  11 O  ( 0.000000,  0.000000,  0.022353)
  12 Mn ( 0.000000,  0.000000,  4.575065)
  13 Mn ( 0.000000,  0.000000, -4.575052)
  14 Mn ( 0.000000,  0.000000, -4.574989)
  15 Mn ( 0.000000,  0.000000,  4.574968)
  16 P  ( 0.000000,  0.000000,  0.000812)
  17 P  ( 0.000000,  0.000000, -0.000918)
  18 P  ( 0.000000,  0.000000, -0.000824)
  19 P  ( 0.000000,  0.000000,  0.000965)
  20 O  ( 0.000000,  0.000000,  0.020697)
  21 O  ( 0.000000,  0.000000, -0.020704)
  22 O  ( 0.000000,  0.000000, -0.020546)
  23 O  ( 0.000000,  0.000000,  0.020749)
  24 Li ( 0.000000,  0.000000, -0.000003)
  25 Li ( 0.000000,  0.000000, -0.000003)
  26 Li ( 0.000000,  0.000000, -0.000003)
  27 Li ( 0.000000,  0.000000, -0.000003)

Energy contributions relative to reference atoms: (reference = -196157.275402)

Kinetic:       +296.902365
Potential:     -256.431172
External:        +0.000000
XC:            -267.662221
Entropy (-ST):   -0.000000
Local:           +1.780556
--------------------------
Free energy:   -225.410473
Extrapolated:  -225.410473

Spin contamination: 9.696947 electrons
Showing only first 2 kpts
                      Up                     Down
 Kpt  Band  Eigenvalues  Occupancy  Eigenvalues  Occupancy
  0    88      5.10866    0.00694      5.10920    0.00694
  0    89      5.16030    0.00694      5.16133    0.00694
  0    90      9.65866    0.00000      9.65198    0.00000
  0    91      9.67364    0.00000      9.67068    0.00000

  1    88      5.12048    0.00694      5.12129    0.00694
  1    89      5.16978    0.00694      5.17187    0.00694
  1    90      9.53833    0.00000      9.53421    0.00000
  1    91      9.54551    0.00000      9.54506    0.00000


Fermi level: 6.36992

Gap: 3.796 eV
Transition (v -> c):
  (s=1, k=68, n=89, [-0.08, 0.42, -0.38]) -> (s=1, k=57, n=90, [-0.08, -0.08, -0.12])
Writing to born-0.01-14z+.gpw (mode='all')

Timing:                              incl.     excl.
-----------------------------------------------------------
Hamiltonian:                         0.223     0.002   0.0% |
 Atomic:                             0.061     0.061   0.0% |
  XC Correction:                     0.000     0.000   0.0% |
 Calculate atomic Hamiltonians:      0.074     0.074   0.0% |
 Communicate:                        0.001     0.001   0.0% |
 Initialize Hamiltonian:             0.000     0.000   0.0% |
 Poisson:                            0.001     0.001   0.0% |
 XC 3D grid:                         0.084     0.084   0.0% |
LCAO initialization:                70.326     0.649   0.0% |
 LCAO eigensolver:                  19.154     0.002   0.0% |
  Calculate projections:             0.029     0.029   0.0% |
  DenseAtomicCorrection:             0.045     0.045   0.0% |
  Distribute overlap matrix:         0.185     0.185   0.0% |
  Orbital Layouts:                   0.431     0.431   0.0% |
  Potential matrix:                 18.376    18.376   0.6% |
  Sum over cells:                    0.085     0.085   0.0% |
 LCAO to grid:                      49.197    49.197   1.5% ||
 Set positions (LCAO WFS):           1.326     0.188   0.0% |
  Basic WFS set positions:           0.001     0.001   0.0% |
  Basis functions set positions:     0.000     0.000   0.0% |
  P tci:                             0.513     0.513   0.0% |
  ST tci:                            0.376     0.376   0.0% |
  mktci:                             0.247     0.247   0.0% |
PWDescriptor:                        0.023     0.023   0.0% |
SCF-cycle:                        1269.892     1.662   0.1% |
 Davidson:                        1051.912   324.344   9.9% |---|
  Apply H:                          72.010    69.877   2.1% ||
   HMM T:                            2.134     2.134   0.1% |
  Subspace diag:                   152.363     0.158   0.0% |
   calc_h_matrix:                   97.467    25.627   0.8% |
    Apply H:                        71.840    69.690   2.1% ||
     HMM T:                          2.151     2.151   0.1% |
   diagonalize:                      7.649     7.649   0.2% |
   rotate_psi:                      47.090    47.090   1.4% ||
  calc. matrices:                  313.596   173.369   5.3% |-|
   Apply H:                        140.227   136.302   4.2% |-|
    HMM T:                           3.924     3.924   0.1% |
  diagonalize:                      87.811    87.811   2.7% ||
  rotate_psi:                      101.787   101.787   3.1% ||
 Density:                           42.022     0.001   0.0% |
  Atomic density matrices:           0.878     0.878   0.0% |
  Mix:                               5.832     5.832   0.2% |
  Multipole moments:                 0.020     0.020   0.0% |
  Pseudo density:                   35.291    35.289   1.1% |
   Symmetrize density:               0.002     0.002   0.0% |
 Forces:                           160.012   160.012   4.9% |-|
 Hamiltonian:                       12.196     0.114   0.0% |
  Atomic:                            3.106     3.106   0.1% |
   XC Correction:                    0.000     0.000   0.0% |
  Calculate atomic Hamiltonians:     4.159     4.159   0.1% |
  Communicate:                       0.110     0.110   0.0% |
  Poisson:                           0.033     0.033   0.0% |
  XC 3D grid:                        4.673     4.673   0.1% |
 Orthonormalize:                     2.089     0.003   0.0% |
  calc_s_matrix:                     0.245     0.245   0.0% |
  inverse-cholesky:                  0.073     0.073   0.0% |
  projections:                       1.333     1.333   0.0% |
  rotate_psi_s:                      0.435     0.435   0.0% |
Set symmetry:                        0.000     0.000   0.0% |
Other:                            1927.664  1927.664  59.0% |-----------------------|
-----------------------------------------------------------
Total:                                      3268.128 100.0%

Memory usage: 12.29 GiB
Date: Tue Mar 23 23:31:30 2021
