
  ___ ___ ___ _ _ _  
 |   |   |_  | | | | 
 | | | | | . | | | | 
 |__ |  _|___|_____|  20.10.1b1
 |___|_|             

User:   madkru@g035.nifl.fysik.dtu.dk
Date:   Sun Mar 21 18:53:51 2021
Arch:   x86_64
Pid:    44316
Python: 3.7.4
gpaw:   /home/niflheim/madkru/venv_folder/gpaw/gpaw (d0d1ca1c71)
_gpaw:  /home/niflheim/madkru/venv_folder/gpaw/build/lib.linux-x86_64-sandybridge-3.7/
        _gpaw.cpython-37m-x86_64-linux-gnu.so (4fd39e8b1e)
ase:    /home/niflheim/madkru/venv_folder/ase/ase (version 3.21.0b1-7e6c206a91)
numpy:  /home/niflheim/madkru/venv_folder/lib/python3.7/site-packages/numpy (version 1.19.4)
scipy:  /home/niflheim/madkru/venv_folder/lib/python3.7/site-packages/scipy (version 1.5.4)
libxc:  4.3.4
units:  Angstrom and eV
cores: 32
OMP_NUM_THREADS: 1

Input parameters:
  convergence: {bands: occupied,
                density: 0.0001,
                eigenstates: 4e-08,
                energy: 0.0005,
                forces: 1e-06}
  kpts: [6 6 4]
  mode: {ecut: 600.0,
         gammacentered: False,
         name: pw}
  occupations: {fixmagmom: False,
                name: fermi-dirac,
                width: 0.001}
  setups: {Mn: :d,3.0}
  symmetry: {point_group: False,
             time_reversal: False}

System changes: positions, numbers, cell, pbc, initial_charges, initial_magmoms 

Initialize ...

O-setup:
  name: Oxygen
  id: 9b9d51c344dea68c822856295a461509
  Z: 8.0
  valence: 6
  core: 2
  charge: 0.0
  file: /home/modules/software/GPAW-setups/0.9.20000/O.LDA.gz
  compensation charges: gauss, rc=0.21, lmax=2
  cutoffs: 1.17(filt), 0.83(core),
  valence states:
                energy  radius
    2s(2.00)   -23.752   0.688
    2p(4.00)    -9.195   0.598
    *s           3.459   0.688
    *p          18.016   0.598
    *d           0.000   0.619

  Using partial waves for O as LCAO basis

Mn-setup:
  name: Manganese
  id: 0d715a8018be061a6e9ea6f2d364ac92
  Z: 25.0
  valence: 15
  core: 10
  charge: 0.0
  Hubbard U: 3.000000 eV (l=2, scale=True)
  file: /home/modules/software/GPAW-setups/0.9.20000/Mn.LDA.gz
  compensation charges: gauss, rc=0.38, lmax=2
  cutoffs: 2.14(filt), 0.86(core),
  valence states:
                energy  radius
    3s(2.00)   -85.387   1.275
    4s(2.00)    -5.282   1.275
    3p(6.00)   -54.493   1.281
    4p(0.00)    -1.471   1.281
    3d(5.00)    -7.009   1.138
    *d          20.203   1.138

  Using partial waves for Mn as LCAO basis

P-setup:
  name: Phosphorus
  id: a5561c299094968922a179ab894d2e2d
  Z: 15.0
  valence: 5
  core: 10
  charge: 0.0
  file: /home/modules/software/GPAW-setups/0.9.20000/P.LDA.gz
  compensation charges: gauss, rc=0.30, lmax=2
  cutoffs: 1.69(filt), 1.81(core),
  valence states:
                energy  radius
    3s(2.00)   -14.015   0.953
    3p(3.00)    -5.596   0.953
    *s          13.197   0.953
    *p          21.615   0.953
    *d           0.000   0.953

  Using partial waves for P as LCAO basis

Li-setup:
  name: Lithium
  id: b73562207f97a71b6967473b66fe8b65
  Z: 3.0
  valence: 1
  core: 2
  charge: 0.0
  file: /home/modules/software/GPAW-setups/0.9.20000/Li.LDA.gz
  compensation charges: gauss, rc=0.33, lmax=2
  cutoffs: 1.91(filt), 2.55(core),
  valence states:
                energy  radius
    2s(1.00)    -2.874   1.058
    2p(0.00)    -1.126   1.058
    *s          24.338   1.058

  Using partial waves for Li as LCAO basis

Reference energy: -196157.275402

Spin-polarized calculation.
Magnetic moment: 0.000000

Convergence criteria:
  Maximum total energy change: 0.0005 eV / electron
  Maximum integral of absolute density change: 0.0001 electrons
  Maximum integral of absolute eigenstate change: 4e-08 eV^2
  Maximum change in atomic force: 1e-06 eV / Ang
  Maximum number of iterations: 333

Symmetries present (total): 1

  ( 1  0  0)
  ( 0  1  0)
  ( 0  0  1)

144 k-points: 6 x 6 x 4 Monkhorst-Pack grid
144 k-points in the irreducible part of the Brillouin zone
       k-points in crystal coordinates                weights
   0:    -0.41666667   -0.41666667   -0.37500000          1/144
   1:    -0.41666667   -0.41666667   -0.12500000          1/144
   2:    -0.41666667   -0.41666667    0.12500000          1/144
   3:    -0.41666667   -0.41666667    0.37500000          1/144
   4:    -0.41666667   -0.25000000   -0.37500000          1/144
   5:    -0.41666667   -0.25000000   -0.12500000          1/144
   6:    -0.41666667   -0.25000000    0.12500000          1/144
   7:    -0.41666667   -0.25000000    0.37500000          1/144
   8:    -0.41666667   -0.08333333   -0.37500000          1/144
   9:    -0.41666667   -0.08333333   -0.12500000          1/144
          ...
 143:     0.41666667    0.41666667    0.37500000          1/144

Wave functions: Plane wave expansion
  Cutoff energy: 600.000 eV
  Number of coefficients (min, max): 9238, 9284
  Pulay-stress correction: 0.000000 eV/Ang^3 (de/decut=0.000000)
  Using FFTW library
  ScaLapack parameters: grid=1x1, blocksize=None
  Wavefunction extrapolation:
    Improved wavefunction reuse through dual PAW basis 

  Fermi-Dirac: width=0.0010 eV

Eigensolver
   Davidson(niter=2, smin=None, normalize=True) 

Densities:
  Coarse grid: 60*35*27 grid
  Fine grid: 120*70*54 grid
  Total Charge: 0.000000 

Density mixing:
  Method: difference
  Backend: pulay
  Linear mixing parameter: 0.05
  Mixing with 5 old densities
  Damping of long wave oscillations: 50 

Hamiltonian:
  XC and Coulomb potentials evaluated on a 120*70*54 grid
  Using the LDA Exchange-Correlation functional
 

Memory estimate:
  Process memory now: 12600.19 MiB
  Calculator: 346.50 MiB
    Density: 19.24 MiB
      Arrays: 7.57 MiB
      Localized functions: 8.64 MiB
      Mixer: 3.03 MiB
    Hamiltonian: 5.87 MiB
      Arrays: 5.62 MiB
      XC: 0.00 MiB
      Poisson: 0.00 MiB
      vbar: 0.25 MiB
    Wavefunctions: 321.38 MiB
      Arrays psit_nG: 285.59 MiB
      Eigensolver: 18.49 MiB
      Projections: 5.41 MiB
      Projectors: 8.92 MiB
      PW-descriptor: 2.96 MiB

Total number of cores used: 32
Parallelization over k-points: 16
Domain decomposition: 2 x 1 x 1

Number of atoms: 28
Number of atomic orbitals: 148
Number of bands in calculation: 112
Number of valence electrons: 180
Bands to converge: occupied

... initialized

Initializing position-dependent things.

Density initialized from atomic densities
Creating initial wave functions:
  112 bands from LCAO basis set

                                           
                                           
                                           
                                           
                                           
               O     O  P  O               
            PO           OMn     O         
                  O          MO            
            O        Li O                  
             Mn  On          OP            
         O         Li O                    
         Li     O P         O              
       Li                                  
                                           
                                           
                                           
                                           

Positions:
   0 O     -1.263197   -2.497779   -1.098475    ( 0.0000,  0.0000,  0.0000)
   1 O     -3.070823    2.922496    1.209491    ( 0.0000,  0.0000,  0.0000)
   2 O      1.985541    0.474863    1.428016    ( 0.0000,  0.0000,  0.0000)
   3 O      3.803120   -0.050100   -0.879950    ( 0.0000,  0.0000,  0.0000)
   4 O      1.985518    2.922485    1.428149    ( 0.0000,  0.0000,  0.0000)
   5 O      3.793144   -2.497790   -0.879818    ( 0.0000,  0.0000,  0.0000)
   6 O     -1.263220   -0.050157   -1.098342    ( 0.0000,  0.0000,  0.0000)
   7 O     -3.070798    0.474805    1.209623    ( 0.0000,  0.0000,  0.0000)
   8 O     -4.167835   -1.273920   -0.862116    ( 0.0000,  0.0000,  0.0000)
   9 O     -0.166037    1.698602    1.445528    ( 0.0000,  0.0000,  0.0000)
  10 O      4.890156    1.698625    1.191790    ( 0.0000,  0.0000,  0.0000)
  11 O      0.888358   -1.273896   -1.115855    ( 0.0000,  0.0000,  0.0000)
  12 Mn    -2.445557   -1.274211    0.312921    ( 0.0000,  0.0000,  1.0000)
  13 Mn    -1.888303    1.698892   -1.994948    ( 0.0000,  0.0000, -1.0000)
  14 Mn     3.167879    1.698917    0.016752    ( 0.0000,  0.0000, -1.0000)
  15 Mn     2.610624   -1.274187    2.324621    ( 0.0000,  0.0000,  1.0000)
  16 P     -0.529549   -1.273917   -1.724376    ( 0.0000,  0.0000,  0.0000)
  17 P     -3.804359    1.698599    0.583463    ( 0.0000,  0.0000,  0.0000)
  18 P      1.251870    1.698623    2.054050    ( 0.0000,  0.0000,  0.0000)
  19 P      4.526680   -1.273894   -0.253789    ( 0.0000,  0.0000,  0.0000)
  20 O     -0.544227   -1.273926    1.365380    ( 0.0000,  0.0000,  0.0000)
  21 O     -3.789411    1.698610   -0.942222    ( 0.0000,  0.0000,  0.0000)
  22 O      1.266548    1.698631   -1.035707    ( 0.0000,  0.0000,  0.0000)
  23 O      4.511733   -1.273905    1.271895    ( 0.0000,  0.0000,  0.0000)
  24 Li    -4.695087   -2.760584   -2.142877    ( 0.0000,  0.0000,  0.0000)
  25 Li     0.361147   -2.760561    0.164836    ( 0.0000,  0.0000,  0.0000)
  26 Li    -4.695074    0.212330   -2.142877    ( 0.0000,  0.0000,  0.0000)
  27 Li     0.361161    0.212353    0.164837    ( 0.0000,  0.0000,  0.0000)

Unit cell:
           periodic     x           y           z      points  spacing
  1. axis:    yes   10.112485    0.000045   -0.000035    60     0.1685
  2. axis:    yes    0.000026    5.945827    0.000001    35     0.1699
  3. axis:    yes   -0.000016    0.000000    4.615463    27     0.1709

  Lengths:  10.112485   5.945827   4.615463
  Angles:   89.999989  90.000396  89.999490

Effective grid spacing dv^(1/3) = 0.1698

                     log10-error:           total        iterations:
           time      wfs    density  force  energy       poisson  magmom
iter:   1  18:57:03                       -221.380900             +0.0000
iter:   2  18:57:40  -0.61  -0.93         -234.855925             +0.0000
iter:   3  18:58:17  -0.37  -0.97         -225.917506             -0.0000
iter:   4  18:58:55  -1.39  -1.29         -225.761147             +0.0000
iter:   5  18:59:32  -1.26  -1.39         -227.339965             +0.0000
iter:   6  19:00:10  -1.46  -1.46         -225.737076             +0.0000
iter:   7  19:00:47  -2.47  -2.04         -225.725392             +0.0000
iter:   8  19:01:24  -2.16  -1.99         -225.580574             +0.0000
iter:   9  19:02:02  -2.48  -2.10         -225.432428             +0.0000
iter:  10  19:02:39  -3.30  -2.54         -225.421950             +0.0000
iter:  11  19:03:17  -3.62  -2.81         -225.411444             +0.0000
iter:  12  19:03:54  -4.17  -3.06         -225.410443             +0.0000
iter:  13  19:04:32  -5.15  -3.30         -225.410351             -0.0000
iter:  14  19:05:09  -5.38  -3.32         -225.410165             -0.0000
iter:  15  19:05:46  -6.01  -3.43         -225.410178             -0.0000
iter:  16  19:06:24  -5.24  -3.47         -225.410517             +0.0000
iter:  17  19:07:01  -5.83  -3.57         -225.410405             -0.0000
iter:  18  19:07:38  -5.36  -3.70         -225.410138             +0.0000
iter:  19  19:08:16  -6.41  -4.04         -225.410141             +0.0000
iter:  20  19:08:53  -7.03  -4.29         -225.410142             +0.0000
iter:  21  19:09:30  -7.00  -4.33         -225.410131             +0.0000
iter:  22  19:10:17  -7.49  -4.34         -225.410127             +0.0000
iter:  23  19:11:04  -7.73  -4.38    -2.68-225.410126             +0.0000
iter:  24  19:11:51  -8.16  -4.47    -2.99-225.410125             +0.0000
iter:  25  19:12:38  -8.14  -4.52    -2.68-225.410125             +0.0000
iter:  26  19:13:25  -8.22  -4.67    -2.56-225.410125             +0.0000
iter:  27  19:14:12  -8.20  -4.86    -3.18-225.410124             +0.0000
iter:  28  19:14:58  -8.55  -4.93    -3.15-225.410124             +0.0000
iter:  29  19:15:45  -8.14  -5.01    -2.85-225.410124             +0.0000
iter:  30  19:16:32  -8.61  -5.12    -3.07-225.410124             +0.0000
iter:  31  19:17:19  -9.42  -5.20    -3.91-225.410124             +0.0000
iter:  32  19:18:06  -9.07  -5.24    -3.64-225.410124             +0.0000
iter:  33  19:18:53  -9.03  -5.29    -3.30-225.410124             +0.0000
iter:  34  19:19:40  -9.22  -5.58    -3.35-225.410124             +0.0000
iter:  35  19:20:27  -9.82  -5.77    -3.78-225.410124             +0.0000
iter:  36  19:21:14 -10.27  -5.82    -3.80-225.410124             +0.0000
iter:  37  19:22:01 -10.68  -5.94    -3.94-225.410124             +0.0000
iter:  38  19:22:48 -10.25  -5.99    -3.69-225.410124             +0.0000
iter:  39  19:23:35 -10.71  -6.38    -4.31-225.410124             +0.0000
iter:  40  19:24:22 -11.02  -6.61    -4.53-225.410124             +0.0000
iter:  41  19:25:09 -11.70  -6.75    -4.80-225.410124             +0.0000
iter:  42  19:25:56 -12.78  -7.02    -5.68-225.410124             +0.0000
iter:  43  19:26:43 -12.89  -7.07    -4.83-225.410124             +0.0000
iter:  44  19:27:30 -12.86  -7.32    -5.35-225.410124             +0.0000
iter:  45  19:28:17 -13.32  -7.50    -5.53-225.410124             +0.0000
iter:  46  19:29:04 -13.29  -7.56    -5.79-225.410124             +0.0000
iter:  47  19:29:51 -14.07  -7.61    -6.33-225.410124             +0.0000

Converged after 47 iterations.

Dipole moment: (19.047723, -1.429700, -4.185303) |e|*Ang

Total magnetic moment: (0.000000, 0.000000, 0.000000)
Local magnetic moments:
   0 O  ( 0.000000,  0.000000,  0.000651)
   1 O  ( 0.000000,  0.000000, -0.000682)
   2 O  ( 0.000000,  0.000000, -0.000647)
   3 O  ( 0.000000,  0.000000,  0.000641)
   4 O  ( 0.000000,  0.000000, -0.000627)
   5 O  ( 0.000000,  0.000000,  0.000653)
   6 O  ( 0.000000,  0.000000,  0.000647)
   7 O  ( 0.000000,  0.000000, -0.000680)
   8 O  ( 0.000000,  0.000000,  0.022459)
   9 O  ( 0.000000,  0.000000, -0.022330)
  10 O  ( 0.000000,  0.000000, -0.022387)
  11 O  ( 0.000000,  0.000000,  0.022355)
  12 Mn ( 0.000000,  0.000000,  4.575066)
  13 Mn ( 0.000000,  0.000000, -4.575043)
  14 Mn ( 0.000000,  0.000000, -4.575574)
  15 Mn ( 0.000000,  0.000000,  4.575410)
  16 P  ( 0.000000,  0.000000,  0.000806)
  17 P  ( 0.000000,  0.000000, -0.000808)
  18 P  ( 0.000000,  0.000000, -0.000822)
  19 P  ( 0.000000,  0.000000,  0.000801)
  20 O  ( 0.000000,  0.000000,  0.020680)
  21 O  ( 0.000000,  0.000000, -0.020725)
  22 O  ( 0.000000,  0.000000, -0.020667)
  23 O  ( 0.000000,  0.000000,  0.020725)
  24 Li ( 0.000000,  0.000000,  0.000004)
  25 Li ( 0.000000,  0.000000, -0.000001)
  26 Li ( 0.000000,  0.000000, -0.000005)
  27 Li ( 0.000000,  0.000000,  0.000000)

Energy contributions relative to reference atoms: (reference = -196157.275402)

Kinetic:       +297.101657
Potential:     -256.580590
External:        +0.000000
XC:            -267.711607
Entropy (-ST):   -0.000000
Local:           +1.780416
--------------------------
Free energy:   -225.410124
Extrapolated:  -225.410124

Spin contamination: 9.697750 electrons
Showing only first 2 kpts
                      Up                     Down
 Kpt  Band  Eigenvalues  Occupancy  Eigenvalues  Occupancy
  0    88      5.10706    0.00694      5.10525    0.00694
  0    89      5.16137    0.00694      5.15751    0.00694
  0    90      9.64622    0.00000      9.65195    0.00000
  0    91      9.67151    0.00000      9.66669    0.00000

  1    88      5.11830    0.00694      5.11673    0.00694
  1    89      5.17097    0.00694      5.16689    0.00694
  1    90      9.52776    0.00000      9.53010    0.00000
  1    91      9.54595    0.00000      9.54140    0.00000


Fermi level: 6.36976

Gap: 3.794 eV
Transition (v -> c):
  (s=0, k=95, n=89, [0.08, 0.42, 0.38]) -> (s=1, k=85, n=90, [0.08, 0.08, -0.12])
Writing to born-0.01-3x+.gpw (mode='all')

Timing:                              incl.     excl.
-----------------------------------------------------------
Hamiltonian:                         0.426     0.003   0.0% |
 Atomic:                             0.081     0.081   0.0% |
  XC Correction:                     0.000     0.000   0.0% |
 Calculate atomic Hamiltonians:      0.167     0.167   0.0% |
 Communicate:                        0.002     0.002   0.0% |
 Initialize Hamiltonian:             0.000     0.000   0.0% |
 Poisson:                            0.001     0.001   0.0% |
 XC 3D grid:                         0.171     0.171   0.0% |
LCAO initialization:               148.279     0.676   0.0% |
 LCAO eigensolver:                  39.872     0.002   0.0% |
  Calculate projections:             0.060     0.060   0.0% |
  DenseAtomicCorrection:             0.082     0.082   0.0% |
  Distribute overlap matrix:         0.169     0.169   0.0% |
  Orbital Layouts:                   0.361     0.361   0.0% |
  Potential matrix:                 39.104    39.104   0.8% |
  Sum over cells:                    0.094     0.094   0.0% |
 LCAO to grid:                     105.368   105.368   2.1% ||
 Set positions (LCAO WFS):           2.364     0.369   0.0% |
  Basic WFS set positions:           0.001     0.001   0.0% |
  Basis functions set positions:     0.000     0.000   0.0% |
  P tci:                             1.075     1.075   0.0% |
  ST tci:                            0.704     0.704   0.0% |
  mktci:                             0.214     0.214   0.0% |
PWDescriptor:                        0.025     0.025   0.0% |
SCF-cycle:                        2009.483     4.245   0.1% |
 Davidson:                        1659.173   526.061  10.6% |---|
  Apply H:                         122.277   118.712   2.4% ||
   HMM T:                            3.564     3.564   0.1% |
  Subspace diag:                   248.193     0.147   0.0% |
   calc_h_matrix:                  163.822    42.754   0.9% |
    Apply H:                       121.068   117.588   2.4% ||
     HMM T:                          3.480     3.480   0.1% |
   diagonalize:                      5.722     5.722   0.1% |
   rotate_psi:                      78.503    78.503   1.6% ||
  calc. matrices:                  524.210   286.553   5.8% |-|
   Apply H:                        237.657   231.085   4.6% |-|
    HMM T:                           6.572     6.572   0.1% |
  diagonalize:                      78.280    78.280   1.6% ||
  rotate_psi:                      160.152   160.152   3.2% ||
 Density:                           69.386     0.001   0.0% |
  Atomic density matrices:           1.207     1.207   0.0% |
  Mix:                              10.616    10.616   0.2% |
  Multipole moments:                 0.028     0.028   0.0% |
  Pseudo density:                   57.534    57.533   1.2% |
   Symmetrize density:               0.001     0.001   0.0% |
 Forces:                           253.587   253.587   5.1% |-|
 Hamiltonian:                       19.027     0.110   0.0% |
  Atomic:                            2.726     2.726   0.1% |
   XC Correction:                    0.000     0.000   0.0% |
  Calculate atomic Hamiltonians:     7.834     7.834   0.2% |
  Communicate:                       0.075     0.075   0.0% |
  Poisson:                           0.070     0.070   0.0% |
  XC 3D grid:                        8.214     8.214   0.2% |
 Orthonormalize:                     4.064     0.004   0.0% |
  calc_s_matrix:                     0.484     0.484   0.0% |
  inverse-cholesky:                  0.054     0.054   0.0% |
  projections:                       2.662     2.662   0.1% |
  rotate_psi_s:                      0.860     0.860   0.0% |
Set symmetry:                        0.000     0.000   0.0% |
Other:                            2813.978  2813.978  56.6% |----------------------|
-----------------------------------------------------------
Total:                                      4972.191 100.0%

Memory usage: 12.33 GiB
Date: Sun Mar 21 20:16:43 2021
