
  ___ ___ ___ _ _ _  
 |   |   |_  | | | | 
 | | | | | . | | | | 
 |__ |  _|___|_____|  20.10.1b1
 |___|_|             

User:   madkru@i018.nifl.fysik.dtu.dk
Date:   Tue Mar 23 14:53:25 2021
Arch:   x86_64
Pid:    26873
Python: 3.7.4
gpaw:   /home/niflheim/madkru/venv_folder/gpaw/gpaw (d0d1ca1c71)
_gpaw:  /home/niflheim/madkru/venv_folder/gpaw/build/lib.linux-x86_64-ivybridge-3.7/
        _gpaw.cpython-37m-x86_64-linux-gnu.so (4fd39e8b1e)
ase:    /home/niflheim/madkru/venv_folder/ase/ase (version 3.21.0b1-7e6c206a91)
numpy:  /home/niflheim/madkru/venv_folder/lib/python3.7/site-packages/numpy (version 1.19.4)
scipy:  /home/niflheim/madkru/venv_folder/lib/python3.7/site-packages/scipy (version 1.5.4)
libxc:  4.3.4
units:  Angstrom and eV
cores: 64
OMP_NUM_THREADS: 1

Input parameters:
  convergence: {bands: occupied,
                density: 0.0001,
                eigenstates: 4e-08,
                energy: 0.0005,
                forces: 1e-06}
  kpts: [6 6 4]
  mode: {ecut: 600.0,
         gammacentered: False,
         name: pw}
  occupations: {fixmagmom: False,
                name: fermi-dirac,
                width: 0.001}
  setups: {Mn: :d,3.0}
  symmetry: {point_group: False,
             time_reversal: False}

System changes: positions, numbers, cell, pbc, initial_charges, initial_magmoms 

Initialize ...

O-setup:
  name: Oxygen
  id: 9b9d51c344dea68c822856295a461509
  Z: 8.0
  valence: 6
  core: 2
  charge: 0.0
  file: /home/modules/software/GPAW-setups/0.9.20000/O.LDA.gz
  compensation charges: gauss, rc=0.21, lmax=2
  cutoffs: 1.17(filt), 0.83(core),
  valence states:
                energy  radius
    2s(2.00)   -23.752   0.688
    2p(4.00)    -9.195   0.598
    *s           3.459   0.688
    *p          18.016   0.598
    *d           0.000   0.619

  Using partial waves for O as LCAO basis

Mn-setup:
  name: Manganese
  id: 0d715a8018be061a6e9ea6f2d364ac92
  Z: 25.0
  valence: 15
  core: 10
  charge: 0.0
  Hubbard U: 3.000000 eV (l=2, scale=True)
  file: /home/modules/software/GPAW-setups/0.9.20000/Mn.LDA.gz
  compensation charges: gauss, rc=0.38, lmax=2
  cutoffs: 2.14(filt), 0.86(core),
  valence states:
                energy  radius
    3s(2.00)   -85.387   1.275
    4s(2.00)    -5.282   1.275
    3p(6.00)   -54.493   1.281
    4p(0.00)    -1.471   1.281
    3d(5.00)    -7.009   1.138
    *d          20.203   1.138

  Using partial waves for Mn as LCAO basis

P-setup:
  name: Phosphorus
  id: a5561c299094968922a179ab894d2e2d
  Z: 15.0
  valence: 5
  core: 10
  charge: 0.0
  file: /home/modules/software/GPAW-setups/0.9.20000/P.LDA.gz
  compensation charges: gauss, rc=0.30, lmax=2
  cutoffs: 1.69(filt), 1.81(core),
  valence states:
                energy  radius
    3s(2.00)   -14.015   0.953
    3p(3.00)    -5.596   0.953
    *s          13.197   0.953
    *p          21.615   0.953
    *d           0.000   0.953

  Using partial waves for P as LCAO basis

Li-setup:
  name: Lithium
  id: b73562207f97a71b6967473b66fe8b65
  Z: 3.0
  valence: 1
  core: 2
  charge: 0.0
  file: /home/modules/software/GPAW-setups/0.9.20000/Li.LDA.gz
  compensation charges: gauss, rc=0.33, lmax=2
  cutoffs: 1.91(filt), 2.55(core),
  valence states:
                energy  radius
    2s(1.00)    -2.874   1.058
    2p(0.00)    -1.126   1.058
    *s          24.338   1.058

  Using partial waves for Li as LCAO basis

Reference energy: -196157.275402

Spin-polarized calculation.
Magnetic moment: 0.000000

Convergence criteria:
  Maximum total energy change: 0.0005 eV / electron
  Maximum integral of absolute density change: 0.0001 electrons
  Maximum integral of absolute eigenstate change: 4e-08 eV^2
  Maximum change in atomic force: 1e-06 eV / Ang
  Maximum number of iterations: 333

Symmetries present (total): 1

  ( 1  0  0)
  ( 0  1  0)
  ( 0  0  1)

144 k-points: 6 x 6 x 4 Monkhorst-Pack grid
144 k-points in the irreducible part of the Brillouin zone
       k-points in crystal coordinates                weights
   0:    -0.41666667   -0.41666667   -0.37500000          1/144
   1:    -0.41666667   -0.41666667   -0.12500000          1/144
   2:    -0.41666667   -0.41666667    0.12500000          1/144
   3:    -0.41666667   -0.41666667    0.37500000          1/144
   4:    -0.41666667   -0.25000000   -0.37500000          1/144
   5:    -0.41666667   -0.25000000   -0.12500000          1/144
   6:    -0.41666667   -0.25000000    0.12500000          1/144
   7:    -0.41666667   -0.25000000    0.37500000          1/144
   8:    -0.41666667   -0.08333333   -0.37500000          1/144
   9:    -0.41666667   -0.08333333   -0.12500000          1/144
          ...
 143:     0.41666667    0.41666667    0.37500000          1/144

Wave functions: Plane wave expansion
  Cutoff energy: 600.000 eV
  Number of coefficients (min, max): 9238, 9284
  Pulay-stress correction: 0.000000 eV/Ang^3 (de/decut=0.000000)
  Using FFTW library
  ScaLapack parameters: grid=1x1, blocksize=None
  Wavefunction extrapolation:
    Improved wavefunction reuse through dual PAW basis 

  Fermi-Dirac: width=0.0010 eV

Eigensolver
   Davidson(niter=2, smin=None, normalize=True) 

Densities:
  Coarse grid: 60*35*27 grid
  Fine grid: 120*70*54 grid
  Total Charge: 0.000000 

Density mixing:
  Method: difference
  Backend: pulay
  Linear mixing parameter: 0.05
  Mixing with 5 old densities
  Damping of long wave oscillations: 50 

Hamiltonian:
  XC and Coulomb potentials evaluated on a 120*70*54 grid
  Using the LDA Exchange-Correlation functional
 

Memory estimate:
  Process memory now: 12202.14 MiB
  Calculator: 326.59 MiB
    Density: 9.67 MiB
      Arrays: 3.79 MiB
      Localized functions: 4.32 MiB
      Mixer: 1.56 MiB
    Hamiltonian: 2.94 MiB
      Arrays: 2.82 MiB
      XC: 0.00 MiB
      Poisson: 0.00 MiB
      vbar: 0.12 MiB
    Wavefunctions: 313.97 MiB
      Arrays psit_nG: 285.59 MiB
      Eigensolver: 18.49 MiB
      Projections: 2.71 MiB
      Projectors: 4.46 MiB
      PW-descriptor: 2.72 MiB

Total number of cores used: 64
Parallelization over k-points: 16
Domain decomposition: 2 x 2 x 1

Number of atoms: 28
Number of atomic orbitals: 148
Number of bands in calculation: 112
Number of valence electrons: 180
Bands to converge: occupied

... initialized

Initializing position-dependent things.

Density initialized from atomic densities
Creating initial wave functions:
  112 bands from LCAO basis set

                                           
                                           
                                           
                                           
                                           
               O     O  P  O               
            PO           OMn     O         
                  O          MO            
            O        Li O                  
              Mn On          OP            
         O         Li O                    
         Li     O P         O              
       Li                                  
                                           
                                           
                                           
                                           

Positions:
   0 O     -1.263197   -2.497779   -1.098475    ( 0.0000,  0.0000,  0.0000)
   1 O     -3.070823    2.922496    1.209491    ( 0.0000,  0.0000,  0.0000)
   2 O      1.985541    0.474863    1.428016    ( 0.0000,  0.0000,  0.0000)
   3 O      3.793120   -0.050100   -0.879950    ( 0.0000,  0.0000,  0.0000)
   4 O      1.985518    2.922485    1.428149    ( 0.0000,  0.0000,  0.0000)
   5 O      3.793144   -2.497790   -0.879818    ( 0.0000,  0.0000,  0.0000)
   6 O     -1.263220   -0.050157   -1.098342    ( 0.0000,  0.0000,  0.0000)
   7 O     -3.070798    0.474805    1.209623    ( 0.0000,  0.0000,  0.0000)
   8 O     -4.167835   -1.273920   -0.862116    ( 0.0000,  0.0000,  0.0000)
   9 O     -0.166037    1.698602    1.445528    ( 0.0000,  0.0000,  0.0000)
  10 O      4.890156    1.698625    1.191790    ( 0.0000,  0.0000,  0.0000)
  11 O      0.888358   -1.273896   -1.115855    ( 0.0000,  0.0000,  0.0000)
  12 Mn    -2.435557   -1.274211    0.312921    ( 0.0000,  0.0000,  1.0000)
  13 Mn    -1.888303    1.698892   -1.994948    ( 0.0000,  0.0000, -1.0000)
  14 Mn     3.167879    1.698917    0.016752    ( 0.0000,  0.0000, -1.0000)
  15 Mn     2.610624   -1.274187    2.324621    ( 0.0000,  0.0000,  1.0000)
  16 P     -0.529549   -1.273917   -1.724376    ( 0.0000,  0.0000,  0.0000)
  17 P     -3.804359    1.698599    0.583463    ( 0.0000,  0.0000,  0.0000)
  18 P      1.251870    1.698623    2.054050    ( 0.0000,  0.0000,  0.0000)
  19 P      4.526680   -1.273894   -0.253789    ( 0.0000,  0.0000,  0.0000)
  20 O     -0.544227   -1.273926    1.365380    ( 0.0000,  0.0000,  0.0000)
  21 O     -3.789411    1.698610   -0.942222    ( 0.0000,  0.0000,  0.0000)
  22 O      1.266548    1.698631   -1.035707    ( 0.0000,  0.0000,  0.0000)
  23 O      4.511733   -1.273905    1.271895    ( 0.0000,  0.0000,  0.0000)
  24 Li    -4.695087   -2.760584   -2.142877    ( 0.0000,  0.0000,  0.0000)
  25 Li     0.361147   -2.760561    0.164836    ( 0.0000,  0.0000,  0.0000)
  26 Li    -4.695074    0.212330   -2.142877    ( 0.0000,  0.0000,  0.0000)
  27 Li     0.361161    0.212353    0.164837    ( 0.0000,  0.0000,  0.0000)

Unit cell:
           periodic     x           y           z      points  spacing
  1. axis:    yes   10.112485    0.000045   -0.000035    60     0.1685
  2. axis:    yes    0.000026    5.945827    0.000001    35     0.1699
  3. axis:    yes   -0.000016    0.000000    4.615463    27     0.1709

  Lengths:  10.112485   5.945827   4.615463
  Angles:   89.999989  90.000396  89.999490

Effective grid spacing dv^(1/3) = 0.1698

                     log10-error:           total        iterations:
           time      wfs    density  force  energy       poisson  magmom
iter:   1  14:54:59                       -221.376306             +0.0000
iter:   2  14:55:19  -0.61  -0.93         -234.829099             +0.0000
iter:   3  14:55:38  -0.37  -0.97         -225.909002             -0.0000
iter:   4  14:55:58  -1.39  -1.29         -225.761060             +0.0000
iter:   5  14:56:18  -1.27  -1.39         -227.322870             +0.0000
iter:   6  14:56:38  -1.47  -1.46         -225.737181             +0.0000
iter:   7  14:56:58  -2.47  -2.04         -225.723934             +0.0000
iter:   8  14:57:17  -2.12  -1.99         -225.602378             +0.0000
iter:   9  14:57:37  -2.44  -2.07         -225.430896             +0.0000
iter:  10  14:57:57  -3.32  -2.56         -225.421730             +0.0000
iter:  11  14:58:17  -3.69  -2.82         -225.411898             +0.0000
iter:  12  14:58:37  -4.15  -3.03         -225.410624             +0.0000
iter:  13  14:58:56  -5.09  -3.29         -225.410461             +0.0000
iter:  14  14:59:16  -5.37  -3.32         -225.410315             +0.0000
iter:  15  14:59:36  -6.13  -3.43         -225.410303             +0.0000
iter:  16  14:59:56  -5.42  -3.47         -225.410475             -0.0000
iter:  17  15:00:16  -5.70  -3.62         -225.410437             +0.0000
iter:  18  15:00:36  -5.77  -3.83         -225.410270             -0.0000
iter:  19  15:00:56  -6.23  -3.93         -225.410256             -0.0000
iter:  20  15:01:15  -7.08  -4.04         -225.410255             -0.0000
iter:  21  15:01:35  -6.21  -4.15         -225.410256             -0.0000
iter:  22  15:01:55  -7.27  -4.27         -225.410249             +0.0000
iter:  23  15:02:15  -7.17  -4.29         -225.410248             +0.0000
iter:  24  15:02:35  -7.33  -4.32         -225.410249             +0.0000
iter:  25  15:02:54  -7.10  -4.35         -225.410251             +0.0000
iter:  26  15:03:14  -6.64  -4.44         -225.410252             +0.0000
iter:  27  15:03:34  -7.03  -4.45         -225.410248             +0.0000
iter:  28  15:03:59  -8.06  -4.72         -225.410248             +0.0000
iter:  29  15:04:23  -9.03  -4.76    -3.35-225.410248             +0.0000
iter:  30  15:04:48  -8.03  -4.79    -2.58-225.410248             +0.0000
iter:  31  15:05:12  -8.98  -5.13    -3.05-225.410248             +0.0000
iter:  32  15:05:37  -8.65  -5.16    -3.24-225.410248             -0.0000
iter:  33  15:06:01  -8.39  -5.17    -2.82-225.410248             -0.0000
iter:  34  15:06:26  -8.63  -5.19    -2.87-225.410248             +0.0000
iter:  35  15:06:51  -9.92  -5.36    -4.15-225.410248             -0.0000
iter:  36  15:07:15  -9.08  -5.39    -3.03-225.410248             -0.0000
iter:  37  15:07:40  -9.02  -5.49    -3.15-225.410248             -0.0000
iter:  38  15:08:04  -9.83  -5.78    -4.18-225.410248             -0.0000
iter:  39  15:08:29  -9.99  -5.83    -3.89-225.410248             -0.0000
iter:  40  15:08:53 -10.01  -6.05    -4.20-225.410248             -0.0000
iter:  41  15:09:18 -10.24  -6.10    -3.77-225.410248             -0.0000
iter:  42  15:09:42 -11.48  -6.49    -4.69-225.410248             -0.0000
iter:  43  15:10:06 -11.22  -6.50    -4.39-225.410248             -0.0000
iter:  44  15:10:31 -11.32  -6.53    -4.21-225.410248             -0.0000
iter:  45  15:10:55 -11.64  -6.52    -4.37-225.410248             -0.0000
iter:  46  15:11:20 -12.42  -7.14    -4.97-225.410248             -0.0000
iter:  47  15:11:44 -12.51  -7.19    -5.15-225.410248             -0.0000
iter:  48  15:12:09 -13.67  -7.32    -5.65-225.410248             -0.0000
iter:  49  15:12:33 -13.38  -7.37    -5.25-225.410248             -0.0000
iter:  50  15:12:58 -13.21  -7.45    -5.20-225.410248             -0.0000
iter:  51  15:13:22 -13.11  -7.50    -5.43-225.410248             -0.0000
iter:  52  15:13:47 -14.22  -7.66    -5.74-225.410248             -0.0000
iter:  53  15:14:11 -13.46  -7.73    -5.32-225.410248             -0.0000
iter:  54  15:14:36 -13.60  -7.88    -5.68-225.410248             -0.0000
iter:  55  15:15:00 -14.66  -8.26    -6.22-225.410248             -0.0000

Converged after 55 iterations.

Dipole moment: (19.062899, -1.426693, -4.182900) |e|*Ang

Total magnetic moment: (0.000000, 0.000000, -0.000000)
Local magnetic moments:
   0 O  ( 0.000000,  0.000000,  0.000964)
   1 O  ( 0.000000,  0.000000, -0.000832)
   2 O  ( 0.000000,  0.000000, -0.000643)
   3 O  ( 0.000000,  0.000000,  0.000651)
   4 O  ( 0.000000,  0.000000, -0.000647)
   5 O  ( 0.000000,  0.000000,  0.000655)
   6 O  ( 0.000000,  0.000000,  0.000960)
   7 O  ( 0.000000,  0.000000, -0.000828)
   8 O  ( 0.000000,  0.000000,  0.022042)
   9 O  ( 0.000000,  0.000000, -0.022346)
  10 O  ( 0.000000,  0.000000, -0.022388)
  11 O  ( 0.000000,  0.000000,  0.022325)
  12 Mn ( 0.000000,  0.000000,  4.575255)
  13 Mn ( 0.000000,  0.000000, -4.574966)
  14 Mn ( 0.000000,  0.000000, -4.575065)
  15 Mn ( 0.000000,  0.000000,  4.575020)
  16 P  ( 0.000000,  0.000000,  0.000972)
  17 P  ( 0.000000,  0.000000, -0.000877)
  18 P  ( 0.000000,  0.000000, -0.000809)
  19 P  ( 0.000000,  0.000000,  0.000714)
  20 O  ( 0.000000,  0.000000,  0.020968)
  21 O  ( 0.000000,  0.000000, -0.020747)
  22 O  ( 0.000000,  0.000000, -0.020687)
  23 O  ( 0.000000,  0.000000,  0.020715)
  24 Li ( 0.000000,  0.000000, -0.000014)
  25 Li ( 0.000000,  0.000000, -0.000003)
  26 Li ( 0.000000,  0.000000, -0.000014)
  27 Li ( 0.000000,  0.000000, -0.000003)

Energy contributions relative to reference atoms: (reference = -196157.275402)

Kinetic:       +296.837093
Potential:     -256.374757
External:        +0.000000
XC:            -267.653424
Entropy (-ST):   -0.000000
Local:           +1.780841
--------------------------
Free energy:   -225.410248
Extrapolated:  -225.410248

Spin contamination: 9.696965 electrons
Showing only first 2 kpts
                      Up                     Down
 Kpt  Band  Eigenvalues  Occupancy  Eigenvalues  Occupancy
  0    88      5.10769    0.00694      5.10797    0.00694
  0    89      5.15852    0.00694      5.16062    0.00694
  0    90      9.65309    0.00000      9.65082    0.00000
  0    91      9.66874    0.00000      9.67184    0.00000

  1    88      5.11958    0.00694      5.11973    0.00694
  1    89      5.16779    0.00694      5.16994    0.00694
  1    90      9.53577    0.00000      9.53502    0.00000
  1    91      9.54245    0.00000      9.54608    0.00000


Fermi level: 6.36947

Gap: 3.796 eV
Transition (v -> c):
  (s=1, k=75, n=89, [0.08, -0.42, 0.38]) -> (s=0, k=58, n=90, [-0.08, -0.08, 0.12])
Writing to born-0.01-12x+.gpw (mode='all')

Timing:                              incl.     excl.
-----------------------------------------------------------
Hamiltonian:                         0.218     0.002   0.0% |
 Atomic:                             0.059     0.059   0.0% |
  XC Correction:                     0.000     0.000   0.0% |
 Calculate atomic Hamiltonians:      0.071     0.071   0.0% |
 Communicate:                        0.001     0.001   0.0% |
 Initialize Hamiltonian:             0.000     0.000   0.0% |
 Poisson:                            0.001     0.001   0.0% |
 XC 3D grid:                         0.085     0.085   0.0% |
LCAO initialization:                69.747     0.650   0.0% |
 LCAO eigensolver:                  19.214     0.002   0.0% |
  Calculate projections:             0.029     0.029   0.0% |
  DenseAtomicCorrection:             0.045     0.045   0.0% |
  Distribute overlap matrix:         0.009     0.009   0.0% |
  Orbital Layouts:                   0.433     0.433   0.0% |
  Potential matrix:                 18.604    18.604   0.6% |
  Sum over cells:                    0.093     0.093   0.0% |
 LCAO to grid:                      48.556    48.556   1.7% ||
 Set positions (LCAO WFS):           1.327     0.192   0.0% |
  Basic WFS set positions:           0.001     0.001   0.0% |
  Basis functions set positions:     0.000     0.000   0.0% |
  P tci:                             0.529     0.529   0.0% |
  ST tci:                            0.387     0.387   0.0% |
  mktci:                             0.217     0.217   0.0% |
PWDescriptor:                        0.023     0.023   0.0% |
SCF-cycle:                        1223.992     2.112   0.1% |
 Davidson:                        1034.831   318.837  10.8% |---|
  Apply H:                          70.851    68.840   2.3% ||
   HMM T:                            2.011     2.011   0.1% |
  Subspace diag:                   149.777     0.156   0.0% |
   calc_h_matrix:                   95.991    25.125   0.9% |
    Apply H:                        70.866    68.831   2.3% ||
     HMM T:                          2.035     2.035   0.1% |
   diagonalize:                      7.474     7.474   0.3% |
   rotate_psi:                      46.156    46.156   1.6% ||
  calc. matrices:                  308.803   170.447   5.8% |-|
   Apply H:                        138.356   134.612   4.6% |-|
    HMM T:                           3.744     3.744   0.1% |
  diagonalize:                      86.585    86.585   2.9% ||
  rotate_psi:                       99.978    99.978   3.4% ||
 Density:                           41.224     0.001   0.0% |
  Atomic density matrices:           0.872     0.872   0.0% |
  Mix:                               5.828     5.828   0.2% |
  Multipole moments:                 0.019     0.019   0.0% |
  Pseudo density:                   34.503    34.501   1.2% |
   Symmetrize density:               0.001     0.001   0.0% |
 Forces:                           131.828   131.828   4.5% |-|
 Hamiltonian:                       11.905     0.113   0.0% |
  Atomic:                            3.026     3.025   0.1% |
   XC Correction:                    0.000     0.000   0.0% |
  Calculate atomic Hamiltonians:     4.068     4.068   0.1% |
  Communicate:                       0.064     0.064   0.0% |
  Poisson:                           0.033     0.033   0.0% |
  XC 3D grid:                        4.601     4.601   0.2% |
 Orthonormalize:                     2.091     0.003   0.0% |
  calc_s_matrix:                     0.245     0.245   0.0% |
  inverse-cholesky:                  0.073     0.073   0.0% |
  projections:                       1.336     1.336   0.0% |
  rotate_psi_s:                      0.435     0.435   0.0% |
Set symmetry:                        0.000     0.000   0.0% |
Other:                            1648.089  1648.089  56.0% |---------------------|
-----------------------------------------------------------
Total:                                      2942.069 100.0%

Memory usage: 11.96 GiB
Date: Tue Mar 23 15:42:27 2021
