
  ___ ___ ___ _ _ _  
 |   |   |_  | | | | 
 | | | | | . | | | | 
 |__ |  _|___|_____|  20.10.1b1
 |___|_|             

User:   madkru@g035.nifl.fysik.dtu.dk
Date:   Mon Mar 22 14:36:52 2021
Arch:   x86_64
Pid:    44316
Python: 3.7.4
gpaw:   /home/niflheim/madkru/venv_folder/gpaw/gpaw (d0d1ca1c71)
_gpaw:  /home/niflheim/madkru/venv_folder/gpaw/build/lib.linux-x86_64-sandybridge-3.7/
        _gpaw.cpython-37m-x86_64-linux-gnu.so (4fd39e8b1e)
ase:    /home/niflheim/madkru/venv_folder/ase/ase (version 3.21.0b1-7e6c206a91)
numpy:  /home/niflheim/madkru/venv_folder/lib/python3.7/site-packages/numpy (version 1.19.4)
scipy:  /home/niflheim/madkru/venv_folder/lib/python3.7/site-packages/scipy (version 1.5.4)
libxc:  4.3.4
units:  Angstrom and eV
cores: 32
OMP_NUM_THREADS: 1

Input parameters:
  convergence: {bands: occupied,
                density: 0.0001,
                eigenstates: 4e-08,
                energy: 0.0005,
                forces: 1e-06}
  kpts: [6 6 4]
  mode: {ecut: 600.0,
         gammacentered: False,
         name: pw}
  occupations: {fixmagmom: False,
                name: fermi-dirac,
                width: 0.001}
  setups: {Mn: :d,3.0}
  symmetry: {point_group: False,
             time_reversal: False}

System changes: positions, numbers, cell, pbc, initial_charges, initial_magmoms 

Initialize ...

O-setup:
  name: Oxygen
  id: 9b9d51c344dea68c822856295a461509
  Z: 8.0
  valence: 6
  core: 2
  charge: 0.0
  file: /home/modules/software/GPAW-setups/0.9.20000/O.LDA.gz
  compensation charges: gauss, rc=0.21, lmax=2
  cutoffs: 1.17(filt), 0.83(core),
  valence states:
                energy  radius
    2s(2.00)   -23.752   0.688
    2p(4.00)    -9.195   0.598
    *s           3.459   0.688
    *p          18.016   0.598
    *d           0.000   0.619

  Using partial waves for O as LCAO basis

Mn-setup:
  name: Manganese
  id: 0d715a8018be061a6e9ea6f2d364ac92
  Z: 25.0
  valence: 15
  core: 10
  charge: 0.0
  Hubbard U: 3.000000 eV (l=2, scale=True)
  file: /home/modules/software/GPAW-setups/0.9.20000/Mn.LDA.gz
  compensation charges: gauss, rc=0.38, lmax=2
  cutoffs: 2.14(filt), 0.86(core),
  valence states:
                energy  radius
    3s(2.00)   -85.387   1.275
    4s(2.00)    -5.282   1.275
    3p(6.00)   -54.493   1.281
    4p(0.00)    -1.471   1.281
    3d(5.00)    -7.009   1.138
    *d          20.203   1.138

  Using partial waves for Mn as LCAO basis

P-setup:
  name: Phosphorus
  id: a5561c299094968922a179ab894d2e2d
  Z: 15.0
  valence: 5
  core: 10
  charge: 0.0
  file: /home/modules/software/GPAW-setups/0.9.20000/P.LDA.gz
  compensation charges: gauss, rc=0.30, lmax=2
  cutoffs: 1.69(filt), 1.81(core),
  valence states:
                energy  radius
    3s(2.00)   -14.015   0.953
    3p(3.00)    -5.596   0.953
    *s          13.197   0.953
    *p          21.615   0.953
    *d           0.000   0.953

  Using partial waves for P as LCAO basis

Li-setup:
  name: Lithium
  id: b73562207f97a71b6967473b66fe8b65
  Z: 3.0
  valence: 1
  core: 2
  charge: 0.0
  file: /home/modules/software/GPAW-setups/0.9.20000/Li.LDA.gz
  compensation charges: gauss, rc=0.33, lmax=2
  cutoffs: 1.91(filt), 2.55(core),
  valence states:
                energy  radius
    2s(1.00)    -2.874   1.058
    2p(0.00)    -1.126   1.058
    *s          24.338   1.058

  Using partial waves for Li as LCAO basis

Reference energy: -196157.275402

Spin-polarized calculation.
Magnetic moment: 0.000000

Convergence criteria:
  Maximum total energy change: 0.0005 eV / electron
  Maximum integral of absolute density change: 0.0001 electrons
  Maximum integral of absolute eigenstate change: 4e-08 eV^2
  Maximum change in atomic force: 1e-06 eV / Ang
  Maximum number of iterations: 333

Symmetries present (total): 1

  ( 1  0  0)
  ( 0  1  0)
  ( 0  0  1)

144 k-points: 6 x 6 x 4 Monkhorst-Pack grid
144 k-points in the irreducible part of the Brillouin zone
       k-points in crystal coordinates                weights
   0:    -0.41666667   -0.41666667   -0.37500000          1/144
   1:    -0.41666667   -0.41666667   -0.12500000          1/144
   2:    -0.41666667   -0.41666667    0.12500000          1/144
   3:    -0.41666667   -0.41666667    0.37500000          1/144
   4:    -0.41666667   -0.25000000   -0.37500000          1/144
   5:    -0.41666667   -0.25000000   -0.12500000          1/144
   6:    -0.41666667   -0.25000000    0.12500000          1/144
   7:    -0.41666667   -0.25000000    0.37500000          1/144
   8:    -0.41666667   -0.08333333   -0.37500000          1/144
   9:    -0.41666667   -0.08333333   -0.12500000          1/144
          ...
 143:     0.41666667    0.41666667    0.37500000          1/144

Wave functions: Plane wave expansion
  Cutoff energy: 600.000 eV
  Number of coefficients (min, max): 9238, 9284
  Pulay-stress correction: 0.000000 eV/Ang^3 (de/decut=0.000000)
  Using FFTW library
  ScaLapack parameters: grid=1x1, blocksize=None
  Wavefunction extrapolation:
    Improved wavefunction reuse through dual PAW basis 

  Fermi-Dirac: width=0.0010 eV

Eigensolver
   Davidson(niter=2, smin=None, normalize=True) 

Densities:
  Coarse grid: 60*35*27 grid
  Fine grid: 120*70*54 grid
  Total Charge: 0.000000 

Density mixing:
  Method: difference
  Backend: pulay
  Linear mixing parameter: 0.05
  Mixing with 5 old densities
  Damping of long wave oscillations: 50 

Hamiltonian:
  XC and Coulomb potentials evaluated on a 120*70*54 grid
  Using the LDA Exchange-Correlation functional
 

Memory estimate:
  Process memory now: 13154.08 MiB
  Calculator: 346.50 MiB
    Density: 19.24 MiB
      Arrays: 7.57 MiB
      Localized functions: 8.64 MiB
      Mixer: 3.03 MiB
    Hamiltonian: 5.87 MiB
      Arrays: 5.62 MiB
      XC: 0.00 MiB
      Poisson: 0.00 MiB
      vbar: 0.25 MiB
    Wavefunctions: 321.38 MiB
      Arrays psit_nG: 285.59 MiB
      Eigensolver: 18.49 MiB
      Projections: 5.41 MiB
      Projectors: 8.92 MiB
      PW-descriptor: 2.96 MiB

Total number of cores used: 32
Parallelization over k-points: 16
Domain decomposition: 2 x 1 x 1

Number of atoms: 28
Number of atomic orbitals: 148
Number of bands in calculation: 112
Number of valence electrons: 180
Bands to converge: occupied

... initialized

Initializing position-dependent things.

Density initialized from atomic densities
Creating initial wave functions:
  112 bands from LCAO basis set

                                           
                                           
                                           
                                           
                                           
               O     O  P  O               
            PO           OMn     O         
                  O          MO            
            O        Li O                  
             Mn  On          OP            
         O         Li O                    
         Li     O P         O              
       Li                                  
                                           
                                           
                                           
                                           

Positions:
   0 O     -1.263197   -2.497779   -1.098475    ( 0.0000,  0.0000,  0.0000)
   1 O     -3.070823    2.922496    1.209491    ( 0.0000,  0.0000,  0.0000)
   2 O      1.985541    0.474863    1.428016    ( 0.0000,  0.0000,  0.0000)
   3 O      3.793120   -0.050100   -0.879950    ( 0.0000,  0.0000,  0.0000)
   4 O      1.985518    2.922485    1.428149    ( 0.0000,  0.0000,  0.0000)
   5 O      3.793144   -2.497790   -0.879818    ( 0.0000,  0.0000,  0.0000)
   6 O     -1.263220   -0.050157   -1.098342    ( 0.0000,  0.0000,  0.0000)
   7 O     -3.070798    0.464805    1.209623    ( 0.0000,  0.0000,  0.0000)
   8 O     -4.167835   -1.273920   -0.862116    ( 0.0000,  0.0000,  0.0000)
   9 O     -0.166037    1.698602    1.445528    ( 0.0000,  0.0000,  0.0000)
  10 O      4.890156    1.698625    1.191790    ( 0.0000,  0.0000,  0.0000)
  11 O      0.888358   -1.273896   -1.115855    ( 0.0000,  0.0000,  0.0000)
  12 Mn    -2.445557   -1.274211    0.312921    ( 0.0000,  0.0000,  1.0000)
  13 Mn    -1.888303    1.698892   -1.994948    ( 0.0000,  0.0000, -1.0000)
  14 Mn     3.167879    1.698917    0.016752    ( 0.0000,  0.0000, -1.0000)
  15 Mn     2.610624   -1.274187    2.324621    ( 0.0000,  0.0000,  1.0000)
  16 P     -0.529549   -1.273917   -1.724376    ( 0.0000,  0.0000,  0.0000)
  17 P     -3.804359    1.698599    0.583463    ( 0.0000,  0.0000,  0.0000)
  18 P      1.251870    1.698623    2.054050    ( 0.0000,  0.0000,  0.0000)
  19 P      4.526680   -1.273894   -0.253789    ( 0.0000,  0.0000,  0.0000)
  20 O     -0.544227   -1.273926    1.365380    ( 0.0000,  0.0000,  0.0000)
  21 O     -3.789411    1.698610   -0.942222    ( 0.0000,  0.0000,  0.0000)
  22 O      1.266548    1.698631   -1.035707    ( 0.0000,  0.0000,  0.0000)
  23 O      4.511733   -1.273905    1.271895    ( 0.0000,  0.0000,  0.0000)
  24 Li    -4.695087   -2.760584   -2.142877    ( 0.0000,  0.0000,  0.0000)
  25 Li     0.361147   -2.760561    0.164836    ( 0.0000,  0.0000,  0.0000)
  26 Li    -4.695074    0.212330   -2.142877    ( 0.0000,  0.0000,  0.0000)
  27 Li     0.361161    0.212353    0.164837    ( 0.0000,  0.0000,  0.0000)

Unit cell:
           periodic     x           y           z      points  spacing
  1. axis:    yes   10.112485    0.000045   -0.000035    60     0.1685
  2. axis:    yes    0.000026    5.945827    0.000001    35     0.1699
  3. axis:    yes   -0.000016    0.000000    4.615463    27     0.1709

  Lengths:  10.112485   5.945827   4.615463
  Angles:   89.999989  90.000396  89.999490

Effective grid spacing dv^(1/3) = 0.1698

                     log10-error:           total        iterations:
           time      wfs    density  force  energy       poisson  magmom
iter:   1  14:40:09                       -221.376603             +0.0000
iter:   2  14:40:46  -0.61  -0.93         -234.818007             +0.0000
iter:   3  14:41:24  -0.37  -0.97         -225.905110             -0.0000
iter:   4  14:42:01  -1.39  -1.29         -225.760550             +0.0000
iter:   5  14:42:39  -1.27  -1.39         -227.320093             +0.0000
iter:   6  14:43:16  -1.47  -1.46         -225.735757             +0.0000
iter:   7  14:43:54  -2.48  -2.04         -225.722484             +0.0000
iter:   8  14:44:31  -2.14  -1.99         -225.594359             +0.0000
iter:   9  14:45:09  -2.45  -2.08         -225.430780             +0.0000
iter:  10  14:45:46  -3.32  -2.55         -225.421284             +0.0000
iter:  11  14:46:23  -3.66  -2.81         -225.410745             +0.0000
iter:  12  14:47:01  -4.11  -3.04         -225.409633             +0.0000
iter:  13  14:47:38  -5.08  -3.29         -225.409500             -0.0000
iter:  14  14:48:15  -5.40  -3.32         -225.409331             -0.0000
iter:  15  14:48:53  -6.05  -3.44         -225.409338             -0.0000
iter:  16  14:49:30  -5.33  -3.48         -225.409616             +0.0000
iter:  17  14:50:07  -5.80  -3.60         -225.409526             -0.0000
iter:  18  14:50:45  -5.39  -3.74         -225.409281             +0.0000
iter:  19  14:51:22  -6.02  -4.00         -225.409288             +0.0000
iter:  20  14:51:59  -7.02  -4.25         -225.409281             -0.0000
iter:  21  14:52:46  -7.64  -4.32         -225.409286             +0.0000
iter:  22  14:53:34  -7.43  -4.42    -2.33-225.409287             +0.0000
iter:  23  14:54:21  -7.70  -4.40    -2.88-225.409284             +0.0000
iter:  24  14:55:08  -8.16  -4.44    -2.64-225.409285             +0.0000
iter:  25  14:55:55  -7.62  -4.55    -2.93-225.409284             +0.0000
iter:  26  14:56:42  -8.32  -4.70    -3.24-225.409284             +0.0000
iter:  27  14:57:29  -8.77  -4.78    -3.32-225.409284             +0.0000
iter:  28  14:58:16  -8.22  -4.85    -2.57-225.409284             +0.0000
iter:  29  14:59:03  -8.80  -5.46    -3.75-225.409284             +0.0000
iter:  30  14:59:50  -9.79  -5.76    -4.04-225.409284             +0.0000
iter:  31  15:00:37  -9.82  -5.86    -3.71-225.409284             +0.0000
iter:  32  15:01:24  -9.93  -5.92    -4.06-225.409284             +0.0000
iter:  33  15:02:12 -10.70  -6.04    -4.18-225.409284             +0.0000
iter:  34  15:02:59 -10.64  -6.13    -4.14-225.409284             +0.0000
iter:  35  15:03:46 -10.99  -6.21    -4.18-225.409284             +0.0000
iter:  36  15:04:33 -11.58  -6.23    -4.52-225.409284             +0.0000
iter:  37  15:05:20 -12.03  -6.33    -4.68-225.409284             +0.0000
iter:  38  15:06:07 -11.04  -6.50    -4.27-225.409284             +0.0000
iter:  39  15:06:54 -11.63  -6.74    -5.05-225.409284             +0.0000
iter:  40  15:07:41 -13.27  -6.89    -5.90-225.409284             +0.0000
iter:  41  15:08:28 -11.42  -6.91    -4.66-225.409284             +0.0000
iter:  42  15:09:15 -12.28  -7.07    -5.07-225.409284             +0.0000
iter:  43  15:10:03 -12.76  -7.22    -5.37-225.409284             +0.0000
iter:  44  15:10:50 -13.89  -7.26    -5.53-225.409284             +0.0000
iter:  45  15:11:37 -12.69  -7.35    -5.25-225.409284             +0.0000
iter:  46  15:12:24 -13.71  -7.48    -5.64-225.409284             +0.0000
iter:  47  15:13:11 -13.83  -7.58    -5.89-225.409284             +0.0000
iter:  48  15:13:58 -14.22  -7.60    -5.79-225.409284             +0.0000
iter:  49  15:14:45 -14.08  -7.62    -6.04-225.409284             +0.0000

Converged after 49 iterations.

Dipole moment: (19.051508, -1.588181, -4.183554) |e|*Ang

Total magnetic moment: (0.000000, 0.000000, 0.000000)
Local magnetic moments:
   0 O  ( 0.000000,  0.000000,  0.000516)
   1 O  ( 0.000000,  0.000000, -0.000741)
   2 O  ( 0.000000,  0.000000, -0.000667)
   3 O  ( 0.000000,  0.000000,  0.000659)
   4 O  ( 0.000000,  0.000000, -0.000669)
   5 O  ( 0.000000,  0.000000,  0.000667)
   6 O  ( 0.000000,  0.000000,  0.000703)
   7 O  ( 0.000000,  0.000000, -0.000432)
   8 O  ( 0.000000,  0.000000,  0.022398)
   9 O  ( 0.000000,  0.000000, -0.022371)
  10 O  ( 0.000000,  0.000000, -0.022199)
  11 O  ( 0.000000,  0.000000,  0.022383)
  12 Mn ( 0.000000,  0.000000,  4.574019)
  13 Mn ( 0.000000,  0.000000, -4.575072)
  14 Mn ( 0.000000,  0.000000, -4.575022)
  15 Mn ( 0.000000,  0.000000,  4.575042)
  16 P  ( 0.000000,  0.000000,  0.000827)
  17 P  ( 0.000000,  0.000000, -0.000529)
  18 P  ( 0.000000,  0.000000, -0.000806)
  19 P  ( 0.000000,  0.000000,  0.000830)
  20 O  ( 0.000000,  0.000000,  0.020764)
  21 O  ( 0.000000,  0.000000, -0.020607)
  22 O  ( 0.000000,  0.000000, -0.020724)
  23 O  ( 0.000000,  0.000000,  0.020706)
  24 Li ( 0.000000,  0.000000,  0.000002)
  25 Li ( 0.000000,  0.000000,  0.000001)
  26 Li ( 0.000000,  0.000000,  0.000026)
  27 Li ( 0.000000,  0.000000,  0.000000)

Energy contributions relative to reference atoms: (reference = -196157.275402)

Kinetic:       +296.336619
Potential:     -255.992554
External:        +0.000000
XC:            -267.535055
Entropy (-ST):   -0.000000
Local:           +1.781707
--------------------------
Free energy:   -225.409284
Extrapolated:  -225.409284

Spin contamination: 9.696651 electrons
Showing only first 2 kpts
                      Up                     Down
 Kpt  Band  Eigenvalues  Occupancy  Eigenvalues  Occupancy
  0    88      5.11567    0.00694      5.10564    0.00694
  0    89      5.16935    0.00694      5.15725    0.00694
  0    90      9.64925    0.00000      9.65952    0.00000
  0    91      9.66706    0.00000      9.67457    0.00000

  1    88      5.12751    0.00694      5.11727    0.00694
  1    89      5.17869    0.00694      5.16660    0.00694
  1    90      9.53128    0.00000      9.54191    0.00000
  1    91      9.53818    0.00000      9.54832    0.00000


Fermi level: 6.37074

Gap: 3.785 eV
Transition (v -> c):
  (s=0, k=48, n=89, [-0.08, -0.42, -0.38]) -> (s=0, k=62, n=90, [-0.08, 0.08, 0.12])
Writing to born-0.01-7y-.gpw (mode='all')

Timing:                              incl.     excl.
-----------------------------------------------------------
Hamiltonian:                         0.415     0.002   0.0% |
 Atomic:                             0.058     0.058   0.0% |
  XC Correction:                     0.000     0.000   0.0% |
 Calculate atomic Hamiltonians:      0.167     0.167   0.0% |
 Communicate:                        0.012     0.012   0.0% |
 Initialize Hamiltonian:             0.000     0.000   0.0% |
 Poisson:                            0.001     0.001   0.0% |
 XC 3D grid:                         0.174     0.174   0.0% |
LCAO initialization:               155.235     0.679   0.0% |
 LCAO eigensolver:                  40.063     0.002   0.0% |
  Calculate projections:             0.056     0.056   0.0% |
  DenseAtomicCorrection:             0.082     0.082   0.0% |
  Distribute overlap matrix:         0.007     0.007   0.0% |
  Orbital Layouts:                   0.361     0.361   0.0% |
  Potential matrix:                 39.461    39.461   0.8% |
  Sum over cells:                    0.094     0.094   0.0% |
 LCAO to grid:                     112.112   112.112   2.1% ||
 Set positions (LCAO WFS):           2.380     0.371   0.0% |
  Basic WFS set positions:           0.001     0.001   0.0% |
  Basis functions set positions:     0.000     0.000   0.0% |
  P tci:                             1.082     1.082   0.0% |
  ST tci:                            0.710     0.710   0.0% |
  mktci:                             0.216     0.216   0.0% |
PWDescriptor:                        0.025     0.025   0.0% |
SCF-cycle:                        2115.738     9.556   0.2% |
 Davidson:                        1727.524   549.972  10.5% |---|
  Apply H:                         126.561   122.865   2.3% ||
   HMM T:                            3.697     3.697   0.1% |
  Subspace diag:                   256.963     0.154   0.0% |
   calc_h_matrix:                  169.078    44.477   0.8% |
    Apply H:                       124.600   121.007   2.3% ||
     HMM T:                          3.593     3.593   0.1% |
   diagonalize:                      5.956     5.956   0.1% |
   rotate_psi:                      81.775    81.775   1.6% ||
  calc. matrices:                  545.576   298.177   5.7% |-|
   Apply H:                        247.399   240.406   4.6% |-|
    HMM T:                           6.993     6.993   0.1% |
  diagonalize:                      81.665    81.665   1.6% ||
  rotate_psi:                      166.786   166.786   3.2% ||
 Density:                           72.792     0.001   0.0% |
  Atomic density matrices:           1.300     1.300   0.0% |
  Mix:                              11.040    11.040   0.2% |
  Multipole moments:                 0.029     0.029   0.0% |
  Pseudo density:                   60.422    60.421   1.2% |
   Symmetrize density:               0.001     0.001   0.0% |
 Forces:                           281.970   281.970   5.4% |-|
 Hamiltonian:                       19.836     0.114   0.0% |
  Atomic:                            2.809     2.809   0.1% |
   XC Correction:                    0.000     0.000   0.0% |
  Calculate atomic Hamiltonians:     8.170     8.170   0.2% |
  Communicate:                       0.089     0.089   0.0% |
  Poisson:                           0.080     0.080   0.0% |
  XC 3D grid:                        8.574     8.574   0.2% |
 Orthonormalize:                     4.060     0.004   0.0% |
  calc_s_matrix:                     0.487     0.487   0.0% |
  inverse-cholesky:                  0.055     0.055   0.0% |
  projections:                       2.656     2.656   0.1% |
  rotate_psi_s:                      0.858     0.858   0.0% |
Set symmetry:                        0.000     0.000   0.0% |
Other:                            2971.370  2971.370  56.7% |----------------------|
-----------------------------------------------------------
Total:                                      5242.783 100.0%

Memory usage: 12.87 GiB
Date: Mon Mar 22 16:04:15 2021
