
  ___ ___ ___ _ _ _  
 |   |   |_  | | | | 
 | | | | | . | | | | 
 |__ |  _|___|_____|  20.10.1b1
 |___|_|             

User:   madkru@g035.nifl.fysik.dtu.dk
Date:   Sun Mar 21 07:03:31 2021
Arch:   x86_64
Pid:    44316
Python: 3.7.4
gpaw:   /home/niflheim/madkru/venv_folder/gpaw/gpaw (d0d1ca1c71)
_gpaw:  /home/niflheim/madkru/venv_folder/gpaw/build/lib.linux-x86_64-sandybridge-3.7/
        _gpaw.cpython-37m-x86_64-linux-gnu.so (4fd39e8b1e)
ase:    /home/niflheim/madkru/venv_folder/ase/ase (version 3.21.0b1-7e6c206a91)
numpy:  /home/niflheim/madkru/venv_folder/lib/python3.7/site-packages/numpy (version 1.19.4)
scipy:  /home/niflheim/madkru/venv_folder/lib/python3.7/site-packages/scipy (version 1.5.4)
libxc:  4.3.4
units:  Angstrom and eV
cores: 32
OMP_NUM_THREADS: 1

Input parameters:
  convergence: {bands: occupied,
                density: 0.0001,
                eigenstates: 4e-08,
                energy: 0.0005,
                forces: 1e-06}
  kpts: [6 6 4]
  mode: {ecut: 600.0,
         gammacentered: False,
         name: pw}
  occupations: {fixmagmom: False,
                name: fermi-dirac,
                width: 0.001}
  setups: {Mn: :d,3.0}
  symmetry: {point_group: False,
             time_reversal: False}

System changes: positions, numbers, cell, pbc, initial_charges, initial_magmoms 

Initialize ...

O-setup:
  name: Oxygen
  id: 9b9d51c344dea68c822856295a461509
  Z: 8.0
  valence: 6
  core: 2
  charge: 0.0
  file: /home/modules/software/GPAW-setups/0.9.20000/O.LDA.gz
  compensation charges: gauss, rc=0.21, lmax=2
  cutoffs: 1.17(filt), 0.83(core),
  valence states:
                energy  radius
    2s(2.00)   -23.752   0.688
    2p(4.00)    -9.195   0.598
    *s           3.459   0.688
    *p          18.016   0.598
    *d           0.000   0.619

  Using partial waves for O as LCAO basis

Mn-setup:
  name: Manganese
  id: 0d715a8018be061a6e9ea6f2d364ac92
  Z: 25.0
  valence: 15
  core: 10
  charge: 0.0
  Hubbard U: 3.000000 eV (l=2, scale=True)
  file: /home/modules/software/GPAW-setups/0.9.20000/Mn.LDA.gz
  compensation charges: gauss, rc=0.38, lmax=2
  cutoffs: 2.14(filt), 0.86(core),
  valence states:
                energy  radius
    3s(2.00)   -85.387   1.275
    4s(2.00)    -5.282   1.275
    3p(6.00)   -54.493   1.281
    4p(0.00)    -1.471   1.281
    3d(5.00)    -7.009   1.138
    *d          20.203   1.138

  Using partial waves for Mn as LCAO basis

P-setup:
  name: Phosphorus
  id: a5561c299094968922a179ab894d2e2d
  Z: 15.0
  valence: 5
  core: 10
  charge: 0.0
  file: /home/modules/software/GPAW-setups/0.9.20000/P.LDA.gz
  compensation charges: gauss, rc=0.30, lmax=2
  cutoffs: 1.69(filt), 1.81(core),
  valence states:
                energy  radius
    3s(2.00)   -14.015   0.953
    3p(3.00)    -5.596   0.953
    *s          13.197   0.953
    *p          21.615   0.953
    *d           0.000   0.953

  Using partial waves for P as LCAO basis

Li-setup:
  name: Lithium
  id: b73562207f97a71b6967473b66fe8b65
  Z: 3.0
  valence: 1
  core: 2
  charge: 0.0
  file: /home/modules/software/GPAW-setups/0.9.20000/Li.LDA.gz
  compensation charges: gauss, rc=0.33, lmax=2
  cutoffs: 1.91(filt), 2.55(core),
  valence states:
                energy  radius
    2s(1.00)    -2.874   1.058
    2p(0.00)    -1.126   1.058
    *s          24.338   1.058

  Using partial waves for Li as LCAO basis

Reference energy: -196157.275402

Spin-polarized calculation.
Magnetic moment: 0.000000

Convergence criteria:
  Maximum total energy change: 0.0005 eV / electron
  Maximum integral of absolute density change: 0.0001 electrons
  Maximum integral of absolute eigenstate change: 4e-08 eV^2
  Maximum change in atomic force: 1e-06 eV / Ang
  Maximum number of iterations: 333

Symmetries present (total): 1

  ( 1  0  0)
  ( 0  1  0)
  ( 0  0  1)

144 k-points: 6 x 6 x 4 Monkhorst-Pack grid
144 k-points in the irreducible part of the Brillouin zone
       k-points in crystal coordinates                weights
   0:    -0.41666667   -0.41666667   -0.37500000          1/144
   1:    -0.41666667   -0.41666667   -0.12500000          1/144
   2:    -0.41666667   -0.41666667    0.12500000          1/144
   3:    -0.41666667   -0.41666667    0.37500000          1/144
   4:    -0.41666667   -0.25000000   -0.37500000          1/144
   5:    -0.41666667   -0.25000000   -0.12500000          1/144
   6:    -0.41666667   -0.25000000    0.12500000          1/144
   7:    -0.41666667   -0.25000000    0.37500000          1/144
   8:    -0.41666667   -0.08333333   -0.37500000          1/144
   9:    -0.41666667   -0.08333333   -0.12500000          1/144
          ...
 143:     0.41666667    0.41666667    0.37500000          1/144

Wave functions: Plane wave expansion
  Cutoff energy: 600.000 eV
  Number of coefficients (min, max): 9238, 9284
  Pulay-stress correction: 0.000000 eV/Ang^3 (de/decut=0.000000)
  Using FFTW library
  ScaLapack parameters: grid=1x1, blocksize=None
  Wavefunction extrapolation:
    Improved wavefunction reuse through dual PAW basis 

  Fermi-Dirac: width=0.0010 eV

Eigensolver
   Davidson(niter=2, smin=None, normalize=True) 

Densities:
  Coarse grid: 60*35*27 grid
  Fine grid: 120*70*54 grid
  Total Charge: 0.000000 

Density mixing:
  Method: difference
  Backend: pulay
  Linear mixing parameter: 0.05
  Mixing with 5 old densities
  Damping of long wave oscillations: 50 

Hamiltonian:
  XC and Coulomb potentials evaluated on a 120*70*54 grid
  Using the LDA Exchange-Correlation functional
 

Memory estimate:
  Process memory now: 12249.26 MiB
  Calculator: 346.50 MiB
    Density: 19.24 MiB
      Arrays: 7.57 MiB
      Localized functions: 8.64 MiB
      Mixer: 3.03 MiB
    Hamiltonian: 5.87 MiB
      Arrays: 5.62 MiB
      XC: 0.00 MiB
      Poisson: 0.00 MiB
      vbar: 0.25 MiB
    Wavefunctions: 321.38 MiB
      Arrays psit_nG: 285.59 MiB
      Eigensolver: 18.49 MiB
      Projections: 5.41 MiB
      Projectors: 8.92 MiB
      PW-descriptor: 2.96 MiB

Total number of cores used: 32
Parallelization over k-points: 16
Domain decomposition: 2 x 1 x 1

Number of atoms: 28
Number of atomic orbitals: 148
Number of bands in calculation: 112
Number of valence electrons: 180
Bands to converge: occupied

... initialized

Initializing position-dependent things.

Density initialized from atomic densities
Creating initial wave functions:
  112 bands from LCAO basis set

                                           
                                           
                                           
                                           
                                           
               O     O  P  O               
            PO           OMn     O         
                  O          MO            
            O        Li O                  
             Mn  On          OP            
         O         Li O                    
         Li     O P         O              
       Li                                  
                                           
                                           
                                           
                                           

Positions:
   0 O     -1.263197   -2.497779   -1.108475    ( 0.0000,  0.0000,  0.0000)
   1 O     -3.070823    2.922496    1.209491    ( 0.0000,  0.0000,  0.0000)
   2 O      1.985541    0.474863    1.428016    ( 0.0000,  0.0000,  0.0000)
   3 O      3.793120   -0.050100   -0.879950    ( 0.0000,  0.0000,  0.0000)
   4 O      1.985518    2.922485    1.428149    ( 0.0000,  0.0000,  0.0000)
   5 O      3.793144   -2.497790   -0.879818    ( 0.0000,  0.0000,  0.0000)
   6 O     -1.263220   -0.050157   -1.098342    ( 0.0000,  0.0000,  0.0000)
   7 O     -3.070798    0.474805    1.209623    ( 0.0000,  0.0000,  0.0000)
   8 O     -4.167835   -1.273920   -0.862116    ( 0.0000,  0.0000,  0.0000)
   9 O     -0.166037    1.698602    1.445528    ( 0.0000,  0.0000,  0.0000)
  10 O      4.890156    1.698625    1.191790    ( 0.0000,  0.0000,  0.0000)
  11 O      0.888358   -1.273896   -1.115855    ( 0.0000,  0.0000,  0.0000)
  12 Mn    -2.445557   -1.274211    0.312921    ( 0.0000,  0.0000,  1.0000)
  13 Mn    -1.888303    1.698892   -1.994948    ( 0.0000,  0.0000, -1.0000)
  14 Mn     3.167879    1.698917    0.016752    ( 0.0000,  0.0000, -1.0000)
  15 Mn     2.610624   -1.274187    2.324621    ( 0.0000,  0.0000,  1.0000)
  16 P     -0.529549   -1.273917   -1.724376    ( 0.0000,  0.0000,  0.0000)
  17 P     -3.804359    1.698599    0.583463    ( 0.0000,  0.0000,  0.0000)
  18 P      1.251870    1.698623    2.054050    ( 0.0000,  0.0000,  0.0000)
  19 P      4.526680   -1.273894   -0.253789    ( 0.0000,  0.0000,  0.0000)
  20 O     -0.544227   -1.273926    1.365380    ( 0.0000,  0.0000,  0.0000)
  21 O     -3.789411    1.698610   -0.942222    ( 0.0000,  0.0000,  0.0000)
  22 O      1.266548    1.698631   -1.035707    ( 0.0000,  0.0000,  0.0000)
  23 O      4.511733   -1.273905    1.271895    ( 0.0000,  0.0000,  0.0000)
  24 Li    -4.695087   -2.760584   -2.142877    ( 0.0000,  0.0000,  0.0000)
  25 Li     0.361147   -2.760561    0.164836    ( 0.0000,  0.0000,  0.0000)
  26 Li    -4.695074    0.212330   -2.142877    ( 0.0000,  0.0000,  0.0000)
  27 Li     0.361161    0.212353    0.164837    ( 0.0000,  0.0000,  0.0000)

Unit cell:
           periodic     x           y           z      points  spacing
  1. axis:    yes   10.112485    0.000045   -0.000035    60     0.1685
  2. axis:    yes    0.000026    5.945827    0.000001    35     0.1699
  3. axis:    yes   -0.000016    0.000000    4.615463    27     0.1709

  Lengths:  10.112485   5.945827   4.615463
  Angles:   89.999989  90.000396  89.999490

Effective grid spacing dv^(1/3) = 0.1698

                     log10-error:           total        iterations:
           time      wfs    density  force  energy       poisson  magmom
iter:   1  07:06:41                       -221.373738             +0.0000
iter:   2  07:07:18  -0.61  -0.93         -234.837870             +0.0000
iter:   3  07:07:56  -0.37  -0.97         -225.913618             -0.0000
iter:   4  07:08:33  -1.39  -1.29         -225.761088             +0.0000
iter:   5  07:09:10  -1.27  -1.39         -227.330238             +0.0000
iter:   6  07:09:48  -1.46  -1.46         -225.737039             +0.0000
iter:   7  07:10:25  -2.47  -2.04         -225.724494             +0.0000
iter:   8  07:11:02  -2.14  -1.99         -225.593347             +0.0000
iter:   9  07:11:39  -2.46  -2.08         -225.432001             +0.0000
iter:  10  07:12:17  -3.31  -2.55         -225.422098             +0.0000
iter:  11  07:12:54  -3.66  -2.81         -225.411787             +0.0000
iter:  12  07:13:31  -4.10  -3.04         -225.410599             +0.0000
iter:  13  07:14:08  -5.10  -3.29         -225.410463             -0.0000
iter:  14  07:14:45  -5.39  -3.32         -225.410293             +0.0000
iter:  15  07:15:22  -6.05  -3.43         -225.410297             +0.0000
iter:  16  07:15:59  -5.24  -3.47         -225.410645             -0.0000
iter:  17  07:16:37  -5.91  -3.58         -225.410525             +0.0000
iter:  18  07:17:14  -5.20  -3.70         -225.410235             -0.0000
iter:  19  07:17:51  -6.06  -4.11         -225.410248             -0.0000
iter:  20  07:18:28  -7.21  -4.40         -225.410247             -0.0000
iter:  21  07:19:05  -7.39  -4.44         -225.410246             -0.0000
iter:  22  07:19:52  -7.69  -4.54         -225.410248             -0.0000
iter:  23  07:20:39  -8.65  -4.53    -3.50-225.410247             -0.0000
iter:  24  07:21:16  -7.16  -4.57         -225.410246             -0.0000
iter:  25  07:22:02  -8.35  -4.91    -2.47-225.410245             -0.0000
iter:  26  07:22:49  -7.70  -4.99    -2.68-225.410245             +0.0000
iter:  27  07:23:36  -8.30  -5.12    -2.87-225.410245             -0.0000
iter:  28  07:24:23  -9.26  -5.41    -3.53-225.410245             -0.0000
iter:  29  07:25:09  -8.56  -5.41    -3.05-225.410245             +0.0000
iter:  30  07:25:56  -9.03  -5.65    -3.55-225.410245             -0.0000
iter:  31  07:26:43  -9.79  -5.65    -3.53-225.410245             -0.0000
iter:  32  07:27:30 -10.54  -5.76    -4.25-225.410245             -0.0000
iter:  33  07:28:17 -10.07  -5.83    -4.09-225.410245             -0.0000
iter:  34  07:29:03 -11.24  -5.98    -4.16-225.410245             -0.0000
iter:  35  07:29:50 -10.43  -6.05    -3.63-225.410245             -0.0000
iter:  36  07:30:37 -10.46  -6.38    -4.06-225.410245             -0.0000
iter:  37  07:31:24 -11.31  -6.71    -5.05-225.410245             -0.0000
iter:  38  07:32:11 -11.02  -6.76    -4.44-225.410245             -0.0000
iter:  39  07:32:57 -12.11  -6.93    -4.56-225.410245             -0.0000
iter:  40  07:33:44 -12.87  -7.07    -5.44-225.410245             -0.0000
iter:  41  07:34:31 -12.56  -7.16    -4.88-225.410245             -0.0000
iter:  42  07:35:18 -12.49  -7.38    -5.34-225.410245             -0.0000
iter:  43  07:36:04 -13.72  -7.49    -5.83-225.410245             -0.0000
iter:  44  07:36:51 -13.56  -7.53    -5.41-225.410245             -0.0000
iter:  45  07:37:38 -13.42  -7.62    -5.56-225.410245             -0.0000
iter:  46  07:38:25 -12.98  -7.63    -5.49-225.410245             -0.0000
iter:  47  07:39:11 -13.37  -7.93    -5.61-225.410245             -0.0000
iter:  48  07:39:58 -15.15  -8.09    -6.29-225.410245             -0.0000

Converged after 48 iterations.

Dipole moment: (19.052669, -1.427187, -4.186560) |e|*Ang

Total magnetic moment: (0.000000, 0.000000, -0.000000)
Local magnetic moments:
   0 O  ( 0.000000,  0.000000,  0.000473)
   1 O  ( 0.000000,  0.000000, -0.000725)
   2 O  ( 0.000000,  0.000000, -0.000670)
   3 O  ( 0.000000,  0.000000,  0.000662)
   4 O  ( 0.000000,  0.000000, -0.000672)
   5 O  ( 0.000000,  0.000000,  0.000669)
   6 O  ( 0.000000,  0.000000,  0.000629)
   7 O  ( 0.000000,  0.000000, -0.000575)
   8 O  ( 0.000000,  0.000000,  0.022350)
   9 O  ( 0.000000,  0.000000, -0.022411)
  10 O  ( 0.000000,  0.000000, -0.022365)
  11 O  ( 0.000000,  0.000000,  0.022298)
  12 Mn ( 0.000000,  0.000000,  4.575406)
  13 Mn ( 0.000000,  0.000000, -4.574684)
  14 Mn ( 0.000000,  0.000000, -4.575071)
  15 Mn ( 0.000000,  0.000000,  4.575034)
  16 P  ( 0.000000,  0.000000,  0.000655)
  17 P  ( 0.000000,  0.000000, -0.000824)
  18 P  ( 0.000000,  0.000000, -0.000817)
  19 P  ( 0.000000,  0.000000,  0.000808)
  20 O  ( 0.000000,  0.000000,  0.020705)
  21 O  ( 0.000000,  0.000000, -0.020723)
  22 O  ( 0.000000,  0.000000, -0.020717)
  23 O  ( 0.000000,  0.000000,  0.020706)
  24 Li ( 0.000000,  0.000000,  0.000001)
  25 Li ( 0.000000,  0.000000, -0.000007)
  26 Li ( 0.000000,  0.000000, -0.000001)
  27 Li ( 0.000000,  0.000000, -0.000000)

Energy contributions relative to reference atoms: (reference = -196157.275402)

Kinetic:       +297.090344
Potential:     -256.575793
External:        +0.000000
XC:            -267.704790
Entropy (-ST):   -0.000000
Local:           +1.779994
--------------------------
Free energy:   -225.410245
Extrapolated:  -225.410245

Spin contamination: 9.697307 electrons
Showing only first 2 kpts
                      Up                     Down
 Kpt  Band  Eigenvalues  Occupancy  Eigenvalues  Occupancy
  0    88      5.10709    0.00694      5.11101    0.00694
  0    89      5.15835    0.00694      5.16259    0.00694
  0    90      9.65236    0.00000      9.64888    0.00000
  0    91      9.67028    0.00000      9.67003    0.00000

  1    88      5.11838    0.00694      5.12253    0.00694
  1    89      5.16733    0.00694      5.17172    0.00694
  1    90      9.53463    0.00000      9.53230    0.00000
  1    91      9.54387    0.00000      9.54477    0.00000


Fermi level: 6.36979

Gap: 3.795 eV
Transition (v -> c):
  (s=1, k=92, n=89, [0.08, 0.42, -0.38]) -> (s=0, k=58, n=90, [-0.08, -0.08, 0.12])
Writing to born-0.01-0z-.gpw (mode='all')

Timing:                              incl.     excl.
-----------------------------------------------------------
Hamiltonian:                         0.408     0.002   0.0% |
 Atomic:                             0.064     0.064   0.0% |
  XC Correction:                     0.000     0.000   0.0% |
 Calculate atomic Hamiltonians:      0.164     0.164   0.0% |
 Communicate:                        0.001     0.001   0.0% |
 Initialize Hamiltonian:             0.000     0.000   0.0% |
 Poisson:                            0.001     0.001   0.0% |
 XC 3D grid:                         0.175     0.175   0.0% |
LCAO initialization:               141.478     0.678   0.0% |
 LCAO eigensolver:                  40.158     0.002   0.0% |
  Calculate projections:             0.056     0.056   0.0% |
  DenseAtomicCorrection:             0.082     0.082   0.0% |
  Distribute overlap matrix:         0.007     0.007   0.0% |
  Orbital Layouts:                   0.363     0.363   0.0% |
  Potential matrix:                 39.557    39.557   0.8% |
  Sum over cells:                    0.089     0.089   0.0% |
 LCAO to grid:                      98.261    98.261   2.0% ||
 Set positions (LCAO WFS):           2.380     0.370   0.0% |
  Basic WFS set positions:           0.001     0.001   0.0% |
  Basis functions set positions:     0.000     0.000   0.0% |
  P tci:                             1.083     1.083   0.0% |
  ST tci:                            0.709     0.709   0.0% |
  mktci:                             0.216     0.216   0.0% |
PWDescriptor:                        0.025     0.025   0.0% |
SCF-cycle:                        2043.461    12.627   0.3% |
 Davidson:                        1687.122   537.632  11.0% |---|
  Apply H:                         123.349   119.801   2.4% ||
   HMM T:                            3.548     3.548   0.1% |
  Subspace diag:                   250.984     0.149   0.0% |
   calc_h_matrix:                  164.713    43.633   0.9% |
    Apply H:                       121.080   117.667   2.4% ||
     HMM T:                          3.413     3.413   0.1% |
   diagonalize:                      5.837     5.837   0.1% |
   rotate_psi:                      80.286    80.286   1.6% ||
  calc. matrices:                  531.704   292.147   6.0% |-|
   Apply H:                        239.557   232.853   4.7% |-|
    HMM T:                           6.704     6.704   0.1% |
  diagonalize:                      80.184    80.184   1.6% ||
  rotate_psi:                      163.269   163.269   3.3% ||
 Density:                           70.157     0.001   0.0% |
  Atomic density matrices:           1.234     1.234   0.0% |
  Mix:                              10.763    10.763   0.2% |
  Multipole moments:                 0.029     0.029   0.0% |
  Pseudo density:                   58.130    58.129   1.2% |
   Symmetrize density:               0.001     0.001   0.0% |
 Forces:                           250.089   250.089   5.1% |-|
 Hamiltonian:                       19.424     0.114   0.0% |
  Atomic:                            2.792     2.791   0.1% |
   XC Correction:                    0.000     0.000   0.0% |
  Calculate atomic Hamiltonians:     7.986     7.986   0.2% |
  Communicate:                       0.075     0.075   0.0% |
  Poisson:                           0.072     0.072   0.0% |
  XC 3D grid:                        8.386     8.386   0.2% |
 Orthonormalize:                     4.042     0.004   0.0% |
  calc_s_matrix:                     0.483     0.483   0.0% |
  inverse-cholesky:                  0.055     0.055   0.0% |
  projections:                       2.643     2.643   0.1% |
  rotate_psi_s:                      0.857     0.857   0.0% |
Set symmetry:                        0.000     0.000   0.0% |
Other:                            2722.965  2722.965  55.5% |---------------------|
-----------------------------------------------------------
Total:                                      4908.337 100.0%

Memory usage: 11.96 GiB
Date: Sun Mar 21 08:25:19 2021
