
  ___ ___ ___ _ _ _  
 |   |   |_  | | | | 
 | | | | | . | | | | 
 |__ |  _|___|_____|  20.10.1b1
 |___|_|             

User:   madkru@i018.nifl.fysik.dtu.dk
Date:   Wed Mar 24 19:04:38 2021
Arch:   x86_64
Pid:    26873
Python: 3.7.4
gpaw:   /home/niflheim/madkru/venv_folder/gpaw/gpaw (d224efde0f)
_gpaw:  /home/niflheim/madkru/venv_folder/gpaw/build/lib.linux-x86_64-ivybridge-3.7/
        _gpaw.cpython-37m-x86_64-linux-gnu.so (4fd39e8b1e)
ase:    /home/niflheim/madkru/venv_folder/ase/ase (version 3.21.0b1-4d5a73cb29)
numpy:  /home/niflheim/madkru/venv_folder/lib/python3.7/site-packages/numpy (version 1.19.4)
scipy:  /home/niflheim/madkru/venv_folder/lib/python3.7/site-packages/scipy (version 1.5.4)
libxc:  4.3.4
units:  Angstrom and eV
cores: 64
OMP_NUM_THREADS: 1

Input parameters:
  convergence: {bands: occupied,
                density: 0.0001,
                eigenstates: 4e-08,
                energy: 0.0005,
                forces: 1e-06}
  kpts: [6 6 4]
  mode: {ecut: 600.0,
         gammacentered: False,
         name: pw}
  occupations: {fixmagmom: False,
                name: fermi-dirac,
                width: 0.001}
  setups: {Mn: :d,3.0}
  symmetry: {point_group: False,
             time_reversal: False}

System changes: positions, numbers, cell, pbc, initial_charges, initial_magmoms 

Initialize ...

O-setup:
  name: Oxygen
  id: 9b9d51c344dea68c822856295a461509
  Z: 8.0
  valence: 6
  core: 2
  charge: 0.0
  file: /home/modules/software/GPAW-setups/0.9.20000/O.LDA.gz
  compensation charges: gauss, rc=0.21, lmax=2
  cutoffs: 1.17(filt), 0.83(core),
  valence states:
                energy  radius
    2s(2.00)   -23.752   0.688
    2p(4.00)    -9.195   0.598
    *s           3.459   0.688
    *p          18.016   0.598
    *d           0.000   0.619

  Using partial waves for O as LCAO basis

Mn-setup:
  name: Manganese
  id: 0d715a8018be061a6e9ea6f2d364ac92
  Z: 25.0
  valence: 15
  core: 10
  charge: 0.0
  Hubbard U: 3.000000 eV (l=2, scale=True)
  file: /home/modules/software/GPAW-setups/0.9.20000/Mn.LDA.gz
  compensation charges: gauss, rc=0.38, lmax=2
  cutoffs: 2.14(filt), 0.86(core),
  valence states:
                energy  radius
    3s(2.00)   -85.387   1.275
    4s(2.00)    -5.282   1.275
    3p(6.00)   -54.493   1.281
    4p(0.00)    -1.471   1.281
    3d(5.00)    -7.009   1.138
    *d          20.203   1.138

  Using partial waves for Mn as LCAO basis

P-setup:
  name: Phosphorus
  id: a5561c299094968922a179ab894d2e2d
  Z: 15.0
  valence: 5
  core: 10
  charge: 0.0
  file: /home/modules/software/GPAW-setups/0.9.20000/P.LDA.gz
  compensation charges: gauss, rc=0.30, lmax=2
  cutoffs: 1.69(filt), 1.81(core),
  valence states:
                energy  radius
    3s(2.00)   -14.015   0.953
    3p(3.00)    -5.596   0.953
    *s          13.197   0.953
    *p          21.615   0.953
    *d           0.000   0.953

  Using partial waves for P as LCAO basis

Li-setup:
  name: Lithium
  id: b73562207f97a71b6967473b66fe8b65
  Z: 3.0
  valence: 1
  core: 2
  charge: 0.0
  file: /home/modules/software/GPAW-setups/0.9.20000/Li.LDA.gz
  compensation charges: gauss, rc=0.33, lmax=2
  cutoffs: 1.91(filt), 2.55(core),
  valence states:
                energy  radius
    2s(1.00)    -2.874   1.058
    2p(0.00)    -1.126   1.058
    *s          24.338   1.058

  Using partial waves for Li as LCAO basis

Reference energy: -196157.275402

Spin-polarized calculation.
Magnetic moment: 0.000000

Convergence criteria:
  Maximum total energy change: 0.0005 eV / electron
  Maximum integral of absolute density change: 0.0001 electrons
  Maximum integral of absolute eigenstate change: 4e-08 eV^2
  Maximum change in atomic force: 1e-06 eV / Ang
  Maximum number of iterations: 333

Symmetries present (total): 1

  ( 1  0  0)
  ( 0  1  0)
  ( 0  0  1)

144 k-points: 6 x 6 x 4 Monkhorst-Pack grid
144 k-points in the irreducible part of the Brillouin zone
       k-points in crystal coordinates                weights
   0:    -0.41666667   -0.41666667   -0.37500000          1/144
   1:    -0.41666667   -0.41666667   -0.12500000          1/144
   2:    -0.41666667   -0.41666667    0.12500000          1/144
   3:    -0.41666667   -0.41666667    0.37500000          1/144
   4:    -0.41666667   -0.25000000   -0.37500000          1/144
   5:    -0.41666667   -0.25000000   -0.12500000          1/144
   6:    -0.41666667   -0.25000000    0.12500000          1/144
   7:    -0.41666667   -0.25000000    0.37500000          1/144
   8:    -0.41666667   -0.08333333   -0.37500000          1/144
   9:    -0.41666667   -0.08333333   -0.12500000          1/144
          ...
 143:     0.41666667    0.41666667    0.37500000          1/144

Wave functions: Plane wave expansion
  Cutoff energy: 600.000 eV
  Number of coefficients (min, max): 9238, 9284
  Pulay-stress correction: 0.000000 eV/Ang^3 (de/decut=0.000000)
  Using FFTW library
  ScaLapack parameters: grid=1x1, blocksize=None
  Wavefunction extrapolation:
    Improved wavefunction reuse through dual PAW basis 

  Fermi-Dirac: width=0.0010 eV

Eigensolver
   Davidson(niter=2, smin=None, normalize=True) 

Densities:
  Coarse grid: 60*35*27 grid
  Fine grid: 120*70*54 grid
  Total Charge: 0.000000 

Density mixing:
  Method: difference
  Backend: pulay
  Linear mixing parameter: 0.05
  Mixing with 5 old densities
  Damping of long wave oscillations: 50 

Hamiltonian:
  XC and Coulomb potentials evaluated on a 120*70*54 grid
  Using the LDA Exchange-Correlation functional
 

Memory estimate:
  Process memory now: 13508.76 MiB
  Calculator: 326.59 MiB
    Density: 9.67 MiB
      Arrays: 3.79 MiB
      Localized functions: 4.32 MiB
      Mixer: 1.56 MiB
    Hamiltonian: 2.94 MiB
      Arrays: 2.82 MiB
      XC: 0.00 MiB
      Poisson: 0.00 MiB
      vbar: 0.12 MiB
    Wavefunctions: 313.97 MiB
      Arrays psit_nG: 285.59 MiB
      Eigensolver: 18.49 MiB
      Projections: 2.71 MiB
      Projectors: 4.46 MiB
      PW-descriptor: 2.72 MiB

Total number of cores used: 64
Parallelization over k-points: 16
Domain decomposition: 2 x 2 x 1

Number of atoms: 28
Number of atomic orbitals: 148
Number of bands in calculation: 112
Number of valence electrons: 180
Bands to converge: occupied

... initialized

Initializing position-dependent things.

Density initialized from atomic densities
Creating initial wave functions:
  112 bands from LCAO basis set

                                           
                                           
                                           
                                           
                                           
               O     O  P  O               
            PO           OMn     O         
                  O          MO            
            O        Li O                  
             Mn  On          OP            
         O         Li O                    
         Li     O P         O              
       Li                                  
                                           
                                           
                                           
                                           

Positions:
   0 O     -1.263197   -2.497779   -1.098475    ( 0.0000,  0.0000,  0.0000)
   1 O     -3.070823    2.922496    1.209491    ( 0.0000,  0.0000,  0.0000)
   2 O      1.985541    0.474863    1.428016    ( 0.0000,  0.0000,  0.0000)
   3 O      3.793120   -0.050100   -0.879950    ( 0.0000,  0.0000,  0.0000)
   4 O      1.985518    2.922485    1.428149    ( 0.0000,  0.0000,  0.0000)
   5 O      3.793144   -2.497790   -0.879818    ( 0.0000,  0.0000,  0.0000)
   6 O     -1.263220   -0.050157   -1.098342    ( 0.0000,  0.0000,  0.0000)
   7 O     -3.070798    0.474805    1.209623    ( 0.0000,  0.0000,  0.0000)
   8 O     -4.167835   -1.273920   -0.862116    ( 0.0000,  0.0000,  0.0000)
   9 O     -0.166037    1.698602    1.445528    ( 0.0000,  0.0000,  0.0000)
  10 O      4.890156    1.698625    1.191790    ( 0.0000,  0.0000,  0.0000)
  11 O      0.888358   -1.273896   -1.115855    ( 0.0000,  0.0000,  0.0000)
  12 Mn    -2.445557   -1.274211    0.312921    ( 0.0000,  0.0000,  1.0000)
  13 Mn    -1.888303    1.698892   -1.994948    ( 0.0000,  0.0000, -1.0000)
  14 Mn     3.167879    1.698917    0.016752    ( 0.0000,  0.0000, -1.0000)
  15 Mn     2.610624   -1.274187    2.324621    ( 0.0000,  0.0000,  1.0000)
  16 P     -0.529549   -1.273917   -1.724376    ( 0.0000,  0.0000,  0.0000)
  17 P     -3.804359    1.698599    0.583463    ( 0.0000,  0.0000,  0.0000)
  18 P      1.251870    1.698623    2.054050    ( 0.0000,  0.0000,  0.0000)
  19 P      4.526680   -1.273894   -0.253789    ( 0.0000,  0.0000,  0.0000)
  20 O     -0.544227   -1.273926    1.365380    ( 0.0000,  0.0000,  0.0000)
  21 O     -3.789411    1.698610   -0.932222    ( 0.0000,  0.0000,  0.0000)
  22 O      1.266548    1.698631   -1.035707    ( 0.0000,  0.0000,  0.0000)
  23 O      4.511733   -1.273905    1.271895    ( 0.0000,  0.0000,  0.0000)
  24 Li    -4.695087   -2.760584   -2.142877    ( 0.0000,  0.0000,  0.0000)
  25 Li     0.361147   -2.760561    0.164836    ( 0.0000,  0.0000,  0.0000)
  26 Li    -4.695074    0.212330   -2.142877    ( 0.0000,  0.0000,  0.0000)
  27 Li     0.361161    0.212353    0.164837    ( 0.0000,  0.0000,  0.0000)

Unit cell:
           periodic     x           y           z      points  spacing
  1. axis:    yes   10.112485    0.000045   -0.000035    60     0.1685
  2. axis:    yes    0.000026    5.945827    0.000001    35     0.1699
  3. axis:    yes   -0.000016    0.000000    4.615463    27     0.1709

  Lengths:  10.112485   5.945827   4.615463
  Angles:   89.999989  90.000396  89.999490

Effective grid spacing dv^(1/3) = 0.1698

                     log10-error:           total        iterations:
           time      wfs    density  force  energy       poisson  magmom
iter:   1  19:06:13                       -221.370161             +0.0000
iter:   2  19:06:33  -0.61  -0.93         -234.841695             +0.0000
iter:   3  19:06:53  -0.37  -0.97         -225.914038             -0.0000
iter:   4  19:07:12  -1.39  -1.29         -225.759154             +0.0000
iter:   5  19:07:32  -1.26  -1.39         -227.334892             +0.0000
iter:   6  19:07:52  -1.46  -1.46         -225.735035             +0.0000
iter:   7  19:08:12  -2.48  -2.04         -225.724170             +0.0000
iter:   8  19:08:32  -2.30  -2.00         -225.540453             +0.0000
iter:   9  19:08:52  -2.52  -2.17         -225.433778             +0.0000
iter:  10  19:09:12  -3.27  -2.52         -225.421008             +0.0000
iter:  11  19:09:32  -3.37  -2.82         -225.410590             +0.0000
iter:  12  19:09:51  -4.32  -3.00         -225.408599             -0.0000
iter:  13  19:10:11  -5.17  -3.30         -225.408760             -0.0000
iter:  14  19:10:31  -5.10  -3.31         -225.408602             -0.0000
iter:  15  19:10:51  -6.00  -3.47         -225.408645             -0.0000
iter:  16  19:11:11  -5.68  -3.50         -225.408722             -0.0000
iter:  17  19:11:31  -6.61  -3.61         -225.408632             +0.0000
iter:  18  19:11:51  -5.17  -3.62         -225.408554             -0.0000
iter:  19  19:12:10  -5.80  -3.73         -225.408617             +0.0000
iter:  20  19:12:30  -6.91  -3.83         -225.408615             -0.0000
iter:  21  19:12:50  -6.05  -3.85         -225.408530             -0.0000
iter:  22  19:13:10  -6.66  -4.02         -225.408527             -0.0000
iter:  23  19:13:30  -7.11  -4.09         -225.408521             -0.0000
iter:  24  19:13:50  -6.42  -4.13         -225.408515             -0.0000
iter:  25  19:14:09  -6.65  -4.40         -225.408526             -0.0000
iter:  26  19:14:34  -7.78  -4.56         -225.408526             -0.0000
iter:  27  19:14:54  -7.02  -4.59         -225.408515             -0.0000
iter:  28  19:15:18  -8.02  -4.74    -2.49-225.408515             -0.0000
iter:  29  19:15:43  -8.11  -4.85    -3.08-225.408515             -0.0000
iter:  30  19:16:07  -7.58  -4.94    -2.86-225.408515             -0.0000
iter:  31  19:16:32  -8.59  -5.01    -3.11-225.408514             -0.0000
iter:  32  19:16:56  -8.71  -5.15    -3.35-225.408514             -0.0000
iter:  33  19:17:21  -8.75  -5.23    -3.28-225.408514             -0.0000
iter:  34  19:17:46  -8.63  -5.33    -3.35-225.408514             -0.0000
iter:  35  19:18:10 -10.12  -5.43    -4.34-225.408514             -0.0000
iter:  36  19:18:35  -8.30  -5.47    -3.29-225.408514             -0.0000
iter:  37  19:18:59  -9.03  -5.58    -3.53-225.408514             -0.0000
iter:  38  19:19:24 -10.27  -5.72    -3.87-225.408514             -0.0000
iter:  39  19:19:48 -10.05  -5.81    -3.50-225.408514             -0.0000
iter:  40  19:20:13 -10.28  -6.18    -4.23-225.408514             -0.0000
iter:  41  19:20:37 -11.02  -6.32    -4.57-225.408514             -0.0000
iter:  42  19:21:02 -10.10  -6.34    -3.94-225.408514             -0.0000
iter:  43  19:21:26 -10.84  -6.47    -4.64-225.408514             -0.0000
iter:  44  19:21:51 -11.53  -6.85    -5.24-225.408514             -0.0000
iter:  45  19:22:15 -11.08  -6.94    -4.63-225.408514             -0.0000
iter:  46  19:22:40 -11.68  -6.87    -5.13-225.408514             -0.0000
iter:  47  19:23:04 -11.86  -7.43    -5.05-225.408514             -0.0000
iter:  48  19:23:29 -12.00  -7.31    -5.37-225.408514             -0.0000
iter:  49  19:23:53 -13.10  -7.55    -5.87-225.408514             -0.0000
iter:  50  19:24:18 -13.33  -7.66    -5.65-225.408514             -0.0000
iter:  51  19:24:42 -14.36  -7.84    -5.81-225.408514             -0.0000
iter:  52  19:25:07 -14.50  -7.96    -6.00-225.408514             -0.0000
iter:  53  19:25:32 -14.20  -8.05    -5.65-225.408514             -0.0000
iter:  54  19:25:56 -14.85  -8.14    -6.10-225.408514             -0.0000

Converged after 54 iterations.

Dipole moment: (19.053284, -1.427508, -4.166160) |e|*Ang

Total magnetic moment: (0.000000, 0.000000, -0.000000)
Local magnetic moments:
   0 O  ( 0.000000,  0.000000,  0.000684)
   1 O  ( 0.000000,  0.000000, -0.000726)
   2 O  ( 0.000000,  0.000000, -0.000658)
   3 O  ( 0.000000,  0.000000,  0.000677)
   4 O  ( 0.000000,  0.000000, -0.000662)
   5 O  ( 0.000000,  0.000000,  0.000681)
   6 O  ( 0.000000,  0.000000,  0.000680)
   7 O  ( 0.000000,  0.000000, -0.000722)
   8 O  ( 0.000000,  0.000000,  0.022371)
   9 O  ( 0.000000,  0.000000, -0.022458)
  10 O  ( 0.000000,  0.000000, -0.022342)
  11 O  ( 0.000000,  0.000000,  0.022368)
  12 Mn ( 0.000000,  0.000000,  4.575035)
  13 Mn ( 0.000000,  0.000000, -4.575374)
  14 Mn ( 0.000000,  0.000000, -4.575040)
  15 Mn ( 0.000000,  0.000000,  4.575047)
  16 P  ( 0.000000,  0.000000,  0.000835)
  17 P  ( 0.000000,  0.000000, -0.000751)
  18 P  ( 0.000000,  0.000000, -0.000812)
  19 P  ( 0.000000,  0.000000,  0.000815)
  20 O  ( 0.000000,  0.000000,  0.020705)
  21 O  ( 0.000000,  0.000000, -0.020570)
  22 O  ( 0.000000,  0.000000, -0.020701)
  23 O  ( 0.000000,  0.000000,  0.020710)
  24 Li ( 0.000000,  0.000000,  0.000012)
  25 Li ( 0.000000,  0.000000,  0.000000)
  26 Li ( 0.000000,  0.000000,  0.000012)
  27 Li ( 0.000000,  0.000000,  0.000000)

Energy contributions relative to reference atoms: (reference = -196157.275402)

Kinetic:       +297.592796
Potential:     -256.977766
External:        +0.000000
XC:            -267.802299
Entropy (-ST):   -0.000000
Local:           +1.778755
--------------------------
Free energy:   -225.408514
Extrapolated:  -225.408514

Spin contamination: 9.697158 electrons
Showing only first 2 kpts
                      Up                     Down
 Kpt  Band  Eigenvalues  Occupancy  Eigenvalues  Occupancy
  0    88      5.10976    0.00694      5.10111    0.00694
  0    89      5.16147    0.00694      5.15482    0.00694
  0    90      9.65205    0.00000      9.65376    0.00000
  0    91      9.66886    0.00000      9.67106    0.00000

  1    88      5.12144    0.00694      5.11187    0.00694
  1    89      5.17081    0.00694      5.16477    0.00694
  1    90      9.53470    0.00000      9.53631    0.00000
  1    91      9.54289    0.00000      9.54480    0.00000


Fermi level: 6.36986

Gap: 3.797 eV
Transition (v -> c):
  (s=0, k=75, n=89, [0.08, -0.42, 0.38]) -> (s=0, k=85, n=90, [0.08, 0.08, -0.12])
Writing to born-0.01-21z+.gpw (mode='all')

Timing:                              incl.     excl.
-----------------------------------------------------------
Hamiltonian:                         0.217     0.002   0.0% |
 Atomic:                             0.053     0.053   0.0% |
  XC Correction:                     0.000     0.000   0.0% |
 Calculate atomic Hamiltonians:      0.075     0.075   0.0% |
 Communicate:                        0.002     0.002   0.0% |
 Initialize Hamiltonian:             0.000     0.000   0.0% |
 Poisson:                            0.001     0.001   0.0% |
 XC 3D grid:                         0.084     0.084   0.0% |
LCAO initialization:                71.466     0.657   0.0% |
 LCAO eigensolver:                  19.228     0.002   0.0% |
  Calculate projections:             0.029     0.029   0.0% |
  DenseAtomicCorrection:             0.045     0.045   0.0% |
  Distribute overlap matrix:         0.169     0.169   0.0% |
  Orbital Layouts:                   0.433     0.433   0.0% |
  Potential matrix:                 18.458    18.458   0.6% |
  Sum over cells:                    0.093     0.093   0.0% |
 LCAO to grid:                      50.264    50.264   1.6% ||
 Set positions (LCAO WFS):           1.317     0.192   0.0% |
  Basic WFS set positions:           0.001     0.001   0.0% |
  Basis functions set positions:     0.000     0.000   0.0% |
  P tci:                             0.524     0.524   0.0% |
  ST tci:                            0.383     0.383   0.0% |
  mktci:                             0.216     0.216   0.0% |
PWDescriptor:                        0.023     0.023   0.0% |
SCF-cycle:                        1204.949     1.158   0.0% |
 Davidson:                        1017.508   313.008  10.2% |---|
  Apply H:                          69.945    67.968   2.2% ||
   HMM T:                            1.977     1.977   0.1% |
  Subspace diag:                   147.429     0.155   0.0% |
   calc_h_matrix:                   94.583    24.677   0.8% |
    Apply H:                        69.905    67.874   2.2% ||
     HMM T:                          2.031     2.031   0.1% |
   diagonalize:                      7.372     7.372   0.2% |
   rotate_psi:                      45.320    45.320   1.5% ||
  calc. matrices:                  304.043   167.423   5.4% |-|
   Apply H:                        136.620   132.939   4.3% |-|
    HMM T:                           3.681     3.681   0.1% |
  diagonalize:                      84.977    84.977   2.8% ||
  rotate_psi:                       98.106    98.106   3.2% ||
 Density:                           40.838     0.001   0.0% |
  Atomic density matrices:           0.844     0.844   0.0% |
  Mix:                               5.684     5.684   0.2% |
  Multipole moments:                 0.020     0.020   0.0% |
  Pseudo density:                   34.290    34.288   1.1% |
   Symmetrize density:               0.002     0.002   0.0% |
 Forces:                           131.722   131.722   4.3% |-|
 Hamiltonian:                       11.632     0.112   0.0% |
  Atomic:                            2.839     2.839   0.1% |
   XC Correction:                    0.000     0.000   0.0% |
  Calculate atomic Hamiltonians:     4.023     4.023   0.1% |
  Communicate:                       0.105     0.105   0.0% |
  Poisson:                           0.032     0.032   0.0% |
  XC 3D grid:                        4.520     4.520   0.1% |
 Orthonormalize:                     2.090     0.003   0.0% |
  calc_s_matrix:                     0.245     0.245   0.0% |
  inverse-cholesky:                  0.073     0.073   0.0% |
  projections:                       1.334     1.334   0.0% |
  rotate_psi_s:                      0.434     0.434   0.0% |
Set symmetry:                        0.000     0.000   0.0% |
Other:                            1804.468  1804.468  58.6% |----------------------|
-----------------------------------------------------------
Total:                                      3081.123 100.0%

Memory usage: 13.21 GiB
Date: Wed Mar 24 19:55:59 2021
