
  ___ ___ ___ _ _ _  
 |   |   |_  | | | | 
 | | | | | . | | | | 
 |__ |  _|___|_____|  20.10.1b1
 |___|_|             

User:   madkru@g035.nifl.fysik.dtu.dk
Date:   Mon Mar 22 20:12:19 2021
Arch:   x86_64
Pid:    44316
Python: 3.7.4
gpaw:   /home/niflheim/madkru/venv_folder/gpaw/gpaw (d0d1ca1c71)
_gpaw:  /home/niflheim/madkru/venv_folder/gpaw/build/lib.linux-x86_64-sandybridge-3.7/
        _gpaw.cpython-37m-x86_64-linux-gnu.so (4fd39e8b1e)
ase:    /home/niflheim/madkru/venv_folder/ase/ase (version 3.21.0b1-7e6c206a91)
numpy:  /home/niflheim/madkru/venv_folder/lib/python3.7/site-packages/numpy (version 1.19.4)
scipy:  /home/niflheim/madkru/venv_folder/lib/python3.7/site-packages/scipy (version 1.5.4)
libxc:  4.3.4
units:  Angstrom and eV
cores: 32
OMP_NUM_THREADS: 1

Input parameters:
  convergence: {bands: occupied,
                density: 0.0001,
                eigenstates: 4e-08,
                energy: 0.0005,
                forces: 1e-06}
  kpts: [6 6 4]
  mode: {ecut: 600.0,
         gammacentered: False,
         name: pw}
  occupations: {fixmagmom: False,
                name: fermi-dirac,
                width: 0.001}
  setups: {Mn: :d,3.0}
  symmetry: {point_group: False,
             time_reversal: False}

System changes: positions, numbers, cell, pbc, initial_charges, initial_magmoms 

Initialize ...

O-setup:
  name: Oxygen
  id: 9b9d51c344dea68c822856295a461509
  Z: 8.0
  valence: 6
  core: 2
  charge: 0.0
  file: /home/modules/software/GPAW-setups/0.9.20000/O.LDA.gz
  compensation charges: gauss, rc=0.21, lmax=2
  cutoffs: 1.17(filt), 0.83(core),
  valence states:
                energy  radius
    2s(2.00)   -23.752   0.688
    2p(4.00)    -9.195   0.598
    *s           3.459   0.688
    *p          18.016   0.598
    *d           0.000   0.619

  Using partial waves for O as LCAO basis

Mn-setup:
  name: Manganese
  id: 0d715a8018be061a6e9ea6f2d364ac92
  Z: 25.0
  valence: 15
  core: 10
  charge: 0.0
  Hubbard U: 3.000000 eV (l=2, scale=True)
  file: /home/modules/software/GPAW-setups/0.9.20000/Mn.LDA.gz
  compensation charges: gauss, rc=0.38, lmax=2
  cutoffs: 2.14(filt), 0.86(core),
  valence states:
                energy  radius
    3s(2.00)   -85.387   1.275
    4s(2.00)    -5.282   1.275
    3p(6.00)   -54.493   1.281
    4p(0.00)    -1.471   1.281
    3d(5.00)    -7.009   1.138
    *d          20.203   1.138

  Using partial waves for Mn as LCAO basis

P-setup:
  name: Phosphorus
  id: a5561c299094968922a179ab894d2e2d
  Z: 15.0
  valence: 5
  core: 10
  charge: 0.0
  file: /home/modules/software/GPAW-setups/0.9.20000/P.LDA.gz
  compensation charges: gauss, rc=0.30, lmax=2
  cutoffs: 1.69(filt), 1.81(core),
  valence states:
                energy  radius
    3s(2.00)   -14.015   0.953
    3p(3.00)    -5.596   0.953
    *s          13.197   0.953
    *p          21.615   0.953
    *d           0.000   0.953

  Using partial waves for P as LCAO basis

Li-setup:
  name: Lithium
  id: b73562207f97a71b6967473b66fe8b65
  Z: 3.0
  valence: 1
  core: 2
  charge: 0.0
  file: /home/modules/software/GPAW-setups/0.9.20000/Li.LDA.gz
  compensation charges: gauss, rc=0.33, lmax=2
  cutoffs: 1.91(filt), 2.55(core),
  valence states:
                energy  radius
    2s(1.00)    -2.874   1.058
    2p(0.00)    -1.126   1.058
    *s          24.338   1.058

  Using partial waves for Li as LCAO basis

Reference energy: -196157.275402

Spin-polarized calculation.
Magnetic moment: 0.000000

Convergence criteria:
  Maximum total energy change: 0.0005 eV / electron
  Maximum integral of absolute density change: 0.0001 electrons
  Maximum integral of absolute eigenstate change: 4e-08 eV^2
  Maximum change in atomic force: 1e-06 eV / Ang
  Maximum number of iterations: 333

Symmetries present (total): 1

  ( 1  0  0)
  ( 0  1  0)
  ( 0  0  1)

144 k-points: 6 x 6 x 4 Monkhorst-Pack grid
144 k-points in the irreducible part of the Brillouin zone
       k-points in crystal coordinates                weights
   0:    -0.41666667   -0.41666667   -0.37500000          1/144
   1:    -0.41666667   -0.41666667   -0.12500000          1/144
   2:    -0.41666667   -0.41666667    0.12500000          1/144
   3:    -0.41666667   -0.41666667    0.37500000          1/144
   4:    -0.41666667   -0.25000000   -0.37500000          1/144
   5:    -0.41666667   -0.25000000   -0.12500000          1/144
   6:    -0.41666667   -0.25000000    0.12500000          1/144
   7:    -0.41666667   -0.25000000    0.37500000          1/144
   8:    -0.41666667   -0.08333333   -0.37500000          1/144
   9:    -0.41666667   -0.08333333   -0.12500000          1/144
          ...
 143:     0.41666667    0.41666667    0.37500000          1/144

Wave functions: Plane wave expansion
  Cutoff energy: 600.000 eV
  Number of coefficients (min, max): 9238, 9284
  Pulay-stress correction: 0.000000 eV/Ang^3 (de/decut=0.000000)
  Using FFTW library
  ScaLapack parameters: grid=1x1, blocksize=None
  Wavefunction extrapolation:
    Improved wavefunction reuse through dual PAW basis 

  Fermi-Dirac: width=0.0010 eV

Eigensolver
   Davidson(niter=2, smin=None, normalize=True) 

Densities:
  Coarse grid: 60*35*27 grid
  Fine grid: 120*70*54 grid
  Total Charge: 0.000000 

Density mixing:
  Method: difference
  Backend: pulay
  Linear mixing parameter: 0.05
  Mixing with 5 old densities
  Damping of long wave oscillations: 50 

Hamiltonian:
  XC and Coulomb potentials evaluated on a 120*70*54 grid
  Using the LDA Exchange-Correlation functional
 

Memory estimate:
  Process memory now: 13300.17 MiB
  Calculator: 346.50 MiB
    Density: 19.24 MiB
      Arrays: 7.57 MiB
      Localized functions: 8.64 MiB
      Mixer: 3.03 MiB
    Hamiltonian: 5.87 MiB
      Arrays: 5.62 MiB
      XC: 0.00 MiB
      Poisson: 0.00 MiB
      vbar: 0.25 MiB
    Wavefunctions: 321.38 MiB
      Arrays psit_nG: 285.59 MiB
      Eigensolver: 18.49 MiB
      Projections: 5.41 MiB
      Projectors: 8.92 MiB
      PW-descriptor: 2.96 MiB

Total number of cores used: 32
Parallelization over k-points: 16
Domain decomposition: 2 x 1 x 1

Number of atoms: 28
Number of atomic orbitals: 148
Number of bands in calculation: 112
Number of valence electrons: 180
Bands to converge: occupied

... initialized

Initializing position-dependent things.

Density initialized from atomic densities
Creating initial wave functions:
  112 bands from LCAO basis set

                                           
                                           
                                           
                                           
                                           
               O     O  P  O               
            PO           OMn     O         
                  O          MO            
            O        Li O                  
             Mn  On          OP            
         O         Li O                    
         Li     O P         O              
       Li                                  
                                           
                                           
                                           
                                           

Positions:
   0 O     -1.263197   -2.497779   -1.098475    ( 0.0000,  0.0000,  0.0000)
   1 O     -3.070823    2.922496    1.209491    ( 0.0000,  0.0000,  0.0000)
   2 O      1.985541    0.474863    1.428016    ( 0.0000,  0.0000,  0.0000)
   3 O      3.793120   -0.050100   -0.879950    ( 0.0000,  0.0000,  0.0000)
   4 O      1.985518    2.922485    1.428149    ( 0.0000,  0.0000,  0.0000)
   5 O      3.793144   -2.497790   -0.879818    ( 0.0000,  0.0000,  0.0000)
   6 O     -1.263220   -0.050157   -1.098342    ( 0.0000,  0.0000,  0.0000)
   7 O     -3.070798    0.474805    1.209623    ( 0.0000,  0.0000,  0.0000)
   8 O     -4.167835   -1.263920   -0.862116    ( 0.0000,  0.0000,  0.0000)
   9 O     -0.166037    1.698602    1.445528    ( 0.0000,  0.0000,  0.0000)
  10 O      4.890156    1.698625    1.191790    ( 0.0000,  0.0000,  0.0000)
  11 O      0.888358   -1.273896   -1.115855    ( 0.0000,  0.0000,  0.0000)
  12 Mn    -2.445557   -1.274211    0.312921    ( 0.0000,  0.0000,  1.0000)
  13 Mn    -1.888303    1.698892   -1.994948    ( 0.0000,  0.0000, -1.0000)
  14 Mn     3.167879    1.698917    0.016752    ( 0.0000,  0.0000, -1.0000)
  15 Mn     2.610624   -1.274187    2.324621    ( 0.0000,  0.0000,  1.0000)
  16 P     -0.529549   -1.273917   -1.724376    ( 0.0000,  0.0000,  0.0000)
  17 P     -3.804359    1.698599    0.583463    ( 0.0000,  0.0000,  0.0000)
  18 P      1.251870    1.698623    2.054050    ( 0.0000,  0.0000,  0.0000)
  19 P      4.526680   -1.273894   -0.253789    ( 0.0000,  0.0000,  0.0000)
  20 O     -0.544227   -1.273926    1.365380    ( 0.0000,  0.0000,  0.0000)
  21 O     -3.789411    1.698610   -0.942222    ( 0.0000,  0.0000,  0.0000)
  22 O      1.266548    1.698631   -1.035707    ( 0.0000,  0.0000,  0.0000)
  23 O      4.511733   -1.273905    1.271895    ( 0.0000,  0.0000,  0.0000)
  24 Li    -4.695087   -2.760584   -2.142877    ( 0.0000,  0.0000,  0.0000)
  25 Li     0.361147   -2.760561    0.164836    ( 0.0000,  0.0000,  0.0000)
  26 Li    -4.695074    0.212330   -2.142877    ( 0.0000,  0.0000,  0.0000)
  27 Li     0.361161    0.212353    0.164837    ( 0.0000,  0.0000,  0.0000)

Unit cell:
           periodic     x           y           z      points  spacing
  1. axis:    yes   10.112485    0.000045   -0.000035    60     0.1685
  2. axis:    yes    0.000026    5.945827    0.000001    35     0.1699
  3. axis:    yes   -0.000016    0.000000    4.615463    27     0.1709

  Lengths:  10.112485   5.945827   4.615463
  Angles:   89.999989  90.000396  89.999490

Effective grid spacing dv^(1/3) = 0.1698

                     log10-error:           total        iterations:
           time      wfs    density  force  energy       poisson  magmom
iter:   1  20:15:34                       -221.376656             +0.0000
iter:   2  20:16:12  -0.61  -0.93         -234.835981             +0.0000
iter:   3  20:16:50  -0.37  -0.97         -225.911940             -0.0000
iter:   4  20:17:27  -1.39  -1.29         -225.761482             +0.0000
iter:   5  20:18:05  -1.27  -1.39         -227.329771             +0.0000
iter:   6  20:18:43  -1.46  -1.46         -225.737281             +0.0000
iter:   7  20:19:20  -2.47  -2.04         -225.724684             +0.0000
iter:   8  20:19:58  -2.14  -1.99         -225.590904             +0.0000
iter:   9  20:20:36  -2.46  -2.09         -225.432280             +0.0000
iter:  10  20:21:13  -3.31  -2.55         -225.422367             +0.0000
iter:  11  20:21:51  -3.65  -2.81         -225.411967             +0.0000
iter:  12  20:22:29  -4.12  -3.05         -225.410853             +0.0000
iter:  13  20:23:06  -5.11  -3.29         -225.410731             -0.0000
iter:  14  20:23:44  -5.39  -3.32         -225.410558             -0.0000
iter:  15  20:24:21  -6.04  -3.43         -225.410564             -0.0000
iter:  16  20:24:59  -5.24  -3.47         -225.410905             +0.0000
iter:  17  20:25:37  -5.86  -3.58         -225.410791             -0.0000
iter:  18  20:26:14  -5.21  -3.70         -225.410506             +0.0000
iter:  19  20:26:52  -6.10  -4.14         -225.410511             -0.0000
iter:  20  20:27:29  -7.28  -4.53         -225.410512             -0.0000
iter:  21  20:28:17  -7.84  -4.55         -225.410512             -0.0000
iter:  22  20:29:04  -7.84  -4.64    -2.51-225.410512             +0.0000
iter:  23  20:29:51  -8.27  -4.82    -2.76-225.410512             +0.0000
iter:  24  20:30:39  -7.60  -4.94    -2.74-225.410512             +0.0000
iter:  25  20:31:26  -8.59  -4.97    -3.12-225.410511             +0.0000
iter:  26  20:32:13  -8.37  -5.23    -2.97-225.410511             -0.0000
iter:  27  20:33:00  -9.58  -5.80    -3.53-225.410511             -0.0000
iter:  28  20:33:48 -10.28  -5.91    -3.96-225.410511             +0.0000
iter:  29  20:34:35  -9.99  -5.96    -3.49-225.410511             +0.0000
iter:  30  20:35:22 -11.09  -6.15    -4.22-225.410511             +0.0000
iter:  31  20:36:10 -11.28  -6.19    -4.16-225.410511             +0.0000
iter:  32  20:36:57 -11.57  -6.24    -3.92-225.410511             +0.0000
iter:  33  20:37:44 -10.56  -6.28    -3.63-225.410511             +0.0000
iter:  34  20:38:31 -10.75  -6.34    -3.72-225.410511             +0.0000
iter:  35  20:39:18 -11.67  -6.57    -4.44-225.410511             -0.0000
iter:  36  20:40:06 -12.10  -6.71    -4.66-225.410511             -0.0000
iter:  37  20:40:53 -11.84  -6.79    -4.64-225.410511             -0.0000
iter:  38  20:41:40 -12.12  -6.96    -4.51-225.410511             -0.0000
iter:  39  20:42:27 -12.90  -7.02    -5.18-225.410511             -0.0000
iter:  40  20:43:14 -13.26  -7.19    -5.19-225.410511             -0.0000
iter:  41  20:44:02 -12.77  -7.25    -4.83-225.410511             -0.0000
iter:  42  20:44:49 -13.52  -7.64    -5.16-225.410511             -0.0000
iter:  43  20:45:36 -14.54  -7.93    -6.16-225.410511             -0.0000

Converged after 43 iterations.

Dipole moment: (19.052639, -1.425549, -4.182744) |e|*Ang

Total magnetic moment: (0.000000, 0.000000, -0.000000)
Local magnetic moments:
   0 O  ( 0.000000,  0.000000,  0.000662)
   1 O  ( 0.000000,  0.000000, -0.000653)
   2 O  ( 0.000000,  0.000000, -0.000661)
   3 O  ( 0.000000,  0.000000,  0.000685)
   4 O  ( 0.000000,  0.000000, -0.000663)
   5 O  ( 0.000000,  0.000000,  0.000655)
   6 O  ( 0.000000,  0.000000,  0.000661)
   7 O  ( 0.000000,  0.000000, -0.000687)
   8 O  ( 0.000000,  0.000000,  0.022368)
   9 O  ( 0.000000,  0.000000, -0.022368)
  10 O  ( 0.000000,  0.000000, -0.022368)
  11 O  ( 0.000000,  0.000000,  0.022368)
  12 Mn ( 0.000000,  0.000000,  4.575066)
  13 Mn ( 0.000000,  0.000000, -4.575035)
  14 Mn ( 0.000000,  0.000000, -4.575065)
  15 Mn ( 0.000000,  0.000000,  4.575034)
  16 P  ( 0.000000,  0.000000,  0.000812)
  17 P  ( 0.000000,  0.000000, -0.000817)
  18 P  ( 0.000000,  0.000000, -0.000812)
  19 P  ( 0.000000,  0.000000,  0.000816)
  20 O  ( 0.000000,  0.000000,  0.020709)
  21 O  ( 0.000000,  0.000000, -0.020708)
  22 O  ( 0.000000,  0.000000, -0.020709)
  23 O  ( 0.000000,  0.000000,  0.020708)
  24 Li ( 0.000000,  0.000000, -0.000016)
  25 Li ( 0.000000,  0.000000,  0.000000)
  26 Li ( 0.000000,  0.000000,  0.000016)
  27 Li ( 0.000000,  0.000000, -0.000000)

Energy contributions relative to reference atoms: (reference = -196157.275402)

Kinetic:       +296.837475
Potential:     -256.380583
External:        +0.000000
XC:            -267.648172
Entropy (-ST):   -0.000000
Local:           +1.780768
--------------------------
Free energy:   -225.410511
Extrapolated:  -225.410511

Spin contamination: 9.697234 electrons
Showing only first 2 kpts
                      Up                     Down
 Kpt  Band  Eigenvalues  Occupancy  Eigenvalues  Occupancy
  0    88      5.10957    0.00694      5.10941    0.00694
  0    89      5.16084    0.00694      5.16100    0.00694
  0    90      9.65225    0.00000      9.65231    0.00000
  0    91      9.67099    0.00000      9.67091    0.00000

  1    88      5.12084    0.00694      5.12101    0.00694
  1    89      5.17040    0.00694      5.17031    0.00694
  1    90      9.53454    0.00000      9.53454    0.00000
  1    91      9.54492    0.00000      9.54483    0.00000


Fermi level: 6.36986

Gap: 3.795 eV
Transition (v -> c):
  (s=0, k=71, n=89, [-0.08, 0.42, 0.38]) -> (s=0, k=82, n=90, [0.08, -0.08, 0.12])
Writing to born-0.01-8y+.gpw (mode='all')

Timing:                              incl.     excl.
-----------------------------------------------------------
Hamiltonian:                         0.416     0.002   0.0% |
 Atomic:                             0.072     0.072   0.0% |
  XC Correction:                     0.000     0.000   0.0% |
 Calculate atomic Hamiltonians:      0.168     0.168   0.0% |
 Communicate:                        0.001     0.001   0.0% |
 Initialize Hamiltonian:             0.000     0.000   0.0% |
 Poisson:                            0.002     0.002   0.0% |
 XC 3D grid:                         0.170     0.170   0.0% |
LCAO initialization:               151.334     0.680   0.0% |
 LCAO eigensolver:                  40.394     0.003   0.0% |
  Calculate projections:             0.057     0.057   0.0% |
  DenseAtomicCorrection:             0.083     0.083   0.0% |
  Distribute overlap matrix:         0.027     0.027   0.0% |
  Orbital Layouts:                   0.364     0.364   0.0% |
  Potential matrix:                 39.772    39.772   0.9% |
  Sum over cells:                    0.088     0.088   0.0% |
 LCAO to grid:                     107.883   107.883   2.3% ||
 Set positions (LCAO WFS):           2.377     0.370   0.0% |
  Basic WFS set positions:           0.001     0.001   0.0% |
  Basis functions set positions:     0.000     0.000   0.0% |
  P tci:                             1.080     1.080   0.0% |
  ST tci:                            0.709     0.709   0.0% |
  mktci:                             0.216     0.216   0.0% |
PWDescriptor:                        0.026     0.026   0.0% |
SCF-cycle:                        1843.158    22.397   0.5% |
 Davidson:                        1510.800   481.689  10.5% |---|
  Apply H:                         109.384   106.096   2.3% ||
   HMM T:                            3.288     3.288   0.1% |
  Subspace diag:                   224.313     0.134   0.0% |
   calc_h_matrix:                  147.275    39.053   0.8% |
    Apply H:                       108.222   104.993   2.3% ||
     HMM T:                          3.229     3.229   0.1% |
   diagonalize:                      5.220     5.220   0.1% |
   rotate_psi:                      71.683    71.683   1.6% ||
  calc. matrices:                  477.424   261.733   5.7% |-|
   Apply H:                        215.691   209.341   4.6% |-|
    HMM T:                           6.350     6.350   0.1% |
  diagonalize:                      71.674    71.674   1.6% ||
  rotate_psi:                      146.316   146.316   3.2% ||
 Density:                           64.087     0.001   0.0% |
  Atomic density matrices:           1.126     1.126   0.0% |
  Mix:                               9.553     9.553   0.2% |
  Multipole moments:                 0.025     0.025   0.0% |
  Pseudo density:                   53.382    53.380   1.2% |
   Symmetrize density:               0.001     0.001   0.0% |
 Forces:                           224.398   224.398   4.9% |-|
 Hamiltonian:                       17.420     0.104   0.0% |
  Atomic:                            2.587     2.587   0.1% |
   XC Correction:                    0.000     0.000   0.0% |
  Calculate atomic Hamiltonians:     7.107     7.107   0.2% |
  Communicate:                       0.074     0.074   0.0% |
  Poisson:                           0.065     0.065   0.0% |
  XC 3D grid:                        7.484     7.484   0.2% |
 Orthonormalize:                     4.055     0.003   0.0% |
  calc_s_matrix:                     0.483     0.483   0.0% |
  inverse-cholesky:                  0.054     0.054   0.0% |
  projections:                       2.655     2.655   0.1% |
  rotate_psi_s:                      0.861     0.861   0.0% |
Set symmetry:                        0.000     0.000   0.0% |
Other:                            2604.958  2604.958  56.6% |----------------------|
-----------------------------------------------------------
Total:                                      4599.891 100.0%

Memory usage: 13.01 GiB
Date: Mon Mar 22 21:28:59 2021
