
  ___ ___ ___ _ _ _  
 |   |   |_  | | | | 
 | | | | | . | | | | 
 |__ |  _|___|_____|  20.10.1b1
 |___|_|             

User:   madkru@i018.nifl.fysik.dtu.dk
Date:   Wed Mar 24 22:00:32 2021
Arch:   x86_64
Pid:    26873
Python: 3.7.4
gpaw:   /home/niflheim/madkru/venv_folder/gpaw/gpaw (d224efde0f)
_gpaw:  /home/niflheim/madkru/venv_folder/gpaw/build/lib.linux-x86_64-ivybridge-3.7/
        _gpaw.cpython-37m-x86_64-linux-gnu.so (4fd39e8b1e)
ase:    /home/niflheim/madkru/venv_folder/ase/ase (version 3.21.0b1-4d5a73cb29)
numpy:  /home/niflheim/madkru/venv_folder/lib/python3.7/site-packages/numpy (version 1.19.4)
scipy:  /home/niflheim/madkru/venv_folder/lib/python3.7/site-packages/scipy (version 1.5.4)
libxc:  4.3.4
units:  Angstrom and eV
cores: 64
OMP_NUM_THREADS: 1

Input parameters:
  convergence: {bands: occupied,
                density: 0.0001,
                eigenstates: 4e-08,
                energy: 0.0005,
                forces: 1e-06}
  kpts: [6 6 4]
  mode: {ecut: 600.0,
         gammacentered: False,
         name: pw}
  occupations: {fixmagmom: False,
                name: fermi-dirac,
                width: 0.001}
  setups: {Mn: :d,3.0}
  symmetry: {point_group: False,
             time_reversal: False}

System changes: positions, numbers, cell, pbc, initial_charges, initial_magmoms 

Initialize ...

O-setup:
  name: Oxygen
  id: 9b9d51c344dea68c822856295a461509
  Z: 8.0
  valence: 6
  core: 2
  charge: 0.0
  file: /home/modules/software/GPAW-setups/0.9.20000/O.LDA.gz
  compensation charges: gauss, rc=0.21, lmax=2
  cutoffs: 1.17(filt), 0.83(core),
  valence states:
                energy  radius
    2s(2.00)   -23.752   0.688
    2p(4.00)    -9.195   0.598
    *s           3.459   0.688
    *p          18.016   0.598
    *d           0.000   0.619

  Using partial waves for O as LCAO basis

Mn-setup:
  name: Manganese
  id: 0d715a8018be061a6e9ea6f2d364ac92
  Z: 25.0
  valence: 15
  core: 10
  charge: 0.0
  Hubbard U: 3.000000 eV (l=2, scale=True)
  file: /home/modules/software/GPAW-setups/0.9.20000/Mn.LDA.gz
  compensation charges: gauss, rc=0.38, lmax=2
  cutoffs: 2.14(filt), 0.86(core),
  valence states:
                energy  radius
    3s(2.00)   -85.387   1.275
    4s(2.00)    -5.282   1.275
    3p(6.00)   -54.493   1.281
    4p(0.00)    -1.471   1.281
    3d(5.00)    -7.009   1.138
    *d          20.203   1.138

  Using partial waves for Mn as LCAO basis

P-setup:
  name: Phosphorus
  id: a5561c299094968922a179ab894d2e2d
  Z: 15.0
  valence: 5
  core: 10
  charge: 0.0
  file: /home/modules/software/GPAW-setups/0.9.20000/P.LDA.gz
  compensation charges: gauss, rc=0.30, lmax=2
  cutoffs: 1.69(filt), 1.81(core),
  valence states:
                energy  radius
    3s(2.00)   -14.015   0.953
    3p(3.00)    -5.596   0.953
    *s          13.197   0.953
    *p          21.615   0.953
    *d           0.000   0.953

  Using partial waves for P as LCAO basis

Li-setup:
  name: Lithium
  id: b73562207f97a71b6967473b66fe8b65
  Z: 3.0
  valence: 1
  core: 2
  charge: 0.0
  file: /home/modules/software/GPAW-setups/0.9.20000/Li.LDA.gz
  compensation charges: gauss, rc=0.33, lmax=2
  cutoffs: 1.91(filt), 2.55(core),
  valence states:
                energy  radius
    2s(1.00)    -2.874   1.058
    2p(0.00)    -1.126   1.058
    *s          24.338   1.058

  Using partial waves for Li as LCAO basis

Reference energy: -196157.275402

Spin-polarized calculation.
Magnetic moment: 0.000000

Convergence criteria:
  Maximum total energy change: 0.0005 eV / electron
  Maximum integral of absolute density change: 0.0001 electrons
  Maximum integral of absolute eigenstate change: 4e-08 eV^2
  Maximum change in atomic force: 1e-06 eV / Ang
  Maximum number of iterations: 333

Symmetries present (total): 1

  ( 1  0  0)
  ( 0  1  0)
  ( 0  0  1)

144 k-points: 6 x 6 x 4 Monkhorst-Pack grid
144 k-points in the irreducible part of the Brillouin zone
       k-points in crystal coordinates                weights
   0:    -0.41666667   -0.41666667   -0.37500000          1/144
   1:    -0.41666667   -0.41666667   -0.12500000          1/144
   2:    -0.41666667   -0.41666667    0.12500000          1/144
   3:    -0.41666667   -0.41666667    0.37500000          1/144
   4:    -0.41666667   -0.25000000   -0.37500000          1/144
   5:    -0.41666667   -0.25000000   -0.12500000          1/144
   6:    -0.41666667   -0.25000000    0.12500000          1/144
   7:    -0.41666667   -0.25000000    0.37500000          1/144
   8:    -0.41666667   -0.08333333   -0.37500000          1/144
   9:    -0.41666667   -0.08333333   -0.12500000          1/144
          ...
 143:     0.41666667    0.41666667    0.37500000          1/144

Wave functions: Plane wave expansion
  Cutoff energy: 600.000 eV
  Number of coefficients (min, max): 9238, 9284
  Pulay-stress correction: 0.000000 eV/Ang^3 (de/decut=0.000000)
  Using FFTW library
  ScaLapack parameters: grid=1x1, blocksize=None
  Wavefunction extrapolation:
    Improved wavefunction reuse through dual PAW basis 

  Fermi-Dirac: width=0.0010 eV

Eigensolver
   Davidson(niter=2, smin=None, normalize=True) 

Densities:
  Coarse grid: 60*35*27 grid
  Fine grid: 120*70*54 grid
  Total Charge: 0.000000 

Density mixing:
  Method: difference
  Backend: pulay
  Linear mixing parameter: 0.05
  Mixing with 5 old densities
  Damping of long wave oscillations: 50 

Hamiltonian:
  XC and Coulomb potentials evaluated on a 120*70*54 grid
  Using the LDA Exchange-Correlation functional
 

Memory estimate:
  Process memory now: 13657.28 MiB
  Calculator: 326.59 MiB
    Density: 9.67 MiB
      Arrays: 3.79 MiB
      Localized functions: 4.32 MiB
      Mixer: 1.56 MiB
    Hamiltonian: 2.94 MiB
      Arrays: 2.82 MiB
      XC: 0.00 MiB
      Poisson: 0.00 MiB
      vbar: 0.12 MiB
    Wavefunctions: 313.97 MiB
      Arrays psit_nG: 285.59 MiB
      Eigensolver: 18.49 MiB
      Projections: 2.71 MiB
      Projectors: 4.46 MiB
      PW-descriptor: 2.72 MiB

Total number of cores used: 64
Parallelization over k-points: 16
Domain decomposition: 2 x 2 x 1

Number of atoms: 28
Number of atomic orbitals: 148
Number of bands in calculation: 112
Number of valence electrons: 180
Bands to converge: occupied

... initialized

Initializing position-dependent things.

Density initialized from atomic densities
Creating initial wave functions:
  112 bands from LCAO basis set

                                           
                                           
                                           
                                           
                                           
               O     O  P  O               
            PO           OMn     O         
                  O          MO            
            O        Li O                  
             Mn  On          OP            
         O         Li O                    
         Li     O P         O              
       Li                                  
                                           
                                           
                                           
                                           

Positions:
   0 O     -1.263197   -2.497779   -1.098475    ( 0.0000,  0.0000,  0.0000)
   1 O     -3.070823    2.922496    1.209491    ( 0.0000,  0.0000,  0.0000)
   2 O      1.985541    0.474863    1.428016    ( 0.0000,  0.0000,  0.0000)
   3 O      3.793120   -0.050100   -0.879950    ( 0.0000,  0.0000,  0.0000)
   4 O      1.985518    2.922485    1.428149    ( 0.0000,  0.0000,  0.0000)
   5 O      3.793144   -2.497790   -0.879818    ( 0.0000,  0.0000,  0.0000)
   6 O     -1.263220   -0.050157   -1.098342    ( 0.0000,  0.0000,  0.0000)
   7 O     -3.070798    0.474805    1.209623    ( 0.0000,  0.0000,  0.0000)
   8 O     -4.167835   -1.273920   -0.862116    ( 0.0000,  0.0000,  0.0000)
   9 O     -0.166037    1.698602    1.445528    ( 0.0000,  0.0000,  0.0000)
  10 O      4.890156    1.698625    1.191790    ( 0.0000,  0.0000,  0.0000)
  11 O      0.888358   -1.273896   -1.115855    ( 0.0000,  0.0000,  0.0000)
  12 Mn    -2.445557   -1.274211    0.312921    ( 0.0000,  0.0000,  1.0000)
  13 Mn    -1.888303    1.698892   -1.994948    ( 0.0000,  0.0000, -1.0000)
  14 Mn     3.167879    1.698917    0.016752    ( 0.0000,  0.0000, -1.0000)
  15 Mn     2.610624   -1.274187    2.324621    ( 0.0000,  0.0000,  1.0000)
  16 P     -0.529549   -1.273917   -1.724376    ( 0.0000,  0.0000,  0.0000)
  17 P     -3.804359    1.698599    0.583463    ( 0.0000,  0.0000,  0.0000)
  18 P      1.251870    1.698623    2.054050    ( 0.0000,  0.0000,  0.0000)
  19 P      4.526680   -1.273894   -0.253789    ( 0.0000,  0.0000,  0.0000)
  20 O     -0.544227   -1.273926    1.365380    ( 0.0000,  0.0000,  0.0000)
  21 O     -3.789411    1.698610   -0.942222    ( 0.0000,  0.0000,  0.0000)
  22 O      1.266548    1.698631   -1.025707    ( 0.0000,  0.0000,  0.0000)
  23 O      4.511733   -1.273905    1.271895    ( 0.0000,  0.0000,  0.0000)
  24 Li    -4.695087   -2.760584   -2.142877    ( 0.0000,  0.0000,  0.0000)
  25 Li     0.361147   -2.760561    0.164836    ( 0.0000,  0.0000,  0.0000)
  26 Li    -4.695074    0.212330   -2.142877    ( 0.0000,  0.0000,  0.0000)
  27 Li     0.361161    0.212353    0.164837    ( 0.0000,  0.0000,  0.0000)

Unit cell:
           periodic     x           y           z      points  spacing
  1. axis:    yes   10.112485    0.000045   -0.000035    60     0.1685
  2. axis:    yes    0.000026    5.945827    0.000001    35     0.1699
  3. axis:    yes   -0.000016    0.000000    4.615463    27     0.1709

  Lengths:  10.112485   5.945827   4.615463
  Angles:   89.999989  90.000396  89.999490

Effective grid spacing dv^(1/3) = 0.1698

                     log10-error:           total        iterations:
           time      wfs    density  force  energy       poisson  magmom
iter:   1  22:02:07                       -221.380291             +0.0000
iter:   2  22:02:27  -0.61  -0.93         -234.826769             +0.0000
iter:   3  22:02:47  -0.37  -0.97         -225.906029             -0.0000
iter:   4  22:03:07  -1.39  -1.29         -225.759986             +0.0000
iter:   5  22:03:27  -1.27  -1.39         -227.320043             +0.0000
iter:   6  22:03:47  -1.47  -1.46         -225.735622             +0.0000
iter:   7  22:04:07  -2.46  -2.04         -225.720937             +0.0000
iter:   8  22:04:27  -2.04  -1.99         -225.630485             +0.0000
iter:   9  22:04:47  -2.41  -2.03         -225.427157             +0.0000
iter:  10  22:05:07  -3.29  -2.58         -225.418271             +0.0000
iter:  11  22:05:27  -3.78  -2.86         -225.410552             +0.0000
iter:  12  22:05:47  -4.19  -3.01         -225.408996             +0.0000
iter:  13  22:06:07  -5.04  -3.28         -225.408817             +0.0000
iter:  14  22:06:27  -4.99  -3.33         -225.408812             +0.0000
iter:  15  22:06:47  -5.99  -3.42         -225.408671             +0.0000
iter:  16  22:07:07  -4.80  -3.47         -225.408820             -0.0000
iter:  17  22:07:26  -6.07  -3.49         -225.408913             -0.0000
iter:  18  22:07:46  -5.03  -3.45         -225.408700             -0.0000
iter:  19  22:08:06  -6.42  -3.74         -225.408672             -0.0000
iter:  20  22:08:26  -7.19  -3.79         -225.408660             -0.0000
iter:  21  22:08:46  -6.60  -3.84         -225.408631             -0.0000
iter:  22  22:09:06  -7.45  -3.97         -225.408623             -0.0000
iter:  23  22:09:26  -6.60  -4.02         -225.408607             -0.0000
iter:  24  22:09:46  -7.01  -4.58         -225.408604             -0.0000
iter:  25  22:10:10  -8.36  -4.96         -225.408605             -0.0000
iter:  26  22:10:35  -7.83  -4.98    -2.98-225.408606             -0.0000
iter:  27  22:10:59  -7.80  -5.02    -2.85-225.408606             -0.0000
iter:  28  22:11:24  -9.19  -5.27    -3.21-225.408606             -0.0000
iter:  29  22:11:49  -9.17  -5.38    -3.52-225.408606             -0.0000
iter:  30  22:12:13  -9.46  -5.53    -3.32-225.408606             -0.0000
iter:  31  22:12:38 -10.13  -5.65    -3.90-225.408606             -0.0000
iter:  32  22:13:02  -9.86  -5.70    -3.52-225.408606             -0.0000
iter:  33  22:13:27 -10.78  -5.79    -4.29-225.408606             -0.0000
iter:  34  22:13:51  -9.73  -5.81    -3.62-225.408606             +0.0000
iter:  35  22:14:16 -11.17  -6.35    -4.23-225.408606             -0.0000
iter:  36  22:14:41 -11.80  -6.47    -5.06-225.408606             -0.0000
iter:  37  22:15:05 -10.91  -6.52    -4.21-225.408606             -0.0000
iter:  38  22:15:30 -11.43  -6.93    -5.07-225.408606             -0.0000
iter:  39  22:15:54 -11.53  -6.96    -5.54-225.408606             -0.0000
iter:  40  22:16:19 -12.26  -7.18    -4.82-225.408606             -0.0000
iter:  41  22:16:43 -13.23  -7.41    -6.23-225.408606             -0.0000

Converged after 41 iterations.

Dipole moment: (19.057965, -1.425556, -4.180411) |e|*Ang

Total magnetic moment: (0.000000, 0.000000, -0.000000)
Local magnetic moments:
   0 O  ( 0.000000,  0.000000,  0.000655)
   1 O  ( 0.000000,  0.000000, -0.000674)
   2 O  ( 0.000000,  0.000000, -0.000606)
   3 O  ( 0.000000,  0.000000,  0.000648)
   4 O  ( 0.000000,  0.000000, -0.000611)
   5 O  ( 0.000000,  0.000000,  0.000652)
   6 O  ( 0.000000,  0.000000,  0.000651)
   7 O  ( 0.000000,  0.000000, -0.000670)
   8 O  ( 0.000000,  0.000000,  0.022368)
   9 O  ( 0.000000,  0.000000, -0.022394)
  10 O  ( 0.000000,  0.000000, -0.022277)
  11 O  ( 0.000000,  0.000000,  0.022365)
  12 Mn ( 0.000000,  0.000000,  4.575054)
  13 Mn ( 0.000000,  0.000000, -4.575060)
  14 Mn ( 0.000000,  0.000000, -4.574712)
  15 Mn ( 0.000000,  0.000000,  4.575063)
  16 P  ( 0.000000,  0.000000,  0.000813)
  17 P  ( 0.000000,  0.000000, -0.000817)
  18 P  ( 0.000000,  0.000000, -0.000879)
  19 P  ( 0.000000,  0.000000,  0.000794)
  20 O  ( 0.000000,  0.000000,  0.020707)
  21 O  ( 0.000000,  0.000000, -0.020716)
  22 O  ( 0.000000,  0.000000, -0.020847)
  23 O  ( 0.000000,  0.000000,  0.020713)
  24 Li ( 0.000000,  0.000000, -0.000000)
  25 Li ( 0.000000,  0.000000, -0.000012)
  26 Li ( 0.000000,  0.000000, -0.000000)
  27 Li ( 0.000000,  0.000000, -0.000012)

Energy contributions relative to reference atoms: (reference = -196157.275402)

Kinetic:       +296.126329
Potential:     -255.817836
External:        +0.000000
XC:            -267.499739
Entropy (-ST):   -0.000000
Local:           +1.782641
--------------------------
Free energy:   -225.408606
Extrapolated:  -225.408606

Spin contamination: 9.697307 electrons
Showing only first 2 kpts
                      Up                     Down
 Kpt  Band  Eigenvalues  Occupancy  Eigenvalues  Occupancy
  0    88      5.10882    0.00694      5.11558    0.00694
  0    89      5.16066    0.00694      5.16946    0.00694
  0    90      9.65426    0.00000      9.65205    0.00000
  0    91      9.67108    0.00000      9.66938    0.00000

  1    88      5.12039    0.00694      5.12702    0.00694
  1    89      5.16989    0.00694      5.17905    0.00694
  1    90      9.53626    0.00000      9.53468    0.00000
  1    91      9.54486    0.00000      9.54295    0.00000


Fermi level: 6.37151

Gap: 3.784 eV
Transition (v -> c):
  (s=1, k=71, n=89, [-0.08, 0.42, 0.38]) -> (s=1, k=85, n=90, [0.08, 0.08, -0.12])
Writing to born-0.01-22z+.gpw (mode='all')

Timing:                              incl.     excl.
-----------------------------------------------------------
Hamiltonian:                         0.221     0.002   0.0% |
 Atomic:                             0.059     0.059   0.0% |
  XC Correction:                     0.000     0.000   0.0% |
 Calculate atomic Hamiltonians:      0.074     0.074   0.0% |
 Communicate:                        0.002     0.002   0.0% |
 Initialize Hamiltonian:             0.000     0.000   0.0% |
 Poisson:                            0.001     0.001   0.0% |
 XC 3D grid:                         0.083     0.083   0.0% |
LCAO initialization:                69.161     0.646   0.0% |
 LCAO eigensolver:                  19.102     0.002   0.0% |
  Calculate projections:             0.029     0.029   0.0% |
  DenseAtomicCorrection:             0.045     0.045   0.0% |
  Distribute overlap matrix:         0.009     0.009   0.0% |
  Orbital Layouts:                   0.432     0.432   0.0% |
  Potential matrix:                 18.487    18.487   0.7% |
  Sum over cells:                    0.098     0.098   0.0% |
 LCAO to grid:                      48.076    48.076   1.7% ||
 Set positions (LCAO WFS):           1.338     0.191   0.0% |
  Basic WFS set positions:           0.001     0.001   0.0% |
  Basis functions set positions:     0.000     0.000   0.0% |
  P tci:                             0.520     0.520   0.0% |
  ST tci:                            0.380     0.380   0.0% |
  mktci:                             0.246     0.246   0.0% |
PWDescriptor:                        0.024     0.024   0.0% |
SCF-cycle:                         900.323     3.308   0.1% |
 Davidson:                         775.394   237.374   8.3% |--|
  Apply H:                          53.592    52.007   1.8% ||
   HMM T:                            1.585     1.585   0.1% |
  Subspace diag:                   112.868     0.119   0.0% |
   calc_h_matrix:                   72.788    18.719   0.7% |
    Apply H:                        54.069    52.456   1.8% ||
     HMM T:                          1.613     1.613   0.1% |
   diagonalize:                      5.593     5.593   0.2% |
   rotate_psi:                      34.367    34.367   1.2% |
  calc. matrices:                  232.413   127.186   4.5% |-|
   Apply H:                        105.227   102.253   3.6% ||
    HMM T:                           2.974     2.974   0.1% |
  diagonalize:                      64.619    64.619   2.3% ||
  rotate_psi:                       74.529    74.529   2.6% ||
 Density:                           30.522     0.001   0.0% |
  Atomic density matrices:           0.654     0.654   0.0% |
  Mix:                               4.275     4.275   0.2% |
  Multipole moments:                 0.015     0.015   0.0% |
  Pseudo density:                   25.576    25.575   0.9% |
   Symmetrize density:               0.001     0.001   0.0% |
 Forces:                            80.158    80.158   2.8% ||
 Hamiltonian:                        8.850     0.086   0.0% |
  Atomic:                            2.238     2.238   0.1% |
   XC Correction:                    0.000     0.000   0.0% |
  Calculate atomic Hamiltonians:     3.027     3.027   0.1% |
  Communicate:                       0.068     0.068   0.0% |
  Poisson:                           0.024     0.024   0.0% |
  XC 3D grid:                        3.408     3.408   0.1% |
 Orthonormalize:                     2.090     0.003   0.0% |
  calc_s_matrix:                     0.245     0.245   0.0% |
  inverse-cholesky:                  0.073     0.073   0.0% |
  projections:                       1.335     1.335   0.0% |
  rotate_psi_s:                      0.434     0.434   0.0% |
Set symmetry:                        0.000     0.000   0.0% |
Other:                            1873.761  1873.761  65.9% |-------------------------|
-----------------------------------------------------------
Total:                                      2843.489 100.0%

Memory usage: 13.34 GiB
Date: Wed Mar 24 22:47:56 2021
