
  ___ ___ ___ _ _ _  
 |   |   |_  | | | | 
 | | | | | . | | | | 
 |__ |  _|___|_____|  20.10.1b1
 |___|_|             

User:   madkru@i018.nifl.fysik.dtu.dk
Date:   Wed Mar 24 10:23:38 2021
Arch:   x86_64
Pid:    26873
Python: 3.7.4
gpaw:   /home/niflheim/madkru/venv_folder/gpaw/gpaw (d0d1ca1c71)
_gpaw:  /home/niflheim/madkru/venv_folder/gpaw/build/lib.linux-x86_64-ivybridge-3.7/
        _gpaw.cpython-37m-x86_64-linux-gnu.so (4fd39e8b1e)
ase:    /home/niflheim/madkru/venv_folder/ase/ase (version 3.21.0b1-7e6c206a91)
numpy:  /home/niflheim/madkru/venv_folder/lib/python3.7/site-packages/numpy (version 1.19.4)
scipy:  /home/niflheim/madkru/venv_folder/lib/python3.7/site-packages/scipy (version 1.5.4)
libxc:  4.3.4
units:  Angstrom and eV
cores: 64
OMP_NUM_THREADS: 1

Input parameters:
  convergence: {bands: occupied,
                density: 0.0001,
                eigenstates: 4e-08,
                energy: 0.0005,
                forces: 1e-06}
  kpts: [6 6 4]
  mode: {ecut: 600.0,
         gammacentered: False,
         name: pw}
  occupations: {fixmagmom: False,
                name: fermi-dirac,
                width: 0.001}
  setups: {Mn: :d,3.0}
  symmetry: {point_group: False,
             time_reversal: False}

System changes: positions, numbers, cell, pbc, initial_charges, initial_magmoms 

Initialize ...

O-setup:
  name: Oxygen
  id: 9b9d51c344dea68c822856295a461509
  Z: 8.0
  valence: 6
  core: 2
  charge: 0.0
  file: /home/modules/software/GPAW-setups/0.9.20000/O.LDA.gz
  compensation charges: gauss, rc=0.21, lmax=2
  cutoffs: 1.17(filt), 0.83(core),
  valence states:
                energy  radius
    2s(2.00)   -23.752   0.688
    2p(4.00)    -9.195   0.598
    *s           3.459   0.688
    *p          18.016   0.598
    *d           0.000   0.619

  Using partial waves for O as LCAO basis

Mn-setup:
  name: Manganese
  id: 0d715a8018be061a6e9ea6f2d364ac92
  Z: 25.0
  valence: 15
  core: 10
  charge: 0.0
  Hubbard U: 3.000000 eV (l=2, scale=True)
  file: /home/modules/software/GPAW-setups/0.9.20000/Mn.LDA.gz
  compensation charges: gauss, rc=0.38, lmax=2
  cutoffs: 2.14(filt), 0.86(core),
  valence states:
                energy  radius
    3s(2.00)   -85.387   1.275
    4s(2.00)    -5.282   1.275
    3p(6.00)   -54.493   1.281
    4p(0.00)    -1.471   1.281
    3d(5.00)    -7.009   1.138
    *d          20.203   1.138

  Using partial waves for Mn as LCAO basis

P-setup:
  name: Phosphorus
  id: a5561c299094968922a179ab894d2e2d
  Z: 15.0
  valence: 5
  core: 10
  charge: 0.0
  file: /home/modules/software/GPAW-setups/0.9.20000/P.LDA.gz
  compensation charges: gauss, rc=0.30, lmax=2
  cutoffs: 1.69(filt), 1.81(core),
  valence states:
                energy  radius
    3s(2.00)   -14.015   0.953
    3p(3.00)    -5.596   0.953
    *s          13.197   0.953
    *p          21.615   0.953
    *d           0.000   0.953

  Using partial waves for P as LCAO basis

Li-setup:
  name: Lithium
  id: b73562207f97a71b6967473b66fe8b65
  Z: 3.0
  valence: 1
  core: 2
  charge: 0.0
  file: /home/modules/software/GPAW-setups/0.9.20000/Li.LDA.gz
  compensation charges: gauss, rc=0.33, lmax=2
  cutoffs: 1.91(filt), 2.55(core),
  valence states:
                energy  radius
    2s(1.00)    -2.874   1.058
    2p(0.00)    -1.126   1.058
    *s          24.338   1.058

  Using partial waves for Li as LCAO basis

Reference energy: -196157.275402

Spin-polarized calculation.
Magnetic moment: 0.000000

Convergence criteria:
  Maximum total energy change: 0.0005 eV / electron
  Maximum integral of absolute density change: 0.0001 electrons
  Maximum integral of absolute eigenstate change: 4e-08 eV^2
  Maximum change in atomic force: 1e-06 eV / Ang
  Maximum number of iterations: 333

Symmetries present (total): 1

  ( 1  0  0)
  ( 0  1  0)
  ( 0  0  1)

144 k-points: 6 x 6 x 4 Monkhorst-Pack grid
144 k-points in the irreducible part of the Brillouin zone
       k-points in crystal coordinates                weights
   0:    -0.41666667   -0.41666667   -0.37500000          1/144
   1:    -0.41666667   -0.41666667   -0.12500000          1/144
   2:    -0.41666667   -0.41666667    0.12500000          1/144
   3:    -0.41666667   -0.41666667    0.37500000          1/144
   4:    -0.41666667   -0.25000000   -0.37500000          1/144
   5:    -0.41666667   -0.25000000   -0.12500000          1/144
   6:    -0.41666667   -0.25000000    0.12500000          1/144
   7:    -0.41666667   -0.25000000    0.37500000          1/144
   8:    -0.41666667   -0.08333333   -0.37500000          1/144
   9:    -0.41666667   -0.08333333   -0.12500000          1/144
          ...
 143:     0.41666667    0.41666667    0.37500000          1/144

Wave functions: Plane wave expansion
  Cutoff energy: 600.000 eV
  Number of coefficients (min, max): 9238, 9284
  Pulay-stress correction: 0.000000 eV/Ang^3 (de/decut=0.000000)
  Using FFTW library
  ScaLapack parameters: grid=1x1, blocksize=None
  Wavefunction extrapolation:
    Improved wavefunction reuse through dual PAW basis 

  Fermi-Dirac: width=0.0010 eV

Eigensolver
   Davidson(niter=2, smin=None, normalize=True) 

Densities:
  Coarse grid: 60*35*27 grid
  Fine grid: 120*70*54 grid
  Total Charge: 0.000000 

Density mixing:
  Method: difference
  Backend: pulay
  Linear mixing parameter: 0.05
  Mixing with 5 old densities
  Damping of long wave oscillations: 50 

Hamiltonian:
  XC and Coulomb potentials evaluated on a 120*70*54 grid
  Using the LDA Exchange-Correlation functional
 

Memory estimate:
  Process memory now: 13104.83 MiB
  Calculator: 326.59 MiB
    Density: 9.67 MiB
      Arrays: 3.79 MiB
      Localized functions: 4.32 MiB
      Mixer: 1.56 MiB
    Hamiltonian: 2.94 MiB
      Arrays: 2.82 MiB
      XC: 0.00 MiB
      Poisson: 0.00 MiB
      vbar: 0.12 MiB
    Wavefunctions: 313.97 MiB
      Arrays psit_nG: 285.59 MiB
      Eigensolver: 18.49 MiB
      Projections: 2.71 MiB
      Projectors: 4.46 MiB
      PW-descriptor: 2.72 MiB

Total number of cores used: 64
Parallelization over k-points: 16
Domain decomposition: 2 x 2 x 1

Number of atoms: 28
Number of atomic orbitals: 148
Number of bands in calculation: 112
Number of valence electrons: 180
Bands to converge: occupied

... initialized

Initializing position-dependent things.

Density initialized from atomic densities
Creating initial wave functions:
  112 bands from LCAO basis set

                                           
                                           
                                           
                                           
                                           
               O     O  P  O               
            PO           OMn     O         
                  O          MO            
            O        Li O                  
             Mn  On          OP            
         O         Li O                    
         Li     O P         O              
       Li                                  
                                           
                                           
                                           
                                           

Positions:
   0 O     -1.263197   -2.497779   -1.098475    ( 0.0000,  0.0000,  0.0000)
   1 O     -3.070823    2.922496    1.209491    ( 0.0000,  0.0000,  0.0000)
   2 O      1.985541    0.474863    1.428016    ( 0.0000,  0.0000,  0.0000)
   3 O      3.793120   -0.050100   -0.879950    ( 0.0000,  0.0000,  0.0000)
   4 O      1.985518    2.922485    1.428149    ( 0.0000,  0.0000,  0.0000)
   5 O      3.793144   -2.497790   -0.879818    ( 0.0000,  0.0000,  0.0000)
   6 O     -1.263220   -0.050157   -1.098342    ( 0.0000,  0.0000,  0.0000)
   7 O     -3.070798    0.474805    1.209623    ( 0.0000,  0.0000,  0.0000)
   8 O     -4.167835   -1.273920   -0.862116    ( 0.0000,  0.0000,  0.0000)
   9 O     -0.166037    1.698602    1.445528    ( 0.0000,  0.0000,  0.0000)
  10 O      4.890156    1.698625    1.191790    ( 0.0000,  0.0000,  0.0000)
  11 O      0.888358   -1.273896   -1.115855    ( 0.0000,  0.0000,  0.0000)
  12 Mn    -2.445557   -1.274211    0.312921    ( 0.0000,  0.0000,  1.0000)
  13 Mn    -1.888303    1.698892   -1.994948    ( 0.0000,  0.0000, -1.0000)
  14 Mn     3.167879    1.698917    0.016752    ( 0.0000,  0.0000, -1.0000)
  15 Mn     2.610624   -1.274187    2.324621    ( 0.0000,  0.0000,  1.0000)
  16 P     -0.529549   -1.273917   -1.724376    ( 0.0000,  0.0000,  0.0000)
  17 P     -3.804359    1.698599    0.583463    ( 0.0000,  0.0000,  0.0000)
  18 P      1.251870    1.698623    2.064050    ( 0.0000,  0.0000,  0.0000)
  19 P      4.526680   -1.273894   -0.253789    ( 0.0000,  0.0000,  0.0000)
  20 O     -0.544227   -1.273926    1.365380    ( 0.0000,  0.0000,  0.0000)
  21 O     -3.789411    1.698610   -0.942222    ( 0.0000,  0.0000,  0.0000)
  22 O      1.266548    1.698631   -1.035707    ( 0.0000,  0.0000,  0.0000)
  23 O      4.511733   -1.273905    1.271895    ( 0.0000,  0.0000,  0.0000)
  24 Li    -4.695087   -2.760584   -2.142877    ( 0.0000,  0.0000,  0.0000)
  25 Li     0.361147   -2.760561    0.164836    ( 0.0000,  0.0000,  0.0000)
  26 Li    -4.695074    0.212330   -2.142877    ( 0.0000,  0.0000,  0.0000)
  27 Li     0.361161    0.212353    0.164837    ( 0.0000,  0.0000,  0.0000)

Unit cell:
           periodic     x           y           z      points  spacing
  1. axis:    yes   10.112485    0.000045   -0.000035    60     0.1685
  2. axis:    yes    0.000026    5.945827    0.000001    35     0.1699
  3. axis:    yes   -0.000016    0.000000    4.615463    27     0.1709

  Lengths:  10.112485   5.945827   4.615463
  Angles:   89.999989  90.000396  89.999490

Effective grid spacing dv^(1/3) = 0.1698

                     log10-error:           total        iterations:
           time      wfs    density  force  energy       poisson  magmom
iter:   1  10:25:15                       -221.383426             +0.0000
iter:   2  10:25:35  -0.61  -0.93         -234.837050             +0.0000
iter:   3  10:25:55  -0.37  -0.97         -225.906677             -0.0000
iter:   4  10:26:14  -1.39  -1.29         -225.758722             +0.0000
iter:   5  10:26:34  -1.27  -1.39         -227.330238             +0.0000
iter:   6  10:26:54  -1.46  -1.46         -225.733558             +0.0000
iter:   7  10:27:14  -2.48  -2.04         -225.721677             +0.0000
iter:   8  10:27:34  -2.24  -2.00         -225.555621             +0.0000
iter:   9  10:27:54  -2.49  -2.14         -225.430631             +0.0000
iter:  10  10:28:13  -3.31  -2.54         -225.419974             +0.0000
iter:  11  10:28:33  -3.49  -2.81         -225.408214             +0.0000
iter:  12  10:28:53  -4.22  -3.05         -225.407445             -0.0000
iter:  13  10:29:13  -5.01  -3.30         -225.407566             -0.0000
iter:  14  10:29:33  -5.25  -3.32         -225.407383             -0.0000
iter:  15  10:29:53  -5.98  -3.46         -225.407411             -0.0000
iter:  16  10:30:12  -5.29  -3.50         -225.407769             -0.0000
iter:  17  10:30:32  -6.28  -3.57         -225.407615             -0.0000
iter:  18  10:30:52  -6.13  -3.62         -225.407555             +0.0000
iter:  19  10:31:12  -6.30  -3.76         -225.407496             -0.0000
iter:  20  10:31:32  -6.01  -3.89         -225.407389             -0.0000
iter:  21  10:31:52  -5.91  -3.93         -225.407316             +0.0000
iter:  22  10:32:11  -6.53  -4.36         -225.407337             -0.0000
iter:  23  10:32:31  -7.34  -4.41         -225.407339             -0.0000
iter:  24  10:32:51  -7.21  -4.53         -225.407334             -0.0000
iter:  25  10:33:16  -7.80  -4.68         -225.407333             -0.0000
iter:  26  10:33:40  -7.68  -4.69    -2.40-225.407333             -0.0000
iter:  27  10:34:05  -8.62  -5.10    -2.92-225.407333             -0.0000
iter:  28  10:34:30  -9.35  -5.33    -3.51-225.407333             -0.0000
iter:  29  10:34:54  -9.59  -5.43    -3.92-225.407333             -0.0000
iter:  30  10:35:19  -9.03  -5.48    -3.66-225.407333             -0.0000
iter:  31  10:35:43  -9.78  -5.55    -3.80-225.407333             -0.0000
iter:  32  10:36:08  -9.68  -5.60    -3.13-225.407333             -0.0000
iter:  33  10:36:32 -10.32  -5.80    -4.16-225.407333             -0.0000
iter:  34  10:36:57 -11.01  -5.85    -4.11-225.407333             -0.0000
iter:  35  10:37:21 -10.62  -5.91    -3.83-225.407333             -0.0000
iter:  36  10:37:46 -10.61  -6.06    -4.11-225.407333             -0.0000
iter:  37  10:38:11 -11.01  -6.15    -4.38-225.407333             -0.0000
iter:  38  10:38:35 -10.50  -6.24    -3.81-225.407333             -0.0000
iter:  39  10:39:00 -11.76  -6.56    -4.31-225.407333             -0.0000
iter:  40  10:39:24 -11.10  -6.65    -4.56-225.407333             -0.0000
iter:  41  10:39:49 -11.72  -6.85    -4.43-225.407333             -0.0000
iter:  42  10:40:13 -12.39  -7.04    -4.68-225.407333             +0.0000
iter:  43  10:40:38 -12.55  -7.16    -4.83-225.407333             -0.0000
iter:  44  10:41:02 -12.53  -7.13    -4.78-225.407333             -0.0000
iter:  45  10:41:27 -13.00  -7.37    -5.53-225.407333             -0.0000
iter:  46  10:41:52 -13.90  -7.43    -6.07-225.407333             -0.0000

Converged after 46 iterations.

Dipole moment: (19.036988, -1.432366, -4.162138) |e|*Ang

Total magnetic moment: (0.000000, 0.000000, -0.000000)
Local magnetic moments:
   0 O  ( 0.000000,  0.000000,  0.000639)
   1 O  ( 0.000000,  0.000000, -0.000673)
   2 O  ( 0.000000,  0.000000, -0.000526)
   3 O  ( 0.000000,  0.000000,  0.000672)
   4 O  ( 0.000000,  0.000000, -0.000530)
   5 O  ( 0.000000,  0.000000,  0.000676)
   6 O  ( 0.000000,  0.000000,  0.000635)
   7 O  ( 0.000000,  0.000000, -0.000669)
   8 O  ( 0.000000,  0.000000,  0.022367)
   9 O  ( 0.000000,  0.000000, -0.022557)
  10 O  ( 0.000000,  0.000000, -0.022437)
  11 O  ( 0.000000,  0.000000,  0.022366)
  12 Mn ( 0.000000,  0.000000,  4.575067)
  13 Mn ( 0.000000,  0.000000, -4.574846)
  14 Mn ( 0.000000,  0.000000, -4.575111)
  15 Mn ( 0.000000,  0.000000,  4.574740)
  16 P  ( 0.000000,  0.000000,  0.000812)
  17 P  ( 0.000000,  0.000000, -0.000817)
  18 P  ( 0.000000,  0.000000, -0.000927)
  19 P  ( 0.000000,  0.000000,  0.000830)
  20 O  ( 0.000000,  0.000000,  0.020709)
  21 O  ( 0.000000,  0.000000, -0.020679)
  22 O  ( 0.000000,  0.000000, -0.020482)
  23 O  ( 0.000000,  0.000000,  0.020729)
  24 Li ( 0.000000,  0.000000, -0.000000)
  25 Li ( 0.000000,  0.000000,  0.000002)
  26 Li ( 0.000000,  0.000000, -0.000000)
  27 Li ( 0.000000,  0.000000,  0.000002)

Energy contributions relative to reference atoms: (reference = -196157.275402)

Kinetic:       +296.832527
Potential:     -256.390775
External:        +0.000000
XC:            -267.629979
Entropy (-ST):   -0.000000
Local:           +1.780894
--------------------------
Free energy:   -225.407333
Extrapolated:  -225.407333

Spin contamination: 9.697102 electrons
Showing only first 2 kpts
                      Up                     Down
 Kpt  Band  Eigenvalues  Occupancy  Eigenvalues  Occupancy
  0    88      5.11503    0.00694      5.10569    0.00694
  0    89      5.16682    0.00694      5.16189    0.00694
  0    90      9.64774    0.00000      9.65505    0.00000
  0    91      9.67325    0.00000      9.67693    0.00000

  1    88      5.12654    0.00694      5.11743    0.00694
  1    89      5.17631    0.00694      5.17162    0.00694
  1    90      9.52989    0.00000      9.53661    0.00000
  1    91      9.54730    0.00000      9.55058    0.00000


Fermi level: 6.37052

Gap: 3.787 eV
Transition (v -> c):
  (s=0, k=72, n=89, [0.08, -0.42, -0.38]) -> (s=1, k=86, n=90, [0.08, 0.08, 0.12])
Writing to born-0.01-18z+.gpw (mode='all')

Timing:                              incl.     excl.
-----------------------------------------------------------
Hamiltonian:                         0.249     0.002   0.0% |
 Atomic:                             0.092     0.092   0.0% |
  XC Correction:                     0.000     0.000   0.0% |
 Calculate atomic Hamiltonians:      0.069     0.069   0.0% |
 Communicate:                        0.002     0.002   0.0% |
 Initialize Hamiltonian:             0.000     0.000   0.0% |
 Poisson:                            0.001     0.001   0.0% |
 XC 3D grid:                         0.083     0.083   0.0% |
LCAO initialization:                70.884     0.651   0.0% |
 LCAO eigensolver:                  19.376     0.002   0.0% |
  Calculate projections:             0.029     0.029   0.0% |
  DenseAtomicCorrection:             0.045     0.045   0.0% |
  Distribute overlap matrix:         0.009     0.009   0.0% |
  Orbital Layouts:                   0.434     0.434   0.0% |
  Potential matrix:                 18.758    18.758   0.6% |
  Sum over cells:                    0.099     0.099   0.0% |
 LCAO to grid:                      49.533    49.533   1.7% ||
 Set positions (LCAO WFS):           1.324     0.191   0.0% |
  Basic WFS set positions:           0.001     0.001   0.0% |
  Basis functions set positions:     0.000     0.000   0.0% |
  P tci:                             0.527     0.527   0.0% |
  ST tci:                            0.386     0.386   0.0% |
  mktci:                             0.218     0.218   0.0% |
PWDescriptor:                        0.024     0.024   0.0% |
SCF-cycle:                        1021.264     4.050   0.1% |
 Davidson:                         867.390   266.825   8.9% |---|
  Apply H:                          59.520    57.760   1.9% ||
   HMM T:                            1.760     1.760   0.1% |
  Subspace diag:                   125.691     0.133   0.0% |
   calc_h_matrix:                   80.692    21.028   0.7% |
    Apply H:                        59.664    57.887   1.9% ||
     HMM T:                          1.777     1.777   0.1% |
   diagonalize:                      6.250     6.250   0.2% |
   rotate_psi:                      38.616    38.616   1.3% ||
  calc. matrices:                  259.016   142.615   4.8% |-|
   Apply H:                        116.402   113.105   3.8% |-|
    HMM T:                           3.296     3.296   0.1% |
  diagonalize:                      72.631    72.631   2.4% ||
  rotate_psi:                       83.708    83.708   2.8% ||
 Density:                           34.554     0.001   0.0% |
  Atomic density matrices:           0.808     0.808   0.0% |
  Mix:                               4.816     4.816   0.2% |
  Multipole moments:                 0.017     0.017   0.0% |
  Pseudo density:                   28.913    28.911   1.0% |
   Symmetrize density:               0.001     0.001   0.0% |
 Forces:                           103.338   103.338   3.4% ||
 Hamiltonian:                        9.841     0.093   0.0% |
  Atomic:                            2.416     2.416   0.1% |
   XC Correction:                    0.000     0.000   0.0% |
  Calculate atomic Hamiltonians:     3.372     3.372   0.1% |
  Communicate:                       0.081     0.081   0.0% |
  Poisson:                           0.027     0.027   0.0% |
  XC 3D grid:                        3.851     3.851   0.1% |
 Orthonormalize:                     2.090     0.003   0.0% |
  calc_s_matrix:                     0.245     0.245   0.0% |
  inverse-cholesky:                  0.072     0.072   0.0% |
  projections:                       1.335     1.335   0.0% |
  rotate_psi_s:                      0.435     0.435   0.0% |
Set symmetry:                        0.000     0.000   0.0% |
Other:                            1903.479  1903.479  63.5% |------------------------|
-----------------------------------------------------------
Total:                                      2995.899 100.0%

Memory usage: 12.83 GiB
Date: Wed Mar 24 11:13:34 2021
