
  ___ ___ ___ _ _ _  
 |   |   |_  | | | | 
 | | | | | . | | | | 
 |__ |  _|___|_____|  20.10.1b1
 |___|_|             

User:   madkru@g001.nifl.fysik.dtu.dk
Date:   Sat Mar 20 08:08:22 2021
Arch:   x86_64
Pid:    2442
Python: 3.7.4
gpaw:   /home/niflheim/madkru/venv_folder/gpaw/gpaw (d0d1ca1c71)
_gpaw:  /home/niflheim/madkru/venv_folder/gpaw/build/lib.linux-x86_64-sandybridge-3.7/
        _gpaw.cpython-37m-x86_64-linux-gnu.so (4fd39e8b1e)
ase:    /home/niflheim/madkru/venv_folder/ase/ase (version 3.21.0b1-7e6c206a91)
numpy:  /home/niflheim/madkru/venv_folder/lib/python3.7/site-packages/numpy (version 1.19.4)
scipy:  /home/niflheim/madkru/venv_folder/lib/python3.7/site-packages/scipy (version 1.5.4)
libxc:  4.3.4
units:  Angstrom and eV
cores: 32
OMP_NUM_THREADS: 1

Input parameters:
  convergence: {forces: 1e-06}
  kpts: [6 6 4]
  mode: {ecut: 600.0,
         gammacentered: False,
         name: pw}
  occupations: {fixmagmom: False,
                name: fermi-dirac,
                width: 0.001}
  setups: {Mn: :d,3.0}
  symmetry: {point_group: False}

System changes: positions, numbers, cell, pbc, initial_charges, initial_magmoms 

Initialize ...

O-setup:
  name: Oxygen
  id: 9b9d51c344dea68c822856295a461509
  Z: 8.0
  valence: 6
  core: 2
  charge: 0.0
  file: /home/modules/software/GPAW-setups/0.9.20000/O.LDA.gz
  compensation charges: gauss, rc=0.21, lmax=2
  cutoffs: 1.17(filt), 0.83(core),
  valence states:
                energy  radius
    2s(2.00)   -23.752   0.688
    2p(4.00)    -9.195   0.598
    *s           3.459   0.688
    *p          18.016   0.598
    *d           0.000   0.619

  Using partial waves for O as LCAO basis

Mn-setup:
  name: Manganese
  id: 0d715a8018be061a6e9ea6f2d364ac92
  Z: 25.0
  valence: 15
  core: 10
  charge: 0.0
  Hubbard U: 3.000000 eV (l=2, scale=True)
  file: /home/modules/software/GPAW-setups/0.9.20000/Mn.LDA.gz
  compensation charges: gauss, rc=0.38, lmax=2
  cutoffs: 2.14(filt), 0.86(core),
  valence states:
                energy  radius
    3s(2.00)   -85.387   1.275
    4s(2.00)    -5.282   1.275
    3p(6.00)   -54.493   1.281
    4p(0.00)    -1.471   1.281
    3d(5.00)    -7.009   1.138
    *d          20.203   1.138

  Using partial waves for Mn as LCAO basis

P-setup:
  name: Phosphorus
  id: a5561c299094968922a179ab894d2e2d
  Z: 15.0
  valence: 5
  core: 10
  charge: 0.0
  file: /home/modules/software/GPAW-setups/0.9.20000/P.LDA.gz
  compensation charges: gauss, rc=0.30, lmax=2
  cutoffs: 1.69(filt), 1.81(core),
  valence states:
                energy  radius
    3s(2.00)   -14.015   0.953
    3p(3.00)    -5.596   0.953
    *s          13.197   0.953
    *p          21.615   0.953
    *d           0.000   0.953

  Using partial waves for P as LCAO basis

Li-setup:
  name: Lithium
  id: b73562207f97a71b6967473b66fe8b65
  Z: 3.0
  valence: 1
  core: 2
  charge: 0.0
  file: /home/modules/software/GPAW-setups/0.9.20000/Li.LDA.gz
  compensation charges: gauss, rc=0.33, lmax=2
  cutoffs: 1.91(filt), 2.55(core),
  valence states:
                energy  radius
    2s(1.00)    -2.874   1.058
    2p(0.00)    -1.126   1.058
    *s          24.338   1.058

  Using partial waves for Li as LCAO basis

Reference energy: -196157.275402

Spin-polarized calculation.
Magnetic moment: 0.000000

Convergence criteria:
  Maximum total energy change: 0.0005 eV / electron
  Maximum integral of absolute density change: 0.0001 electrons
  Maximum integral of absolute eigenstate change: 4e-08 eV^2
  Maximum change in atomic force: 1e-06 eV / Ang
  Maximum number of iterations: 333

Symmetries present (total): 1

  ( 1  0  0)
  ( 0  1  0)
  ( 0  0  1)

144 k-points: 6 x 6 x 4 Monkhorst-Pack grid
72 k-points in the irreducible part of the Brillouin zone
       k-points in crystal coordinates                weights
   0:     0.08333333   -0.41666667   -0.37500000          2/144
   1:     0.08333333   -0.41666667   -0.12500000          2/144
   2:     0.08333333   -0.41666667    0.12500000          2/144
   3:     0.08333333   -0.41666667    0.37500000          2/144
   4:     0.08333333   -0.25000000   -0.37500000          2/144
   5:     0.08333333   -0.25000000   -0.12500000          2/144
   6:     0.08333333   -0.25000000    0.12500000          2/144
   7:     0.08333333   -0.25000000    0.37500000          2/144
   8:     0.08333333   -0.08333333   -0.37500000          2/144
   9:     0.08333333   -0.08333333   -0.12500000          2/144
          ...
  71:     0.41666667    0.41666667    0.37500000          2/144

Wave functions: Plane wave expansion
  Cutoff energy: 600.000 eV
  Number of coefficients (min, max): 9238, 9284
  Pulay-stress correction: 0.000000 eV/Ang^3 (de/decut=0.000000)
  Using FFTW library
  ScaLapack parameters: grid=1x1, blocksize=None
  Wavefunction extrapolation:
    Improved wavefunction reuse through dual PAW basis 

  Fermi-Dirac: width=0.0010 eV

Eigensolver
   Davidson(niter=2, smin=None, normalize=True) 

Densities:
  Coarse grid: 60*35*27 grid
  Fine grid: 120*70*54 grid
  Total Charge: 0.000000 

Density mixing:
  Method: difference
  Backend: pulay
  Linear mixing parameter: 0.05
  Mixing with 5 old densities
  Damping of long wave oscillations: 50 

Hamiltonian:
  XC and Coulomb potentials evaluated on a 120*70*54 grid
  Using the LDA Exchange-Correlation functional
 

Memory estimate:
  Process memory now: 103.72 MiB
  Calculator: 141.00 MiB
    Density: 38.48 MiB
      Arrays: 15.14 MiB
      Localized functions: 17.29 MiB
      Mixer: 6.06 MiB
    Hamiltonian: 11.75 MiB
      Arrays: 11.25 MiB
      XC: 0.00 MiB
      Poisson: 0.00 MiB
      vbar: 0.50 MiB
    Wavefunctions: 90.77 MiB
      Arrays psit_nG: 63.46 MiB
      Eigensolver: 18.49 MiB
      Projections: 2.41 MiB
      Projectors: 3.96 MiB
      PW-descriptor: 2.45 MiB

Total number of cores used: 32
Parallelization over k-points: 32

Number of atoms: 28
Number of atomic orbitals: 148
Number of bands in calculation: 112
Number of valence electrons: 180
Bands to converge: occupied

... initialized

Initializing position-dependent things.

Density initialized from atomic densities
Creating initial wave functions:
  112 bands from LCAO basis set

                                           
                                           
                                           
                                           
                                           
               O     O  P  O               
            PO           OMn     O         
                  O          MO            
            O        Li O                  
             Mn  On          OP            
         O         Li O                    
         Li     O P         O              
       Li                                  
                                           
                                           
                                           
                                           

Positions:
   0 O      3.431891    0.262804    1.044402    ( 0.0000,  0.0000,  0.0000)
   1 O      1.624265    5.683079    3.352369    ( 0.0000,  0.0000,  0.0000)
   2 O      6.680628    3.235446    3.570893    ( 0.0000,  0.0000,  0.0000)
   3 O      8.488207    2.710483    1.262928    ( 0.0000,  0.0000,  0.0000)
   4 O      6.680605    5.683068    3.571026    ( 0.0000,  0.0000,  0.0000)
   5 O      8.488231    0.262793    1.263059    ( 0.0000,  0.0000,  0.0000)
   6 O      3.431867    2.710426    1.044535    ( 0.0000,  0.0000,  0.0000)
   7 O      1.624289    3.235389    3.352500    ( 0.0000,  0.0000,  0.0000)
   8 O      0.527252    1.486664    1.280761    ( 0.0000,  0.0000,  0.0000)
   9 O      4.529050    4.459185    3.588406    ( 0.0000,  0.0000,  0.0000)
  10 O      9.585244    4.459209    3.334667    ( 0.0000,  0.0000,  0.0000)
  11 O      5.583445    1.486687    1.027023    ( 0.0000,  0.0000,  0.0000)
  12 Mn     2.249530    1.486372    2.455799    ( 0.0000,  0.0000,  1.0000)
  13 Mn     2.806784    4.459476    0.147929    ( 0.0000,  0.0000, -1.0000)
  14 Mn     7.862966    4.459500    2.159630    ( 0.0000,  0.0000, -1.0000)
  15 Mn     7.305712    1.486396    4.467499    ( 0.0000,  0.0000,  1.0000)
  16 P      4.165539    1.486666    0.418501    ( 0.0000,  0.0000,  0.0000)
  17 P      0.890729    4.459183    2.726340    ( 0.0000,  0.0000,  0.0000)
  18 P      5.946957    4.459206    4.196927    ( 0.0000,  0.0000,  0.0000)
  19 P      9.221767    1.486689    1.889088    ( 0.0000,  0.0000,  0.0000)
  20 O      4.150861    1.486658    3.508258    ( 0.0000,  0.0000,  0.0000)
  21 O      0.905676    4.459194    1.200655    ( 0.0000,  0.0000,  0.0000)
  22 O      5.961635    4.459215    1.107171    ( 0.0000,  0.0000,  0.0000)
  23 O      9.206820    1.486678    3.414773    ( 0.0000,  0.0000,  0.0000)
  24 Li     0.000000   -0.000000   -0.000000    ( 0.0000,  0.0000,  0.0000)
  25 Li     5.056235    0.000023    2.307714    ( 0.0000,  0.0000,  0.0000)
  26 Li     0.000013    2.972913    0.000000    ( 0.0000,  0.0000,  0.0000)
  27 Li     5.056248    2.972936    2.307714    ( 0.0000,  0.0000,  0.0000)

Unit cell:
           periodic     x           y           z      points  spacing
  1. axis:    yes   10.112485    0.000045   -0.000035    60     0.1685
  2. axis:    yes    0.000026    5.945827    0.000001    35     0.1699
  3. axis:    yes   -0.000016    0.000000    4.615463    27     0.1709

  Lengths:  10.112485   5.945827   4.615463
  Angles:   89.999989  90.000396  89.999490

Effective grid spacing dv^(1/3) = 0.1698

                     log10-error:           total        iterations:
           time      wfs    density  force  energy       poisson  magmom
iter:   1  08:10:25                       -221.376878             +0.0000
iter:   2  08:10:48  -0.61  -0.93         -234.836307             +0.0000
iter:   3  08:11:12  -0.37  -0.97         -225.912473             +0.0000
iter:   4  08:11:36  -1.39  -1.29         -225.761908             +0.0000
iter:   5  08:12:00  -1.27  -1.39         -227.330161             +0.0000
iter:   6  08:12:24  -1.46  -1.46         -225.737695             +0.0000
iter:   7  08:12:47  -2.47  -2.04         -225.725110             +0.0000
iter:   8  08:13:11  -2.14  -1.99         -225.591093             -0.0000
iter:   9  08:13:35  -2.46  -2.09         -225.432704             -0.0000
iter:  10  08:13:59  -3.31  -2.55         -225.422785             -0.0000
iter:  11  08:14:23  -3.65  -2.81         -225.412367             +0.0000
iter:  12  08:14:47  -4.12  -3.05         -225.411256             +0.0000
iter:  13  08:15:10  -5.10  -3.29         -225.411134             -0.0000
iter:  14  08:15:34  -5.39  -3.32         -225.410961             +0.0000
iter:  15  08:15:58  -6.04  -3.43         -225.410967             +0.0000
iter:  16  08:16:22  -5.24  -3.47         -225.411310             +0.0000
iter:  17  08:16:46  -5.87  -3.58         -225.411195             +0.0000
iter:  18  08:17:09  -5.21  -3.70         -225.410909             +0.0000
iter:  19  08:17:33  -6.10  -4.14         -225.410914             +0.0000
iter:  20  08:17:57  -7.28  -4.54         -225.410915             +0.0000
iter:  21  08:18:28  -7.96  -4.56         -225.410915             +0.0000
iter:  22  08:18:59  -7.87  -4.64    -2.44-225.410915             -0.0000
iter:  23  08:19:31  -8.21  -4.85    -2.72-225.410915             -0.0000
iter:  24  08:20:02  -8.12  -5.02    -2.90-225.410915             -0.0000
iter:  25  08:20:33  -9.14  -5.20    -3.30-225.410915             -0.0000
iter:  26  08:21:04  -8.37  -5.31    -2.88-225.410914             -0.0000
iter:  27  08:21:36  -9.50  -5.46    -3.44-225.410914             -0.0000
iter:  28  08:22:07 -10.37  -5.54    -3.91-225.410914             +0.0000
iter:  29  08:22:38  -9.81  -5.58    -3.39-225.410914             +0.0000
iter:  30  08:23:09 -10.90  -5.70    -3.96-225.410914             +0.0000
iter:  31  08:23:41  -9.50  -5.76    -3.61-225.410914             +0.0000
iter:  32  08:24:12 -10.19  -6.06    -4.12-225.410914             +0.0000
iter:  33  08:24:43 -10.99  -6.41    -4.20-225.410914             -0.0000
iter:  34  08:25:14 -10.91  -6.66    -4.67-225.410914             +0.0000
iter:  35  08:25:46 -11.47  -6.97    -5.00-225.410914             +0.0000
iter:  36  08:26:17 -12.84  -7.15    -5.29-225.410914             +0.0000
iter:  37  08:26:48 -13.23  -7.20    -5.29-225.410914             +0.0000
iter:  38  08:27:20 -13.59  -7.26    -5.25-225.410914             +0.0000
iter:  39  08:27:51 -12.48  -7.34    -5.07-225.410914             +0.0000
iter:  40  08:28:22 -14.13  -7.40    -6.74-225.410914             +0.0000

Converged after 40 iterations.

Dipole moment: (-0.000000, -0.000000, 0.000000) |e|*Ang

Total magnetic moment: (0.000000, 0.000000, 0.000000)
Local magnetic moments:
   0 O  ( 0.000000,  0.000000,  0.000664)
   1 O  ( 0.000000,  0.000000, -0.000672)
   2 O  ( 0.000000,  0.000000, -0.000660)
   3 O  ( 0.000000,  0.000000,  0.000668)
   4 O  ( 0.000000,  0.000000, -0.000664)
   5 O  ( 0.000000,  0.000000,  0.000672)
   6 O  ( 0.000000,  0.000000,  0.000660)
   7 O  ( 0.000000,  0.000000, -0.000668)
   8 O  ( 0.000000,  0.000000,  0.022368)
   9 O  ( 0.000000,  0.000000, -0.022368)
  10 O  ( 0.000000,  0.000000, -0.022368)
  11 O  ( 0.000000,  0.000000,  0.022368)
  12 Mn ( 0.000000,  0.000000,  4.575066)
  13 Mn ( 0.000000,  0.000000, -4.575035)
  14 Mn ( 0.000000,  0.000000, -4.575066)
  15 Mn ( 0.000000,  0.000000,  4.575035)
  16 P  ( 0.000000,  0.000000,  0.000812)
  17 P  ( 0.000000,  0.000000, -0.000817)
  18 P  ( 0.000000,  0.000000, -0.000812)
  19 P  ( 0.000000,  0.000000,  0.000817)
  20 O  ( 0.000000,  0.000000,  0.020709)
  21 O  ( 0.000000,  0.000000, -0.020709)
  22 O  ( 0.000000,  0.000000, -0.020709)
  23 O  ( 0.000000,  0.000000,  0.020709)
  24 Li ( 0.000000,  0.000000, -0.000000)
  25 Li ( 0.000000,  0.000000,  0.000000)
  26 Li ( 0.000000,  0.000000,  0.000000)
  27 Li ( 0.000000,  0.000000, -0.000000)

Energy contributions relative to reference atoms: (reference = -196157.275402)

Kinetic:       +296.839049
Potential:     -256.382326
External:        +0.000000
XC:            -267.648558
Entropy (-ST):   -0.000000
Local:           +1.780920
--------------------------
Free energy:   -225.410914
Extrapolated:  -225.410914

Spin contamination: 9.697188 electrons
Showing only first 2 kpts
                      Up                     Down
 Kpt  Band  Eigenvalues  Occupancy  Eigenvalues  Occupancy
  0    88      5.03870    0.01389      5.03870    0.01389
  0    89      5.23106    0.01389      5.23106    0.01389
  0    90      9.62004    0.00000      9.62004    0.00000
  0    91      9.67965    0.00000      9.67965    0.00000

  1    88      5.04440    0.01389      5.04440    0.01389
  1    89      5.22830    0.01389      5.22830    0.01389
  1    90      9.52397    0.00000      9.52397    0.00000
  1    91      9.54691    0.00000      9.54691    0.00000


Fermi level: 6.36989

Gap: 3.796 eV
Transition (v -> c):
  (s=0, k=0, n=89, [0.08, -0.42, -0.38]) -> (s=1, k=13, n=90, [0.08, 0.08, -0.12])
Writing to LiMnPO4.gpw (mode='')


Forces in eV/Ang:
  0 O     0.00007   -0.00056    0.00026
  1 O     0.00013    0.00042    0.00024
  2 O     0.00004   -0.00044    0.00007
  3 O    -0.00022    0.00031    0.00008
  4 O    -0.00007    0.00056   -0.00026
  5 O    -0.00013   -0.00042   -0.00024
  6 O    -0.00004    0.00044   -0.00007
  7 O     0.00022   -0.00031   -0.00008
  8 O     0.00000   -0.00052   -0.00004
  9 O    -0.00004    0.00054   -0.00006
 10 O    -0.00000    0.00052    0.00004
 11 O     0.00004   -0.00054    0.00006
 12 Mn    0.00009    0.00019   -0.00037
 13 Mn    0.00017   -0.00018    0.00065
 14 Mn   -0.00009   -0.00019    0.00037
 15 Mn   -0.00017    0.00018   -0.00065
 16 P     0.00015   -0.00017    0.00012
 17 P    -0.00015    0.00018   -0.00006
 18 P    -0.00015    0.00017   -0.00012
 19 P     0.00015   -0.00018    0.00006
 20 O    -0.00056   -0.00016    0.00031
 21 O    -0.00065    0.00015   -0.00003
 22 O     0.00056    0.00016   -0.00031
 23 O     0.00065   -0.00015    0.00003
 24 Li   -0.00000    0.00000    0.00000
 25 Li   -0.00000   -0.00000    0.00000
 26 Li   -0.00000   -0.00000    0.00000
 27 Li    0.00000    0.00000    0.00000

System changes: positions 

Initializing position-dependent things.

Density initialized from wave functions
                                           
                                           
                                           
                                           
                                           
               O     O  P  O               
            PO           OMn     O         
                  O          MO            
            O        Li O                  
             Mn  On          OP            
         O         Li O                    
         Li     O P         O              
       Li                                  
                                           
                                           
                                           
                                           

Positions:
   0 O      3.421891    0.262804    1.044402    ( 0.0000,  0.0000,  0.0000)
   1 O      1.624265    5.683079    3.352369    ( 0.0000,  0.0000,  0.0000)
   2 O      6.680628    3.235446    3.570893    ( 0.0000,  0.0000,  0.0000)
   3 O      8.488207    2.710483    1.262928    ( 0.0000,  0.0000,  0.0000)
   4 O      6.680605    5.683068    3.571026    ( 0.0000,  0.0000,  0.0000)
   5 O      8.488231    0.262793    1.263059    ( 0.0000,  0.0000,  0.0000)
   6 O      3.431867    2.710426    1.044535    ( 0.0000,  0.0000,  0.0000)
   7 O      1.624289    3.235389    3.352500    ( 0.0000,  0.0000,  0.0000)
   8 O      0.527252    1.486664    1.280761    ( 0.0000,  0.0000,  0.0000)
   9 O      4.529050    4.459185    3.588406    ( 0.0000,  0.0000,  0.0000)
  10 O      9.585244    4.459209    3.334667    ( 0.0000,  0.0000,  0.0000)
  11 O      5.583445    1.486687    1.027023    ( 0.0000,  0.0000,  0.0000)
  12 Mn     2.249530    1.486372    2.455799    ( 0.0000,  0.0000,  1.0000)
  13 Mn     2.806784    4.459476    0.147929    ( 0.0000,  0.0000, -1.0000)
  14 Mn     7.862966    4.459500    2.159630    ( 0.0000,  0.0000, -1.0000)
  15 Mn     7.305712    1.486396    4.467499    ( 0.0000,  0.0000,  1.0000)
  16 P      4.165539    1.486666    0.418501    ( 0.0000,  0.0000,  0.0000)
  17 P      0.890729    4.459183    2.726340    ( 0.0000,  0.0000,  0.0000)
  18 P      5.946957    4.459206    4.196927    ( 0.0000,  0.0000,  0.0000)
  19 P      9.221767    1.486689    1.889088    ( 0.0000,  0.0000,  0.0000)
  20 O      4.150861    1.486658    3.508258    ( 0.0000,  0.0000,  0.0000)
  21 O      0.905676    4.459194    1.200655    ( 0.0000,  0.0000,  0.0000)
  22 O      5.961635    4.459215    1.107171    ( 0.0000,  0.0000,  0.0000)
  23 O      9.206820    1.486678    3.414773    ( 0.0000,  0.0000,  0.0000)
  24 Li     0.000000   -0.000000   -0.000000    ( 0.0000,  0.0000,  0.0000)
  25 Li     5.056235    0.000023    2.307714    ( 0.0000,  0.0000,  0.0000)
  26 Li     0.000013    2.972913    0.000000    ( 0.0000,  0.0000,  0.0000)
  27 Li     5.056248    2.972936    2.307714    ( 0.0000,  0.0000,  0.0000)

Unit cell:
           periodic     x           y           z      points  spacing
  1. axis:    yes   10.112485    0.000045   -0.000035    60     0.1685
  2. axis:    yes    0.000026    5.945827    0.000001    35     0.1699
  3. axis:    yes   -0.000016    0.000000    4.615463    27     0.1709

  Lengths:  10.112485   5.945827   4.615463
  Angles:   89.999989  90.000396  89.999490

Effective grid spacing dv^(1/3) = 0.1698

                     log10-error:           total        iterations:
           time      wfs    density  force  energy       poisson  magmom
iter:   1  08:29:04  -3.87                -225.410800             -0.0001
iter:   2  08:29:28  -5.23  -3.60         -225.410683             -0.0000
iter:   3  08:29:52  -4.12  -3.63         -225.410360             +0.0000
iter:   4  08:30:16  -5.59  -3.76         -225.410182             -0.0000
iter:   5  08:30:39  -6.05  -3.99         -225.410168             -0.0000
iter:   6  08:31:03  -6.03  -4.11         -225.410143             -0.0000
iter:   7  08:31:27  -7.04  -4.46         -225.410141             -0.0000
iter:   8  08:31:51  -6.69  -4.58         -225.410140             -0.0000
iter:   9  08:32:15  -7.07  -4.75         -225.410140             -0.0000
iter:  10  08:32:45  -7.44  -4.88         -225.410140             -0.0000
iter:  11  08:33:16  -7.50  -4.96    -2.19-225.410139             -0.0000
iter:  12  08:33:47  -8.50  -5.45    -3.41-225.410139             -0.0000
iter:  13  08:34:19  -8.55  -5.49    -2.74-225.410139             +0.0000
iter:  14  08:34:50  -8.38  -5.47    -3.07-225.410139             -0.0000
iter:  15  08:35:21  -9.37  -5.66    -3.46-225.410139             -0.0000
iter:  16  08:35:52  -9.08  -5.72    -3.34-225.410139             -0.0000
iter:  17  08:36:23  -9.92  -6.10    -3.35-225.410139             -0.0000
iter:  18  08:36:54  -9.67  -6.04    -3.41-225.410139             -0.0000
iter:  19  08:37:26 -10.54  -6.63    -4.20-225.410139             -0.0000
iter:  20  08:37:57 -11.54  -6.66    -4.64-225.410139             -0.0000
iter:  21  08:38:28 -11.46  -6.78    -4.01-225.410139             -0.0000
iter:  22  08:38:59 -12.34  -7.06    -4.62-225.410139             -0.0000
iter:  23  08:39:30 -11.48  -7.16    -4.63-225.410139             +0.0000
iter:  24  08:40:01 -11.49  -6.95    -4.43-225.410139             +0.0000
iter:  25  08:40:33 -12.74  -7.18    -4.99-225.410139             +0.0000
iter:  26  08:41:04 -13.12  -7.47    -5.52-225.410139             +0.0000
iter:  27  08:41:35 -12.49  -7.50    -4.85-225.410139             +0.0000
iter:  28  08:42:06 -12.87  -7.48    -5.19-225.410139             +0.0000
iter:  29  08:42:37 -14.35  -7.75    -5.54-225.410139             +0.0000
iter:  30  08:43:09 -13.11  -7.80    -4.94-225.410139             +0.0000
iter:  31  08:43:40 -13.36  -7.80    -5.43-225.410139             +0.0000
iter:  32  08:44:11 -14.58  -8.60    -6.50-225.410139             +0.0000

Converged after 32 iterations.

Dipole moment: (0.004433, -0.004343, -0.001784) |e|*Ang

Total magnetic moment: (0.000000, 0.000000, 0.000000)
Local magnetic moments:
   0 O  ( 0.000000,  0.000000,  0.000693)
   1 O  ( 0.000000,  0.000000, -0.000684)
   2 O  ( 0.000000,  0.000000, -0.000650)
   3 O  ( 0.000000,  0.000000,  0.000681)
   4 O  ( 0.000000,  0.000000, -0.000652)
   5 O  ( 0.000000,  0.000000,  0.000685)
   6 O  ( 0.000000,  0.000000,  0.000680)
   7 O  ( 0.000000,  0.000000, -0.000706)
   8 O  ( 0.000000,  0.000000,  0.022381)
   9 O  ( 0.000000,  0.000000, -0.022348)
  10 O  ( 0.000000,  0.000000, -0.022405)
  11 O  ( 0.000000,  0.000000,  0.022277)
  12 Mn ( 0.000000,  0.000000,  4.574677)
  13 Mn ( 0.000000,  0.000000, -4.574517)
  14 Mn ( 0.000000,  0.000000, -4.575058)
  15 Mn ( 0.000000,  0.000000,  4.575033)
  16 P  ( 0.000000,  0.000000,  0.000829)
  17 P  ( 0.000000,  0.000000, -0.000807)
  18 P  ( 0.000000,  0.000000, -0.000821)
  19 P  ( 0.000000,  0.000000,  0.000822)
  20 O  ( 0.000000,  0.000000,  0.020693)
  21 O  ( 0.000000,  0.000000, -0.020751)
  22 O  ( 0.000000,  0.000000, -0.020692)
  23 O  ( 0.000000,  0.000000,  0.020738)
  24 Li ( 0.000000,  0.000000, -0.000000)
  25 Li ( 0.000000,  0.000000,  0.000005)
  26 Li ( 0.000000,  0.000000,  0.000001)
  27 Li ( 0.000000,  0.000000, -0.000004)

Energy contributions relative to reference atoms: (reference = -196157.275402)

Kinetic:       +296.582222
Potential:     -256.187866
External:        +0.000000
XC:            -267.585711
Entropy (-ST):   -0.000000
Local:           +1.781217
--------------------------
Free energy:   -225.410139
Extrapolated:  -225.410139

Spin contamination: 9.696671 electrons
Showing only first 2 kpts
                      Up                     Down
 Kpt  Band  Eigenvalues  Occupancy  Eigenvalues  Occupancy
  0    88      5.03998    0.01389      5.04246    0.01389
  0    89      5.23202    0.01389      5.23501    0.01389
  0    90      9.62311    0.00000      9.62029    0.00000
  0    91      9.68205    0.00000      9.68342    0.00000

  1    88      5.04575    0.01389      5.04835    0.01389
  1    89      5.22911    0.01389      5.23211    0.01389
  1    90      9.52738    0.00000      9.52273    0.00000
  1    91      9.54889    0.00000      9.55596    0.00000


Fermi level: 6.36989

Gap: 3.792 eV
Transition (v -> c):
  (s=1, k=0, n=89, [0.08, -0.42, -0.38]) -> (s=0, k=14, n=90, [0.08, 0.08, 0.12])

Forces in eV/Ang:
  0 O     0.15477    0.13245   -0.05243
  1 O    -0.00639   -0.00458   -0.00039
  2 O    -0.00133   -0.00183    0.00181
  3 O    -0.00653    0.00154   -0.00111
  4 O    -0.00186    0.00192    0.00042
  5 O    -0.00545   -0.00142   -0.00124
  6 O     0.01738    0.00141   -0.00074
  7 O    -0.00008   -0.00133    0.00028
  8 O    -0.01125    0.00104    0.00128
  9 O     0.00483    0.00277    0.00063
 10 O    -0.00629   -0.00026    0.00073
 11 O    -0.03230   -0.03195    0.00674
 12 Mn   -0.01269    0.00028    0.00439
 13 Mn   -0.01099   -0.01018   -0.00504
 14 Mn    0.00697   -0.00012    0.00072
 15 Mn    0.01051   -0.00030   -0.00385
 16 P    -0.11414   -0.08522    0.04268
 17 P     0.00780    0.00593   -0.00284
 18 P    -0.00178   -0.00067   -0.00505
 19 P     0.01239   -0.00010   -0.00097
 20 O     0.01187   -0.00729    0.00689
 21 O    -0.00627   -0.00347    0.00182
 22 O    -0.00243    0.00191    0.00114
 23 O    -0.00380   -0.00009    0.00087
 24 Li    0.00373   -0.00040    0.00018
 25 Li   -0.00629   -0.00301    0.00151
 26 Li    0.00225    0.00044    0.00032
 27 Li   -0.00263    0.00250    0.00122

System changes: positions 

Initializing position-dependent things.

Density initialized from wave functions
                                           
                                           
                                           
                                           
                                           
               O     O  P  O               
            PO           OMn     O         
                  O          MO            
            O        Li O                  
             Mn  On          OP            
         O         Li O                    
         Li     O P         O              
       Li                                  
                                           
                                           
                                           
                                           

Positions:
   0 O      3.441891    0.262804    1.044402    ( 0.0000,  0.0000,  0.0000)
   1 O      1.624265    5.683079    3.352369    ( 0.0000,  0.0000,  0.0000)
   2 O      6.680628    3.235446    3.570893    ( 0.0000,  0.0000,  0.0000)
   3 O      8.488207    2.710483    1.262928    ( 0.0000,  0.0000,  0.0000)
   4 O      6.680605    5.683068    3.571026    ( 0.0000,  0.0000,  0.0000)
   5 O      8.488231    0.262793    1.263059    ( 0.0000,  0.0000,  0.0000)
   6 O      3.431867    2.710426    1.044535    ( 0.0000,  0.0000,  0.0000)
   7 O      1.624289    3.235389    3.352500    ( 0.0000,  0.0000,  0.0000)
   8 O      0.527252    1.486664    1.280761    ( 0.0000,  0.0000,  0.0000)
   9 O      4.529050    4.459185    3.588406    ( 0.0000,  0.0000,  0.0000)
  10 O      9.585244    4.459209    3.334667    ( 0.0000,  0.0000,  0.0000)
  11 O      5.583445    1.486687    1.027023    ( 0.0000,  0.0000,  0.0000)
  12 Mn     2.249530    1.486372    2.455799    ( 0.0000,  0.0000,  1.0000)
  13 Mn     2.806784    4.459476    0.147929    ( 0.0000,  0.0000, -1.0000)
  14 Mn     7.862966    4.459500    2.159630    ( 0.0000,  0.0000, -1.0000)
  15 Mn     7.305712    1.486396    4.467499    ( 0.0000,  0.0000,  1.0000)
  16 P      4.165539    1.486666    0.418501    ( 0.0000,  0.0000,  0.0000)
  17 P      0.890729    4.459183    2.726340    ( 0.0000,  0.0000,  0.0000)
  18 P      5.946957    4.459206    4.196927    ( 0.0000,  0.0000,  0.0000)
  19 P      9.221767    1.486689    1.889088    ( 0.0000,  0.0000,  0.0000)
  20 O      4.150861    1.486658    3.508258    ( 0.0000,  0.0000,  0.0000)
  21 O      0.905676    4.459194    1.200655    ( 0.0000,  0.0000,  0.0000)
  22 O      5.961635    4.459215    1.107171    ( 0.0000,  0.0000,  0.0000)
  23 O      9.206820    1.486678    3.414773    ( 0.0000,  0.0000,  0.0000)
  24 Li     0.000000   -0.000000   -0.000000    ( 0.0000,  0.0000,  0.0000)
  25 Li     5.056235    0.000023    2.307714    ( 0.0000,  0.0000,  0.0000)
  26 Li     0.000013    2.972913    0.000000    ( 0.0000,  0.0000,  0.0000)
  27 Li     5.056248    2.972936    2.307714    ( 0.0000,  0.0000,  0.0000)

Unit cell:
           periodic     x           y           z      points  spacing
  1. axis:    yes   10.112485    0.000045   -0.000035    60     0.1685
  2. axis:    yes    0.000026    5.945827    0.000001    35     0.1699
  3. axis:    yes   -0.000016    0.000000    4.615463    27     0.1709

  Lengths:  10.112485   5.945827   4.615463
  Angles:   89.999989  90.000396  89.999490

Effective grid spacing dv^(1/3) = 0.1698

                     log10-error:           total        iterations:
           time      wfs    density  force  energy       poisson  magmom
iter:   1  08:44:50  -3.27                -225.412798             +0.0002
iter:   2  08:45:14  -4.64  -3.30         -225.412312             +0.0001
iter:   3  08:45:38  -3.51  -3.33         -225.411016             -0.0000
iter:   4  08:46:01  -4.99  -3.46         -225.410312             +0.0000
iter:   5  08:46:25  -6.12  -3.69         -225.410292             +0.0000
iter:   6  08:46:49  -5.43  -3.72         -225.410167             +0.0000
iter:   7  08:47:12  -5.92  -4.06         -225.410147             +0.0000
iter:   8  08:47:36  -5.96  -4.21         -225.410152             +0.0000
iter:   9  08:48:00  -6.46  -4.23         -225.410137             +0.0000
iter:  10  08:48:24  -6.14  -4.59         -225.410140             +0.0000
iter:  11  08:48:48  -6.98  -4.59         -225.410135             +0.0000
iter:  12  08:49:19  -7.86  -5.14         -225.410135             +0.0000
iter:  13  08:49:50  -8.74  -5.17    -3.09-225.410135             -0.0000
iter:  14  08:50:21  -8.53  -5.23    -2.51-225.410135             -0.0000
iter:  15  08:50:52  -9.09  -5.46    -3.38-225.410135             -0.0000
iter:  16  08:51:23  -9.08  -5.58    -2.28-225.410135             -0.0000
iter:  17  08:51:55  -9.71  -5.80    -2.82-225.410135             -0.0000
iter:  18  08:52:26 -10.12  -6.00    -3.32-225.410135             -0.0000
iter:  19  08:52:57 -10.15  -6.06    -3.71-225.410135             +0.0000
iter:  20  08:53:28 -10.72  -6.44    -3.89-225.410135             -0.0000
iter:  21  08:54:00 -11.46  -6.56    -4.15-225.410135             +0.0000
iter:  22  08:54:31 -11.44  -6.62    -4.08-225.410135             +0.0000
iter:  23  08:55:02 -11.25  -6.77    -3.80-225.410135             +0.0000
iter:  24  08:55:33 -12.32  -6.97    -4.44-225.410135             +0.0000
iter:  25  08:56:04 -11.29  -6.98    -4.15-225.410135             -0.0000
iter:  26  08:56:35 -11.79  -6.95    -4.11-225.410135             +0.0000
iter:  27  08:57:07 -12.63  -7.33    -4.97-225.410135             -0.0000
iter:  28  08:57:38 -13.47  -7.35    -4.71-225.410135             -0.0000
iter:  29  08:58:09 -12.37  -7.43    -4.59-225.410135             -0.0000
iter:  30  08:58:40 -12.81  -7.51    -5.07-225.410135             -0.0000
iter:  31  08:59:11 -12.68  -7.80    -4.90-225.410135             +0.0000
iter:  32  08:59:43 -12.98  -7.68    -5.00-225.410135             +0.0000
iter:  33  09:00:14 -14.34  -8.20    -5.77-225.410135             -0.0000
iter:  34  09:00:45 -13.99  -8.24    -5.79-225.410135             -0.0000
iter:  35  09:01:16 -13.82  -8.20    -5.12-225.410135             -0.0000
iter:  36  09:01:47 -15.26  -8.38    -6.18-225.410135             -0.0000

Converged after 36 iterations.

Dipole moment: (-0.004432, 0.004328, 0.001790) |e|*Ang

Total magnetic moment: (0.000000, 0.000000, -0.000000)
Local magnetic moments:
   0 O  ( 0.000000,  0.000000,  0.000636)
   1 O  ( 0.000000,  0.000000, -0.000660)
   2 O  ( 0.000000,  0.000000, -0.000670)
   3 O  ( 0.000000,  0.000000,  0.000655)
   4 O  ( 0.000000,  0.000000, -0.000676)
   5 O  ( 0.000000,  0.000000,  0.000659)
   6 O  ( 0.000000,  0.000000,  0.000641)
   7 O  ( 0.000000,  0.000000, -0.000631)
   8 O  ( 0.000000,  0.000000,  0.022355)
   9 O  ( 0.000000,  0.000000, -0.022387)
  10 O  ( 0.000000,  0.000000, -0.022330)
  11 O  ( 0.000000,  0.000000,  0.022459)
  12 Mn ( 0.000000,  0.000000,  4.575441)
  13 Mn ( 0.000000,  0.000000, -4.575544)
  14 Mn ( 0.000000,  0.000000, -4.575074)
  15 Mn ( 0.000000,  0.000000,  4.575035)
  16 P  ( 0.000000,  0.000000,  0.000796)
  17 P  ( 0.000000,  0.000000, -0.000826)
  18 P  ( 0.000000,  0.000000, -0.000803)
  19 P  ( 0.000000,  0.000000,  0.000811)
  20 O  ( 0.000000,  0.000000,  0.020725)
  21 O  ( 0.000000,  0.000000, -0.020666)
  22 O  ( 0.000000,  0.000000, -0.020725)
  23 O  ( 0.000000,  0.000000,  0.020679)
  24 Li ( 0.000000,  0.000000,  0.000000)
  25 Li ( 0.000000,  0.000000, -0.000005)
  26 Li ( 0.000000,  0.000000, -0.000001)
  27 Li ( 0.000000,  0.000000,  0.000004)

Energy contributions relative to reference atoms: (reference = -196157.275402)

Kinetic:       +297.102038
Potential:     -256.581224
External:        +0.000000
XC:            -267.711593
Entropy (-ST):   -0.000000
Local:           +1.780644
--------------------------
Free energy:   -225.410135
Extrapolated:  -225.410135

Spin contamination: 9.697703 electrons
Showing only first 2 kpts
                      Up                     Down
 Kpt  Band  Eigenvalues  Occupancy  Eigenvalues  Occupancy
  0    88      5.03691    0.01389      5.03466    0.01389
  0    89      5.23074    0.01389      5.22737    0.01389
  0    90      9.61636    0.00000      9.61859    0.00000
  0    91      9.67764    0.00000      9.67669    0.00000

  1    88      5.04248    0.01389      5.04017    0.01389
  1    89      5.22817    0.01389      5.22476    0.01389
  1    90      9.51901    0.00000      9.51972    0.00000
  1    91      9.54638    0.00000      9.54314    0.00000


Fermi level: 6.36989

Gap: 3.794 eV
Transition (v -> c):
  (s=0, k=0, n=89, [0.08, -0.42, -0.38]) -> (s=1, k=10, n=90, [0.08, -0.08, 0.12])

Forces in eV/Ang:
  0 O    -0.15618   -0.13756    0.05407
  1 O     0.00661    0.00539    0.00088
  2 O     0.00139    0.00096   -0.00168
  3 O     0.00607   -0.00091    0.00126
  4 O     0.00171   -0.00081   -0.00094
  5 O     0.00517    0.00056    0.00075
  6 O    -0.01753   -0.00078    0.00062
  7 O     0.00056    0.00068   -0.00042
  8 O     0.01122   -0.00206   -0.00136
  9 O    -0.00502   -0.00171   -0.00077
 10 O     0.00629    0.00129   -0.00064
 11 O     0.03332    0.03164   -0.00661
 12 Mn    0.01262    0.00035   -0.00481
 13 Mn    0.01140    0.00976    0.00628
 14 Mn   -0.00714   -0.00026    0.00001
 15 Mn   -0.01087    0.00067    0.00259
 16 P     0.11519    0.08833   -0.04416
 17 P    -0.00812   -0.00553    0.00270
 18 P     0.00159    0.00101    0.00485
 19 P    -0.01209   -0.00026    0.00107
 20 O    -0.01316    0.00693   -0.00631
 21 O     0.00497    0.00373   -0.00188
 22 O     0.00355   -0.00162   -0.00177
 23 O     0.00507   -0.00021   -0.00080
 24 Li   -0.00372    0.00040   -0.00017
 25 Li    0.00669    0.00296   -0.00121
 26 Li   -0.00226   -0.00045   -0.00031
 27 Li    0.00268   -0.00250   -0.00124

System changes: positions 

Initializing position-dependent things.

Density initialized from wave functions
                                           
                                           
                                           
                                           
                                           
               O     O  P  O               
            PO           OMn     O         
                  O          MO            
            O        Li O                  
             Mn  On          OP            
         O         Li O                    
         Li     O P         O              
       Li                                  
                                           
                                           
                                           
                                           

Positions:
   0 O      3.431891    0.252804    1.044402    ( 0.0000,  0.0000,  0.0000)
   1 O      1.624265    5.683079    3.352369    ( 0.0000,  0.0000,  0.0000)
   2 O      6.680628    3.235446    3.570893    ( 0.0000,  0.0000,  0.0000)
   3 O      8.488207    2.710483    1.262928    ( 0.0000,  0.0000,  0.0000)
   4 O      6.680605    5.683068    3.571026    ( 0.0000,  0.0000,  0.0000)
   5 O      8.488231    0.262793    1.263059    ( 0.0000,  0.0000,  0.0000)
   6 O      3.431867    2.710426    1.044535    ( 0.0000,  0.0000,  0.0000)
   7 O      1.624289    3.235389    3.352500    ( 0.0000,  0.0000,  0.0000)
   8 O      0.527252    1.486664    1.280761    ( 0.0000,  0.0000,  0.0000)
   9 O      4.529050    4.459185    3.588406    ( 0.0000,  0.0000,  0.0000)
  10 O      9.585244    4.459209    3.334667    ( 0.0000,  0.0000,  0.0000)
  11 O      5.583445    1.486687    1.027023    ( 0.0000,  0.0000,  0.0000)
  12 Mn     2.249530    1.486372    2.455799    ( 0.0000,  0.0000,  1.0000)
  13 Mn     2.806784    4.459476    0.147929    ( 0.0000,  0.0000, -1.0000)
  14 Mn     7.862966    4.459500    2.159630    ( 0.0000,  0.0000, -1.0000)
  15 Mn     7.305712    1.486396    4.467499    ( 0.0000,  0.0000,  1.0000)
  16 P      4.165539    1.486666    0.418501    ( 0.0000,  0.0000,  0.0000)
  17 P      0.890729    4.459183    2.726340    ( 0.0000,  0.0000,  0.0000)
  18 P      5.946957    4.459206    4.196927    ( 0.0000,  0.0000,  0.0000)
  19 P      9.221767    1.486689    1.889088    ( 0.0000,  0.0000,  0.0000)
  20 O      4.150861    1.486658    3.508258    ( 0.0000,  0.0000,  0.0000)
  21 O      0.905676    4.459194    1.200655    ( 0.0000,  0.0000,  0.0000)
  22 O      5.961635    4.459215    1.107171    ( 0.0000,  0.0000,  0.0000)
  23 O      9.206820    1.486678    3.414773    ( 0.0000,  0.0000,  0.0000)
  24 Li     0.000000   -0.000000   -0.000000    ( 0.0000,  0.0000,  0.0000)
  25 Li     5.056235    0.000023    2.307714    ( 0.0000,  0.0000,  0.0000)
  26 Li     0.000013    2.972913    0.000000    ( 0.0000,  0.0000,  0.0000)
  27 Li     5.056248    2.972936    2.307714    ( 0.0000,  0.0000,  0.0000)

Unit cell:
           periodic     x           y           z      points  spacing
  1. axis:    yes   10.112485    0.000045   -0.000035    60     0.1685
  2. axis:    yes    0.000026    5.945827    0.000001    35     0.1699
  3. axis:    yes   -0.000016    0.000000    4.615463    27     0.1709

  Lengths:  10.112485   5.945827   4.615463
  Angles:   89.999989  90.000396  89.999490

Effective grid spacing dv^(1/3) = 0.1698

                     log10-error:           total        iterations:
           time      wfs    density  force  energy       poisson  magmom
iter:   1  09:02:27  -3.35                -225.413159             +0.0010
iter:   2  09:02:51  -4.74  -3.26         -225.412340             +0.0003
iter:   3  09:03:15  -3.48  -3.29         -225.410181             -0.0000
iter:   4  09:03:38  -4.81  -3.44         -225.409518             +0.0001
iter:   5  09:04:02  -4.57  -3.69         -225.409802             +0.0001
iter:   6  09:04:26  -4.61  -3.73         -225.409316             +0.0000
iter:   7  09:04:49  -5.59  -4.10         -225.409311             +0.0000
iter:   8  09:05:13  -6.61  -4.27         -225.409302             -0.0000
iter:   9  09:05:37  -6.72  -4.55         -225.409303             -0.0000
iter:  10  09:06:01  -7.02  -4.65         -225.409302             -0.0000
iter:  11  09:06:31  -7.63  -4.93         -225.409302             -0.0000
iter:  12  09:07:02  -8.44  -5.09    -2.47-225.409302             -0.0000
iter:  13  09:07:33  -7.84  -5.13    -2.56-225.409302             +0.0000
iter:  14  09:08:05  -8.27  -5.38    -2.44-225.409301             -0.0000
iter:  15  09:08:36  -8.19  -5.56    -2.17-225.409302             -0.0000
iter:  16  09:09:07  -8.36  -5.33    -2.35-225.409301             -0.0000
iter:  17  09:09:38  -9.54  -5.65    -3.44-225.409301             -0.0000
iter:  18  09:10:09  -9.15  -5.74    -2.86-225.409301             -0.0000
iter:  19  09:10:40  -9.25  -5.86    -3.09-225.409301             -0.0000
iter:  20  09:11:11 -10.71  -6.30    -3.63-225.409301             -0.0000
iter:  21  09:11:42 -11.61  -6.40    -4.48-225.409301             +0.0000
iter:  22  09:12:14 -10.31  -6.44    -3.44-225.409301             +0.0000
iter:  23  09:12:45 -10.38  -6.38    -3.52-225.409301             +0.0000
iter:  24  09:13:16 -11.51  -7.00    -4.71-225.409301             +0.0000
iter:  25  09:13:47 -11.40  -6.94    -3.96-225.409301             +0.0000
iter:  26  09:14:18 -11.78  -7.04    -4.39-225.409301             +0.0000
iter:  27  09:14:49 -13.28  -7.40    -4.89-225.409301             +0.0000
iter:  28  09:15:20 -12.78  -7.52    -4.83-225.409301             -0.0000
iter:  29  09:15:51 -12.47  -7.56    -4.52-225.409301             -0.0000
iter:  30  09:16:22 -12.85  -7.60    -4.85-225.409301             -0.0000
iter:  31  09:16:53 -14.03  -7.97    -5.72-225.409301             -0.0000
iter:  32  09:17:24 -14.01  -8.00    -5.36-225.409301             -0.0000
iter:  33  09:17:55 -13.75  -8.12    -5.48-225.409301             -0.0000
iter:  34  09:18:26 -14.36  -8.15    -5.53-225.409301             -0.0000
iter:  35  09:18:57 -14.25  -8.40    -5.72-225.409301             -0.0000
iter:  36  09:19:28 -14.31  -8.30    -5.58-225.409301             -0.0000
iter:  37  09:19:59 -15.54  -8.74    -6.14-225.409301             -0.0000

Converged after 37 iterations.

Dipole moment: (0.001554, -0.092477, -0.002047) |e|*Ang

Total magnetic moment: (0.000000, 0.000000, -0.000000)
Local magnetic moments:
   0 O  ( 0.000000,  0.000000,  0.000428)
   1 O  ( 0.000000,  0.000000, -0.000716)
   2 O  ( 0.000000,  0.000000, -0.000655)
   3 O  ( 0.000000,  0.000000,  0.000673)
   4 O  ( 0.000000,  0.000000, -0.000655)
   5 O  ( 0.000000,  0.000000,  0.000679)
   6 O  ( 0.000000,  0.000000,  0.000729)
   7 O  ( 0.000000,  0.000000, -0.000521)
   8 O  ( 0.000000,  0.000000,  0.022371)
   9 O  ( 0.000000,  0.000000, -0.022398)
  10 O  ( 0.000000,  0.000000, -0.022383)
  11 O  ( 0.000000,  0.000000,  0.022199)
  12 Mn ( 0.000000,  0.000000,  4.575102)
  13 Mn ( 0.000000,  0.000000, -4.573989)
  14 Mn ( 0.000000,  0.000000, -4.575072)
  15 Mn ( 0.000000,  0.000000,  4.574991)
  16 P  ( 0.000000,  0.000000,  0.000525)
  17 P  ( 0.000000,  0.000000, -0.000832)
  18 P  ( 0.000000,  0.000000, -0.000826)
  19 P  ( 0.000000,  0.000000,  0.000811)
  20 O  ( 0.000000,  0.000000,  0.020607)
  21 O  ( 0.000000,  0.000000, -0.020764)
  22 O  ( 0.000000,  0.000000, -0.020706)
  23 O  ( 0.000000,  0.000000,  0.020723)
  24 Li ( 0.000000,  0.000000, -0.000000)
  25 Li ( 0.000000,  0.000000, -0.000026)
  26 Li ( 0.000000,  0.000000, -0.000001)
  27 Li ( 0.000000,  0.000000, -0.000002)

Energy contributions relative to reference atoms: (reference = -196157.275402)

Kinetic:       +296.336781
Potential:     -255.992939
External:        +0.000000
XC:            -267.535024
Entropy (-ST):   -0.000000
Local:           +1.781881
--------------------------
Free energy:   -225.409301
Extrapolated:  -225.409301

Spin contamination: 9.696598 electrons
Showing only first 2 kpts
                      Up                     Down
 Kpt  Band  Eigenvalues  Occupancy  Eigenvalues  Occupancy
  0    88      5.03513    0.01389      5.04594    0.01389
  0    89      5.22711    0.01389      5.23854    0.01389
  0    90      9.62561    0.00000      9.61648    0.00000
  0    91      9.68507    0.00000      9.67624    0.00000

  1    88      5.04118    0.01389      5.05178    0.01389
  1    89      5.22418    0.01389      5.23593    0.01389
  1    90      9.52983    0.00000      9.51940    0.00000
  1    91      9.55146    0.00000      9.54171    0.00000


Fermi level: 6.36989

Gap: 3.785 eV
Transition (v -> c):
  (s=1, k=0, n=89, [0.08, -0.42, -0.38]) -> (s=1, k=14, n=90, [0.08, 0.08, 0.12])

Forces in eV/Ang:
  0 O     0.13189    0.32161   -0.05871
  1 O    -0.00485    0.00240   -0.00218
  2 O     0.00145   -0.00414   -0.00008
  3 O    -0.00145   -0.00072   -0.00044
  4 O     0.00130    0.00325    0.00009
  5 O    -0.00111    0.00053   -0.00066
  6 O    -0.00114   -0.06283    0.00408
  7 O     0.00124   -0.00511   -0.00060
  8 O     0.00167    0.00001    0.00020
  9 O     0.00981   -0.00605   -0.00413
 10 O    -0.00209   -0.00015    0.00120
 11 O    -0.02142   -0.00469    0.00469
 12 Mn    0.00068   -0.01576   -0.00722
 13 Mn   -0.01445   -0.02369   -0.01918
 14 Mn    0.00078   -0.00009    0.00026
 15 Mn    0.00500   -0.00019   -0.00293
 16 P    -0.09453   -0.20171    0.07765
 17 P     0.00252    0.00595   -0.00482
 18 P    -0.00935    0.00186    0.00038
 19 P     0.00113   -0.00030    0.00071
 20 O    -0.00627   -0.00118    0.00815
 21 O    -0.00688   -0.00391    0.00314
 22 O     0.00529   -0.00261   -0.00066
 23 O    -0.00017   -0.00006    0.00000
 24 Li    0.00146   -0.00118   -0.00010
 25 Li   -0.00302   -0.00769   -0.00096
 26 Li    0.00030    0.00114    0.00014
 27 Li    0.00222    0.00516    0.00200

System changes: positions 

Initializing position-dependent things.

Density initialized from wave functions
                                           
                                           
                                           
                                           
                                           
               O     O  P  O               
            PO           OMn     O         
                  O          MO            
            O        Li O                  
             Mn  On          OP            
         O         Li O                    
         Li     O P         O              
       Li                                  
                                           
                                           
                                           
                                           

Positions:
   0 O      3.431891    0.272804    1.044402    ( 0.0000,  0.0000,  0.0000)
   1 O      1.624265    5.683079    3.352369    ( 0.0000,  0.0000,  0.0000)
   2 O      6.680628    3.235446    3.570893    ( 0.0000,  0.0000,  0.0000)
   3 O      8.488207    2.710483    1.262928    ( 0.0000,  0.0000,  0.0000)
   4 O      6.680605    5.683068    3.571026    ( 0.0000,  0.0000,  0.0000)
   5 O      8.488231    0.262793    1.263059    ( 0.0000,  0.0000,  0.0000)
   6 O      3.431867    2.710426    1.044535    ( 0.0000,  0.0000,  0.0000)
   7 O      1.624289    3.235389    3.352500    ( 0.0000,  0.0000,  0.0000)
   8 O      0.527252    1.486664    1.280761    ( 0.0000,  0.0000,  0.0000)
   9 O      4.529050    4.459185    3.588406    ( 0.0000,  0.0000,  0.0000)
  10 O      9.585244    4.459209    3.334667    ( 0.0000,  0.0000,  0.0000)
  11 O      5.583445    1.486687    1.027023    ( 0.0000,  0.0000,  0.0000)
  12 Mn     2.249530    1.486372    2.455799    ( 0.0000,  0.0000,  1.0000)
  13 Mn     2.806784    4.459476    0.147929    ( 0.0000,  0.0000, -1.0000)
  14 Mn     7.862966    4.459500    2.159630    ( 0.0000,  0.0000, -1.0000)
  15 Mn     7.305712    1.486396    4.467499    ( 0.0000,  0.0000,  1.0000)
  16 P      4.165539    1.486666    0.418501    ( 0.0000,  0.0000,  0.0000)
  17 P      0.890729    4.459183    2.726340    ( 0.0000,  0.0000,  0.0000)
  18 P      5.946957    4.459206    4.196927    ( 0.0000,  0.0000,  0.0000)
  19 P      9.221767    1.486689    1.889088    ( 0.0000,  0.0000,  0.0000)
  20 O      4.150861    1.486658    3.508258    ( 0.0000,  0.0000,  0.0000)
  21 O      0.905676    4.459194    1.200655    ( 0.0000,  0.0000,  0.0000)
  22 O      5.961635    4.459215    1.107171    ( 0.0000,  0.0000,  0.0000)
  23 O      9.206820    1.486678    3.414773    ( 0.0000,  0.0000,  0.0000)
  24 Li     0.000000   -0.000000   -0.000000    ( 0.0000,  0.0000,  0.0000)
  25 Li     5.056235    0.000023    2.307714    ( 0.0000,  0.0000,  0.0000)
  26 Li     0.000013    2.972913    0.000000    ( 0.0000,  0.0000,  0.0000)
  27 Li     5.056248    2.972936    2.307714    ( 0.0000,  0.0000,  0.0000)

Unit cell:
           periodic     x           y           z      points  spacing
  1. axis:    yes   10.112485    0.000045   -0.000035    60     0.1685
  2. axis:    yes    0.000026    5.945827    0.000001    35     0.1699
  3. axis:    yes   -0.000016    0.000000    4.615463    27     0.1709

  Lengths:  10.112485   5.945827   4.615463
  Angles:   89.999989  90.000396  89.999490

Effective grid spacing dv^(1/3) = 0.1698

                     log10-error:           total        iterations:
           time      wfs    density  force  energy       poisson  magmom
iter:   1  09:20:39  -3.09                -225.415854             -0.0022
iter:   2  09:21:02  -4.48  -3.14         -225.414441             -0.0007
iter:   3  09:21:26  -3.33  -3.18         -225.410417             +0.0001
iter:   4  09:21:50  -4.61  -3.37         -225.409688             -0.0001
iter:   5  09:22:13  -4.16  -3.60         -225.411054             -0.0001
iter:   6  09:22:37  -4.12  -3.42         -225.409268             -0.0000
iter:   7  09:23:00  -5.00  -3.98         -225.409300             -0.0000
iter:   8  09:23:24  -6.23  -4.02         -225.409262             -0.0000
iter:   9  09:23:48  -6.04  -4.38         -225.409265             +0.0000
iter:  10  09:24:11  -6.78  -4.47         -225.409259             +0.0000
iter:  11  09:24:42  -7.55  -4.84         -225.409259             +0.0000
iter:  12  09:25:13  -7.88  -4.94    -2.04-225.409259             -0.0000
iter:  13  09:25:44  -7.87  -5.03    -2.54-225.409259             -0.0000
iter:  14  09:26:15  -8.49  -5.15    -2.31-225.409259             -0.0000
iter:  15  09:26:46  -8.18  -5.34    -2.68-225.409259             -0.0000
iter:  16  09:27:17  -8.74  -5.35    -2.25-225.409259             -0.0000
iter:  17  09:27:49  -9.40  -5.48    -2.82-225.409259             -0.0000
iter:  18  09:28:20  -9.94  -5.52    -3.46-225.409259             -0.0000
iter:  19  09:28:51  -9.03  -5.58    -2.98-225.409259             -0.0000
iter:  20  09:29:22  -9.54  -5.83    -3.32-225.409259             -0.0000
iter:  21  09:29:53 -10.96  -6.13    -3.96-225.409259             -0.0000
iter:  22  09:30:24  -9.94  -6.16    -3.43-225.409259             +0.0000
iter:  23  09:30:55 -10.04  -6.31    -3.44-225.409259             +0.0000
iter:  24  09:31:26 -10.34  -6.40    -3.90-225.409259             +0.0000
iter:  25  09:31:57 -10.84  -6.47    -3.67-225.409259             +0.0000
iter:  26  09:32:28 -10.50  -6.51    -3.72-225.409259             +0.0000
iter:  27  09:32:59 -11.92  -7.15    -5.12-225.409259             +0.0000
iter:  28  09:33:30 -11.72  -7.19    -4.81-225.409259             -0.0000
iter:  29  09:34:01 -11.69  -7.11    -4.31-225.409259             -0.0000
iter:  30  09:34:32 -12.95  -7.42    -4.71-225.409259             -0.0000
iter:  31  09:35:03 -13.43  -7.63    -5.67-225.409259             -0.0000
iter:  32  09:35:34 -13.43  -7.74    -4.99-225.409259             -0.0000
iter:  33  09:36:05 -13.62  -8.02    -5.11-225.409259             -0.0000
iter:  34  09:36:36 -14.51  -8.21    -6.21-225.409259             -0.0000

Converged after 34 iterations.

Dipole moment: (-0.001551, 0.109842, 0.002079) |e|*Ang

Total magnetic moment: (0.000000, 0.000000, -0.000000)
Local magnetic moments:
   0 O  ( 0.000000,  0.000000,  0.000898)
   1 O  ( 0.000000,  0.000000, -0.000629)
   2 O  ( 0.000000,  0.000000, -0.000665)
   3 O  ( 0.000000,  0.000000,  0.000663)
   4 O  ( 0.000000,  0.000000, -0.000673)
   5 O  ( 0.000000,  0.000000,  0.000665)
   6 O  ( 0.000000,  0.000000,  0.000589)
   7 O  ( 0.000000,  0.000000, -0.000814)
   8 O  ( 0.000000,  0.000000,  0.022365)
   9 O  ( 0.000000,  0.000000, -0.022337)
  10 O  ( 0.000000,  0.000000, -0.022353)
  11 O  ( 0.000000,  0.000000,  0.022534)
  12 Mn ( 0.000000,  0.000000,  4.575018)
  13 Mn ( 0.000000,  0.000000, -4.576027)
  14 Mn ( 0.000000,  0.000000, -4.575059)
  15 Mn ( 0.000000,  0.000000,  4.575077)
  16 P  ( 0.000000,  0.000000,  0.001092)
  17 P  ( 0.000000,  0.000000, -0.000801)
  18 P  ( 0.000000,  0.000000, -0.000798)
  19 P  ( 0.000000,  0.000000,  0.000823)
  20 O  ( 0.000000,  0.000000,  0.020809)
  21 O  ( 0.000000,  0.000000, -0.020653)
  22 O  ( 0.000000,  0.000000, -0.020711)
  23 O  ( 0.000000,  0.000000,  0.020694)
  24 Li ( 0.000000,  0.000000,  0.000000)
  25 Li ( 0.000000,  0.000000,  0.000025)
  26 Li ( 0.000000,  0.000000,  0.000001)
  27 Li ( 0.000000,  0.000000,  0.000002)

Energy contributions relative to reference atoms: (reference = -196157.275402)

Kinetic:       +297.365889
Potential:     -256.790483
External:        +0.000000
XC:            -267.764591
Entropy (-ST):   -0.000000
Local:           +1.779927
--------------------------
Free energy:   -225.409259
Extrapolated:  -225.409259

Spin contamination: 9.697772 electrons
Showing only first 2 kpts
                      Up                     Down
 Kpt  Band  Eigenvalues  Occupancy  Eigenvalues  Occupancy
  0    88      5.04223    0.01389      5.03142    0.01389
  0    89      5.23498    0.01389      5.22421    0.01389
  0    90      9.61397    0.00000      9.62352    0.00000
  0    91      9.67450    0.00000      9.68299    0.00000

  1    88      5.04758    0.01389      5.03700    0.01389
  1    89      5.23238    0.01389      5.22132    0.01389
  1    90      9.51675    0.00000      9.52805    0.00000
  1    91      9.54360    0.00000      9.55241    0.00000


Fermi level: 6.36989

Gap: 3.792 eV
Transition (v -> c):
  (s=0, k=20, n=89, [0.08, 0.42, -0.38]) -> (s=0, k=13, n=90, [0.08, 0.08, -0.12])

Forces in eV/Ang:
  0 O    -0.13825   -0.33223    0.06637
  1 O     0.00513   -0.00145    0.00269
  2 O    -0.00134    0.00323    0.00023
  3 O     0.00101    0.00133    0.00059
  4 O    -0.00143   -0.00209   -0.00062
  5 O     0.00086   -0.00137    0.00017
  6 O     0.00105    0.06541   -0.00427
  7 O    -0.00078    0.00447    0.00045
  8 O    -0.00161   -0.00106   -0.00029
  9 O    -0.00981    0.00709    0.00393
 10 O     0.00207    0.00120   -0.00109
 11 O     0.02169    0.00348   -0.00460
 12 Mn   -0.00076    0.01638    0.00676
 13 Mn    0.01399    0.02133    0.01937
 14 Mn   -0.00096   -0.00029    0.00048
 15 Mn   -0.00533    0.00056    0.00163
 16 P     0.10208    0.21123   -0.08349
 17 P    -0.00280   -0.00562    0.00465
 18 P     0.00898   -0.00153   -0.00059
 19 P    -0.00085   -0.00008   -0.00058
 20 O     0.00516    0.00070   -0.00762
 21 O     0.00552    0.00421   -0.00317
 22 O    -0.00410    0.00292    0.00004
 23 O     0.00146   -0.00025    0.00006
 24 Li   -0.00147    0.00117    0.00010
 25 Li    0.00305    0.00763    0.00099
 26 Li   -0.00029   -0.00113   -0.00014
 27 Li   -0.00225   -0.00511   -0.00202

System changes: positions 

Initializing position-dependent things.

Density initialized from wave functions
                                           
                                           
                                           
                                           
                                           
               O     O  P  O               
            PO           OMn     O         
                  O          MO            
            O        Li O                  
             Mn  On          OP            
         O         Li O                    
         Li     O P         O              
       Li                                  
                                           
                                           
                                           
                                           

Positions:
   0 O      3.431891    0.262804    1.034402    ( 0.0000,  0.0000,  0.0000)
   1 O      1.624265    5.683079    3.352369    ( 0.0000,  0.0000,  0.0000)
   2 O      6.680628    3.235446    3.570893    ( 0.0000,  0.0000,  0.0000)
   3 O      8.488207    2.710483    1.262928    ( 0.0000,  0.0000,  0.0000)
   4 O      6.680605    5.683068    3.571026    ( 0.0000,  0.0000,  0.0000)
   5 O      8.488231    0.262793    1.263059    ( 0.0000,  0.0000,  0.0000)
   6 O      3.431867    2.710426    1.044535    ( 0.0000,  0.0000,  0.0000)
   7 O      1.624289    3.235389    3.352500    ( 0.0000,  0.0000,  0.0000)
   8 O      0.527252    1.486664    1.280761    ( 0.0000,  0.0000,  0.0000)
   9 O      4.529050    4.459185    3.588406    ( 0.0000,  0.0000,  0.0000)
  10 O      9.585244    4.459209    3.334667    ( 0.0000,  0.0000,  0.0000)
  11 O      5.583445    1.486687    1.027023    ( 0.0000,  0.0000,  0.0000)
  12 Mn     2.249530    1.486372    2.455799    ( 0.0000,  0.0000,  1.0000)
  13 Mn     2.806784    4.459476    0.147929    ( 0.0000,  0.0000, -1.0000)
  14 Mn     7.862966    4.459500    2.159630    ( 0.0000,  0.0000, -1.0000)
  15 Mn     7.305712    1.486396    4.467499    ( 0.0000,  0.0000,  1.0000)
  16 P      4.165539    1.486666    0.418501    ( 0.0000,  0.0000,  0.0000)
  17 P      0.890729    4.459183    2.726340    ( 0.0000,  0.0000,  0.0000)
  18 P      5.946957    4.459206    4.196927    ( 0.0000,  0.0000,  0.0000)
  19 P      9.221767    1.486689    1.889088    ( 0.0000,  0.0000,  0.0000)
  20 O      4.150861    1.486658    3.508258    ( 0.0000,  0.0000,  0.0000)
  21 O      0.905676    4.459194    1.200655    ( 0.0000,  0.0000,  0.0000)
  22 O      5.961635    4.459215    1.107171    ( 0.0000,  0.0000,  0.0000)
  23 O      9.206820    1.486678    3.414773    ( 0.0000,  0.0000,  0.0000)
  24 Li     0.000000   -0.000000   -0.000000    ( 0.0000,  0.0000,  0.0000)
  25 Li     5.056235    0.000023    2.307714    ( 0.0000,  0.0000,  0.0000)
  26 Li     0.000013    2.972913    0.000000    ( 0.0000,  0.0000,  0.0000)
  27 Li     5.056248    2.972936    2.307714    ( 0.0000,  0.0000,  0.0000)

Unit cell:
           periodic     x           y           z      points  spacing
  1. axis:    yes   10.112485    0.000045   -0.000035    60     0.1685
  2. axis:    yes    0.000026    5.945827    0.000001    35     0.1699
  3. axis:    yes   -0.000016    0.000000    4.615463    27     0.1709

  Lengths:  10.112485   5.945827   4.615463
  Angles:   89.999989  90.000396  89.999490

Effective grid spacing dv^(1/3) = 0.1698

                     log10-error:           total        iterations:
           time      wfs    density  force  energy       poisson  magmom
iter:   1  09:37:16  -3.63                -225.411056             +0.0019
iter:   2  09:37:40  -5.07  -3.58         -225.410950             +0.0006
iter:   3  09:38:03  -4.33  -3.61         -225.410430             -0.0001
iter:   4  09:38:27  -5.61  -3.84         -225.410320             +0.0001
iter:   5  09:38:51  -4.92  -4.01         -225.410570             +0.0001
iter:   6  09:39:14  -5.01  -3.76         -225.410267             +0.0000
iter:   7  09:39:38  -6.03  -4.40         -225.410273             +0.0000
iter:   8  09:40:02  -6.55  -4.34         -225.410261             +0.0000
iter:   9  09:40:32  -7.75  -4.94         -225.410261             +0.0000
iter:  10  09:41:03  -7.84  -4.92    -2.03-225.410261             +0.0000
iter:  11  09:41:27  -7.21  -5.00         -225.410260             +0.0000
iter:  12  09:41:58  -8.30  -5.18    -2.50-225.410260             +0.0000
iter:  13  09:42:29  -8.57  -5.50    -2.89-225.410260             +0.0000
iter:  14  09:43:00  -8.66  -5.54    -2.91-225.410260             -0.0000
iter:  15  09:43:31 -10.01  -5.68    -2.89-225.410260             +0.0000
iter:  16  09:44:02  -9.67  -5.78    -2.98-225.410260             +0.0000
iter:  17  09:44:33  -9.86  -6.14    -3.34-225.410260             +0.0000
iter:  18  09:45:04 -10.20  -6.29    -3.27-225.410260             +0.0000
iter:  19  09:45:35 -10.83  -6.40    -3.99-225.410260             +0.0000
iter:  20  09:46:06 -11.16  -6.59    -3.66-225.410260             +0.0000
iter:  21  09:46:38 -11.46  -6.55    -4.22-225.410260             +0.0000
iter:  22  09:47:09 -11.49  -6.69    -3.88-225.410260             +0.0000
iter:  23  09:47:40 -12.27  -6.71    -4.52-225.410260             +0.0000
iter:  24  09:48:11 -11.50  -6.76    -3.81-225.410260             +0.0000
iter:  25  09:48:42 -12.63  -6.89    -5.11-225.410260             +0.0000
iter:  26  09:49:13 -11.40  -6.89    -3.61-225.410260             -0.0000
iter:  27  09:49:44 -12.23  -7.04    -4.20-225.410260             +0.0000
iter:  28  09:50:15 -12.30  -7.19    -4.66-225.410260             +0.0000
iter:  29  09:50:46 -13.64  -7.29    -5.47-225.410260             +0.0000
iter:  30  09:51:17 -12.45  -7.32    -4.17-225.410260             +0.0000
iter:  31  09:51:48 -12.77  -7.60    -4.70-225.410260             +0.0000
iter:  32  09:52:19 -13.55  -7.64    -4.98-225.410260             +0.0000
iter:  33  09:52:50 -13.94  -7.82    -5.51-225.410260             +0.0000
iter:  34  09:53:21 -14.16  -7.91    -4.81-225.410260             +0.0000
iter:  35  09:53:53 -13.96  -7.97    -5.64-225.410260             +0.0000
iter:  36  09:54:24 -14.47  -8.11    -5.41-225.410260             +0.0000
iter:  37  09:54:55 -14.28  -8.22    -5.24-225.410260             +0.0000
iter:  38  09:55:26 -14.72  -8.46    -5.86-225.410260             +0.0000
iter:  39  09:55:57 -15.39  -8.75    -6.40-225.410260             +0.0000

Converged after 39 iterations.

Dipole moment: (-0.000629, 0.002136, -0.008067) |e|*Ang

Total magnetic moment: (0.000000, 0.000000, 0.000000)
Local magnetic moments:
   0 O  ( 0.000000,  0.000000,  0.000473)
   1 O  ( 0.000000,  0.000000, -0.000725)
   2 O  ( 0.000000,  0.000000, -0.000670)
   3 O  ( 0.000000,  0.000000,  0.000662)
   4 O  ( 0.000000,  0.000000, -0.000672)
   5 O  ( 0.000000,  0.000000,  0.000669)
   6 O  ( 0.000000,  0.000000,  0.000629)
   7 O  ( 0.000000,  0.000000, -0.000575)
   8 O  ( 0.000000,  0.000000,  0.022350)
   9 O  ( 0.000000,  0.000000, -0.022411)
  10 O  ( 0.000000,  0.000000, -0.022365)
  11 O  ( 0.000000,  0.000000,  0.022298)
  12 Mn ( 0.000000,  0.000000,  4.575406)
  13 Mn ( 0.000000,  0.000000, -4.574684)
  14 Mn ( 0.000000,  0.000000, -4.575071)
  15 Mn ( 0.000000,  0.000000,  4.575034)
  16 P  ( 0.000000,  0.000000,  0.000655)
  17 P  ( 0.000000,  0.000000, -0.000824)
  18 P  ( 0.000000,  0.000000, -0.000817)
  19 P  ( 0.000000,  0.000000,  0.000808)
  20 O  ( 0.000000,  0.000000,  0.020704)
  21 O  ( 0.000000,  0.000000, -0.020723)
  22 O  ( 0.000000,  0.000000, -0.020717)
  23 O  ( 0.000000,  0.000000,  0.020706)
  24 Li ( 0.000000,  0.000000,  0.000001)
  25 Li ( 0.000000,  0.000000, -0.000007)
  26 Li ( 0.000000,  0.000000, -0.000001)
  27 Li ( 0.000000,  0.000000, -0.000000)

Energy contributions relative to reference atoms: (reference = -196157.275402)

Kinetic:       +297.090650
Potential:     -256.576261
External:        +0.000000
XC:            -267.704786
Entropy (-ST):   -0.000000
Local:           +1.780136
--------------------------
Free energy:   -225.410260
Extrapolated:  -225.410260

Spin contamination: 9.697250 electrons
Showing only first 2 kpts
                      Up                     Down
 Kpt  Band  Eigenvalues  Occupancy  Eigenvalues  Occupancy
  0    88      5.03541    0.01389      5.04038    0.01389
  0    89      5.22920    0.01389      5.23261    0.01389
  0    90      9.61977    0.00000      9.61746    0.00000
  0    91      9.67935    0.00000      9.67757    0.00000

  1    88      5.04162    0.01389      5.04596    0.01389
  1    89      5.22552    0.01389      5.22967    0.01389
  1    90      9.52352    0.00000      9.52269    0.00000
  1    91      9.54624    0.00000      9.54558    0.00000


Fermi level: 6.36989

Gap: 3.795 eV
Transition (v -> c):
  (s=1, k=20, n=89, [0.08, 0.42, -0.38]) -> (s=0, k=13, n=90, [0.08, 0.08, -0.12])

Forces in eV/Ang:
  0 O    -0.05368   -0.06410    0.13054
  1 O     0.00068    0.00282   -0.00795
  2 O     0.00180   -0.00030    0.00085
  3 O     0.00095   -0.00020    0.00014
  4 O     0.00062    0.00092   -0.00081
  5 O     0.00086   -0.00001   -0.00017
  6 O    -0.00074   -0.00385    0.00931
  7 O    -0.00012   -0.00085   -0.00063
  8 O     0.00349   -0.00090    0.00046
  9 O     0.00371   -0.00175   -0.00535
 10 O     0.00095    0.00064    0.00038
 11 O    -0.00436   -0.00088    0.00676
 12 Mn    0.00992   -0.00205   -0.00489
 13 Mn   -0.00518   -0.02183   -0.01070
 14 Mn   -0.00119   -0.00035    0.00072
 15 Mn   -0.00219    0.00037   -0.00092
 16 P     0.04485    0.07392   -0.08073
 17 P    -0.00225   -0.00067   -0.00077
 18 P    -0.00344   -0.00028   -0.00277
 19 P    -0.00257   -0.00020    0.00078
 20 O     0.00790    0.01921   -0.03608
 21 O    -0.00054    0.00040    0.00017
 22 O    -0.00006    0.00092    0.00062
 23 O     0.00144   -0.00020   -0.00016
 24 Li   -0.00033   -0.00002   -0.00003
 25 Li    0.00058    0.00118   -0.00010
 26 Li   -0.00023    0.00011   -0.00009
 27 Li   -0.00087   -0.00205    0.00174

System changes: positions 

Initializing position-dependent things.

Density initialized from wave functions
                                           
                                           
                                           
                                           
                                           
               O     O  P  O               
            PO           OMn     O         
                  O          MO            
            O        Li O                  
             Mn  On          OP            
         O         Li O                    
         Li     O P         O              
       Li                                  
                                           
                                           
                                           
                                           

Positions:
   0 O      3.431891    0.262804    1.054402    ( 0.0000,  0.0000,  0.0000)
   1 O      1.624265    5.683079    3.352369    ( 0.0000,  0.0000,  0.0000)
   2 O      6.680628    3.235446    3.570893    ( 0.0000,  0.0000,  0.0000)
   3 O      8.488207    2.710483    1.262928    ( 0.0000,  0.0000,  0.0000)
   4 O      6.680605    5.683068    3.571026    ( 0.0000,  0.0000,  0.0000)
   5 O      8.488231    0.262793    1.263059    ( 0.0000,  0.0000,  0.0000)
   6 O      3.431867    2.710426    1.044535    ( 0.0000,  0.0000,  0.0000)
   7 O      1.624289    3.235389    3.352500    ( 0.0000,  0.0000,  0.0000)
   8 O      0.527252    1.486664    1.280761    ( 0.0000,  0.0000,  0.0000)
   9 O      4.529050    4.459185    3.588406    ( 0.0000,  0.0000,  0.0000)
  10 O      9.585244    4.459209    3.334667    ( 0.0000,  0.0000,  0.0000)
  11 O      5.583445    1.486687    1.027023    ( 0.0000,  0.0000,  0.0000)
  12 Mn     2.249530    1.486372    2.455799    ( 0.0000,  0.0000,  1.0000)
  13 Mn     2.806784    4.459476    0.147929    ( 0.0000,  0.0000, -1.0000)
  14 Mn     7.862966    4.459500    2.159630    ( 0.0000,  0.0000, -1.0000)
  15 Mn     7.305712    1.486396    4.467499    ( 0.0000,  0.0000,  1.0000)
  16 P      4.165539    1.486666    0.418501    ( 0.0000,  0.0000,  0.0000)
  17 P      0.890729    4.459183    2.726340    ( 0.0000,  0.0000,  0.0000)
  18 P      5.946957    4.459206    4.196927    ( 0.0000,  0.0000,  0.0000)
  19 P      9.221767    1.486689    1.889088    ( 0.0000,  0.0000,  0.0000)
  20 O      4.150861    1.486658    3.508258    ( 0.0000,  0.0000,  0.0000)
  21 O      0.905676    4.459194    1.200655    ( 0.0000,  0.0000,  0.0000)
  22 O      5.961635    4.459215    1.107171    ( 0.0000,  0.0000,  0.0000)
  23 O      9.206820    1.486678    3.414773    ( 0.0000,  0.0000,  0.0000)
  24 Li     0.000000   -0.000000   -0.000000    ( 0.0000,  0.0000,  0.0000)
  25 Li     5.056235    0.000023    2.307714    ( 0.0000,  0.0000,  0.0000)
  26 Li     0.000013    2.972913    0.000000    ( 0.0000,  0.0000,  0.0000)
  27 Li     5.056248    2.972936    2.307714    ( 0.0000,  0.0000,  0.0000)

Unit cell:
           periodic     x           y           z      points  spacing
  1. axis:    yes   10.112485    0.000045   -0.000035    60     0.1685
  2. axis:    yes    0.000026    5.945827    0.000001    35     0.1699
  3. axis:    yes   -0.000016    0.000000    4.615463    27     0.1709

  Lengths:  10.112485   5.945827   4.615463
  Angles:   89.999989  90.000396  89.999490

Effective grid spacing dv^(1/3) = 0.1698

                     log10-error:           total        iterations:
           time      wfs    density  force  energy       poisson  magmom
iter:   1  09:56:37  -3.37                -225.412546             -0.0017
iter:   2  09:57:01  -4.73  -3.34         -225.412130             -0.0005
iter:   3  09:57:24  -3.78  -3.37         -225.410686             +0.0000
iter:   4  09:57:48  -5.30  -3.57         -225.410432             -0.0001
iter:   5  09:58:12  -4.55  -3.72         -225.410699             -0.0001
iter:   6  09:58:35  -4.73  -3.70         -225.410273             -0.0000
iter:   7  09:58:59  -5.62  -4.16         -225.410285             -0.0000
iter:   8  09:59:22  -6.44  -4.19         -225.410265             -0.0000
iter:   9  09:59:46  -6.26  -4.61         -225.410268             -0.0000
iter:  10  10:00:10  -7.04  -4.60         -225.410264             -0.0000
iter:  11  10:00:40  -7.71  -5.00         -225.410264             -0.0000
iter:  12  10:01:11  -8.42  -5.14    -2.26-225.410264             -0.0000
iter:  13  10:01:42  -8.67  -5.25    -2.70-225.410264             +0.0000
iter:  14  10:02:13  -9.57  -5.37    -3.09-225.410264             +0.0000
iter:  15  10:02:45  -8.91  -5.45    -2.36-225.410264             +0.0000
iter:  16  10:03:16  -9.38  -5.73    -2.90-225.410264             +0.0000
iter:  17  10:03:47 -10.38  -5.93    -3.80-225.410264             +0.0000
iter:  18  10:04:18 -10.34  -6.01    -3.90-225.410264             -0.0000
iter:  19  10:04:49 -10.32  -6.20    -3.53-225.410264             -0.0000
iter:  20  10:05:20 -10.42  -6.12    -3.36-225.410264             -0.0000
iter:  21  10:05:51 -10.99  -6.41    -3.89-225.410264             -0.0000
iter:  22  10:06:22 -11.19  -6.52    -3.96-225.410264             -0.0000
iter:  23  10:06:53 -11.29  -6.61    -4.01-225.410264             -0.0000
iter:  24  10:07:24 -11.80  -6.68    -4.08-225.410264             -0.0000
iter:  25  10:07:55 -11.36  -6.74    -3.67-225.410264             -0.0000
iter:  26  10:08:26 -11.87  -6.75    -4.52-225.410264             -0.0000
iter:  27  10:08:57 -12.27  -6.91    -4.21-225.410264             -0.0000
iter:  28  10:09:28 -13.04  -6.91    -4.99-225.410264             -0.0000
iter:  29  10:09:59 -11.84  -6.93    -4.19-225.410264             -0.0000
iter:  30  10:10:30 -13.21  -7.34    -4.98-225.410264             -0.0000
iter:  31  10:11:01 -13.46  -7.39    -4.69-225.410264             -0.0000
iter:  32  10:11:33 -12.91  -7.36    -4.82-225.410264             -0.0000
iter:  33  10:12:04 -12.84  -7.20    -4.56-225.410264             -0.0000
iter:  34  10:12:35 -13.42  -7.42    -5.35-225.410264             -0.0000
iter:  35  10:13:06 -13.27  -7.53    -5.09-225.410264             -0.0000
iter:  36  10:13:37 -14.12  -7.66    -6.01-225.410264             -0.0000

Converged after 36 iterations.

Dipole moment: (0.000638, -0.002158, 0.007501) |e|*Ang

Total magnetic moment: (0.000000, 0.000000, -0.000000)
Local magnetic moments:
   0 O  ( 0.000000,  0.000000,  0.000854)
   1 O  ( 0.000000,  0.000000, -0.000620)
   2 O  ( 0.000000,  0.000000, -0.000650)
   3 O  ( 0.000000,  0.000000,  0.000674)
   4 O  ( 0.000000,  0.000000, -0.000656)
   5 O  ( 0.000000,  0.000000,  0.000675)
   6 O  ( 0.000000,  0.000000,  0.000692)
   7 O  ( 0.000000,  0.000000, -0.000762)
   8 O  ( 0.000000,  0.000000,  0.022385)
   9 O  ( 0.000000,  0.000000, -0.022324)
  10 O  ( 0.000000,  0.000000, -0.022371)
  11 O  ( 0.000000,  0.000000,  0.022437)
  12 Mn ( 0.000000,  0.000000,  4.574710)
  13 Mn ( 0.000000,  0.000000, -4.575379)
  14 Mn ( 0.000000,  0.000000, -4.575060)
  15 Mn ( 0.000000,  0.000000,  4.575036)
  16 P  ( 0.000000,  0.000000,  0.000969)
  17 P  ( 0.000000,  0.000000, -0.000809)
  18 P  ( 0.000000,  0.000000, -0.000807)
  19 P  ( 0.000000,  0.000000,  0.000825)
  20 O  ( 0.000000,  0.000000,  0.020713)
  21 O  ( 0.000000,  0.000000, -0.020694)
  22 O  ( 0.000000,  0.000000, -0.020700)
  23 O  ( 0.000000,  0.000000,  0.020711)
  24 Li ( 0.000000,  0.000000, -0.000001)
  25 Li ( 0.000000,  0.000000,  0.000008)
  26 Li ( 0.000000,  0.000000,  0.000001)
  27 Li ( 0.000000,  0.000000,  0.000000)

Energy contributions relative to reference atoms: (reference = -196157.275402)

Kinetic:       +296.591799
Potential:     -256.191441
External:        +0.000000
XC:            -267.592364
Entropy (-ST):   -0.000000
Local:           +1.781742
--------------------------
Free energy:   -225.410264
Extrapolated:  -225.410264

Spin contamination: 9.697126 electrons
Showing only first 2 kpts
                      Up                     Down
 Kpt  Band  Eigenvalues  Occupancy  Eigenvalues  Occupancy
  0    88      5.04200    0.01389      5.03695    0.01389
  0    89      5.23300    0.01389      5.22952    0.01389
  0    90      9.62028    0.00000      9.62240    0.00000
  0    91      9.67989    0.00000      9.68181    0.00000

  1    88      5.04717    0.01389      5.04280    0.01389
  1    89      5.23120    0.01389      5.22693    0.01389
  1    90      9.52434    0.00000      9.52501    0.00000
  1    91      9.54757    0.00000      9.54832    0.00000


Fermi level: 6.36989

Gap: 3.792 eV
Transition (v -> c):
  (s=0, k=23, n=89, [0.08, 0.42, 0.38]) -> (s=1, k=9, n=90, [0.08, -0.08, -0.12])

Forces in eV/Ang:
  0 O     0.05281    0.06089   -0.13038
  1 O    -0.00056   -0.00204    0.00847
  2 O    -0.00169   -0.00060   -0.00070
  3 O    -0.00142    0.00082    0.00001
  4 O    -0.00074    0.00021    0.00030
  5 O    -0.00113   -0.00083   -0.00033
  6 O     0.00061    0.00452   -0.00943
  7 O     0.00058    0.00021    0.00048
  8 O    -0.00348   -0.00013   -0.00056
  9 O    -0.00373    0.00273    0.00521
 10 O    -0.00098    0.00039   -0.00029
 11 O     0.00430   -0.00035   -0.00656
 12 Mn   -0.01010    0.00282    0.00457
 13 Mn    0.00537    0.02111    0.01205
 14 Mn    0.00102   -0.00003    0.00002
 15 Mn    0.00187   -0.00001   -0.00040
 16 P    -0.04335   -0.07222    0.08101
 17 P     0.00199    0.00108    0.00068
 18 P     0.00310    0.00062    0.00249
 19 P     0.00288   -0.00017   -0.00065
 20 O    -0.00869   -0.01896    0.03634
 21 O    -0.00075   -0.00011   -0.00026
 22 O     0.00117   -0.00060   -0.00123
 23 O    -0.00016   -0.00010    0.00022
 24 Li    0.00033    0.00002    0.00003
 25 Li   -0.00034   -0.00122    0.00031
 26 Li    0.00023   -0.00011    0.00008
 27 Li    0.00086    0.00205   -0.00171

System changes: positions 

Initializing position-dependent things.

Density initialized from wave functions
                                           
                                           
                                           
                                           
                                           
               O     O  P  O               
            PO           OMn     O         
                  O          MO            
            O        Li O                  
             Mn  On          OP            
         O         Li O                    
         Li     O P         O              
       Li                                  
                                           
                                           
                                           
                                           

Positions:
   0 O      3.431891    0.262804    1.044402    ( 0.0000,  0.0000,  0.0000)
   1 O      1.614265    5.683079    3.352369    ( 0.0000,  0.0000,  0.0000)
   2 O      6.680628    3.235446    3.570893    ( 0.0000,  0.0000,  0.0000)
   3 O      8.488207    2.710483    1.262928    ( 0.0000,  0.0000,  0.0000)
   4 O      6.680605    5.683068    3.571026    ( 0.0000,  0.0000,  0.0000)
   5 O      8.488231    0.262793    1.263059    ( 0.0000,  0.0000,  0.0000)
   6 O      3.431867    2.710426    1.044535    ( 0.0000,  0.0000,  0.0000)
   7 O      1.624289    3.235389    3.352500    ( 0.0000,  0.0000,  0.0000)
   8 O      0.527252    1.486664    1.280761    ( 0.0000,  0.0000,  0.0000)
   9 O      4.529050    4.459185    3.588406    ( 0.0000,  0.0000,  0.0000)
  10 O      9.585244    4.459209    3.334667    ( 0.0000,  0.0000,  0.0000)
  11 O      5.583445    1.486687    1.027023    ( 0.0000,  0.0000,  0.0000)
  12 Mn     2.249530    1.486372    2.455799    ( 0.0000,  0.0000,  1.0000)
  13 Mn     2.806784    4.459476    0.147929    ( 0.0000,  0.0000, -1.0000)
  14 Mn     7.862966    4.459500    2.159630    ( 0.0000,  0.0000, -1.0000)
  15 Mn     7.305712    1.486396    4.467499    ( 0.0000,  0.0000,  1.0000)
  16 P      4.165539    1.486666    0.418501    ( 0.0000,  0.0000,  0.0000)
  17 P      0.890729    4.459183    2.726340    ( 0.0000,  0.0000,  0.0000)
  18 P      5.946957    4.459206    4.196927    ( 0.0000,  0.0000,  0.0000)
  19 P      9.221767    1.486689    1.889088    ( 0.0000,  0.0000,  0.0000)
  20 O      4.150861    1.486658    3.508258    ( 0.0000,  0.0000,  0.0000)
  21 O      0.905676    4.459194    1.200655    ( 0.0000,  0.0000,  0.0000)
  22 O      5.961635    4.459215    1.107171    ( 0.0000,  0.0000,  0.0000)
  23 O      9.206820    1.486678    3.414773    ( 0.0000,  0.0000,  0.0000)
  24 Li     0.000000   -0.000000   -0.000000    ( 0.0000,  0.0000,  0.0000)
  25 Li     5.056235    0.000023    2.307714    ( 0.0000,  0.0000,  0.0000)
  26 Li     0.000013    2.972913    0.000000    ( 0.0000,  0.0000,  0.0000)
  27 Li     5.056248    2.972936    2.307714    ( 0.0000,  0.0000,  0.0000)

Unit cell:
           periodic     x           y           z      points  spacing
  1. axis:    yes   10.112485    0.000045   -0.000035    60     0.1685
  2. axis:    yes    0.000026    5.945827    0.000001    35     0.1699
  3. axis:    yes   -0.000016    0.000000    4.615463    27     0.1709

  Lengths:  10.112485   5.945827   4.615463
  Angles:   89.999989  90.000396  89.999490

Effective grid spacing dv^(1/3) = 0.1698

                     log10-error:           total        iterations:
           time      wfs    density  force  energy       poisson  magmom
iter:   1  10:14:16  -3.55                -225.411267             +0.0007
iter:   2  10:14:40  -4.85  -3.40         -225.411066             +0.0002
iter:   3  10:15:03  -4.01  -3.43         -225.410405             -0.0000
iter:   4  10:15:27  -5.40  -3.62         -225.410222             +0.0000
iter:   5  10:15:51  -4.88  -3.79         -225.410360             +0.0000
iter:   6  10:16:14  -5.02  -3.77         -225.410137             +0.0000
iter:   7  10:16:38  -6.07  -4.27         -225.410136             +0.0000
iter:   8  10:17:02  -7.06  -4.45         -225.410134             +0.0000
iter:   9  10:17:25  -7.08  -4.74         -225.410134             +0.0000
iter:  10  10:17:49  -7.14  -4.74         -225.410134             -0.0000
iter:  11  10:18:20  -7.99  -4.97         -225.410133             +0.0000
iter:  12  10:18:51  -8.32  -5.19    -2.63-225.410133             -0.0000
iter:  13  10:19:22  -8.38  -5.30    -2.58-225.410133             +0.0000
iter:  14  10:19:53  -8.54  -5.41    -2.65-225.410133             +0.0000
iter:  15  10:20:24  -8.87  -5.80    -3.47-225.410133             +0.0000
iter:  16  10:20:56  -9.02  -5.72    -3.39-225.410133             +0.0000
iter:  17  10:21:27  -9.96  -5.85    -3.45-225.410133             +0.0000
iter:  18  10:21:58  -9.99  -5.94    -3.68-225.410133             +0.0000
iter:  19  10:22:29 -10.71  -6.04    -3.89-225.410133             +0.0000
[...]
  2. axis:    yes    0.000026    5.945827    0.000001    35     0.1699
  3. axis:    yes   -0.000016    0.000000    4.615463    27     0.1709

  Lengths:  10.112485   5.945827   4.615463
  Angles:   89.999989  90.000396  89.999490

Effective grid spacing dv^(1/3) = 0.1698

                     log10-error:           total        iterations:
           time      wfs    density  force  energy       poisson  magmom
iter:   1  07:34:15  -3.90                -225.410806             +0.0000
iter:   2  07:34:39  -5.16  -3.73         -225.410817             +0.0000
iter:   3  07:35:03  -5.21  -3.75         -225.410714             -0.0000
iter:   4  07:35:26  -6.39  -4.14         -225.410712             +0.0000
iter:   5  07:35:50  -5.96  -4.14         -225.410711             +0.0000
iter:   6  07:36:13  -6.31  -4.19         -225.410698             +0.0000
iter:   7  07:36:44  -7.63  -4.61         -225.410697             +0.0000
iter:   8  07:37:15  -7.56  -4.76    -2.50-225.410696             +0.0000
iter:   9  07:37:46  -7.81  -5.06    -2.20-225.410696             +0.0000
iter:  10  07:38:17  -8.25  -5.04    -2.04-225.410696             +0.0000
iter:  11  07:38:48  -9.43  -5.56    -3.26-225.410696             +0.0000
iter:  12  07:39:19  -9.85  -5.64    -3.16-225.410696             -0.0000
iter:  13  07:39:51  -9.36  -5.75    -3.03-225.410696             -0.0000
iter:  14  07:40:22  -9.97  -5.78    -3.16-225.410696             -0.0000
iter:  15  07:40:53  -9.98  -5.98    -3.63-225.410696             -0.0000
iter:  16  07:41:24 -10.53  -6.04    -3.31-225.410696             -0.0000
iter:  17  07:41:55 -10.83  -6.11    -3.74-225.410696             -0.0000
iter:  18  07:42:26 -11.17  -6.23    -4.28-225.410696             -0.0000
iter:  19  07:42:57 -10.64  -6.32    -4.11-225.410696             -0.0000
iter:  20  07:43:28 -11.52  -6.57    -4.05-225.410696             -0.0000
iter:  21  07:43:59 -12.49  -6.77    -4.32-225.410696             +0.0000
iter:  22  07:44:30 -13.05  -6.80    -4.79-225.410696             +0.0000
iter:  23  07:45:01 -12.45  -6.83    -4.86-225.410696             +0.0000
iter:  24  07:45:32 -13.12  -7.10    -5.11-225.410696             +0.0000
iter:  25  07:46:03 -13.06  -7.14    -5.20-225.410696             +0.0000
iter:  26  07:46:35 -13.11  -7.22    -4.78-225.410696             +0.0000
iter:  27  07:47:06 -13.26  -7.59    -5.25-225.410696             +0.0000
iter:  28  07:47:37 -14.25  -7.85    -6.04-225.410696             +0.0000

Converged after 28 iterations.

Dipole moment: (-0.000190, 0.004837, -0.000046) |e|*Ang

Total magnetic moment: (0.000000, 0.000000, 0.000000)
Local magnetic moments:
   0 O  ( 0.000000,  0.000000,  0.000653)
   1 O  ( 0.000000,  0.000000, -0.000692)
   2 O  ( 0.000000,  0.000000, -0.000672)
   3 O  ( 0.000000,  0.000000,  0.000627)
   4 O  ( 0.000000,  0.000000, -0.000675)
   5 O  ( 0.000000,  0.000000,  0.000652)
   6 O  ( 0.000000,  0.000000,  0.000648)
   7 O  ( 0.000000,  0.000000, -0.000709)
   8 O  ( 0.000000,  0.000000,  0.022405)
   9 O  ( 0.000000,  0.000000, -0.022383)
  10 O  ( 0.000000,  0.000000, -0.022330)
  11 O  ( 0.000000,  0.000000,  0.022353)
  12 Mn ( 0.000000,  0.000000,  4.575102)
  13 Mn ( 0.000000,  0.000000, -4.575022)
  14 Mn ( 0.000000,  0.000000, -4.575029)
  15 Mn ( 0.000000,  0.000000,  4.575048)
  16 P  ( 0.000000,  0.000000,  0.000815)
  17 P  ( 0.000000,  0.000000, -0.000814)
  18 P  ( 0.000000,  0.000000, -0.000808)
  19 P  ( 0.000000,  0.000000,  0.000819)
  20 O  ( 0.000000,  0.000000,  0.020699)
  21 O  ( 0.000000,  0.000000, -0.020696)
  22 O  ( 0.000000,  0.000000, -0.020718)
  23 O  ( 0.000000,  0.000000,  0.020721)
  24 Li ( 0.000000,  0.000000,  0.000001)
  25 Li ( 0.000000,  0.000000, -0.000000)
  26 Li ( 0.000000,  0.000000, -0.000007)
  27 Li ( 0.000000,  0.000000, -0.000000)

Energy contributions relative to reference atoms: (reference = -196157.275402)

Kinetic:       +296.840252
Potential:     -256.383074
External:        +0.000000
XC:            -267.648811
Entropy (-ST):   -0.000000
Local:           +1.780937
--------------------------
Free energy:   -225.410696
Extrapolated:  -225.410696

Spin contamination: 9.697187 electrons
Showing only first 2 kpts
                      Up                     Down
 Kpt  Band  Eigenvalues  Occupancy  Eigenvalues  Occupancy
  0    88      5.04043    0.01389      5.03695    0.01389
  0    89      5.23337    0.01389      5.22874    0.01389
  0    90      9.61806    0.00000      9.62199    0.00000
  0    91      9.67796    0.00000      9.68133    0.00000

  1    88      5.04628    0.01389      5.04251    0.01389
  1    89      5.23059    0.01389      5.22599    0.01389
  1    90      9.52203    0.00000      9.52588    0.00000
  1    91      9.54548    0.00000      9.54835    0.00000


Fermi level: 6.36989

Gap: 3.793 eV
Transition (v -> c):
  (s=0, k=0, n=89, [0.08, -0.42, -0.38]) -> (s=0, k=9, n=90, [0.08, -0.08, -0.12])

Forces in eV/Ang:
  0 O    -0.00038   -0.00170    0.00015
  1 O    -0.00237   -0.00470   -0.00180
  2 O    -0.00036    0.00074    0.00005
  3 O    -0.00319    0.00795   -0.00113
  4 O    -0.00051   -0.00057   -0.00037
  5 O    -0.00263   -0.00557   -0.00231
  6 O    -0.00045    0.00162   -0.00009
  7 O    -0.00278    0.00736   -0.00127
  8 O    -0.00012    0.00429   -0.00097
  9 O    -0.00142    0.00052   -0.00006
 10 O    -0.00024    0.00574   -0.00123
 11 O    -0.00132   -0.00056    0.00008
 12 Mn   -0.00445    0.00029   -0.00189
 13 Mn    0.00547    0.00043   -0.00005
 14 Mn   -0.00463   -0.00011   -0.00115
 15 Mn    0.00512    0.00082   -0.00134
 16 P     0.00128   -0.00013    0.00011
 17 P     0.01350    0.00544   -0.00353
 18 P     0.00099    0.00020   -0.00013
 19 P     0.01375    0.00514   -0.00329
 20 O    -0.00098   -0.00012    0.00034
 21 O    -0.00329    0.00269   -0.00079
 22 O     0.00014    0.00020   -0.00027
 23 O    -0.00211    0.00215   -0.00090
 24 Li   -0.00042    0.01153    0.00009
 25 Li    0.00039    0.00012   -0.00004
 26 Li   -0.00944   -0.04365    0.02186
 27 Li    0.00042   -0.00012   -0.00006

System changes: positions 

Initializing position-dependent things.

Density initialized from wave functions
                                           
                                           
                                           
                                           
                                           
               O     O  P  O               
            PO           OMn     O         
                  O          MO            
            O        Li O                  
             Mn  On          OP            
         O         Li O                    
         Li     O P         O              
       Li                                  
                                           
                                           
                                           
                                           

Positions:
   0 O      3.431891    0.262804    1.044402    ( 0.0000,  0.0000,  0.0000)
   1 O      1.624265    5.683079    3.352369    ( 0.0000,  0.0000,  0.0000)
   2 O      6.680628    3.235446    3.570893    ( 0.0000,  0.0000,  0.0000)
   3 O      8.488207    2.710483    1.262928    ( 0.0000,  0.0000,  0.0000)
   4 O      6.680605    5.683068    3.571026    ( 0.0000,  0.0000,  0.0000)
   5 O      8.488231    0.262793    1.263059    ( 0.0000,  0.0000,  0.0000)
   6 O      3.431867    2.710426    1.044535    ( 0.0000,  0.0000,  0.0000)
   7 O      1.624289    3.235389    3.352500    ( 0.0000,  0.0000,  0.0000)
   8 O      0.527252    1.486664    1.280761    ( 0.0000,  0.0000,  0.0000)
   9 O      4.529050    4.459185    3.588406    ( 0.0000,  0.0000,  0.0000)
  10 O      9.585244    4.459209    3.334667    ( 0.0000,  0.0000,  0.0000)
  11 O      5.583445    1.486687    1.027023    ( 0.0000,  0.0000,  0.0000)
  12 Mn     2.249530    1.486372    2.455799    ( 0.0000,  0.0000,  1.0000)
  13 Mn     2.806784    4.459476    0.147929    ( 0.0000,  0.0000, -1.0000)
  14 Mn     7.862966    4.459500    2.159630    ( 0.0000,  0.0000, -1.0000)
  15 Mn     7.305712    1.486396    4.467499    ( 0.0000,  0.0000,  1.0000)
  16 P      4.165539    1.486666    0.418501    ( 0.0000,  0.0000,  0.0000)
  17 P      0.890729    4.459183    2.726340    ( 0.0000,  0.0000,  0.0000)
  18 P      5.946957    4.459206    4.196927    ( 0.0000,  0.0000,  0.0000)
  19 P      9.221767    1.486689    1.889088    ( 0.0000,  0.0000,  0.0000)
  20 O      4.150861    1.486658    3.508258    ( 0.0000,  0.0000,  0.0000)
  21 O      0.905676    4.459194    1.200655    ( 0.0000,  0.0000,  0.0000)
  22 O      5.961635    4.459215    1.107171    ( 0.0000,  0.0000,  0.0000)
  23 O      9.206820    1.486678    3.414773    ( 0.0000,  0.0000,  0.0000)
  24 Li     0.000000   -0.000000   -0.000000    ( 0.0000,  0.0000,  0.0000)
  25 Li     5.056235    0.000023    2.307714    ( 0.0000,  0.0000,  0.0000)
  26 Li     0.000013    2.972913   -0.010000    ( 0.0000,  0.0000,  0.0000)
  27 Li     5.056248    2.972936    2.307714    ( 0.0000,  0.0000,  0.0000)

Unit cell:
           periodic     x           y           z      points  spacing
  1. axis:    yes   10.112485    0.000045   -0.000035    60     0.1685
  2. axis:    yes    0.000026    5.945827    0.000001    35     0.1699
  3. axis:    yes   -0.000016    0.000000    4.615463    27     0.1709

  Lengths:  10.112485   5.945827   4.615463
  Angles:   89.999989  90.000396  89.999490

Effective grid spacing dv^(1/3) = 0.1698

                     log10-error:           total        iterations:
           time      wfs    density  force  energy       poisson  magmom
iter:   1  07:48:16  -4.21                -225.410737             -0.0000
iter:   2  07:48:40  -5.48  -3.95         -225.410742             -0.0000
iter:   3  07:49:04  -5.53  -3.98         -225.410697             +0.0000
iter:   4  07:49:27  -6.68  -4.34         -225.410696             -0.0000
iter:   5  07:49:51  -5.54  -4.35         -225.410726             +0.0000
iter:   6  07:50:14  -5.89  -4.20         -225.410689             -0.0000
iter:   7  07:50:38  -7.13  -4.86         -225.410690             +0.0000
iter:   8  07:51:02  -6.75  -4.83         -225.410692             +0.0000
iter:   9  07:51:32  -7.85  -4.73         -225.410690             +0.0000
iter:  10  07:52:03  -8.53  -4.95    -3.56-225.410690             +0.0000
iter:  11  07:52:35  -8.30  -5.02    -2.52-225.410690             -0.0000
iter:  12  07:53:06  -7.40  -5.28    -2.69-225.410690             +0.0000
iter:  13  07:53:37  -8.65  -5.39    -2.92-225.410690             -0.0000
iter:  14  07:54:08  -9.47  -5.92    -4.02-225.410690             -0.0000
iter:  15  07:54:39 -10.08  -6.03    -3.69-225.410690             -0.0000
iter:  16  07:55:10  -9.82  -6.06    -3.75-225.410690             +0.0000
iter:  17  07:55:41 -11.10  -6.22    -4.26-225.410690             -0.0000
iter:  18  07:56:12 -10.06  -6.33    -3.88-225.410690             -0.0000
iter:  19  07:56:44 -10.45  -6.33    -3.93-225.410690             -0.0000
iter:  20  07:57:15 -11.25  -6.54    -4.26-225.410690             -0.0000
iter:  21  07:57:46 -12.21  -6.61    -4.65-225.410690             -0.0000
iter:  22  07:58:17 -10.87  -6.67    -4.24-225.410690             -0.0000
iter:  23  07:58:48 -11.00  -6.73    -4.45-225.410690             -0.0000
iter:  24  07:59:19 -12.55  -7.08    -5.04-225.410690             -0.0000
iter:  25  07:59:50 -12.57  -7.14    -4.92-225.410690             +0.0000
iter:  26  08:00:21 -11.47  -7.22    -4.33-225.410690             -0.0000
iter:  27  08:00:52 -11.68  -7.05    -4.95-225.410690             -0.0000
iter:  28  08:01:24 -13.10  -7.43    -5.33-225.410690             -0.0000
iter:  29  08:01:55 -12.35  -7.45    -4.66-225.410690             -0.0000
iter:  30  08:02:26 -12.25  -7.31    -5.25-225.410690             -0.0000
iter:  31  08:02:57 -13.35  -7.63    -5.07-225.410690             -0.0000
iter:  32  08:03:28 -13.71  -7.88    -5.17-225.410690             -0.0000
iter:  33  08:03:59 -13.35  -7.95    -5.46-225.410690             -0.0000
iter:  34  08:04:30 -13.75  -7.80    -5.34-225.410690             -0.0000
iter:  35  08:05:02 -14.70  -8.46    -6.50-225.410690             +0.0000

Converged after 35 iterations.

Dipole moment: (-0.000560, 0.000208, 0.067521) |e|*Ang

Total magnetic moment: (0.000000, 0.000000, 0.000000)
Local magnetic moments:
   0 O  ( 0.000000,  0.000000,  0.000663)
   1 O  ( 0.000000,  0.000000, -0.000675)
   2 O  ( 0.000000,  0.000000, -0.000662)
   3 O  ( 0.000000,  0.000000,  0.000675)
   4 O  ( 0.000000,  0.000000, -0.000665)
   5 O  ( 0.000000,  0.000000,  0.000669)
   6 O  ( 0.000000,  0.000000,  0.000658)
   7 O  ( 0.000000,  0.000000, -0.000661)
   8 O  ( 0.000000,  0.000000,  0.022395)
   9 O  ( 0.000000,  0.000000, -0.022366)
  10 O  ( 0.000000,  0.000000, -0.022340)
  11 O  ( 0.000000,  0.000000,  0.022370)
  12 Mn ( 0.000000,  0.000000,  4.575055)
  13 Mn ( 0.000000,  0.000000, -4.575053)
  14 Mn ( 0.000000,  0.000000, -4.575076)
  15 Mn ( 0.000000,  0.000000,  4.575018)
  16 P  ( 0.000000,  0.000000,  0.000812)
  17 P  ( 0.000000,  0.000000, -0.000817)
  18 P  ( 0.000000,  0.000000, -0.000812)
  19 P  ( 0.000000,  0.000000,  0.000816)
  20 O  ( 0.000000,  0.000000,  0.020704)
  21 O  ( 0.000000,  0.000000, -0.020719)
  22 O  ( 0.000000,  0.000000, -0.020713)
  23 O  ( 0.000000,  0.000000,  0.020698)
  24 Li ( 0.000000,  0.000000,  0.000001)
  25 Li ( 0.000000,  0.000000,  0.000000)
  26 Li ( 0.000000,  0.000000, -0.000010)
  27 Li ( 0.000000,  0.000000, -0.000000)

Energy contributions relative to reference atoms: (reference = -196157.275402)

Kinetic:       +296.840626
Potential:     -256.383388
External:        +0.000000
XC:            -267.648864
Entropy (-ST):   -0.000000
Local:           +1.780936
--------------------------
Free energy:   -225.410690
Extrapolated:  -225.410690

Spin contamination: 9.697188 electrons
Showing only first 2 kpts
                      Up                     Down
 Kpt  Band  Eigenvalues  Occupancy  Eigenvalues  Occupancy
  0    88      5.03867    0.01389      5.03870    0.01389
  0    89      5.23119    0.01389      5.23091    0.01389
  0    90      9.62013    0.00000      9.61994    0.00000
  0    91      9.67995    0.00000      9.67932    0.00000

  1    88      5.04434    0.01389      5.04445    0.01389
  1    89      5.22848    0.01389      5.22810    0.01389
  1    90      9.52391    0.00000      9.52401    0.00000
  1    91      9.54706    0.00000      9.54675    0.00000


Fermi level: 6.36989

Gap: 3.795 eV
Transition (v -> c):
  (s=0, k=0, n=89, [0.08, -0.42, -0.38]) -> (s=1, k=10, n=90, [0.08, -0.08, 0.12])

Forces in eV/Ang:
  0 O     0.00038   -0.00043    0.00017
  1 O    -0.00110   -0.00159    0.00197
  2 O     0.00022   -0.00034    0.00004
  3 O    -0.00166   -0.00069   -0.00004
  4 O     0.00025    0.00070   -0.00035
  5 O    -0.00136   -0.00243    0.00147
  6 O     0.00013    0.00054   -0.00010
  7 O    -0.00105   -0.00125   -0.00038
  8 O    -0.00093    0.00034   -0.00074
  9 O    -0.00035    0.00046   -0.00027
 10 O    -0.00100    0.00161   -0.00089
 11 O    -0.00026   -0.00061   -0.00014
 12 Mn   -0.00055   -0.00172   -0.00462
 13 Mn   -0.00058    0.00059    0.00352
 14 Mn   -0.00074   -0.00208   -0.00389
 15 Mn   -0.00090    0.00096    0.00222
 16 P     0.00034   -0.00039    0.00102
 17 P     0.00888    0.01402   -0.02749
 18 P     0.00005   -0.00006    0.00078
 19 P     0.00901    0.01339   -0.02731
 20 O    -0.00094    0.00003   -0.00001
 21 O     0.00031    0.00039    0.00396
 22 O     0.00019    0.00035   -0.00063
 23 O     0.00154   -0.00002    0.00389
 24 Li    0.00080    0.00009    0.00323
 25 Li    0.00005    0.00004   -0.00018
 26 Li   -0.01098   -0.02186    0.04496
 27 Li    0.00025   -0.00006   -0.00021

System changes: positions 

Initializing position-dependent things.

Density initialized from wave functions
                                           
                                           
                                           
                                           
                                           
               O     O  P  O               
            PO           OMn     O         
                  O          MO            
            O        Li O                  
             Mn  On          OP            
         O         Li O                    
         Li     O P         O              
       Li                                  
                                           
                                           
                                           
                                           

Positions:
   0 O      3.431891    0.262804    1.044402    ( 0.0000,  0.0000,  0.0000)
   1 O      1.624265    5.683079    3.352369    ( 0.0000,  0.0000,  0.0000)
   2 O      6.680628    3.235446    3.570893    ( 0.0000,  0.0000,  0.0000)
   3 O      8.488207    2.710483    1.262928    ( 0.0000,  0.0000,  0.0000)
   4 O      6.680605    5.683068    3.571026    ( 0.0000,  0.0000,  0.0000)
   5 O      8.488231    0.262793    1.263059    ( 0.0000,  0.0000,  0.0000)
   6 O      3.431867    2.710426    1.044535    ( 0.0000,  0.0000,  0.0000)
   7 O      1.624289    3.235389    3.352500    ( 0.0000,  0.0000,  0.0000)
   8 O      0.527252    1.486664    1.280761    ( 0.0000,  0.0000,  0.0000)
   9 O      4.529050    4.459185    3.588406    ( 0.0000,  0.0000,  0.0000)
  10 O      9.585244    4.459209    3.334667    ( 0.0000,  0.0000,  0.0000)
  11 O      5.583445    1.486687    1.027023    ( 0.0000,  0.0000,  0.0000)
  12 Mn     2.249530    1.486372    2.455799    ( 0.0000,  0.0000,  1.0000)
  13 Mn     2.806784    4.459476    0.147929    ( 0.0000,  0.0000, -1.0000)
  14 Mn     7.862966    4.459500    2.159630    ( 0.0000,  0.0000, -1.0000)
  15 Mn     7.305712    1.486396    4.467499    ( 0.0000,  0.0000,  1.0000)
  16 P      4.165539    1.486666    0.418501    ( 0.0000,  0.0000,  0.0000)
  17 P      0.890729    4.459183    2.726340    ( 0.0000,  0.0000,  0.0000)
  18 P      5.946957    4.459206    4.196927    ( 0.0000,  0.0000,  0.0000)
  19 P      9.221767    1.486689    1.889088    ( 0.0000,  0.0000,  0.0000)
  20 O      4.150861    1.486658    3.508258    ( 0.0000,  0.0000,  0.0000)
  21 O      0.905676    4.459194    1.200655    ( 0.0000,  0.0000,  0.0000)
  22 O      5.961635    4.459215    1.107171    ( 0.0000,  0.0000,  0.0000)
  23 O      9.206820    1.486678    3.414773    ( 0.0000,  0.0000,  0.0000)
  24 Li     0.000000   -0.000000   -0.000000    ( 0.0000,  0.0000,  0.0000)
  25 Li     5.056235    0.000023    2.307714    ( 0.0000,  0.0000,  0.0000)
  26 Li     0.000013    2.972913    0.010000    ( 0.0000,  0.0000,  0.0000)
  27 Li     5.056248    2.972936    2.307714    ( 0.0000,  0.0000,  0.0000)

Unit cell:
           periodic     x           y           z      points  spacing
  1. axis:    yes   10.112485    0.000045   -0.000035    60     0.1685
  2. axis:    yes    0.000026    5.945827    0.000001    35     0.1699
  3. axis:    yes   -0.000016    0.000000    4.615463    27     0.1709

  Lengths:  10.112485   5.945827   4.615463
  Angles:   89.999989  90.000396  89.999490

Effective grid spacing dv^(1/3) = 0.1698

                     log10-error:           total        iterations:
           time      wfs    density  force  energy       poisson  magmom
iter:   1  08:05:41  -3.91                -225.410835             -0.0000
iter:   2  08:06:05  -5.13  -3.70         -225.410840             -0.0000
iter:   3  08:06:28  -5.02  -3.73         -225.410710             +0.0000
iter:   4  08:06:52  -6.28  -4.16         -225.410705             -0.0000
iter:   5  08:07:16  -5.65  -4.17         -225.410720             -0.0000
iter:   6  08:07:39  -5.97  -4.10         -225.410691             -0.0000
iter:   7  08:08:03  -6.96  -4.64         -225.410691             -0.0000
iter:   8  08:08:34  -7.59  -4.66         -225.410690             +0.0000
