
  ___ ___ ___ _ _ _  
 |   |   |_  | | | | 
 | | | | | . | | | | 
 |__ |  _|___|_____|  21.1.1b1
 |___|_|             

User:   madkru@a017.nifl.fysik.dtu.dk
Date:   Thu May  6 10:01:06 2021
Arch:   x86_64
Pid:    238847
Python: 3.8.6
gpaw:   /home/niflheim2/cmr/WIP/stacking/venv/gpaw/gpaw (393e8a163a)
_gpaw:  /home/niflheim2/cmr/WIP/stacking/venv/gpaw/build/lib.linux-x86_64-skylake-3.8/
        _gpaw.cpython-38-x86_64-linux-gnu.so (393e8a163a)
ase:    /home/niflheim2/cmr/WIP/stacking/venv/ase/ase (version 3.22.0b1-5e85d35a81)
numpy:  /home/modules/software/SciPy-bundle/2020.11-intel-2020b/lib/python3.8/site-packages/numpy (version 1.19.4)
scipy:  /home/modules/software/SciPy-bundle/2020.11-intel-2020b/lib/python3.8/site-packages/scipy (version 1.5.4)
libxc:  4.3.4
units:  Angstrom and eV
cores: 40
OpenMP: False
OMP_NUM_THREADS: 1

Input parameters:
  convergence: {density: 1e-09}
  experimental: {magmoms: [[0. 0. 0.]
 [0. 0. 0.]
 [0. 0. 0.]
 ...
 [0. 0. 0.]
 [0. 0. 0.]
 [0. 0. 0.]],
                 soc: True}
  kpts: [4 4 6]
  maxiter: 5000
  mixer: {backend: pulay,
          beta: 0.05,
          method: difference,
          nmaxold: 3,
          weight: 100}
  mode: {ecut: 600.0,
         gammacentered: False,
         name: pw}
  occupations: {fixmagmom: False,
                name: fermi-dirac,
                width: 0.001}
  symmetry: off

System changes: positions, numbers, cell, pbc, initial_charges, initial_magmoms 

Initialize ...

O-setup:
  name: Oxygen
  id: 9b9d51c344dea68c822856295a461509
  Z: 8.0
  valence: 6
  core: 2
  charge: 0.0
  file: /home/modules/software/GPAW-setups/0.9.20000/O.LDA.gz
  compensation charges: gauss, rc=0.21, lmax=2
  cutoffs: 1.17(filt), 0.83(core),
  valence states:
                energy  radius
    2s(2.00)   -23.752   0.688
    2p(4.00)    -9.195   0.598
    *s           3.459   0.688
    *p          18.016   0.598
    *d           0.000   0.619

  Using partial waves for O as LCAO basis

Mn-setup:
  name: Manganese
  id: 0d715a8018be061a6e9ea6f2d364ac92
  Z: 25.0
  valence: 15
  core: 10
  charge: 0.0
  file: /home/modules/software/GPAW-setups/0.9.20000/Mn.LDA.gz
  compensation charges: gauss, rc=0.38, lmax=2
  cutoffs: 2.14(filt), 0.86(core),
  valence states:
                energy  radius
    3s(2.00)   -85.387   1.275
    4s(2.00)    -5.282   1.275
    3p(6.00)   -54.493   1.281
    4p(0.00)    -1.471   1.281
    3d(5.00)    -7.009   1.138
    *d          20.203   1.138

  Using partial waves for Mn as LCAO basis

P-setup:
  name: Phosphorus
  id: a5561c299094968922a179ab894d2e2d
  Z: 15.0
  valence: 5
  core: 10
  charge: 0.0
  file: /home/modules/software/GPAW-setups/0.9.20000/P.LDA.gz
  compensation charges: gauss, rc=0.30, lmax=2
  cutoffs: 1.69(filt), 1.81(core),
  valence states:
                energy  radius
    3s(2.00)   -14.015   0.953
    3p(3.00)    -5.596   0.953
    *s          13.197   0.953
    *p          21.615   0.953
    *d           0.000   0.953

  Using partial waves for P as LCAO basis

Li-setup:
  name: Lithium
  id: b73562207f97a71b6967473b66fe8b65
  Z: 3.0
  valence: 1
  core: 2
  charge: 0.0
  file: /home/modules/software/GPAW-setups/0.9.20000/Li.LDA.gz
  compensation charges: gauss, rc=0.33, lmax=2
  cutoffs: 1.91(filt), 2.55(core),
  valence states:
                energy  radius
    2s(1.00)    -2.874   1.058
    2p(0.00)    -1.126   1.058
    *s          24.338   1.058

  Using partial waves for Li as LCAO basis

Reference energy: -196157.275402

Non-collinear calculation.
Magnetic moment: (0.000000, 0.000000, 0.000000)

Convergence criteria:
  Maximum total energy change: 0.0005 eV / electron
  Maximum integral of absolute density change: 1e-09 electrons
  Maximum integral of absolute eigenstate change: 4e-08 eV^2
  Maximum number of iterations: 5000

Symmetries present (total): 1

  ( 1  0  0)
  ( 0  1  0)
  ( 0  0  1)

96 k-points: 4 x 4 x 6 Monkhorst-Pack grid
96 k-points in the irreducible part of the Brillouin zone
       k-points in crystal coordinates                weights
   0:    -0.37500000   -0.37500000   -0.41666667          1/96
   1:    -0.37500000   -0.37500000   -0.25000000          1/96
   2:    -0.37500000   -0.37500000   -0.08333333          1/96
   3:    -0.37500000   -0.37500000    0.08333333          1/96
   4:    -0.37500000   -0.37500000    0.25000000          1/96
   5:    -0.37500000   -0.37500000    0.41666667          1/96
   6:    -0.37500000   -0.12500000   -0.41666667          1/96
   7:    -0.37500000   -0.12500000   -0.25000000          1/96
   8:    -0.37500000   -0.12500000   -0.08333333          1/96
   9:    -0.37500000   -0.12500000    0.08333333          1/96
          ...
  95:     0.37500000    0.37500000    0.41666667          1/96

Wave functions: Plane wave expansion
  Cutoff energy: 600.000 eV
  Number of coefficients (min, max): 9234, 9278
  Pulay-stress correction: 0.000000 eV/Ang^3 (de/decut=0.000000)
  Using FFTW library
  ScaLapack parameters: grid=1x1, blocksize=None
  Wavefunction extrapolation:
    Improved wavefunction reuse through dual PAW basis 

  Fermi-Dirac: width=0.0010 eV

Eigensolver
   Davidson(niter=2) 

Densities:
  Coarse grid: 60*35*27 grid
  Fine grid: 120*70*54 grid
  Total Charge: 0.000000 

Density mixing:
  Method: difference
  Backend: pulay
  Linear mixing parameter: 0.05
  Mixing with 3 old densities
  Damping of long wave oscillations: 100 

Hamiltonian:
  XC and Coulomb potentials evaluated on a 120*70*54 grid
  Using the LDA Exchange-Correlation functional
 

Memory estimate:
  Process memory now: 212.71 MiB
  Calculator: 156.49 MiB
    Density: 36.32 MiB
      Arrays: 11.25 MiB
      Localized functions: 17.29 MiB
      Mixer: 7.79 MiB
    Hamiltonian: 7.85 MiB
      Arrays: 7.35 MiB
      XC: 0.00 MiB
      Poisson: 0.00 MiB
      vbar: 0.50 MiB
    Wavefunctions: 112.32 MiB
      Arrays psit_nG: 63.42 MiB
      Eigensolver: 40.08 MiB
      Projections: 2.41 MiB
      Projectors: 3.96 MiB
      PW-descriptor: 2.45 MiB

Total number of cores used: 40
Parallelization over k-points: 40

Number of atoms: 28
Number of atomic orbitals: 148
Number of bands in calculation: 224
Number of valence electrons: 180
Bands to converge: occupied

... initialized

Initializing position-dependent things.

Density initialized from atomic densities
Creating initial wave functions:
  148 bands from LCAO basis set
  76 bands from random numbers

                                           
                                           
                                           
                                           
                                           
               O     O  P  O               
            PO           OMn     O         
                  O          MO            
            O        Li O                  
             Mn  On          OP            
         O         Li O                    
         Li     O P         O              
       Li                                  
                                           
                                           
                                           
                                           

Positions:
   0 O      3.448691    0.259145    1.050206    ( 0.0000,  0.0000,  0.0000)
   1 O      1.641053    5.679426    3.346578    ( 0.0000,  0.0000,  0.0000)
   2 O      6.697426    3.239110    3.576682    ( 0.0000,  0.0000,  0.0000)
   3 O      8.504995    2.714144    1.257144    ( 0.0000,  0.0000,  0.0000)
   4 O      6.697405    5.679410    3.576828    ( 0.0000,  0.0000,  0.0000)
   5 O      8.505019    0.259139    1.257265    ( 0.0000,  0.0000,  0.0000)
   6 O      3.448665    2.714089    1.050326    ( 0.0000,  0.0000,  0.0000)
   7 O      1.641079    3.239050    3.346719    ( 0.0000,  0.0000,  0.0000)
   8 O      0.537227    1.486671    1.270420    ( 0.0000,  0.0000,  0.0000)
   9 O      4.539028    4.459193    3.598747    ( 0.0000,  0.0000,  0.0000)
  10 O      9.595220    4.459216    3.324328    ( 0.0000,  0.0000,  0.0000)
  11 O      5.593424    1.486696    1.037368    ( 0.0000,  0.0000,  0.0000)
  12 Mn     2.225528    1.486374    2.453259    ( 0.0000,  0.0000,  0.0000)
  13 Mn     2.782791    4.459477    0.150478    ( 5.0000,  0.0000,  0.0000)
  14 Mn     7.838964    4.459501    2.157089    (-5.0000,  0.0000,  0.0000)
  15 Mn     7.281716    1.486399    4.470046    (-5.0000,  0.0000,  0.0000)
  16 P      4.169946    1.486666    0.426091    ( 5.0000,  0.0000,  0.0000)
  17 P      0.895134    4.459184    2.718754    ( 0.0000,  0.0000,  0.0000)
  18 P      5.951364    4.459206    4.204515    ( 0.0000,  0.0000,  0.0000)
  19 P      9.226170    1.486690    1.881500    ( 0.0000,  0.0000,  0.0000)
  20 O      4.165138    1.486647    3.515165    ( 0.0000,  0.0000,  0.0000)
  21 O      0.919960    4.459185    1.193757    ( 0.0000,  0.0000,  0.0000)
  22 O      5.975912    4.459205    1.114076    ( 0.0000,  0.0000,  0.0000)
  23 O      9.221100    1.486669    3.407872    ( 0.0000,  0.0000,  0.0000)
  24 Li    -0.038273    0.004383   -0.019458    ( 0.0000,  0.0000,  0.0000)
  25 Li     5.017957    0.004387    2.327135    ( 0.0000,  0.0000,  0.0000)
  26 Li    -0.038211    2.968529   -0.019426    ( 0.0000,  0.0000,  0.0000)
  27 Li     5.018019    2.968576    2.327100    ( 0.0000,  0.0000,  0.0000)

Unit cell:
           periodic     x           y           z      points  spacing
  1. axis:    yes   10.112485    0.000045   -0.000035    60     0.1685
  2. axis:    yes    0.000026    5.945827    0.000001    35     0.1699
  3. axis:    yes   -0.000016    0.000000    4.615463    27     0.1709

  Lengths:  10.112485   5.945827   4.615463
  Angles:   89.999989  90.000396  89.999490

Effective grid spacing dv^(1/3) = 0.1698

                     log10-error:    total        iterations:
           time      wfs    density  energy       poisson
iter:   1  10:03:35                -249.260826            -1.0,+0.0,+0.0
iter:   2  10:04:04  -0.47  -0.92  -250.844980            +0.2,+0.0,-0.0
iter:   3  10:04:33  -1.05  -0.96  -245.171627            +0.0,+0.0,-0.0
iter:   4  10:05:03  -1.08  -1.00  -231.515606            -0.0,+0.0,-0.0
iter:   5  10:05:32  -0.71  -1.10  -235.976924            -0.0,+0.0,+0.0
iter:   6  10:06:01  -1.66  -1.29  -223.369328            -0.0,+0.0,+0.0
iter:   7  10:06:31  -2.17  -1.41  -222.730972            +0.1,+0.0,+0.0
iter:   8  10:07:00  -3.31  -1.40  -222.577141            -0.0,+0.0,-0.0
iter:   9  10:07:29  -2.07  -1.42  -222.107148            -0.0,-0.0,-0.0
iter:  10  10:07:58  -2.00  -1.52  -222.603982            -0.3,-0.0,-0.1
iter:  11  10:08:28  -2.87  -1.63  -222.487308            -0.5,-0.0,-0.1
iter:  12  10:08:57  -3.06  -1.67  -222.354393            -0.9,-0.0,-0.1
iter:  13  10:09:26  -2.88  -1.76  -222.562243            -1.9,-0.0,+0.1
iter:  14  10:09:56  -2.61  -1.82  -222.857000            -2.5,-0.0,+0.2
iter:  15  10:10:25  -2.80  -1.89  -223.417880            -3.6,-0.0,+0.3
iter:  16  10:10:54  -3.09  -1.99  -224.575253            -5.0,-0.0,+0.3
iter:  17  10:11:24  -2.99  -1.85  -225.021146            -5.9,-0.0,+0.6
iter:  18  10:11:53  -2.70  -1.92  -226.402250            -8.3,-0.0,+0.7
iter:  19  10:12:22  -2.32  -1.92  -227.056488            -10.2,-0.0,+0.6
iter:  20  10:12:51  -1.46  -1.87  -228.839701            -9.9,-0.0,+0.6
iter:  21  10:13:21  -2.25  -1.88  -229.480864            -10.1,-0.0,+0.6
iter:  22  10:13:50  -1.65  -1.82  -226.262086            -8.6,-0.0,+0.5
iter:  23  10:14:19  -3.01  -1.89  -226.613715            -8.6,-0.0,+0.5
iter:  24  10:14:49  -1.79  -1.90  -227.703212            -9.5,-0.0,+0.5
iter:  25  10:15:18  -3.20  -1.81  -226.590005            -8.9,-0.0,+0.5
iter:  26  10:15:47  -2.31  -1.92  -226.098618            -8.5,-0.0,+0.4
iter:  27  10:16:16  -3.32  -1.97  -226.201674            -8.8,-0.0,+0.5
iter:  28  10:16:45  -2.84  -1.98  -226.213717            -9.8,-0.0,+0.5
iter:  29  10:17:15  -3.60  -2.07  -226.182484            -9.9,-0.0,+0.5
iter:  30  10:17:44  -2.81  -2.17  -226.170255            -9.9,-0.0,+0.5
iter:  31  10:18:13  -4.22  -2.66  -226.158314            -9.9,-0.0,+0.5
iter:  32  10:18:42  -3.71  -2.68  -226.145661            -9.9,-0.0,+0.5
iter:  33  10:19:11  -3.57  -2.77  -226.162973            -9.9,-0.0,+0.5
iter:  34  10:19:40  -3.62  -2.82  -226.145028            -9.9,-0.0,+0.5
iter:  35  10:20:09  -4.51  -2.99  -226.144389            -9.9,-0.0,+0.5
iter:  36  10:20:38  -4.65  -3.04  -226.142658            -9.9,-0.0,+0.5
iter:  37  10:21:07  -4.85  -3.15  -226.141663            -9.9,-0.0,+0.5
iter:  38  10:21:36  -5.23  -3.20  -226.141514            -9.9,-0.0,+0.5
iter:  39  10:22:05  -5.12  -3.24  -226.140855            -9.9,-0.0,+0.5
iter:  40  10:22:34  -5.50  -3.50  -226.140712            -9.9,-0.0,+0.5
iter:  41  10:23:03  -5.95  -3.56  -226.140754            -9.9,-0.0,+0.5
iter:  42  10:23:32  -5.58  -3.59  -226.140622            -9.9,-0.0,+0.5
iter:  43  10:24:01  -6.28  -3.86  -226.140613            -9.9,-0.0,+0.5
iter:  44  10:24:30  -6.30  -3.96  -226.140669            -9.9,-0.0,+0.5
iter:  45  10:24:58  -6.16  -4.01  -226.140718            -9.9,-0.0,+0.5
iter:  46  10:25:27  -5.75  -4.05  -226.140838            -9.9,-0.0,+0.4
iter:  47  10:25:56  -5.75  -4.08  -226.140933            -9.9,-0.0,+0.4
iter:  48  10:26:25  -5.49  -4.43  -226.141111            -9.9,-0.0,+0.3
iter:  49  10:26:54  -6.78  -4.54  -226.141114            -9.9,-0.0,+0.3
iter:  50  10:27:23  -6.75  -4.61  -226.141183            -9.9,-0.0,+0.3
iter:  51  10:27:52  -6.35  -4.67  -226.141117            -9.9,-0.0,+0.3
iter:  52  10:28:21  -5.64  -4.72  -226.140967            -9.9,-0.0,+0.3
iter:  53  10:28:50  -4.62  -4.79  -226.140518            -9.9,-0.0,+0.3
iter:  54  10:29:19  -4.68  -4.84  -226.140272            -9.9,-0.0,+0.3
iter:  55  10:29:47  -5.25  -4.82  -226.140412            -9.9,-0.0,+0.3
iter:  56  10:30:16  -4.76  -4.85  -226.140194            -9.9,-0.0,+0.3
iter:  57  10:30:45  -4.92  -4.77  -226.140410            -9.9,-0.0,+0.3
iter:  58  10:31:14  -5.14  -4.90  -226.140555            -9.9,-0.0,+0.3
iter:  59  10:31:43  -6.51  -4.95  -226.140560            -9.9,-0.0,+0.3
iter:  60  10:32:12  -6.23  -4.95  -226.140557            -9.9,-0.0,+0.3
iter:  61  10:32:40  -6.66  -4.92  -226.140569            -9.9,-0.0,+0.3
iter:  62  10:33:09  -7.47  -4.94  -226.140575            -9.9,-0.0,+0.3
iter:  63  10:33:38  -4.97  -4.93  -226.140486            -9.9,-0.0,+0.2
iter:  64  10:34:07  -5.36  -4.97  -226.140462            -9.9,-0.0,+0.2
iter:  65  10:34:36  -6.78  -4.96  -226.140469            -9.9,-0.0,+0.2
iter:  66  10:35:05  -7.29  -5.11  -226.140507            -9.9,-0.0,+0.2
iter:  67  10:35:33  -7.76  -5.22  -226.140516            -9.9,-0.0,+0.2
iter:  68  10:36:02  -8.64  -5.16  -226.140516            -9.9,-0.0,+0.2
iter:  69  10:36:31  -7.39  -5.15  -226.140523            -9.9,-0.0,+0.2
iter:  70  10:37:00  -6.23  -5.14  -226.140554            -9.9,-0.0,+0.2
iter:  71  10:37:29  -5.65  -5.12  -226.140626            -9.9,-0.0,+0.1
iter:  72  10:37:57  -4.98  -5.10  -226.140824            -9.9,-0.0,+0.1
iter:  73  10:38:26  -6.62  -5.07  -226.140801            -9.9,-0.0,+0.1
iter:  74  10:38:55  -7.33  -5.07  -226.140813            -10.0,-0.0,+0.1
iter:  75  10:39:24  -7.13  -5.17  -226.140803            -9.9,-0.0,+0.1
iter:  76  10:39:53  -7.40  -5.12  -226.140818            -9.9,-0.0,+0.1
iter:  77  10:40:21  -6.75  -5.18  -226.140784            -9.9,-0.0,+0.1
iter:  78  10:40:50  -7.60  -5.24  -226.140779            -9.9,-0.0,+0.1
iter:  79  10:41:19  -6.79  -5.35  -226.140808            -9.9,-0.0,+0.1
iter:  80  10:41:48  -5.67  -5.46  -226.140918            -9.9,-0.0,+0.0
iter:  81  10:42:16  -5.62  -5.46  -226.141025            -9.9,-0.0,-0.0
iter:  82  10:42:45  -6.34  -5.34  -226.140980            -9.9,-0.0,+0.0
iter:  83  10:43:14  -5.41  -5.52  -226.141143            -9.9,-0.0,-0.1
iter:  84  10:43:42  -6.79  -5.41  -226.141119            -9.9,-0.0,-0.1
iter:  85  10:44:11  -6.94  -5.23  -226.141166            -9.9,-0.0,-0.1
iter:  86  10:44:40  -7.24  -5.59  -226.141152            -9.9,-0.0,-0.1
iter:  87  10:45:08  -6.41  -5.58  -226.141194            -9.9,-0.0,-0.1
iter:  88  10:45:37  -6.20  -5.69  -226.141244            -9.9,-0.0,-0.1
iter:  89  10:46:05  -5.21  -5.79  -226.141060            -9.9,-0.0,-0.0
iter:  90  10:46:34  -5.45  -5.57  -226.141218            -9.9,-0.0,-0.1
iter:  91  10:47:02  -5.65  -5.97  -226.141085            -9.9,-0.0,-0.0
iter:  92  10:47:31  -5.26  -5.62  -226.141270            -9.9,-0.0,-0.2
iter:  93  10:48:00  -6.66  -5.79  -226.141275            -9.9,-0.0,-0.2
iter:  94  10:48:28  -6.58  -5.79  -226.141256            -9.9,-0.0,-0.2
iter:  95  10:48:57  -7.39  -5.64  -226.141275            -9.9,-0.0,-0.2
iter:  96  10:49:25  -7.94  -6.01  -226.141274            -10.0,-0.0,-0.2
iter:  97  10:49:54  -5.81  -6.07  -226.141242            -10.0,-0.0,-0.3
iter:  98  10:50:22  -5.31  -5.73  -226.141296            -10.0,-0.0,-0.1
iter:  99  10:50:51  -5.80  -5.81  -226.141276            -10.0,-0.0,-0.2
iter: 100  10:51:20  -7.47  -5.99  -226.141287            -10.0,-0.0,-0.2
iter: 101  10:51:48  -5.86  -6.02  -226.141186            -10.0,-0.0,-0.2
iter: 102  10:52:17  -5.85  -5.70  -226.141293            -10.0,-0.0,-0.2
iter: 103  10:52:45  -7.67  -6.05  -226.141289            -10.0,-0.0,-0.2
iter: 104  10:53:14  -6.17  -6.02  -226.141247            -10.0,-0.0,-0.3
iter: 105  10:53:42  -5.14  -5.80  -226.141381            -10.0,-0.0,-0.1
iter: 106  10:54:11  -6.23  -5.64  -226.141404            -10.0,-0.0,-0.1
iter: 107  10:54:40  -5.25  -5.55  -226.141226            -9.9,-0.0,-0.2
iter: 108  10:55:08  -6.47  -5.91  -226.141221            -10.0,-0.0,-0.2
iter: 109  10:55:37  -7.45  -5.90  -226.141236            -10.0,-0.0,-0.2
iter: 110  10:56:05  -6.40  -6.17  -226.141190            -10.0,-0.0,-0.2
iter: 111  10:56:34  -6.79  -6.03  -226.141170            -10.0,-0.0,-0.2
iter: 112  10:57:02  -5.66  -5.96  -226.141268            -10.0,-0.0,-0.2
iter: 113  10:57:31  -5.03  -6.24  -226.141054            -10.0,-0.0,-0.3
iter: 114  10:58:00  -6.43  -5.49  -226.141059            -10.0,-0.0,-0.3
iter: 115  10:58:28  -7.29  -5.47  -226.141073            -10.0,-0.0,-0.3
iter: 116  10:58:57  -7.21  -5.70  -226.141087            -10.0,-0.0,-0.3
iter: 117  10:59:25  -6.78  -5.88  -226.141112            -10.0,-0.0,-0.3
iter: 118  10:59:54  -6.42  -5.94  -226.141154            -10.0,-0.0,-0.2
iter: 119  11:00:22  -4.44  -5.80  -226.140806            -10.0,-0.0,-0.4
iter: 120  11:00:51  -4.99  -5.33  -226.140742            -10.0,-0.0,-0.5
iter: 121  11:01:19  -5.50  -5.12  -226.140797            -10.0,-0.0,-0.4
iter: 122  11:01:48  -5.48  -5.26  -226.140762            -10.0,-0.0,-0.5
iter: 123  11:02:16  -5.69  -5.24  -226.140744            -10.0,-0.0,-0.5
iter: 124  11:02:45  -6.16  -5.13  -226.140750            -10.0,-0.0,-0.5
iter: 125  11:03:13  -6.52  -5.12  -226.140801            -10.0,-0.0,-0.6
iter: 126  11:03:42  -7.33  -5.43  -226.140815            -10.0,-0.0,-0.6
iter: 127  11:04:10  -8.39  -5.41  -226.140816            -10.0,-0.0,-0.6
iter: 128  11:04:39  -7.69  -5.64  -226.140819            -10.0,-0.0,-0.5
iter: 129  11:05:07  -7.48  -5.72  -226.140815            -10.0,-0.0,-0.6
iter: 130  11:05:36  -8.06  -5.80  -226.140813            -10.0,-0.0,-0.6
iter: 131  11:06:04  -6.45  -6.08  -226.140828            -10.0,-0.0,-0.5
iter: 132  11:06:33  -5.47  -5.98  -226.140789            -10.0,-0.0,-0.6
iter: 133  11:07:01  -6.63  -5.77  -226.140788            -10.0,-0.0,-0.6
iter: 134  11:07:30  -7.35  -5.78  -226.140792            -10.0,-0.0,-0.6
iter: 135  11:07:58  -8.46  -5.87  -226.140794            -10.0,-0.0,-0.6
iter: 136  11:08:27  -8.19  -6.01  -226.140796            -10.0,-0.0,-0.6
iter: 137  11:08:55  -7.80  -6.18  -226.140798            -10.0,-0.0,-0.5
iter: 138  11:09:24  -6.41  -6.16  -226.140807            -10.0,-0.0,-0.5
iter: 139  11:09:52  -6.50  -5.89  -226.140811            -10.0,-0.0,-0.5
iter: 140  11:10:21  -7.26  -5.74  -226.140811            -10.0,-0.0,-0.5
iter: 141  11:10:49  -8.16  -5.67  -226.140814            -10.0,-0.0,-0.5
iter: 142  11:11:18  -8.49  -5.83  -226.140815            -10.0,-0.0,-0.5
iter: 143  11:11:46  -8.96  -6.29  -226.140815            -10.0,-0.0,-0.5
iter: 144  11:12:15  -8.25  -6.41  -226.140815            -10.0,-0.0,-0.5
iter: 145  11:12:43  -7.22  -6.61  -226.140816            -10.0,-0.0,-0.4
iter: 146  11:13:12  -7.04  -6.40  -226.140817            -10.0,-0.0,-0.4
iter: 147  11:13:40  -7.66  -6.16  -226.140817            -10.0,-0.0,-0.4
iter: 148  11:14:09  -8.60  -6.07  -226.140817            -10.0,-0.0,-0.4
iter: 149  11:14:37  -8.77  -6.12  -226.140818            -10.0,-0.0,-0.4
iter: 150  11:15:06  -9.02  -6.64  -226.140818            -10.0,-0.0,-0.4
iter: 151  11:15:34  -8.06  -6.43  -226.140818            -10.0,-0.0,-0.4
iter: 152  11:16:03  -9.13  -6.43  -226.140818            -10.0,-0.0,-0.4
iter: 153  11:16:31  -8.94  -6.30  -226.140818            -10.0,-0.0,-0.4
iter: 154  11:16:59  -7.25  -6.40  -226.140817            -10.0,-0.0,-0.4
iter: 155  11:17:28  -7.40  -6.58  -226.140818            -10.0,-0.0,-0.4
iter: 156  11:17:56  -8.90  -6.65  -226.140818            -10.0,-0.0,-0.4
iter: 157  11:18:25  -8.14  -7.17  -226.140817            -10.0,-0.0,-0.4
iter: 158  11:18:53  -7.14  -6.75  -226.140819            -10.0,-0.0,-0.4
iter: 159  11:19:22  -7.78  -6.63  -226.140819            -10.0,-0.0,-0.4
iter: 160  11:19:50  -8.28  -6.48  -226.140819            -10.0,-0.0,-0.4
iter: 161  11:20:19  -8.19  -6.67  -226.140819            -10.0,-0.0,-0.4
iter: 162  11:20:47  -7.18  -6.51  -226.140818            -10.0,-0.0,-0.4
iter: 163  11:21:16  -7.33  -7.30  -226.140819            -10.0,-0.0,-0.4
iter: 164  11:21:44  -9.05  -6.54  -226.140819            -10.0,-0.0,-0.4
iter: 165  11:22:13  -8.72  -6.65  -226.140819            -10.0,-0.0,-0.4
iter: 166  11:22:41  -7.72  -6.85  -226.140819            -10.0,-0.0,-0.4
iter: 167  11:23:10  -8.23  -6.57  -226.140819            -10.0,-0.0,-0.4
iter: 168  11:23:38  -8.73  -6.24  -226.140820            -10.0,-0.0,-0.4
iter: 169  11:24:07  -8.12  -6.83  -226.140819            -10.0,-0.0,-0.4
iter: 170  11:24:35  -8.09  -6.70  -226.140819            -10.0,-0.0,-0.4
iter: 171  11:25:04  -7.77  -6.65  -226.140819            -10.0,-0.0,-0.4
iter: 172  11:25:32  -6.42  -6.22  -226.140816            -10.0,-0.0,-0.4
iter: 173  11:26:01  -6.59  -6.16  -226.140768            -9.9,-0.0,-0.4
iter: 174  11:26:29  -6.37  -5.12  -226.140816            -10.0,-0.0,-0.4
iter: 175  11:26:58  -6.91  -6.33  -226.140815            -10.0,-0.0,-0.4
iter: 176  11:27:26  -6.46  -6.40  -226.140817            -10.0,-0.0,-0.4
iter: 177  11:27:55  -7.06  -6.34  -226.140785            -10.0,-0.0,-0.4
iter: 178  11:28:23  -7.25  -5.22  -226.140817            -10.0,-0.0,-0.4
iter: 179  11:28:52  -8.78  -6.85  -226.140817            -10.0,-0.0,-0.4
iter: 180  11:29:20  -7.68  -7.00  -226.140816            -10.0,-0.0,-0.4
iter: 181  11:29:49  -6.58  -6.64  -226.140818            -10.0,-0.0,-0.4
iter: 182  11:30:17  -7.51  -6.45  -226.140818            -10.0,-0.0,-0.4
iter: 183  11:30:46  -8.72  -6.26  -226.140819            -10.0,-0.0,-0.4
iter: 184  11:31:14  -8.95  -6.47  -226.140819            -10.0,-0.0,-0.4
iter: 185  11:31:43  -9.84  -7.46  -226.140819            -10.0,-0.0,-0.4
iter: 186  11:32:11  -9.10  -7.06  -226.140819            -10.0,-0.0,-0.4
iter: 187  11:32:40  -8.37  -7.33  -226.140819            -10.0,-0.0,-0.4
iter: 188  11:33:08  -7.61  -7.36  -226.140818            -10.0,-0.0,-0.4
iter: 189  11:33:37  -7.28  -6.80  -226.140820            -10.0,-0.0,-0.4
iter: 190  11:34:06  -7.92  -6.81  -226.140819            -10.0,-0.0,-0.4
iter: 191  11:34:34  -7.51  -7.81  -226.140820            -10.0,-0.0,-0.4
iter: 192  11:35:03  -8.50  -6.60  -226.140820            -10.0,-0.0,-0.4
iter: 193  11:35:31  -7.60  -6.75  -226.140820            -10.0,-0.0,-0.4
iter: 194  11:36:00  -8.72  -6.42  -226.140820            -10.0,-0.0,-0.4
iter: 195  11:36:28  -8.12  -6.47  -226.140821            -10.0,-0.0,-0.4
iter: 196  11:36:57  -9.42  -6.27  -226.140821            -10.0,-0.0,-0.4
iter: 197  11:37:26  -9.17  -6.54  -226.140821            -10.0,-0.0,-0.4
iter: 198  11:37:54  -8.42  -7.32  -226.140821            -10.0,-0.0,-0.4
iter: 199  11:38:23  -7.91  -6.81  -226.140821            -10.0,-0.0,-0.4
iter: 200  11:38:51  -8.35  -7.18  -226.140821            -10.0,-0.0,-0.4
iter: 201  11:39:20  -6.56  -7.02  -226.140819            -10.0,-0.0,-0.4
iter: 202  11:39:48  -8.31  -6.24  -226.140819            -10.0,-0.0,-0.4
iter: 203  11:40:17  -8.43  -6.23  -226.140818            -10.0,-0.0,-0.4
iter: 204  11:40:46  -7.50  -5.87  -226.140820            -10.0,-0.0,-0.4
iter: 205  11:41:14  -7.59  -7.34  -226.140821            -10.0,-0.0,-0.4
iter: 206  11:41:43  -7.80  -6.90  -226.140820            -10.0,-0.0,-0.4
iter: 207  11:42:12  -6.82  -6.50  -226.140818            -10.0,-0.0,-0.4
iter: 208  11:42:40  -6.65  -6.05  -226.140821            -10.0,-0.0,-0.4
iter: 209  11:43:09  -7.52  -6.71  -226.140821            -10.0,-0.0,-0.4
iter: 210  11:43:37  -7.37  -6.67  -226.140797            -9.9,-0.0,-0.4
iter: 211  11:44:06  -7.45  -5.29  -226.140821            -10.0,-0.0,-0.4
iter: 212  11:44:35  -8.87  -6.64  -226.140821            -10.0,-0.0,-0.4
iter: 213  11:45:03  -8.61  -6.97  -226.140821            -10.0,-0.0,-0.4
iter: 214  11:45:32  -8.15  -6.86  -226.140820            -10.0,-0.0,-0.4
iter: 215  11:46:01  -9.10  -6.66  -226.140820            -10.0,-0.0,-0.4
iter: 216  11:46:29  -8.67  -6.62  -226.140821            -10.0,-0.0,-0.4
iter: 217  11:46:58  -9.11  -6.79  -226.140821            -10.0,-0.0,-0.4
iter: 218  11:47:27  -9.13  -7.00  -226.140821            -10.0,-0.0,-0.4
iter: 219  11:47:55  -7.27  -7.22  -226.140819            -10.0,-0.0,-0.4
iter: 220  11:48:24  -7.13  -6.49  -226.140817            -10.0,-0.0,-0.4
iter: 221  11:48:53  -7.90  -6.22  -226.140817            -10.0,-0.0,-0.4
iter: 222  11:49:21  -9.05  -6.16  -226.140817            -10.0,-0.0,-0.4
iter: 223  11:49:50  -7.28  -6.21  -226.140819            -10.0,-0.0,-0.4
iter: 224  11:50:19  -8.28  -6.93  -226.140819            -10.0,-0.0,-0.4
iter: 225  11:50:47  -8.60  -7.44  -226.140819            -10.0,-0.0,-0.4
iter: 226  11:51:16  -8.11  -7.07  -226.140818            -10.0,-0.0,-0.4
iter: 227  11:51:44  -7.59  -6.74  -226.140819            -10.0,-0.0,-0.4
iter: 228  11:52:13  -7.25  -7.60  -226.140821            -10.0,-0.0,-0.4
iter: 229  11:52:42  -6.56  -6.56  -226.140817            -10.0,-0.0,-0.4
iter: 230  11:53:10  -8.04  -6.47  -226.140818            -10.0,-0.0,-0.4
iter: 231  11:53:39  -8.87  -6.47  -226.140818            -10.0,-0.0,-0.4
iter: 232  11:54:07  -8.72  -6.47  -226.140818            -10.0,-0.0,-0.4
iter: 233  11:54:36  -7.92  -7.06  -226.140818            -10.0,-0.0,-0.4
iter: 234  11:55:05  -7.30  -6.98  -226.140820            -10.0,-0.0,-0.4
iter: 235  11:55:33  -8.52  -6.45  -226.140819            -10.0,-0.0,-0.4
iter: 236  11:56:02  -7.28  -6.54  -226.140820            -10.0,-0.0,-0.4
iter: 237  11:56:31  -8.81  -6.09  -226.140821            -10.0,-0.0,-0.4
iter: 238  11:56:59  -8.37  -6.35  -226.140821            -10.0,-0.0,-0.4
iter: 239  11:57:28  -6.91  -7.13  -226.140818            -10.0,-0.0,-0.4
iter: 240  11:57:57  -6.56  -6.21  -226.140823            -10.0,-0.0,-0.4
iter: 241  11:58:25  -7.38  -6.52  -226.140824            -10.0,-0.0,-0.4
iter: 242  11:58:54  -6.50  -6.40  -226.140819            -10.0,-0.0,-0.4
iter: 243  11:59:22  -7.38  -7.08  -226.140819            -10.0,-0.0,-0.4
iter: 244  11:59:51  -7.91  -6.64  -226.140819            -10.0,-0.0,-0.4
iter: 245  12:00:20  -7.08  -7.01  -226.140817            -10.0,-0.0,-0.4
iter: 246  12:00:48  -6.47  -6.31  -226.140822            -10.0,-0.0,-0.4
iter: 247  12:01:17  -7.88  -6.53  -226.140822            -10.0,-0.0,-0.4
iter: 248  12:01:46  -8.76  -6.51  -226.140822            -10.0,-0.0,-0.4
iter: 249  12:02:14  -9.53  -6.68  -226.140822            -10.0,-0.0,-0.4
iter: 250  12:02:43  -8.25  -7.10  -226.140822            -10.0,-0.0,-0.4
iter: 251  12:03:12  -7.48  -7.35  -226.140821            -10.0,-0.0,-0.4
iter: 252  12:03:40  -7.82  -6.58  -226.140822            -10.0,-0.0,-0.4
iter: 253  12:04:09  -7.42  -7.12  -226.140820            -10.0,-0.0,-0.4
iter: 254  12:04:37  -7.42  -6.43  -226.140822            -10.0,-0.0,-0.4
iter: 255  12:05:06  -8.74  -7.05  -226.140822            -10.0,-0.0,-0.4
iter: 256  12:05:35  -7.93  -6.79  -226.140821            -10.0,-0.0,-0.4
iter: 257  12:06:03  -6.95  -6.50  -226.140823            -10.0,-0.0,-0.4
iter: 258  12:06:32  -8.22  -6.72  -226.140823            -10.0,-0.0,-0.4
iter: 259  12:07:01  -7.84  -6.67  -226.140822            -10.0,-0.0,-0.4
iter: 260  12:07:29  -9.61  -7.36  -226.140822            -10.0,-0.0,-0.4
iter: 261  12:07:58 -10.30  -7.46  -226.140822            -10.0,-0.0,-0.4
iter: 262  12:08:27  -8.37  -7.37  -226.140822            -10.0,-0.0,-0.4
iter: 263  12:08:55  -7.93  -6.75  -226.140821            -10.0,-0.0,-0.4
iter: 264  12:09:24  -7.43  -6.55  -226.140822            -10.0,-0.0,-0.4
iter: 265  12:09:53  -6.24  -7.01  -226.140816            -10.0,-0.0,-0.4
iter: 266  12:10:21  -7.03  -5.95  -226.140818            -10.0,-0.0,-0.4
iter: 267  12:10:50  -9.02  -6.15  -226.140818            -10.0,-0.0,-0.4
iter: 268  12:11:19  -8.94  -6.14  -226.140818            -10.0,-0.0,-0.4
iter: 269  12:11:47  -8.57  -6.19  -226.140818            -10.0,-0.0,-0.4
iter: 270  12:12:16  -7.85  -6.86  -226.140818            -10.0,-0.0,-0.4
iter: 271  12:12:44  -7.42  -6.72  -226.140817            -10.0,+0.0,-0.4
iter: 272  12:13:13  -7.56  -6.42  -226.140817            -10.0,+0.0,-0.4
iter: 273  12:13:42  -8.04  -6.22  -226.140817            -10.0,-0.0,-0.4
iter: 274  12:14:10  -7.78  -6.23  -226.140816            -10.0,+0.0,-0.4
iter: 275  12:14:39  -8.23  -5.95  -226.140817            -10.0,+0.0,-0.4
iter: 276  12:15:08  -9.80  -7.07  -226.140817            -10.0,+0.0,-0.4
iter: 277  12:15:36  -9.95  -7.03  -226.140817            -10.0,+0.0,-0.4
iter: 278  12:16:05  -7.16  -7.13  -226.140817            -10.0,+0.0,-0.4
iter: 279  12:16:33  -7.69  -6.57  -226.140817            -10.0,+0.0,-0.4
iter: 280  12:17:02  -8.24  -6.40  -226.140817            -10.0,+0.0,-0.4
iter: 281  12:17:31  -8.83  -6.35  -226.140817            -10.0,+0.0,-0.4
iter: 282  12:17:59  -8.78  -6.20  -226.140817            -10.0,+0.0,-0.4
iter: 283  12:18:28  -9.04  -6.70  -226.140818            -10.0,+0.0,-0.4
iter: 284  12:18:57  -7.51  -7.40  -226.140818            -10.0,+0.0,-0.4
iter: 285  12:19:25  -8.71  -6.82  -226.140818            -10.0,+0.0,-0.4
iter: 286  12:19:54  -7.45  -6.88  -226.140819            -10.0,+0.0,-0.4
iter: 287  12:20:23  -8.78  -6.28  -226.140819            -10.0,+0.0,-0.4
iter: 288  12:20:51  -9.33  -6.57  -226.140819            -10.0,+0.0,-0.4
iter: 289  12:21:20  -9.08  -7.38  -226.140819            -10.0,+0.0,-0.4
iter: 290  12:21:48  -8.29  -7.07  -226.140819            -10.0,+0.0,-0.4
iter: 291  12:22:17  -7.68  -7.70  -226.140820            -10.0,+0.0,-0.4
iter: 292  12:22:46  -6.74  -6.83  -226.140818            -10.0,+0.0,-0.4
iter: 293  12:23:14  -8.55  -6.51  -226.140818            -10.0,+0.0,-0.4
iter: 294  12:23:43  -8.37  -6.55  -226.140818            -10.0,+0.0,-0.4
iter: 295  12:24:12  -7.00  -6.46  -226.140819            -10.0,+0.0,-0.4
iter: 296  12:24:40  -7.28  -7.30  -226.140820            -10.0,+0.0,-0.4
iter: 297  12:25:09  -6.68  -6.62  -226.140818            -10.0,+0.0,-0.4
iter: 298  12:25:38  -7.20  -6.64  -226.140817            -10.0,+0.0,-0.4
iter: 299  12:26:06  -7.26  -6.36  -226.140818            -10.0,+0.0,-0.4
iter: 300  12:26:35  -6.89  -6.73  -226.140817            -10.0,+0.0,-0.4
iter: 301  12:27:03  -8.64  -6.22  -226.140817            -10.0,+0.0,-0.4
iter: 302  12:27:32  -7.54  -6.24  -226.140818            -10.0,+0.0,-0.4
iter: 303  12:28:00  -8.34  -6.29  -226.140816            -10.0,+0.0,-0.4
iter: 304  12:28:29  -8.47  -5.90  -226.140818            -10.0,+0.0,-0.4
iter: 305  12:28:58  -8.90  -6.82  -226.140818            -10.0,+0.0,-0.4
iter: 306  12:29:26  -8.97  -7.28  -226.140818            -10.0,+0.0,-0.4
iter: 307  12:29:55  -7.69  -7.01  -226.140818            -10.0,+0.0,-0.4
iter: 308  12:30:24  -7.96  -6.96  -226.140818            -10.0,+0.0,-0.4
iter: 309  12:30:52  -7.28  -7.20  -226.140819            -10.0,+0.0,-0.4
iter: 310  12:31:21  -8.06  -6.60  -226.140818            -10.0,+0.0,-0.4
iter: 311  12:31:49  -7.22  -6.82  -226.140819            -10.0,+0.0,-0.4
iter: 312  12:32:18  -8.02  -6.35  -226.140819            -10.0,+0.0,-0.4
iter: 313  12:32:46  -7.62  -6.47  -226.140820            -10.0,+0.0,-0.4
iter: 314  12:33:15  -8.11  -6.29  -226.140819            -10.0,+0.0,-0.4
iter: 315  12:33:44  -7.61  -6.35  -226.140819            -10.0,+0.0,-0.4
iter: 316  12:34:12  -8.07  -5.99  -226.140821            -10.0,+0.0,-0.4
iter: 317  12:34:41  -7.76  -6.39  -226.140820            -10.0,-0.0,-0.4
iter: 318  12:35:09  -6.96  -6.59  -226.140823            -10.0,+0.0,-0.4
iter: 319  12:35:38  -6.20  -6.53  -226.140817            -10.0,-0.0,-0.4
iter: 320  12:36:07  -7.03  -6.13  -226.140817            -10.0,-0.0,-0.4
iter: 321  12:36:35  -7.46  -6.05  -226.140817            -10.0,-0.0,-0.4
iter: 322  12:37:04  -6.42  -5.96  -226.140818            -10.0,-0.0,-0.4
iter: 323  12:37:32  -7.50  -6.66  -226.140819            -10.0,-0.0,-0.4
iter: 324  12:38:01  -8.56  -6.58  -226.140819            -10.0,+0.0,-0.4
iter: 325  12:38:30  -9.28  -6.95  -226.140819            -10.0,+0.0,-0.4
iter: 326  12:38:58 -10.20  -7.08  -226.140819            -10.0,+0.0,-0.4
iter: 327  12:39:27  -9.10  -7.19  -226.140819            -10.0,+0.0,-0.4
iter: 328  12:39:55  -9.57  -7.11  -226.140819            -10.0,+0.0,-0.4
iter: 329  12:40:24  -9.65  -7.07  -226.140819            -10.0,+0.0,-0.4
iter: 330  12:40:53  -8.14  -7.19  -226.140818            -10.0,+0.0,-0.4
iter: 331  12:41:21  -8.14  -7.24  -226.140819            -10.0,+0.0,-0.4
iter: 332  12:41:50  -6.87  -7.24  -226.140817            -10.0,+0.0,-0.4
iter: 333  12:42:18  -6.53  -6.44  -226.140817            -10.0,+0.0,-0.4
iter: 334  12:42:47  -7.64  -6.04  -226.140817            -10.0,+0.0,-0.4
iter: 335  12:43:16  -8.66  -6.01  -226.140817            -10.0,+0.0,-0.4
iter: 336  12:43:44  -8.81  -6.06  -226.140818            -10.0,+0.0,-0.4
iter: 337  12:44:13  -9.54  -6.65  -226.140818            -10.0,+0.0,-0.4
iter: 338  12:44:41  -8.68  -6.92  -226.140819            -10.0,+0.0,-0.4
iter: 339  12:45:10  -9.26  -7.08  -226.140818            -10.0,+0.0,-0.4
iter: 340  12:45:38  -8.23  -7.01  -226.140819            -10.0,+0.0,-0.4
iter: 341  12:46:07  -8.36  -7.13  -226.140819            -10.0,+0.0,-0.4
iter: 342  12:46:36  -7.12  -6.99  -226.140818            -10.0,+0.0,-0.4
iter: 343  12:47:04  -7.17  -6.68  -226.140817            -10.0,+0.0,-0.4
iter: 344  12:47:33  -8.00  -6.32  -226.140817            -10.0,+0.0,-0.4
iter: 345  12:48:01  -8.55  -6.26  -226.140817            -10.0,+0.0,-0.4
iter: 346  12:48:30  -8.04  -6.21  -226.140817            -10.0,+0.0,-0.4
iter: 347  12:48:59  -8.67  -6.26  -226.140817            -10.0,+0.0,-0.4
iter: 348  12:49:27  -9.32  -6.26  -226.140817            -10.0,+0.0,-0.4
iter: 349  12:49:56 -10.42  -7.18  -226.140817            -10.0,+0.0,-0.4
iter: 350  12:50:24 -11.32  -7.26  -226.140817            -10.0,+0.0,-0.4
iter: 351  12:50:53 -11.39  -7.27  -226.140817            -10.0,+0.0,-0.4
iter: 352  12:51:21 -10.87  -7.26  -226.140817            -10.0,+0.0,-0.4
iter: 353  12:51:50 -10.70  -7.34  -226.140817            -10.0,+0.0,-0.4
iter: 354  12:52:18  -8.59  -7.56  -226.140818            -10.0,+0.0,-0.4
iter: 355  12:52:47  -7.43  -7.10  -226.140819            -10.0,+0.0,-0.4
iter: 356  12:53:16  -7.53  -6.46  -226.140819            -10.0,+0.0,-0.4
iter: 357  12:53:44  -8.63  -6.24  -226.140819            -10.0,+0.0,-0.4
iter: 358  12:54:13  -9.40  -6.23  -226.140819            -10.0,+0.0,-0.4
iter: 359  12:54:41  -9.03  -6.09  -226.140819            -10.0,+0.0,-0.4
iter: 360  12:55:10 -10.63  -7.02  -226.140819            -10.0,+0.0,-0.4
iter: 361  12:55:39  -9.29  -7.28  -226.140819            -10.0,+0.0,-0.4
iter: 362  12:56:07  -8.57  -7.24  -226.140819            -10.0,+0.0,-0.4
iter: 363  12:56:36  -8.59  -7.36  -226.140820            -10.0,+0.0,-0.4
iter: 364  12:57:04  -7.80  -7.02  -226.140820            -10.0,+0.0,-0.4
iter: 365  12:57:33  -7.29  -6.56  -226.140821            -10.0,+0.0,-0.5
iter: 366  12:58:02  -8.14  -6.22  -226.140821            -10.0,+0.0,-0.5
iter: 367  12:58:30  -8.62  -6.17  -226.140821            -10.0,+0.0,-0.5
iter: 368  12:58:59  -8.44  -6.20  -226.140821            -10.0,+0.0,-0.5
iter: 369  12:59:27  -7.72  -6.14  -226.140822            -10.0,+0.0,-0.5
iter: 370  12:59:56  -7.48  -6.09  -226.140821            -10.0,+0.0,-0.5
iter: 371  13:00:25  -7.97  -6.31  -226.140822            -10.0,+0.0,-0.5
iter: 372  13:00:53  -7.93  -6.36  -226.140821            -10.0,+0.0,-0.5
iter: 373  13:01:22  -7.65  -6.00  -226.140822            -10.0,+0.0,-0.5
iter: 374  13:01:50  -7.85  -6.82  -226.140823            -10.0,+0.0,-0.5
iter: 375  13:02:19  -8.51  -6.71  -226.140823            -10.0,+0.0,-0.5
iter: 376  13:02:47  -8.14  -6.33  -226.140823            -10.0,+0.0,-0.5
iter: 377  13:03:16  -7.89  -6.62  -226.140823            -10.0,+0.0,-0.5
iter: 378  13:03:44  -7.29  -6.50  -226.140824            -10.0,+0.0,-0.5
iter: 379  13:04:13  -7.26  -6.56  -226.140825            -10.0,+0.0,-0.5
iter: 380  13:04:41  -8.82  -6.27  -226.140825            -10.0,+0.0,-0.5
iter: 381  13:05:10  -8.94  -6.16  -226.140825            -10.0,+0.0,-0.5
iter: 382  13:05:39  -9.86  -6.72  -226.140825            -10.0,+0.0,-0.5
iter: 383  13:06:07  -8.93  -7.03  -226.140825            -10.0,+0.0,-0.5
iter: 384  13:06:36  -7.92  -7.02  -226.140826            -10.0,+0.0,-0.5
iter: 385  13:07:04  -7.71  -6.62  -226.140827            -10.0,+0.0,-0.5
iter: 386  13:07:33  -7.88  -6.35  -226.140827            -10.0,+0.0,-0.5
iter: 387  13:08:01  -8.07  -6.20  -226.140828            -10.0,+0.0,-0.5
iter: 388  13:08:30  -6.40  -6.16  -226.140824            -10.0,+0.0,-0.5
iter: 389  13:08:58  -6.95  -6.26  -226.140815            -10.0,+0.0,-0.5
iter: 390  13:09:27  -7.19  -5.46  -226.140825            -10.0,+0.0,-0.5
iter: 391  13:09:55  -8.15  -6.53  -226.140825            -10.0,+0.0,-0.5
iter: 392  13:10:24  -7.35  -6.70  -226.140823            -10.0,+0.0,-0.5
iter: 393  13:10:52  -6.81  -6.12  -226.140826            -10.0,+0.0,-0.5
iter: 394  13:11:21  -7.59  -6.44  -226.140827            -10.0,+0.0,-0.5
iter: 395  13:11:50  -7.55  -6.42  -226.140808            -10.0,+0.0,-0.5
iter: 396  13:12:18  -7.56  -5.37  -226.140827            -10.0,+0.0,-0.5
iter: 397  13:12:47  -9.11  -6.92  -226.140827            -10.0,+0.0,-0.5
iter: 398  13:13:15  -8.05  -7.11  -226.140827            -10.0,+0.0,-0.5
iter: 399  13:13:44  -9.05  -6.89  -226.140827            -10.0,+0.0,-0.5
iter: 400  13:14:13  -9.76  -6.82  -226.140827            -10.0,+0.0,-0.5
iter: 401  13:14:41  -7.80  -6.94  -226.140828            -10.0,+0.0,-0.5
iter: 402  13:15:10  -7.86  -6.59  -226.140829            -10.0,+0.0,-0.5
iter: 403  13:15:38  -8.73  -6.30  -226.140829            -10.0,+0.0,-0.5
iter: 404  13:16:07  -8.27  -6.39  -226.140828            -10.0,+0.0,-0.5
iter: 405  13:16:35  -7.46  -6.52  -226.140830            -10.0,+0.0,-0.5
iter: 406  13:17:04  -8.39  -6.57  -226.140830            -10.0,+0.0,-0.5
iter: 407  13:17:33  -7.65  -6.67  -226.140829            -10.0,+0.0,-0.5
iter: 408  13:18:01  -6.92  -6.25  -226.140832            -10.0,+0.0,-0.5
iter: 409  13:18:30  -7.49  -6.37  -226.140833            -10.0,+0.0,-0.5
iter: 410  13:18:58  -6.86  -6.30  -226.140829            -10.0,+0.0,-0.5
iter: 411  13:19:27  -7.27  -6.02  -226.140825            -9.9,+0.0,-0.5
iter: 412  13:19:55  -7.50  -5.77  -226.140830            -10.0,+0.0,-0.5
iter: 413  13:20:24  -7.56  -7.00  -226.140831            -10.0,+0.0,-0.5
iter: 414  13:20:52  -7.89  -6.60  -226.140832            -10.0,+0.0,-0.5
iter: 415  13:21:21  -7.86  -6.23  -226.140833            -10.0,+0.0,-0.5
iter: 416  13:21:50  -6.78  -6.34  -226.140827            -9.9,+0.0,-0.5
iter: 417  13:22:18  -6.45  -5.86  -226.140835            -10.0,+0.0,-0.5
iter: 418  13:22:47  -7.35  -6.26  -226.140837            -10.0,+0.0,-0.5
iter: 419  13:23:15  -7.08  -6.27  -226.140815            -9.9,+0.0,-0.5
iter: 420  13:23:44  -6.94  -5.41  -226.140838            -9.9,+0.0,-0.5
iter: 421  13:24:12  -7.36  -6.76  -226.140840            -9.9,+0.0,-0.6
iter: 422  13:24:41  -5.59  -6.51  -226.140820            -10.0,+0.0,-0.5
iter: 423  13:25:10  -6.54  -5.69  -226.140827            -9.9,+0.0,-0.5
iter: 424  13:25:38  -6.69  -5.84  -226.140815            -9.9,+0.0,-0.5
iter: 425  13:26:07  -5.80  -5.51  -226.140837            -10.0,+0.0,-0.5
iter: 426  13:26:35  -7.23  -6.20  -226.140837            -10.0,+0.0,-0.5
iter: 427  13:27:04  -8.06  -6.42  -226.140838            -9.9,+0.0,-0.5
iter: 428  13:27:33  -8.50  -6.96  -226.140837            -9.9,+0.0,-0.5
iter: 429  13:28:01  -7.77  -6.73  -226.140839            -9.9,+0.0,-0.5
iter: 430  13:28:30  -7.94  -6.82  -226.140840            -9.9,+0.0,-0.5
iter: 431  13:28:58  -6.79  -6.55  -226.140834            -9.9,+0.0,-0.5
iter: 432  13:29:27  -7.29  -6.36  -226.140832            -9.9,+0.0,-0.5
iter: 433  13:29:56  -7.17  -6.12  -226.140836            -9.9,+0.0,-0.5
iter: 434  13:30:24  -7.03  -6.61  -226.140839            -9.9,+0.0,-0.5
iter: 435  13:30:53  -8.17  -6.56  -226.140840            -9.9,+0.0,-0.5
iter: 436  13:31:21  -7.20  -6.51  -226.140836            -10.0,+0.0,-0.5
iter: 437  13:31:50  -8.34  -7.36  -226.140837            -10.0,+0.0,-0.5
iter: 438  13:32:18  -8.99  -6.78  -226.140837            -10.0,+0.0,-0.5
iter: 439  13:32:47  -7.35  -7.11  -226.140839            -9.9,+0.0,-0.5
iter: 440  13:33:15  -7.28  -6.42  -226.140836            -10.0,+0.0,-0.5
iter: 441  13:33:44  -6.68  -7.28  -226.140842            -10.0,+0.0,-0.6
iter: 442  13:34:13  -8.43  -6.05  -226.140842            -10.0,+0.0,-0.6
iter: 443  13:34:41  -7.32  -6.09  -226.140845            -9.9,+0.0,-0.6
iter: 444  13:35:10  -8.53  -5.99  -226.140842            -10.0,+0.0,-0.6
iter: 445  13:35:38  -8.07  -5.79  -226.140846            -9.9,-0.0,-0.6
iter: 446  13:36:07  -8.77  -6.73  -226.140845            -9.9,-0.0,-0.6
iter: 447  13:36:35  -7.02  -6.88  -226.140850            -9.9,-0.0,-0.6
iter: 448  13:37:04  -7.47  -6.23  -226.140853            -9.9,-0.0,-0.6
iter: 449  13:37:32  -6.41  -6.13  -226.140842            -9.9,-0.0,-0.6
iter: 450  13:38:01  -6.50  -6.66  -226.140836            -9.9,-0.0,-0.5
iter: 451  13:38:30  -6.86  -6.48  -226.140841            -9.9,-0.0,-0.5
iter: 452  13:38:58  -6.30  -6.77  -226.140830            -9.9,-0.0,-0.5
iter: 453  13:39:27  -6.00  -5.98  -226.140845            -9.9,-0.0,-0.6
iter: 454  13:39:55  -7.30  -6.17  -226.140846            -9.9,-0.0,-0.6
iter: 455  13:40:24  -8.24  -6.09  -226.140846            -9.9,-0.0,-0.6
iter: 456  13:40:53  -8.47  -6.18  -226.140846            -9.9,-0.0,-0.6
iter: 457  13:41:21  -9.33  -6.78  -226.140846            -9.9,-0.0,-0.6
iter: 458  13:41:50  -9.22  -7.10  -226.140846            -9.9,-0.0,-0.6
iter: 459  13:42:18  -8.23  -6.98  -226.140844            -9.9,-0.0,-0.6
iter: 460  13:42:47  -7.77  -6.72  -226.140842            -9.9,-0.0,-0.6
iter: 461  13:43:15  -6.80  -6.43  -226.140849            -9.9,-0.0,-0.6
iter: 462  13:43:44  -7.31  -6.65  -226.140853            -9.9,-0.0,-0.6
iter: 463  13:44:13  -5.74  -6.35  -226.140830            -9.9,-0.0,-0.6
iter: 464  13:44:41  -6.67  -5.84  -226.140828            -9.9,-0.0,-0.6
iter: 465  13:45:10  -7.33  -5.74  -226.140831            -9.9,-0.0,-0.6
iter: 466  13:45:38  -6.63  -5.83  -226.140828            -9.9,-0.0,-0.6
iter: 467  13:46:07  -5.98  -5.73  -226.140809            -9.9,-0.0,-0.6
iter: 468  13:46:36  -5.17  -5.33  -226.140843            -9.9,-0.0,-0.6
iter: 469  13:47:04  -6.97  -5.90  -226.140843            -9.9,-0.0,-0.6
iter: 470  13:47:33  -7.87  -6.25  -226.140844            -9.9,-0.0,-0.6
iter: 471  13:48:02  -8.70  -6.60  -226.140844            -9.9,-0.0,-0.6
iter: 472  13:48:30  -7.74  -7.03  -226.140846            -9.9,-0.0,-0.6
iter: 473  13:48:59  -6.88  -6.85  -226.140840            -9.9,-0.0,-0.6
iter: 474  13:49:27  -6.57  -6.37  -226.140833            -9.9,-0.0,-0.6
iter: 475  13:49:56  -7.22  -5.96  -226.140831            -9.9,-0.0,-0.6
iter: 476  13:50:25  -8.33  -5.85  -226.140832            -9.9,-0.0,-0.6
iter: 477  13:50:53  -6.63  -5.95  -226.140838            -9.9,-0.0,-0.6
iter: 478  13:51:22  -7.85  -6.46  -226.140839            -9.9,-0.0,-0.6
iter: 479  13:51:50  -8.94  -6.71  -226.140839            -9.9,-0.0,-0.6
iter: 480  13:52:19  -7.61  -6.89  -226.140841            -9.9,-0.0,-0.6
iter: 481  13:52:48  -7.05  -6.78  -226.140837            -9.9,-0.0,-0.6
iter: 482  13:53:16  -6.13  -6.47  -226.140849            -9.9,-0.0,-0.6
iter: 483  13:53:45  -7.04  -5.99  -226.140844            -9.9,-0.0,-0.6
iter: 484  13:54:14  -6.02  -6.28  -226.140862            -9.9,-0.0,-0.6
iter: 485  13:54:42  -7.07  -5.71  -226.140856            -9.9,-0.0,-0.6
iter: 486  13:55:11  -6.56  -5.81  -226.140866            -9.9,-0.0,-0.6
iter: 487  13:55:40  -8.20  -5.61  -226.140867            -9.9,-0.0,-0.6
iter: 488  13:56:08  -7.67  -5.69  -226.140875            -9.9,-0.0,-0.6
iter: 489  13:56:37  -7.13  -6.22  -226.140867            -9.9,-0.0,-0.6
iter: 490  13:57:06  -6.36  -6.25  -226.140889            -9.9,-0.0,-0.6
iter: 491  13:57:34  -5.96  -6.09  -226.140924            -9.9,-0.0,-0.6
iter: 492  13:58:03  -5.44  -5.67  -226.140860            -9.9,-0.0,-0.6
iter: 493  13:58:31  -6.54  -6.32  -226.140880            -9.9,-0.0,-0.6
iter: 494  13:59:00  -5.85  -6.33  -226.140845            -9.9,-0.0,-0.6
iter: 495  13:59:29  -5.58  -5.86  -226.140894            -9.9,-0.0,-0.6
iter: 496  13:59:57  -6.24  -5.95  -226.140912            -9.9,-0.0,-0.6
iter: 497  14:00:26  -7.47  -5.72  -226.140912            -9.9,-0.0,-0.6
iter: 498  14:00:54  -7.29  -5.73  -226.140922            -9.9,-0.0,-0.6
iter: 499  14:01:23  -8.08  -5.93  -226.140925            -9.9,-0.0,-0.6
iter: 500  14:01:51  -8.94  -6.30  -226.140925            -9.9,-0.0,-0.6
iter: 501  14:02:20  -7.43  -6.38  -226.140933            -9.9,-0.0,-0.6
iter: 502  14:02:49  -6.35  -6.39  -226.140905            -9.9,-0.0,-0.6
iter: 503  14:03:17  -5.63  -5.95  -226.140970            -9.9,-0.0,-0.6
iter: 504  14:03:46  -6.58  -5.69  -226.140948            -9.9,-0.0,-0.6
iter: 505  14:04:14  -5.92  -6.03  -226.140991            -9.9,-0.0,-0.6
iter: 506  14:04:43  -7.50  -5.50  -226.140986            -9.9,-0.0,-0.6
iter: 507  14:05:12  -6.49  -5.55  -226.141003            -9.9,-0.0,-0.6
iter: 508  14:05:40  -7.89  -5.40  -226.141003            -9.9,-0.0,-0.6
iter: 509  14:06:09  -7.56  -5.40  -226.141029            -9.9,-0.0,-0.6
iter: 510  14:06:37  -7.81  -6.05  -226.141028            -9.9,-0.0,-0.6
iter: 511  14:07:06  -7.06  -6.26  -226.141035            -9.9,-0.0,-0.6
iter: 512  14:07:35  -6.42  -6.49  -226.141048            -9.9,-0.0,-0.7
iter: 513  14:08:03  -7.13  -5.83  -226.141053            -9.9,-0.0,-0.7
iter: 514  14:08:32  -5.92  -5.67  -226.141013            -9.9,-0.0,-0.6
iter: 515  14:09:01  -6.71  -5.89  -226.141037            -9.9,-0.0,-0.6
iter: 516  14:09:29  -6.56  -6.68  -226.141012            -9.9,-0.0,-0.6
iter: 517  14:09:58  -6.02  -5.86  -226.141056            -9.9,-0.0,-0.7
iter: 518  14:10:27  -7.75  -5.94  -226.141056            -9.9,-0.0,-0.7
iter: 519  14:10:55  -6.28  -6.00  -226.141057            -9.9,-0.0,-0.7
iter: 520  14:11:24  -7.54  -5.63  -226.141059            -9.9,-0.0,-0.7
iter: 521  14:11:52  -7.55  -5.64  -226.141069            -9.9,-0.0,-0.7
iter: 522  14:12:21  -7.47  -5.92  -226.141067            -9.9,-0.0,-0.7
iter: 523  14:12:50  -7.02  -6.05  -226.141068            -9.9,-0.0,-0.7
iter: 524  14:13:18  -5.90  -6.09  -226.141061            -9.9,-0.0,-0.7
iter: 525  14:13:47  -6.16  -5.64  -226.141059            -9.9,-0.0,-0.8
iter: 526  14:14:16  -6.42  -5.50  -226.141047            -9.9,-0.0,-0.7
iter: 527  14:14:45  -5.63  -5.33  -226.141036            -9.9,-0.0,-0.7
iter: 528  14:15:13  -5.69  -5.16  -226.141073            -9.9,-0.0,-0.7
iter: 529  14:15:42  -5.96  -6.10  -226.141072            -9.9,-0.0,-0.8
iter: 530  14:16:11  -6.77  -5.74  -226.141068            -9.9,-0.0,-0.8
iter: 531  14:16:40  -5.17  -5.51  -226.141057            -9.9,-0.0,-0.6
iter: 532  14:17:08  -5.18  -5.13  -226.141078            -9.9,-0.0,-0.8
iter: 533  14:17:37  -5.93  -5.91  -226.141075            -9.9,-0.0,-0.8
iter: 534  14:18:06  -6.46  -5.70  -226.141068            -9.9,-0.0,-0.8
iter: 535  14:18:35  -5.43  -5.40  -226.141074            -9.9,-0.0,-0.7
iter: 536  14:19:03  -5.49  -5.19  -226.141087            -9.9,-0.0,-0.8
iter: 537  14:19:32  -5.97  -6.04  -226.141081            -9.9,-0.0,-0.8
iter: 538  14:20:01  -6.56  -5.74  -226.141081            -9.9,-0.0,-0.8
iter: 539  14:20:30  -4.77  -5.50  -226.141059            -9.9,-0.0,-0.5
iter: 540  14:20:58  -4.78  -4.98  -226.141087            -9.9,-0.0,-0.8
iter: 541  14:21:27  -5.67  -5.84  -226.141081            -9.9,-0.0,-0.8
iter: 542  14:21:56  -6.35  -5.61  -226.141079            -9.9,-0.0,-0.8
iter: 543  14:22:25  -4.96  -5.39  -226.141073            -9.9,-0.0,-0.6
iter: 544  14:22:54  -5.06  -5.01  -226.141101            -9.9,-0.0,-0.8
iter: 545  14:23:23  -5.80  -6.05  -226.141093            -9.9,-0.0,-0.8
iter: 546  14:23:51  -6.43  -5.73  -226.141096            -9.9,-0.0,-0.8
iter: 547  14:24:20  -4.38  -5.52  -226.141057            -9.9,-0.0,-0.4
iter: 548  14:24:49  -4.41  -4.84  -226.141099            -9.9,-0.0,-0.8
iter: 549  14:25:18  -5.40  -5.89  -226.141091            -9.9,-0.0,-0.8
iter: 550  14:25:47  -6.29  -5.57  -226.141101            -9.9,-0.0,-0.8
iter: 551  14:26:16  -4.59  -5.48  -226.141025            -9.9,-0.0,-0.5
iter: 552  14:26:44  -4.67  -4.79  -226.141118            -9.9,-0.0,-0.8
iter: 553  14:27:13  -5.60  -6.24  -226.141109            -9.9,-0.0,-0.8
iter: 554  14:27:42  -6.43  -5.83  -226.141122            -9.9,-0.0,-0.8
iter: 555  14:28:11  -5.23  -5.80  -226.141038            -9.9,-0.0,-0.7
iter: 556  14:28:40  -5.23  -4.84  -226.141126            -9.9,-0.0,-0.8
iter: 557  14:29:09  -5.96  -6.33  -226.141115            -9.9,-0.0,-0.8
iter: 558  14:29:38  -6.54  -6.05  -226.141127            -9.9,-0.0,-0.8
iter: 559  14:30:06  -4.54  -5.90  -226.141184            -9.9,-0.0,-0.5
iter: 560  14:30:35  -4.52  -4.91  -226.141116            -9.9,-0.0,-0.8
iter: 561  14:31:04  -5.46  -6.03  -226.141098            -9.9,-0.0,-0.9
iter: 562  14:31:33  -6.22  -5.63  -226.141119            -9.9,-0.0,-0.8
iter: 563  14:32:02  -5.46  -5.60  -226.141002            -9.9,-0.0,-0.7
iter: 564  14:32:30  -5.52  -4.78  -226.141129            -9.9,-0.0,-0.8
iter: 565  14:32:59  -6.17  -6.20  -226.141117            -9.9,-0.0,-0.9
iter: 566  14:33:28  -6.76  -6.27  -226.141130            -9.9,-0.0,-0.8
iter: 567  14:33:57  -5.04  -6.21  -226.141205            -9.9,-0.0,-0.7
iter: 568  14:34:26  -4.94  -5.07  -226.141114            -9.9,-0.0,-0.9
iter: 569  14:34:55  -5.68  -6.11  -226.141088            -9.9,-0.0,-0.9
iter: 570  14:35:23  -6.28  -5.71  -226.141112            -9.9,-0.0,-0.9
iter: 571  14:35:52  -5.20  -5.66  -226.141131            -9.9,-0.0,-0.7
iter: 572  14:36:21  -5.23  -4.92  -226.141116            -9.9,-0.0,-0.9
iter: 573  14:36:50  -5.82  -6.38  -226.141089            -9.9,-0.0,-0.9
iter: 574  14:37:19  -6.38  -5.89  -226.141113            -9.9,-0.0,-0.9
iter: 575  14:37:47  -5.54  -5.89  -226.141141            -9.9,-0.0,-0.8
iter: 576  14:38:16  -5.52  -5.06  -226.141110            -9.9,-0.0,-0.9
iter: 577  14:38:45  -5.94  -6.40  -226.141083            -9.9,-0.0,-1.0
iter: 578  14:39:14  -6.68  -5.93  -226.141101            -9.9,-0.0,-0.9
iter: 579  14:39:43  -4.87  -5.87  -226.141236            -9.9,-0.0,-0.7
iter: 580  14:40:12  -4.90  -5.04  -226.141099            -9.9,-0.0,-0.9
iter: 581  14:40:40  -5.74  -6.27  -226.141071            -9.9,-0.0,-1.0
iter: 582  14:41:09  -6.21  -5.84  -226.141105            -9.9,-0.0,-0.9
iter: 583  14:41:38  -6.09  -6.00  -226.141053            -9.9,-0.0,-1.0
iter: 584  14:42:07  -7.45  -5.32  -226.141072            -9.9,-0.0,-1.0
iter: 585  14:42:36  -7.59  -5.72  -226.141083            -9.9,-0.0,-1.0
iter: 586  14:43:05  -7.84  -6.26  -226.141091            -9.9,-0.0,-1.0
iter: 587  14:43:34  -5.52  -6.23  -226.140985            -9.9,-0.0,-1.0
iter: 588  14:44:02  -5.22  -6.20  -226.140734            -9.9,-0.0,-1.0
iter: 589  14:44:31  -4.86  -4.96  -226.141051            -9.9,-0.0,-1.0
iter: 590  14:45:00  -5.51  -5.58  -226.141126            -9.9,-0.0,-1.0
iter: 591  14:45:29  -6.11  -5.41  -226.141051            -9.9,-0.0,-1.0
iter: 592  14:45:58  -6.49  -5.01  -226.141164            -9.9,-0.0,-1.0
iter: 593  14:46:27  -7.03  -5.87  -226.141189            -9.9,-0.0,-1.0
iter: 594  14:46:56  -5.60  -6.09  -226.141049            -9.9,-0.0,-1.0
iter: 595  14:47:25  -4.83  -5.37  -226.141375            -9.9,-0.0,-0.9
iter: 596  14:47:54  -6.16  -5.34  -226.141396            -9.9,-0.0,-0.9
iter: 597  14:48:22  -6.90  -5.38  -226.141411            -9.9,-0.0,-0.9
iter: 598  14:48:51  -7.04  -5.59  -226.141441            -9.9,-0.0,-0.9
iter: 599  14:49:20  -8.04  -5.74  -226.141443            -9.9,-0.0,-0.9
iter: 600  14:49:49  -6.99  -5.82  -226.141426            -9.9,-0.0,-0.9
iter: 601  14:50:18  -6.99  -5.71  -226.141453            -9.9,-0.0,-0.9
iter: 602  14:50:47  -8.08  -5.94  -226.141457            -9.9,-0.0,-0.9
iter: 603  14:51:16  -5.80  -5.92  -226.141408            -9.9,-0.0,-1.0
iter: 604  14:51:44  -6.37  -5.69  -226.141393            -9.9,-0.0,-1.0
iter: 605  14:52:13  -5.43  -5.51  -226.141291            -9.9,-0.0,-1.2
iter: 606  14:52:42  -6.77  -5.11  -226.141299            -9.9,-0.0,-1.2
iter: 607  14:53:11  -6.62  -5.10  -226.140978            -9.9,-0.0,-1.2
iter: 608  14:53:40  -6.28  -4.72  -226.141394            -9.8,-0.0,-1.1
iter: 609  14:54:09  -7.59  -5.63  -226.141403            -9.8,-0.0,-1.1
iter: 610  14:54:38  -7.56  -5.68  -226.141391            -9.8,-0.0,-1.1
iter: 611  14:55:06  -6.25  -5.56  -226.141442            -9.8,-0.0,-1.2
iter: 612  14:55:35  -6.33  -5.57  -226.141472            -9.8,-0.0,-1.2
iter: 613  14:56:04  -7.08  -5.37  -226.141471            -9.8,-0.0,-1.2
iter: 614  14:56:33  -7.31  -5.29  -226.141527            -9.8,-0.0,-1.2
iter: 615  14:57:02  -7.42  -5.49  -226.141532            -9.8,-0.0,-1.2
iter: 616  14:57:31  -7.29  -5.48  -226.141559            -9.8,-0.0,-1.2
iter: 617  14:58:00  -5.60  -5.79  -226.141736            -9.8,-0.0,-1.2
iter: 618  14:58:29  -5.71  -5.39  -226.141846            -9.8,-0.0,-1.2
iter: 619  14:58:57  -6.82  -5.14  -226.141832            -9.8,-0.0,-1.2
iter: 620  14:59:26  -6.66  -5.25  -226.141922            -9.8,-0.0,-1.2
iter: 621  14:59:55  -5.70  -5.40  -226.141655            -9.8,-0.0,-1.2
iter: 622  15:00:24  -5.52  -5.06  -226.142021            -9.8,-0.0,-1.2
iter: 623  15:00:53  -5.69  -5.72  -226.142202            -9.8,-0.0,-1.1
iter: 624  15:01:22  -5.61  -5.47  -226.142293            -9.8,-0.0,-1.1
iter: 625  15:01:51  -6.28  -5.04  -226.142345            -9.8,-0.0,-1.1
iter: 626  15:02:20  -6.53  -5.48  -226.142461            -9.8,-0.0,-1.1
iter: 627  15:02:49  -5.41  -5.56  -226.142047            -9.8,-0.0,-1.1
iter: 628  15:03:18  -4.92  -5.10  -226.142752            -9.8,-0.0,-1.1
iter: 629  15:03:47  -5.49  -5.37  -226.142990            -9.8,-0.0,-1.0
iter: 630  15:04:16  -6.60  -5.21  -226.142809            -9.8,-0.0,-1.1
iter: 631  15:04:44  -6.39  -5.05  -226.143081            -9.8,-0.0,-1.0
iter: 632  15:05:13  -7.85  -5.20  -226.143074            -9.8,-0.0,-1.0
iter: 633  15:05:42  -6.69  -5.25  -226.142992            -9.8,-0.0,-1.0
iter: 634  15:06:11  -5.32  -5.27  -226.143313            -9.8,-0.0,-1.1
iter: 635  15:06:40  -6.11  -5.24  -226.143363            -9.8,-0.0,-1.1
iter: 636  15:07:09  -6.08  -5.12  -226.143293            -9.8,-0.0,-1.1
iter: 637  15:07:38  -6.34  -5.46  -226.143416            -9.8,-0.0,-1.1
iter: 638  15:08:06  -5.75  -5.33  -226.143174            -9.8,-0.0,-1.1
iter: 639  15:08:35  -6.12  -5.58  -226.143033            -9.8,-0.0,-1.1
iter: 640  15:09:04  -6.55  -4.92  -226.143311            -9.8,-0.0,-1.1
iter: 641  15:09:33  -6.80  -5.93  -226.143408            -9.7,-0.0,-1.1
iter: 642  15:10:01  -5.44  -5.66  -226.142853            -9.7,-0.0,-1.1
iter: 643  15:10:30  -4.91  -4.97  -226.143742            -9.7,-0.0,-1.1
iter: 644  15:10:59  -5.77  -5.46  -226.143906            -9.7,-0.0,-1.0
iter: 645  15:11:28  -6.17  -5.35  -226.143541            -9.8,-0.0,-1.0
iter: 646  15:11:56  -6.19  -4.84  -226.144087            -9.7,-0.0,-1.0
iter: 647  15:12:25  -6.86  -5.38  -226.144169            -9.7,-0.0,-1.0
iter: 648  15:12:54  -5.10  -5.28  -226.143345            -9.7,-0.0,-1.1
iter: 649  15:13:23  -4.37  -4.94  -226.145101            -9.7,-0.0,-0.9
iter: 650  15:13:52  -5.49  -5.14  -226.145295            -9.7,-0.0,-0.9
iter: 651  15:14:21  -5.97  -5.22  -226.144807            -9.7,-0.0,-0.9
iter: 652  15:14:50  -6.02  -4.74  -226.145631            -9.7,-0.0,-0.9
iter: 653  15:15:18  -6.73  -5.17  -226.145725            -9.6,-0.0,-0.9
iter: 654  15:15:47  -5.53  -5.04  -226.145180            -9.6,-0.0,-0.9
iter: 655  15:16:16  -4.19  -4.90  -226.147397            -9.6,-0.0,-0.7
iter: 656  15:16:45  -4.57  -4.96  -226.147963            -9.6,-0.0,-0.5
iter: 657  15:17:14  -5.87  -4.68  -226.147824            -9.6,-0.0,-0.5
iter: 658  15:17:43  -5.84  -4.66  -226.149336            -9.5,-0.0,-0.5
iter: 659  15:18:12  -6.58  -4.87  -226.149468            -9.5,-0.0,-0.5
iter: 660  15:18:41  -7.01  -4.76  -226.149355            -9.5,-0.0,-0.5
iter: 661  15:19:09  -5.56  -4.67  -226.150016            -9.5,-0.0,-0.5
iter: 662  15:19:38  -4.95  -4.89  -226.150888            -9.5,-0.0,-0.4
iter: 663  15:20:07  -5.75  -4.94  -226.150935            -9.5,-0.0,-0.4
iter: 664  15:20:36  -6.56  -4.90  -226.151353            -9.5,-0.0,-0.4
iter: 665  15:21:05  -6.05  -4.93  -226.152065            -9.4,-0.0,-0.4
iter: 666  15:21:34  -7.08  -4.59  -226.152046            -9.4,-0.0,-0.4
iter: 667  15:22:03  -5.92  -4.59  -226.152344            -9.4,-0.0,-0.4
iter: 668  15:22:31  -5.65  -4.75  -226.152620            -9.4,-0.0,-0.5
iter: 669  15:23:00  -6.52  -4.95  -226.152696            -9.4,-0.0,-0.5
iter: 670  15:23:29  -5.82  -5.13  -226.153386            -9.4,-0.0,-0.4
iter: 671  15:23:58  -6.52  -5.09  -226.153594            -9.3,-0.0,-0.4
iter: 672  15:24:27  -6.39  -4.75  -226.153867            -9.3,-0.0,-0.4
iter: 673  15:24:55  -5.40  -4.65  -226.152802            -9.3,-0.0,-0.5
iter: 674  15:25:24  -4.27  -4.52  -226.155091            -9.3,-0.0,-0.1
iter: 675  15:25:53  -5.82  -4.57  -226.155310            -9.3,-0.0,-0.2
iter: 676  15:26:22  -5.83  -4.62  -226.156367            -9.2,-0.0,-0.2
iter: 677  15:26:51  -6.00  -4.82  -226.156485            -9.2,-0.0,-0.2
iter: 678  15:27:20  -5.26  -4.77  -226.156385            -9.2,-0.0,-0.4
iter: 679  15:27:48  -6.26  -4.62  -226.156779            -9.2,-0.0,-0.3
iter: 680  15:28:17  -5.72  -4.51  -226.157418            -9.2,-0.0,-0.3
iter: 681  15:28:46  -5.56  -4.99  -226.158040            -9.2,-0.0,-0.2
iter: 682  15:29:15  -4.99  -5.04  -226.158332            -9.2,-0.0,-0.1
iter: 683  15:29:44  -6.37  -4.64  -226.158551            -9.2,-0.0,-0.2
iter: 684  15:30:12  -6.45  -4.73  -226.159356            -9.1,-0.0,-0.2
iter: 685  15:30:41  -5.87  -4.90  -226.159973            -9.0,-0.0,-0.2
iter: 686  15:31:10  -6.87  -4.90  -226.160173            -9.0,-0.0,-0.2
iter: 687  15:31:39  -5.64  -5.02  -226.161007            -9.0,-0.0,-0.2
iter: 688  15:32:07  -4.88  -5.17  -226.161588            -9.0,-0.0,-0.1
iter: 689  15:32:36  -6.26  -4.60  -226.161768            -9.0,-0.0,-0.1
iter: 690  15:33:05  -6.62  -4.60  -226.162349            -9.0,-0.0,-0.1
iter: 691  15:33:34  -5.66  -4.76  -226.163091            -8.9,-0.0,-0.1
iter: 692  15:34:03  -6.76  -4.71  -226.163343            -8.9,-0.0,-0.1
iter: 693  15:34:31  -5.90  -4.95  -226.163986            -8.9,-0.0,-0.1
iter: 694  15:35:00  -4.66  -5.03  -226.164593            -8.9,-0.0,-0.1
iter: 695  15:35:29  -5.74  -4.46  -226.164947            -8.9,-0.0,-0.1
iter: 696  15:35:58  -6.74  -4.52  -226.165366            -8.9,-0.0,-0.1
iter: 697  15:36:27  -5.38  -4.59  -226.166041            -8.7,-0.0,-0.1
iter: 698  15:36:55  -6.33  -4.70  -226.166584            -8.8,-0.0,-0.1
iter: 699  15:37:24  -6.26  -5.09  -226.167013            -8.8,-0.0,-0.1
iter: 700  15:37:53  -4.49  -4.99  -226.167620            -8.8,-0.0,-0.1
iter: 701  15:38:22  -5.37  -4.26  -226.168201            -8.8,-0.0,-0.1
iter: 702  15:38:51  -6.84  -4.43  -226.168515            -8.7,-0.0,-0.1
iter: 703  15:39:20  -4.92  -4.49  -226.167049            -8.5,-0.0,-0.1
iter: 704  15:39:48  -5.45  -4.26  -226.169808            -8.6,-0.0,-0.1
iter: 705  15:40:17  -6.54  -5.02  -226.170067            -8.6,-0.0,-0.1
iter: 706  15:40:46  -4.29  -5.02  -226.170586            -8.6,-0.0,-0.1
iter: 707  15:41:15  -5.03  -4.23  -226.171456            -8.6,-0.0,-0.1
iter: 708  15:41:44  -7.04  -4.45  -226.171626            -8.6,-0.0,-0.1
iter: 709  15:42:13  -5.41  -4.46  -226.172714            -8.4,-0.0,-0.1
iter: 710  15:42:41  -6.50  -4.70  -226.173066            -8.5,-0.0,-0.1
iter: 711  15:43:10  -5.70  -4.87  -226.173792            -8.5,-0.0,-0.1
iter: 712  15:43:39  -4.62  -4.84  -226.174338            -8.5,-0.0,-0.2
iter: 713  15:44:08  -5.56  -4.43  -226.174742            -8.5,-0.0,-0.2
iter: 714  15:44:37  -6.39  -4.39  -226.175334            -8.4,-0.0,-0.2
iter: 715  15:45:05  -5.33  -4.47  -226.175701            -8.3,-0.0,-0.2
iter: 716  15:45:34  -6.13  -4.85  -226.176375            -8.3,-0.0,-0.2
iter: 717  15:46:03  -5.88  -4.70  -226.176958            -8.3,-0.0,-0.2
iter: 718  15:46:32  -4.44  -4.64  -226.177602            -8.3,-0.0,-0.2
iter: 719  15:47:01  -5.40  -4.21  -226.178120            -8.3,-0.0,-0.2
iter: 720  15:47:29  -6.54  -4.33  -226.178616            -8.3,-0.0,-0.2
iter: 721  15:47:58  -5.28  -4.37  -226.179092            -8.1,-0.0,-0.2
iter: 722  15:48:27  -6.05  -4.68  -226.179750            -8.2,-0.0,-0.2
iter: 723  15:48:56  -5.86  -4.80  -226.180313            -8.2,-0.0,-0.2
iter: 724  15:49:24  -4.28  -4.65  -226.180769            -8.2,-0.0,-0.2
iter: 725  15:49:53  -5.09  -4.18  -226.181524            -8.2,-0.0,-0.2
iter: 726  15:50:22  -6.57  -4.32  -226.181970            -8.1,-0.0,-0.2
iter: 727  15:50:51  -5.18  -4.39  -226.182478            -7.9,-0.0,-0.2
iter: 728  15:51:19  -5.93  -4.81  -226.183206            -8.0,-0.0,-0.2
iter: 729  15:51:48  -5.87  -4.27  -226.183728            -8.0,-0.0,-0.2
iter: 730  15:52:17  -4.27  -4.28  -226.184540            -8.0,-0.0,-0.2
iter: 731  15:52:46  -5.20  -4.06  -226.185039            -8.0,-0.0,-0.2
iter: 732  15:53:15  -6.39  -4.07  -226.185472            -8.0,-0.0,-0.2
iter: 733  15:53:43  -4.94  -4.08  -226.186269            -7.8,-0.0,-0.2
iter: 734  15:54:12  -5.37  -3.82  -226.186694            -7.8,-0.0,-0.2
iter: 735  15:54:41  -5.58  -4.20  -226.187260            -7.8,-0.0,-0.2
iter: 736  15:55:10  -4.45  -4.65  -226.188234            -7.8,-0.0,-0.2
iter: 737  15:55:39  -5.76  -4.28  -226.188512            -7.8,-0.0,-0.2
iter: 738  15:56:08  -6.19  -4.07  -226.189207            -7.8,-0.0,-0.2
iter: 739  15:56:37  -5.26  -4.10  -226.189896            -7.6,-0.0,-0.2
iter: 740  15:57:05  -6.18  -4.01  -226.190168            -7.7,-0.0,-0.2
iter: 741  15:57:34  -5.42  -4.44  -226.191001            -7.7,-0.0,-0.2
iter: 742  15:58:03  -4.48  -4.94  -226.191578            -7.7,-0.0,-0.2
iter: 743  15:58:32  -5.71  -4.30  -226.191955            -7.6,-0.0,-0.2
iter: 744  15:59:01  -6.23  -4.39  -226.192625            -7.6,-0.0,-0.2
iter: 745  15:59:30  -5.28  -4.35  -226.193470            -7.4,-0.0,-0.2
iter: 746  15:59:59  -6.46  -4.97  -226.193754            -7.5,-0.0,-0.2
iter: 747  16:00:27  -5.70  -4.78  -226.194446            -7.5,-0.0,-0.2
iter: 748  16:00:56  -4.49  -4.62  -226.195247            -7.5,-0.0,-0.2
iter: 749  16:01:25  -5.91  -4.14  -226.195520            -7.5,-0.0,-0.2
iter: 750  16:01:54  -6.41  -4.22  -226.196114            -7.4,-0.0,-0.2
iter: 751  16:02:23  -5.20  -4.28  -226.197096            -7.2,-0.0,-0.2
iter: 752  16:02:52  -6.50  -4.75  -226.197354            -7.3,-0.0,-0.2
iter: 753  16:03:20  -5.97  -4.79  -226.197938            -7.3,-0.0,-0.2
iter: 754  16:03:49  -4.59  -4.74  -226.198915            -7.3,-0.0,-0.1
iter: 755  16:04:18  -6.22  -4.21  -226.199089            -7.3,-0.0,-0.1
iter: 756  16:04:47  -6.66  -4.28  -226.199552            -7.3,-0.0,-0.1
iter: 757  16:05:16  -5.24  -4.34  -226.200892            -7.1,-0.0,-0.1
iter: 758  16:05:45  -6.79  -4.90  -226.200951            -7.1,-0.0,-0.1
iter: 759  16:06:13  -6.34  -4.98  -226.201485            -7.1,-0.0,-0.1
iter: 760  16:06:42  -5.06  -4.97  -226.202626            -7.1,-0.0,-0.1
iter: 761  16:07:11  -6.51  -4.39  -226.202647            -7.1,-0.0,-0.1
iter: 762  16:07:40  -6.44  -4.40  -226.203203            -7.1,-0.0,-0.1
iter: 763  16:08:09  -5.43  -4.52  -226.204195            -6.9,-0.0,-0.1
iter: 764  16:08:38  -6.36  -4.69  -226.204280            -6.9,-0.0,-0.1
iter: 765  16:09:07  -6.42  -4.69  -226.204764            -6.9,-0.0,-0.1
iter: 766  16:09:35  -5.82  -4.86  -226.205888            -6.9,-0.0,-0.1
iter: 767  16:10:04  -5.94  -4.72  -226.206151            -6.9,-0.0,-0.1
iter: 768  16:10:33  -6.96  -4.48  -226.206283            -6.9,-0.0,-0.1
iter: 769  16:11:02  -5.91  -4.48  -226.207329            -6.8,-0.0,-0.1
iter: 770  16:11:31  -5.76  -4.74  -226.207790            -6.7,-0.0,-0.1
iter: 771  16:12:00  -6.72  -4.68  -226.207897            -6.7,-0.0,-0.1
iter: 772  16:12:28  -6.37  -4.70  -226.208398            -6.7,-0.0,-0.1
iter: 773  16:12:57  -5.27  -4.79  -226.209304            -6.7,-0.0,-0.1
iter: 774  16:13:26  -6.76  -4.50  -226.209475            -6.7,-0.0,-0.1
iter: 775  16:13:55  -5.95  -4.58  -226.210372            -6.6,-0.0,-0.1
iter: 776  16:14:24  -5.50  -4.75  -226.210763            -6.5,-0.0,-0.1
iter: 777  16:14:52  -6.63  -4.44  -226.211073            -6.5,-0.0,-0.1
iter: 778  16:15:21  -5.90  -4.55  -226.212258            -6.5,-0.0,-0.1
iter: 779  16:15:50  -5.82  -5.00  -226.212667            -6.5,-0.0,-0.1
iter: 780  16:16:19  -6.89  -4.74  -226.212690            -6.5,-0.0,-0.1
iter: 781  16:16:48  -6.20  -4.75  -226.213452            -6.4,-0.0,-0.1
iter: 782  16:17:16  -5.54  -4.95  -226.214282            -6.3,-0.0,-0.1
iter: 783  16:17:45  -6.49  -4.56  -226.214345            -6.3,-0.0,-0.1
iter: 784  16:18:14  -6.51  -4.52  -226.214473            -6.3,-0.0,-0.0
iter: 785  16:18:43  -6.02  -4.46  -226.215259            -6.3,-0.0,-0.1
iter: 786  16:19:11  -5.25  -4.57  -226.216180            -6.3,-0.0,-0.1
iter: 787  16:19:40  -6.33  -4.65  -226.216137            -6.3,-0.0,-0.0
iter: 788  16:20:09  -6.18  -4.72  -226.216866            -6.2,-0.0,-0.0
iter: 789  16:20:38  -5.37  -5.16  -226.217856            -6.1,-0.0,-0.0
iter: 790  16:21:06  -6.34  -4.43  -226.217869            -6.0,-0.0,-0.0
iter: 791  16:21:35  -6.50  -4.37  -226.218342            -6.0,-0.0,-0.1
iter: 792  16:22:04  -5.96  -4.41  -226.219372            -6.0,-0.0,-0.1
iter: 793  16:22:33  -6.12  -4.74  -226.219642            -6.0,-0.0,-0.1
iter: 794  16:23:01  -7.04  -5.16  -226.219671            -6.0,-0.0,-0.1
iter: 795  16:23:30  -6.32  -5.49  -226.220297            -6.0,-0.0,-0.1
iter: 796  16:23:59  -5.40  -5.09  -226.221263            -5.8,-0.0,-0.1
iter: 797  16:24:28  -6.39  -4.40  -226.221329            -5.8,-0.0,-0.1
iter: 798  16:24:57  -6.18  -4.35  -226.221466            -5.8,-0.0,-0.0
iter: 799  16:25:25  -5.86  -4.30  -226.222379            -5.8,-0.0,-0.0
iter: 800  16:25:54  -5.38  -4.46  -226.223188            -5.8,-0.0,-0.0
iter: 801  16:26:23  -6.17  -4.61  -226.223020            -5.8,-0.0,-0.0
iter: 802  16:26:52  -5.91  -4.87  -226.223969            -5.7,-0.0,-0.0
iter: 803  16:27:21  -5.28  -4.74  -226.224955            -5.6,-0.0,-0.0
iter: 804  16:27:49  -6.20  -4.30  -226.224788            -5.5,-0.0,-0.0
iter: 805  16:28:18  -5.95  -4.22  -226.225809            -5.5,-0.0,-0.0
iter: 806  16:28:47  -5.44  -4.37  -226.226752            -5.5,-0.0,-0.0
iter: 807  16:29:16  -6.34  -4.79  -226.226617            -5.6,-0.0,-0.0
iter: 808  16:29:44  -5.99  -4.97  -226.227464            -5.5,-0.0,-0.0
iter: 809  16:30:13  -5.33  -4.81  -226.228451            -5.3,-0.0,-0.0
iter: 810  16:30:42  -6.09  -4.34  -226.228364            -5.3,-0.0,-0.0
iter: 811  16:31:11  -6.32  -4.25  -226.229054            -5.3,-0.0,-0.0
iter: 812  16:31:39  -5.43  -4.32  -226.230150            -5.3,-0.0,-0.0
iter: 813  16:32:08  -6.47  -4.66  -226.230103            -5.3,-0.0,-0.0
iter: 814  16:32:37  -6.20  -4.72  -226.230664            -5.2,-0.0,-0.0
iter: 815  16:33:05  -5.38  -4.66  -226.231626            -5.1,-0.0,-0.0
iter: 816  16:33:34  -5.96  -4.30  -226.231706            -5.0,-0.0,-0.0
iter: 817  16:34:03  -6.35  -4.25  -226.232125            -5.0,-0.0,-0.1
iter: 818  16:34:32  -5.92  -4.28  -226.233281            -5.0,-0.0,-0.1
iter: 819  16:35:00  -6.00  -4.37  -226.233408            -5.0,-0.0,-0.1
iter: 820  16:35:29  -6.31  -4.69  -226.233840            -5.0,-0.0,-0.1
iter: 821  16:35:58  -5.37  -4.81  -226.235022            -4.8,-0.0,-0.1
iter: 822  16:36:26  -5.46  -4.45  -226.235064            -4.7,-0.0,-0.1
iter: 823  16:36:55  -6.54  -4.22  -226.235538            -4.7,-0.0,-0.1
iter: 824  16:37:24  -5.79  -4.26  -226.236834            -4.7,-0.0,-0.0
iter: 825  16:37:52  -6.17  -4.59  -226.236859            -4.7,-0.0,-0.0
iter: 826  16:38:21  -6.37  -4.75  -226.237268            -4.7,-0.0,-0.0
iter: 827  16:38:50  -5.23  -4.84  -226.238533            -4.5,-0.0,-0.0
iter: 828  16:39:18  -5.58  -4.40  -226.238600            -4.4,-0.0,-0.0
iter: 829  16:39:47  -6.57  -4.20  -226.238996            -4.4,-0.0,-0.0
iter: 830  16:40:16  -5.63  -4.32  -226.240337            -4.4,-0.0,-0.0
iter: 831  16:40:44  -6.66  -4.84  -226.240309            -4.4,-0.0,-0.0
iter: 832  16:41:13  -6.38  -5.30  -226.240733            -4.4,-0.0,-0.0
iter: 833  16:41:42  -5.18  -5.06  -226.241891            -4.2,-0.0,-0.0
iter: 834  16:42:10  -5.69  -4.44  -226.242013            -4.1,-0.0,-0.0
iter: 835  16:42:39  -6.43  -4.30  -226.242213            -4.1,-0.0,+0.0
iter: 836  16:43:08  -6.20  -4.27  -226.243198            -4.1,-0.0,+0.0
iter: 837  16:43:37  -5.83  -4.44  -226.243741            -4.1,-0.0,+0.0
iter: 838  16:44:05  -6.86  -5.21  -226.243910            -4.1,-0.0,+0.0
iter: 839  16:44:34  -5.27  -5.09  -226.245118            -3.9,-0.0,+0.0
iter: 840  16:45:02  -5.13  -4.52  -226.245451            -3.8,-0.0,+0.0
iter: 841  16:45:31  -6.35  -4.22  -226.245656            -3.8,-0.0,+0.0
iter: 842  16:46:00  -5.61  -4.27  -226.247189            -3.8,-0.0,+0.0
iter: 843  16:46:28  -6.32  -4.65  -226.247265            -3.8,-0.0,+0.0
iter: 844  16:46:57  -6.94  -5.15  -226.247369            -3.8,-0.0,+0.0
iter: 845  16:47:26  -5.67  -5.22  -226.248054            -3.7,-0.0,+0.0
iter: 846  16:47:55  -5.28  -4.81  -226.248668            -3.5,-0.0,+0.0
iter: 847  16:48:23  -5.63  -4.45  -226.248929            -3.5,-0.0,+0.0
iter: 848  16:48:52  -5.42  -4.33  -226.248819            -3.3,-0.0,+0.0
iter: 849  16:49:21  -6.42  -4.19  -226.249500            -3.3,-0.0,+0.1
iter: 850  16:49:49  -5.48  -4.25  -226.251350            -3.3,-0.0,+0.1
iter: 851  16:50:18  -6.47  -4.74  -226.251371            -3.3,-0.0,+0.1
iter: 852  16:50:47  -6.91  -4.88  -226.251508            -3.3,-0.0,+0.1
iter: 853  16:51:15  -5.07  -4.88  -226.252718            -3.1,-0.0,+0.1
iter: 854  16:51:44  -5.54  -4.41  -226.253073            -3.1,-0.0,+0.1
iter: 855  16:52:13  -4.97  -4.30  -226.253586            -2.9,-0.0,+0.1
iter: 856  16:52:41  -5.69  -4.16  -226.253452            -2.8,-0.0,+0.1
iter: 857  16:53:10  -6.19  -4.11  -226.254627            -2.8,-0.0,+0.1
iter: 858  16:53:39  -5.63  -4.18  -226.255788            -2.8,-0.0,+0.2
iter: 859  16:54:08  -6.78  -4.49  -226.255855            -2.8,-0.0,+0.2
iter: 860  16:54:36  -6.79  -4.59  -226.255979            -2.8,-0.0,+0.2
iter: 861  16:55:05  -5.92  -4.64  -226.256408            -2.7,-0.0,+0.2
iter: 862  16:55:33  -5.17  -4.83  -226.257184            -2.5,-0.0,+0.2
iter: 863  16:56:02  -5.71  -4.54  -226.257508            -2.5,-0.0,+0.2
iter: 864  16:56:31  -5.70  -4.43  -226.256685            -2.4,-0.0,+0.2
iter: 865  16:56:59  -5.42  -4.19  -226.258273            -2.4,-0.0,+0.1
iter: 866  16:57:28  -6.07  -4.85  -226.258524            -2.4,-0.0,+0.1
iter: 867  16:57:56  -5.30  -5.08  -226.257471            -2.5,-0.0,+0.2
iter: 868  16:58:25  -4.18  -4.78  -226.260402            -2.0,-0.0,+0.2
iter: 869  16:58:54  -4.73  -4.44  -226.261158            -1.8,-0.0,+0.2
iter: 870  16:59:22  -5.68  -4.36  -226.260689            -1.8,-0.0,+0.2
iter: 871  16:59:51  -5.28  -4.26  -226.262064            -1.8,-0.0,+0.1
iter: 872  17:00:20  -6.32  -4.84  -226.262183            -1.8,-0.0,+0.2
iter: 873  17:00:48  -5.33  -4.85  -226.261579            -1.9,-0.0,+0.2
iter: 874  17:01:17  -5.07  -4.91  -226.260806            -2.0,-0.0,+0.2
iter: 875  17:01:46  -6.03  -4.99  -226.261134            -1.9,-0.0,+0.2
iter: 876  17:02:14  -4.77  -5.03  -226.262363            -1.7,-0.0,+0.1
iter: 877  17:02:43  -4.65  -4.76  -226.263569            -1.5,-0.0,+0.1
iter: 878  17:03:12  -3.71  -4.70  -226.266050            -0.8,-0.0,+0.2
iter: 879  17:03:40  -4.97  -4.68  -226.266514            -0.7,-0.0,+0.2
iter: 880  17:04:09  -5.89  -4.73  -226.266646            -0.8,-0.0,+0.1
iter: 881  17:04:38  -6.15  -4.48  -226.266732            -0.7,-0.0,+0.1
iter: 882  17:05:06  -6.79  -4.68  -226.266770            -0.7,-0.0,+0.1
iter: 883  17:05:35  -6.37  -4.69  -226.266687            -0.7,-0.0,+0.1
iter: 884  17:06:04  -6.10  -4.70  -226.266835            -0.7,-0.0,+0.1
iter: 885  17:06:32  -6.02  -4.68  -226.266968            -0.7,-0.0,+0.1
iter: 886  17:07:01  -4.89  -4.68  -226.267193            -0.5,-0.0,+0.1
iter: 887  17:07:30  -5.82  -5.01  -226.267203            -0.5,-0.0,+0.1
iter: 888  17:07:58  -6.43  -4.99  -226.267289            -0.5,-0.0,+0.1
iter: 889  17:08:27  -4.89  -5.16  -226.266837            -0.5,-0.0,+0.1
iter: 890  17:08:56  -5.28  -4.35  -226.267417            -0.5,-0.0,+0.1
iter: 891  17:09:24  -6.45  -4.70  -226.267470            -0.5,-0.0,+0.1
iter: 892  17:09:53  -4.56  -4.69  -226.266508            -0.8,-0.0,+0.1
iter: 893  17:10:22  -5.81  -4.58  -226.266515            -0.8,-0.0,+0.1
iter: 894  17:10:50  -5.84  -4.64  -226.266656            -0.8,-0.0,+0.1
iter: 895  17:11:19  -6.91  -4.63  -226.266711            -0.8,-0.0,+0.1
iter: 896  17:11:48  -7.00  -4.82  -226.266765            -0.7,-0.0,+0.1
iter: 897  17:12:16  -7.06  -4.75  -226.266794            -0.7,-0.0,+0.1
iter: 898  17:12:45  -6.63  -4.99  -226.266827            -0.7,-0.0,+0.1
iter: 899  17:13:14  -7.44  -5.00  -226.266827            -0.7,-0.0,+0.1
iter: 900  17:13:42  -6.51  -5.04  -226.266869            -0.7,-0.0,+0.1
iter: 901  17:14:11  -6.28  -4.84  -226.266812            -0.7,-0.0,+0.1
iter: 902  17:14:40  -7.66  -5.00  -226.266830            -0.7,-0.0,+0.1
iter: 903  17:15:09  -7.47  -5.05  -226.266856            -0.7,-0.0,+0.1
iter: 904  17:15:37  -6.22  -5.04  -226.266972            -0.7,-0.0,+0.1
iter: 905  17:16:06  -5.16  -5.17  -226.267215            -0.5,-0.0,+0.1
iter: 906  17:16:35  -6.68  -5.11  -226.267238            -0.5,-0.0,+0.1
iter: 907  17:17:03  -6.34  -5.37  -226.267358            -0.5,-0.0,+0.1
iter: 908  17:17:32  -6.22  -5.22  -226.267380            -0.5,-0.0,+0.1
iter: 909  17:18:01  -7.06  -4.84  -226.267418            -0.5,-0.0,+0.1
iter: 910  17:18:29  -5.51  -4.89  -226.267628            -0.4,-0.0,+0.1
iter: 911  17:18:58  -5.09  -5.15  -226.267668            -0.3,-0.0,+0.1
iter: 912  17:19:27  -6.41  -5.03  -226.267719            -0.3,-0.0,+0.1
iter: 913  17:19:55  -6.73  -5.25  -226.267825            -0.3,-0.0,+0.1
iter: 914  17:20:24  -5.86  -5.37  -226.267969            -0.3,-0.0,+0.1
iter: 915  17:20:53  -6.98  -4.80  -226.267964            -0.3,-0.0,+0.1
iter: 916  17:21:21  -5.87  -4.78  -226.268059            -0.2,-0.0,+0.1
iter: 917  17:21:50  -5.28  -4.91  -226.268088            -0.1,-0.0,+0.1
iter: 918  17:22:19  -6.35  -5.17  -226.268075            -0.1,-0.0,+0.1
iter: 919  17:22:47  -6.57  -5.13  -226.268244            -0.1,-0.0,+0.1
iter: 920  17:23:16  -6.25  -5.44  -226.268372            -0.1,-0.0,+0.0
iter: 921  17:23:45  -7.43  -4.96  -226.268372            -0.1,-0.0,+0.0
iter: 922  17:24:13  -7.36  -4.92  -226.268390            -0.1,-0.0,+0.0
iter: 923  17:24:42  -7.33  -4.99  -226.268400            -0.1,-0.0,+0.0
iter: 924  17:25:11  -7.83  -4.99  -226.268407            -0.1,-0.0,+0.0
iter: 925  17:25:40  -7.60  -4.96  -226.268420            -0.1,-0.0,+0.0
iter: 926  17:26:08  -7.08  -5.05  -226.268444            -0.1,-0.0,+0.0
iter: 927  17:26:37  -5.65  -5.23  -226.268453            -0.1,-0.0,+0.0
iter: 928  17:27:06  -5.97  -4.92  -226.268478            -0.1,-0.0,+0.0
iter: 929  17:27:34  -7.08  -5.39  -226.268504            -0.1,-0.0,+0.0
iter: 930  17:28:03  -6.23  -5.37  -226.268401            -0.1,-0.0,+0.0
iter: 931  17:28:32  -5.44  -5.06  -226.268529            -0.1,-0.0,+0.0
iter: 932  17:29:00  -6.56  -4.83  -226.268532            -0.1,-0.0,+0.0
iter: 933  17:29:29  -7.05  -4.98  -226.268509            -0.1,-0.0,+0.0
iter: 934  17:29:58  -5.15  -4.96  -226.268625            -0.0,-0.0,+0.0
iter: 935  17:30:27  -6.21  -4.97  -226.268630            -0.0,-0.0,+0.0
iter: 936  17:30:55  -6.85  -5.26  -226.268586            -0.1,-0.0,+0.0
iter: 937  17:31:24  -5.42  -5.18  -226.268704            -0.0,-0.0,+0.0
iter: 938  17:31:53  -6.35  -4.73  -226.268721            -0.1,-0.0,+0.0
iter: 939  17:32:21  -6.78  -4.92  -226.268681            -0.1,-0.0,+0.0
iter: 940  17:32:50  -5.12  -4.87  -226.268803            -0.0,-0.0,+0.0
iter: 941  17:33:19  -6.07  -4.96  -226.268817            -0.0,-0.0,+0.0
iter: 942  17:33:48  -6.86  -5.38  -226.268778            -0.0,-0.0,+0.0
iter: 943  17:34:16  -5.51  -5.24  -226.268892            -0.0,-0.0,+0.1
iter: 944  17:34:45  -6.50  -4.77  -226.268899            -0.0,-0.0,+0.0
iter: 945  17:35:14  -6.74  -4.94  -226.268849            -0.0,-0.0,+0.0
iter: 946  17:35:42  -5.34  -4.87  -226.268994            -0.0,-0.0,+0.0
iter: 947  17:36:11  -6.54  -5.16  -226.268986            -0.0,-0.0,+0.0
iter: 948  17:36:40  -6.74  -5.48  -226.268925            -0.0,-0.0,+0.0
iter: 949  17:37:08  -5.65  -5.21  -226.269056            -0.0,-0.0,+0.1
iter: 950  17:37:37  -7.09  -4.90  -226.269048            -0.0,-0.0,+0.1
iter: 951  17:38:06  -6.34  -4.97  -226.268936            -0.0,-0.0,+0.1
iter: 952  17:38:35  -5.56  -4.80  -226.269135            -0.0,-0.0,+0.1
iter: 953  17:39:03  -7.23  -5.52  -226.269124            -0.0,-0.0,+0.1
iter: 954  17:39:32  -5.81  -5.58  -226.268917            -0.0,-0.0,-0.0
iter: 955  17:40:01  -5.37  -4.99  -226.269154            -0.0,-0.0,+0.1
iter: 956  17:40:29  -7.17  -5.03  -226.269155            -0.0,-0.0,+0.1
[...]
iter: 4731  23:45:43 -10.46  -7.28  -226.274624            +0.0,-0.0,+0.0
iter: 4732  23:46:11 -11.87  -7.12  -226.274624            +0.0,-0.0,+0.0
iter: 4733  23:46:40 -11.21  -7.38  -226.274624            +0.0,-0.0,+0.0
iter: 4734  23:47:09 -10.53  -7.94  -226.274624            +0.0,-0.0,+0.0
iter: 4735  23:47:38 -11.93  -6.90  -226.274624            +0.0,-0.0,+0.0
iter: 4736  23:48:06 -11.14  -6.92  -226.274624            +0.0,-0.0,+0.0
iter: 4737  23:48:35 -10.61  -7.17  -226.274624            +0.0,-0.0,+0.0
iter: 4738  23:49:04 -11.72  -7.51  -226.274624            +0.0,-0.0,+0.0
iter: 4739  23:49:32 -11.40  -7.41  -226.274624            +0.0,-0.0,+0.0
iter: 4740  23:50:01 -10.83  -7.37  -226.274624            +0.0,-0.0,+0.0
iter: 4741  23:50:30 -11.00  -7.00  -226.274624            +0.0,-0.0,+0.0
iter: 4742  23:50:59 -11.68  -7.05  -226.274624            +0.0,-0.0,+0.0
iter: 4743  23:51:27 -11.10  -6.89  -226.274624            +0.0,-0.0,+0.0
iter: 4744  23:51:56 -10.36  -6.85  -226.274624            +0.0,-0.0,+0.0
iter: 4745  23:52:25 -11.09  -6.75  -226.274624            +0.0,-0.0,+0.0
iter: 4746  23:52:53 -11.00  -6.69  -226.274624            +0.0,-0.0,+0.0
iter: 4747  23:53:22 -10.71  -7.49  -226.274624            +0.0,-0.0,+0.0
iter: 4748  23:53:51 -11.45  -6.84  -226.274624            +0.0,-0.0,+0.0
iter: 4749  23:54:19 -11.23  -7.06  -226.274624            +0.0,-0.0,+0.0
iter: 4750  23:54:48 -10.83  -7.47  -226.274624            +0.0,-0.0,+0.0
iter: 4751  23:55:17 -11.18  -7.31  -226.274624            +0.0,-0.0,+0.0
iter: 4752  23:55:45 -11.42  -7.32  -226.274624            +0.0,-0.0,+0.0
iter: 4753  23:56:14 -10.55  -7.37  -226.274624            +0.0,-0.0,+0.0
iter: 4754  23:56:43 -11.37  -7.30  -226.274624            +0.0,-0.0,+0.0
iter: 4755  23:57:11 -11.49  -7.32  -226.274624            +0.0,-0.0,+0.0
iter: 4756  23:57:40 -10.67  -7.14  -226.274624            +0.0,-0.0,+0.0
iter: 4757  23:58:09 -11.17  -7.34  -226.274624            +0.0,-0.0,+0.0
iter: 4758  23:58:37 -11.55  -7.73  -226.274624            +0.0,-0.0,+0.0
iter: 4759  23:59:06 -10.88  -7.50  -226.274624            +0.0,-0.0,+0.0
iter: 4760  23:59:35 -10.99  -7.07  -226.274624            +0.0,-0.0,+0.0
iter: 4761  00:00:03 -11.91  -6.81  -226.274624            +0.0,-0.0,+0.0
iter: 4762  00:00:32 -10.84  -6.98  -226.274624            +0.0,-0.0,+0.0
iter: 4763  00:01:01 -10.83  -8.03  -226.274624            +0.0,-0.0,+0.0
iter: 4764  00:01:29 -12.07  -7.14  -226.274624            +0.0,-0.0,+0.0
iter: 4765  00:01:58 -10.64  -7.20  -226.274624            +0.0,-0.0,+0.0
iter: 4766  00:02:27 -11.02  -7.54  -226.274624            +0.0,-0.0,+0.0
iter: 4767  00:02:55 -12.12  -7.04  -226.274624            +0.0,-0.0,+0.0
iter: 4768  00:03:24 -10.69  -7.08  -226.274624            +0.0,-0.0,+0.0
iter: 4769  00:03:53 -10.94  -7.89  -226.274624            +0.0,-0.0,+0.0
iter: 4770  00:04:22 -12.13  -7.10  -226.274624            +0.0,-0.0,+0.0
iter: 4771  00:04:50 -10.76  -7.16  -226.274624            +0.0,-0.0,+0.0
iter: 4772  00:05:19 -10.91  -7.64  -226.274624            +0.0,-0.0,+0.0
iter: 4773  00:05:48 -12.15  -7.05  -226.274624            +0.0,-0.0,+0.0
iter: 4774  00:06:17 -10.71  -7.07  -226.274624            +0.0,-0.0,+0.0
iter: 4775  00:06:46 -10.90  -8.19  -226.274624            +0.0,-0.0,+0.0
iter: 4776  00:07:14 -12.16  -7.19  -226.274624            +0.0,-0.0,+0.0
iter: 4777  00:07:43 -10.53  -7.20  -226.274624            +0.0,-0.0,+0.0
iter: 4778  00:08:12 -11.19  -7.35  -226.274624            +0.0,-0.0,+0.0
iter: 4779  00:08:41 -12.26  -7.10  -226.274624            +0.0,-0.0,+0.0
iter: 4780  00:09:09 -10.78  -7.11  -226.274624            +0.0,-0.0,+0.0
iter: 4781  00:09:38 -10.94  -7.69  -226.274624            +0.0,-0.0,+0.0
iter: 4782  00:10:07 -11.93  -7.39  -226.274624            +0.0,-0.0,+0.0
iter: 4783  00:10:36 -11.22  -7.17  -226.274625            +0.0,-0.0,+0.0
iter: 4784  00:11:04 -10.59  -7.55  -226.274625            +0.0,-0.0,+0.0
iter: 4785  00:11:33 -12.02  -7.01  -226.274625            +0.0,-0.0,+0.0
iter: 4786  00:12:02 -10.86  -7.12  -226.274625            +0.0,-0.0,+0.0
iter: 4787  00:12:30 -10.78  -7.54  -226.274625            +0.0,-0.0,+0.0
iter: 4788  00:12:59 -11.88  -6.96  -226.274625            +0.0,-0.0,+0.0
iter: 4789  00:13:28 -10.97  -7.06  -226.274625            +0.0,-0.0,+0.0
iter: 4790  00:13:57 -10.76  -7.93  -226.274625            +0.0,-0.0,+0.0
iter: 4791  00:14:25 -11.97  -7.03  -226.274625            +0.0,-0.0,+0.0
iter: 4792  00:14:54 -10.83  -6.98  -226.274625            +0.0,-0.0,+0.0
iter: 4793  00:15:23 -11.04  -7.33  -226.274625            +0.0,-0.0,+0.0
iter: 4794  00:15:51 -11.42  -6.86  -226.274625            +0.0,-0.0,+0.0
iter: 4795  00:16:20 -11.37  -6.93  -226.274625            +0.0,-0.0,+0.0
iter: 4796  00:16:49 -10.25  -7.59  -226.274625            +0.0,-0.0,+0.0
iter: 4797  00:17:18 -11.33  -6.79  -226.274625            +0.0,-0.0,+0.0
iter: 4798  00:17:46 -11.52  -7.01  -226.274625            +0.0,-0.0,+0.0
iter: 4799  00:18:15 -10.27  -7.16  -226.274625            +0.0,-0.0,+0.0
iter: 4800  00:18:44 -11.43  -6.99  -226.274625            +0.0,-0.0,+0.0
iter: 4801  00:19:13 -11.66  -7.34  -226.274625            +0.0,-0.0,+0.0
iter: 4802  00:19:41 -10.30  -7.47  -226.274625            +0.0,-0.0,+0.0
iter: 4803  00:20:10 -11.36  -6.84  -226.274625            +0.0,-0.0,+0.0
iter: 4804  00:20:39 -11.52  -7.58  -226.274625            +0.0,-0.0,+0.0
iter: 4805  00:21:07 -10.26  -7.83  -226.274625            +0.0,-0.0,+0.0
iter: 4806  00:21:36 -11.48  -6.85  -226.274625            +0.0,-0.0,+0.0
iter: 4807  00:22:05 -11.67  -6.98  -226.274625            +0.0,-0.0,+0.0
iter: 4808  00:22:33 -10.51  -7.12  -226.274625            +0.0,-0.0,+0.0
iter: 4809  00:23:02 -11.85  -7.22  -226.274625            +0.0,-0.0,+0.0
iter: 4810  00:23:31 -11.15  -7.24  -226.274625            +0.0,-0.0,+0.0
iter: 4811  00:23:59 -10.65  -8.15  -226.274625            +0.0,-0.0,+0.0
iter: 4812  00:24:28 -11.88  -7.06  -226.274625            +0.0,-0.0,+0.0
iter: 4813  00:24:57 -11.44  -7.05  -226.274625            +0.0,-0.0,+0.0
iter: 4814  00:25:26 -10.55  -7.21  -226.274625            +0.0,-0.0,+0.0
iter: 4815  00:25:54 -11.93  -7.31  -226.274625            +0.0,-0.0,+0.0
iter: 4816  00:26:23 -11.05  -7.35  -226.274625            +0.0,-0.0,+0.0
iter: 4817  00:26:52 -10.68  -7.56  -226.274625            +0.0,-0.0,+0.0
iter: 4818  00:27:21 -12.08  -6.98  -226.274625            +0.0,-0.0,+0.0
iter: 4819  00:27:49 -11.18  -7.02  -226.274625            +0.0,-0.0,+0.0
iter: 4820  00:28:18 -10.63  -7.41  -226.274625            +0.0,-0.0,+0.0
iter: 4821  00:28:47 -12.09  -7.17  -226.274625            +0.0,-0.0,+0.0
iter: 4822  00:29:16 -11.28  -7.13  -226.274625            +0.0,-0.0,+0.0
iter: 4823  00:29:44 -10.70  -7.47  -226.274625            +0.0,-0.0,+0.0
iter: 4824  00:30:13 -11.66  -7.18  -226.274625            +0.0,-0.0,+0.0
iter: 4825  00:30:42 -11.60  -7.08  -226.274625            +0.0,-0.0,+0.0
iter: 4826  00:31:11 -10.78  -7.36  -226.274625            +0.0,-0.0,+0.0
iter: 4827  00:31:39 -11.22  -7.47  -226.274625            +0.0,-0.0,+0.0
iter: 4828  00:32:08 -11.75  -7.34  -226.274625            +0.0,-0.0,+0.0
iter: 4829  00:32:37 -11.24  -6.92  -226.274625            +0.0,-0.0,+0.0
iter: 4830  00:33:06 -10.57  -6.89  -226.274625            +0.0,-0.0,+0.0
iter: 4831  00:33:34 -11.92  -7.55  -226.274625            +0.0,-0.0,+0.0
iter: 4832  00:34:03 -11.27  -7.35  -226.274625            +0.0,-0.0,+0.0
iter: 4833  00:34:32 -10.62  -7.68  -226.274625            +0.0,-0.0,+0.0
iter: 4834  00:35:01 -12.00  -7.09  -226.274625            +0.0,-0.0,+0.0
iter: 4835  00:35:29 -11.19  -7.11  -226.274625            +0.0,-0.0,+0.0
iter: 4836  00:35:58 -10.60  -7.47  -226.274625            +0.0,-0.0,+0.0
iter: 4837  00:36:27 -11.74  -7.06  -226.274625            +0.0,-0.0,+0.0
iter: 4838  00:36:55 -11.11  -7.04  -226.274625            +0.0,-0.0,+0.0
iter: 4839  00:37:24 -10.74  -7.45  -226.274625            +0.0,-0.0,+0.0
iter: 4840  00:37:53 -11.63  -7.28  -226.274625            +0.0,-0.0,+0.0
iter: 4841  00:38:21 -11.58  -7.13  -226.274625            +0.0,-0.0,+0.0
iter: 4842  00:38:50 -11.21  -7.29  -226.274625            +0.0,-0.0,+0.0
iter: 4843  00:39:19 -10.77  -7.38  -226.274625            +0.0,-0.0,+0.0
iter: 4844  00:39:47 -11.83  -7.25  -226.274625            +0.0,-0.0,+0.0
iter: 4845  00:40:16 -10.70  -7.17  -226.274625            +0.0,-0.0,+0.0
iter: 4846  00:40:45 -11.25  -7.62  -226.274625            +0.0,-0.0,+0.0
iter: 4847  00:41:13 -11.91  -7.18  -226.274625            +0.0,-0.0,+0.0
iter: 4848  00:41:42 -11.12  -7.22  -226.274625            +0.0,-0.0,+0.0
iter: 4849  00:42:11 -10.82  -7.82  -226.274625            +0.0,-0.0,+0.0
iter: 4850  00:42:40 -12.06  -7.19  -226.274625            +0.0,-0.0,+0.0
iter: 4851  00:43:08 -10.99  -7.26  -226.274625            +0.0,-0.0,+0.0
iter: 4852  00:43:37 -10.86  -7.92  -226.274625            +0.0,-0.0,+0.0
iter: 4853  00:44:06 -12.14  -7.10  -226.274625            +0.0,-0.0,+0.0
iter: 4854  00:44:35 -10.57  -7.12  -226.274625            +0.0,-0.0,+0.0
iter: 4855  00:45:03 -11.31  -7.36  -226.274625            +0.0,-0.0,+0.0
iter: 4856  00:45:32 -11.42  -7.19  -226.274625            +0.0,-0.0,+0.0
iter: 4857  00:46:01 -11.34  -7.24  -226.274625            +0.0,-0.0,+0.0
iter: 4858  00:46:29 -10.67  -7.57  -226.274625            +0.0,-0.0,+0.0
iter: 4859  00:46:58 -12.03  -7.15  -226.274625            +0.0,-0.0,+0.0
iter: 4860  00:47:27 -10.93  -7.16  -226.274625            +0.0,-0.0,+0.0
iter: 4861  00:47:56 -10.84  -8.22  -226.274625            +0.0,-0.0,+0.0
iter: 4862  00:48:24 -12.13  -7.15  -226.274625            +0.0,-0.0,+0.0
iter: 4863  00:48:53 -10.79  -7.21  -226.274625            +0.0,-0.0,+0.0
iter: 4864  00:49:22 -10.98  -7.65  -226.274625            +0.0,-0.0,+0.0
iter: 4865  00:49:51 -12.26  -7.08  -226.274625            +0.0,-0.0,+0.0
iter: 4866  00:50:19 -10.90  -7.14  -226.274625            +0.0,-0.0,+0.0
iter: 4867  00:50:48 -10.86  -8.40  -226.274625            +0.0,-0.0,+0.0
iter: 4868  00:51:17 -12.17  -7.16  -226.274625            +0.0,-0.0,+0.0
iter: 4869  00:51:46 -10.86  -7.19  -226.274625            +0.0,-0.0,+0.0
iter: 4870  00:52:14 -10.96  -7.95  -226.274625            +0.0,-0.0,+0.0
iter: 4871  00:52:43 -12.24  -7.12  -226.274625            +0.0,-0.0,+0.0
iter: 4872  00:53:12 -10.71  -7.14  -226.274625            +0.0,-0.0,+0.0
iter: 4873  00:53:41 -11.06  -7.79  -226.274625            +0.0,-0.0,+0.0
iter: 4874  00:54:09 -12.31  -7.17  -226.274625            +0.0,-0.0,+0.0
iter: 4875  00:54:38 -10.95  -7.20  -226.274625            +0.0,-0.0,+0.0
iter: 4876  00:55:07 -10.94  -8.16  -226.274625            +0.0,-0.0,+0.0
iter: 4877  00:55:36 -12.14  -7.16  -226.274625            +0.0,-0.0,+0.0
iter: 4878  00:56:05 -11.15  -7.15  -226.274625            +0.0,-0.0,+0.0
iter: 4879  00:56:33 -10.74  -7.60  -226.274625            +0.0,-0.0,+0.0
iter: 4880  00:57:02 -12.00  -7.21  -226.274625            +0.0,-0.0,+0.0
iter: 4881  00:57:31 -10.78  -7.23  -226.274625            +0.0,-0.0,+0.0
iter: 4882  00:57:59 -11.09  -7.51  -226.274625            +0.0,-0.0,+0.0
iter: 4883  00:58:28 -11.93  -7.11  -226.274625            +0.0,-0.0,+0.0
iter: 4884  00:58:57 -11.31  -7.11  -226.274625            +0.0,-0.0,+0.0
iter: 4885  00:59:25 -10.62  -7.39  -226.274625            +0.0,-0.0,+0.0
iter: 4886  00:59:54 -12.03  -7.21  -226.274625            +0.0,-0.0,+0.0
iter: 4887  01:00:23 -11.05  -7.27  -226.274625            +0.0,-0.0,+0.0
iter: 4888  01:00:52 -10.94  -7.80  -226.274625            +0.0,-0.0,+0.0
iter: 4889  01:01:20 -11.97  -7.19  -226.274625            +0.0,-0.0,+0.0
iter: 4890  01:01:49 -11.13  -7.18  -226.274625            +0.0,-0.0,+0.0
iter: 4891  01:02:18 -10.77  -7.62  -226.274625            +0.0,-0.0,+0.0
iter: 4892  01:02:46 -12.00  -7.20  -226.274625            +0.0,-0.0,+0.0
iter: 4893  01:03:15 -10.80  -7.27  -226.274625            +0.0,-0.0,+0.0
iter: 4894  01:03:44 -11.15  -7.27  -226.274625            +0.0,-0.0,+0.0
iter: 4895  01:04:13 -11.67  -7.20  -226.274625            +0.0,-0.0,+0.0
iter: 4896  01:04:41 -11.34  -7.24  -226.274625            +0.0,-0.0,+0.0
iter: 4897  01:05:10 -10.52  -7.42  -226.274625            +0.0,-0.0,+0.0
iter: 4898  01:05:39 -11.96  -7.22  -226.274625            +0.0,-0.0,+0.0
iter: 4899  01:06:08 -11.29  -7.43  -226.274625            +0.0,-0.0,+0.0
iter: 4900  01:06:36 -10.68  -8.01  -226.274625            +0.0,-0.0,+0.0
iter: 4901  01:07:05 -11.91  -7.04  -226.274625            +0.0,-0.0,+0.0
iter: 4902  01:07:34 -11.18  -7.15  -226.274625            +0.0,-0.0,+0.0
iter: 4903  01:08:02 -10.67  -7.55  -226.274625            +0.0,-0.0,+0.0
iter: 4904  01:08:31 -12.06  -7.15  -226.274625            +0.0,-0.0,+0.0
iter: 4905  01:09:00 -11.20  -7.32  -226.274625            +0.0,-0.0,+0.0
iter: 4906  01:09:28 -10.70  -7.75  -226.274625            +0.0,-0.0,+0.0
iter: 4907  01:09:57 -12.15  -6.99  -226.274625            +0.0,-0.0,+0.0
iter: 4908  01:10:26 -11.17  -7.07  -226.274625            +0.0,-0.0,+0.0
iter: 4909  01:10:54 -10.70  -7.41  -226.274625            +0.0,-0.0,+0.0
iter: 4910  01:11:23 -12.14  -7.27  -226.274625            +0.0,-0.0,+0.0
iter: 4911  01:11:52 -11.16  -7.39  -226.274625            +0.0,-0.0,+0.0
iter: 4912  01:12:21 -10.75  -7.93  -226.274625            +0.0,-0.0,+0.0
iter: 4913  01:12:49 -12.21  -7.03  -226.274625            +0.0,-0.0,+0.0
iter: 4914  01:13:18 -11.13  -7.14  -226.274625            +0.0,-0.0,+0.0
iter: 4915  01:13:47 -10.73  -7.66  -226.274625            +0.0,-0.0,+0.0
iter: 4916  01:14:15 -12.18  -7.20  -226.274625            +0.0,-0.0,+0.0
iter: 4917  01:14:44 -11.11  -7.29  -226.274625            +0.0,-0.0,+0.0
iter: 4918  01:15:13 -10.79  -8.27  -226.274625            +0.0,-0.0,+0.0
iter: 4919  01:15:41 -12.20  -7.09  -226.274625            +0.0,-0.0,+0.0
iter: 4920  01:16:10 -11.10  -7.13  -226.274625            +0.0,-0.0,+0.0
iter: 4921  01:16:39 -10.76  -7.67  -226.274625            +0.0,-0.0,+0.0
iter: 4922  01:17:08 -12.22  -7.16  -226.274625            +0.0,-0.0,+0.0
iter: 4923  01:17:36 -11.15  -7.25  -226.274625            +0.0,-0.0,+0.0
iter: 4924  01:18:05 -10.77  -8.22  -226.274625            +0.0,-0.0,+0.0
iter: 4925  01:18:34 -12.24  -7.07  -226.274625            +0.0,-0.0,+0.0
iter: 4926  01:19:02 -11.12  -7.15  -226.274625            +0.0,-0.0,+0.0
iter: 4927  01:19:31 -10.75  -7.69  -226.274625            +0.0,-0.0,+0.0
iter: 4928  01:20:00 -12.22  -7.18  -226.274625            +0.0,-0.0,+0.0
iter: 4929  01:20:29 -11.15  -7.25  -226.274625            +0.0,-0.0,+0.0
iter: 4930  01:20:57 -10.78  -8.14  -226.274625            +0.0,-0.0,+0.0
iter: 4931  01:21:26 -12.23  -7.10  -226.274625            +0.0,-0.0,+0.0
iter: 4932  01:21:55 -11.15  -7.16  -226.274625            +0.0,-0.0,+0.0
iter: 4933  01:22:24 -10.74  -7.72  -226.274625            +0.0,-0.0,+0.0
iter: 4934  01:22:53 -12.25  -7.15  -226.274625            +0.0,-0.0,+0.0
iter: 4935  01:23:21 -11.20  -7.25  -226.274625            +0.0,-0.0,+0.0
iter: 4936  01:23:50 -10.77  -8.11  -226.274625            +0.0,-0.0,+0.0
iter: 4937  01:24:19 -12.24  -7.10  -226.274625            +0.0,-0.0,+0.0
iter: 4938  01:24:48 -11.13  -7.16  -226.274625            +0.0,-0.0,+0.0
iter: 4939  01:25:16 -10.76  -7.73  -226.274625            +0.0,-0.0,+0.0
iter: 4940  01:25:45 -12.24  -7.18  -226.274625            +0.0,-0.0,+0.0
iter: 4941  01:26:14 -11.18  -7.25  -226.274625            +0.0,-0.0,+0.0
iter: 4942  01:26:42 -10.77  -8.10  -226.274625            +0.0,-0.0,+0.0
iter: 4943  01:27:11 -12.26  -7.10  -226.274625            +0.0,-0.0,+0.0
iter: 4944  01:27:40 -11.19  -7.17  -226.274625            +0.0,-0.0,+0.0
iter: 4945  01:28:08 -10.73  -7.67  -226.274625            +0.0,-0.0,+0.0
iter: 4946  01:28:37 -12.24  -7.17  -226.274625            +0.0,-0.0,+0.0
iter: 4947  01:29:06 -11.23  -7.24  -226.274625            +0.0,-0.0,+0.0
iter: 4948  01:29:34 -10.75  -7.92  -226.274625            +0.0,-0.0,+0.0
iter: 4949  01:30:03 -12.26  -7.11  -226.274625            +0.0,-0.0,+0.0
iter: 4950  01:30:32 -11.22  -7.18  -226.274625            +0.0,-0.0,+0.0
iter: 4951  01:31:01 -10.72  -7.67  -226.274625            +0.0,-0.0,+0.0
iter: 4952  01:31:29 -12.26  -7.16  -226.274625            +0.0,-0.0,+0.0
iter: 4953  01:31:58 -11.28  -7.23  -226.274625            +0.0,-0.0,+0.0
iter: 4954  01:32:27 -10.74  -7.80  -226.274625            +0.0,-0.0,+0.0
iter: 4955  01:32:55 -12.26  -7.12  -226.274625            +0.0,-0.0,+0.0
iter: 4956  01:33:24 -11.27  -7.19  -226.274625            +0.0,-0.0,+0.0
iter: 4957  01:33:53 -10.70  -7.65  -226.274625            +0.0,-0.0,+0.0
iter: 4958  01:34:21 -12.26  -7.15  -226.274625            +0.0,-0.0,+0.0
iter: 4959  01:34:50 -11.33  -7.22  -226.274625            +0.0,-0.0,+0.0
iter: 4960  01:35:19 -10.71  -7.73  -226.274625            +0.0,-0.0,+0.0
iter: 4961  01:35:48 -12.26  -7.12  -226.274625            +0.0,-0.0,+0.0
iter: 4962  01:36:16 -11.34  -7.19  -226.274625            +0.0,-0.0,+0.0
iter: 4963  01:36:45 -10.67  -7.60  -226.274625            +0.0,-0.0,+0.0
iter: 4964  01:37:14 -12.25  -7.15  -226.274625            +0.0,-0.0,+0.0
iter: 4965  01:37:42 -11.41  -7.22  -226.274625            +0.0,-0.0,+0.0
iter: 4966  01:38:11 -10.68  -7.65  -226.274625            +0.0,-0.0,+0.0
iter: 4967  01:38:40 -12.26  -7.12  -226.274625            +0.0,-0.0,+0.0
iter: 4968  01:39:09 -11.44  -7.19  -226.274625            +0.0,-0.0,+0.0
iter: 4969  01:39:37 -10.63  -7.52  -226.274625            +0.0,-0.0,+0.0
iter: 4970  01:40:06 -12.24  -7.15  -226.274625            +0.0,-0.0,+0.0
iter: 4971  01:40:35 -11.53  -7.22  -226.274625            +0.0,-0.0,+0.0
iter: 4972  01:41:03 -10.64  -7.56  -226.274625            +0.0,-0.0,+0.0
iter: 4973  01:41:32 -12.25  -7.12  -226.274625            +0.0,-0.0,+0.0
iter: 4974  01:42:01 -11.58  -7.18  -226.274625            +0.0,-0.0,+0.0
iter: 4975  01:42:30 -10.59  -7.45  -226.274625            +0.0,-0.0,+0.0
iter: 4976  01:42:58 -12.22  -7.15  -226.274625            +0.0,-0.0,+0.0
iter: 4977  01:43:27 -11.71  -7.22  -226.274625            +0.0,-0.0,+0.0
iter: 4978  01:43:56 -10.58  -7.47  -226.274625            +0.0,-0.0,+0.0
iter: 4979  01:44:24 -12.22  -7.12  -226.274625            +0.0,-0.0,+0.0
iter: 4980  01:44:53 -11.81  -7.18  -226.274625            +0.0,-0.0,+0.0
iter: 4981  01:45:22 -10.53  -7.36  -226.274625            +0.0,-0.0,+0.0
iter: 4982  01:45:50 -12.17  -7.16  -226.274625            +0.0,-0.0,+0.0
iter: 4983  01:46:19 -12.01  -7.21  -226.274625            +0.0,-0.0,+0.0
iter: 4984  01:46:48 -10.53  -7.36  -226.274625            +0.0,-0.0,+0.0
iter: 4985  01:47:17 -12.07  -7.14  -226.274625            +0.0,-0.0,+0.0
iter: 4986  01:47:45 -12.09  -7.17  -226.274625            +0.0,-0.0,+0.0
iter: 4987  01:48:14 -10.74  -7.27  -226.274625            +0.0,-0.0,+0.0
iter: 4988  01:48:43 -11.59  -7.42  -226.274625            +0.0,-0.0,+0.0
iter: 4989  01:49:11 -11.54  -7.30  -226.274625            +0.0,-0.0,+0.0
iter: 4990  01:49:40 -11.14  -7.34  -226.274625            +0.0,-0.0,+0.0
iter: 4991  01:50:09 -11.16  -8.06  -226.274625            +0.0,-0.0,+0.0
iter: 4992  01:50:37 -12.27  -7.22  -226.274625            +0.0,-0.0,+0.0
iter: 4993  01:51:06 -11.32  -7.20  -226.274625            +0.0,-0.0,+0.0
iter: 4994  01:51:35 -10.84  -7.61  -226.274625            +0.0,-0.0,+0.0
iter: 4995  01:52:03 -12.09  -7.28  -226.274625            +0.0,-0.0,+0.0
iter: 4996  01:52:32 -11.23  -7.27  -226.274625            +0.0,-0.0,+0.0
iter: 4997  01:53:01 -10.88  -7.96  -226.274625            +0.0,-0.0,+0.0
iter: 4998  01:53:29 -12.21  -7.17  -226.274625            +0.0,-0.0,+0.0
iter: 4999  01:53:58 -10.88  -7.20  -226.274625            +0.0,-0.0,+0.0
iter: 5000  01:54:27 -10.97  -7.77  -226.274625            +0.0,-0.0,+0.0
