
  ___ ___ ___ _ _ _  
 |   |   |_  | | | | 
 | | | | | . | | | | 
 |__ |  _|___|_____|  21.6.1b1
 |___|_|             

User:   madkru@a020.nifl.fysik.dtu.dk
Date:   Fri Jun 24 10:07:01 2022
Arch:   x86_64
Pid:    6062
Python: 3.8.6
gpaw:   /home/niflheim/madkru/new_venv/gpaw/gpaw (1f0dfc9eae)
_gpaw:  /home/niflheim/madkru/new_venv/gpaw/build/lib.linux-x86_64-skylake-3.8/
        _gpaw.cpython-38-x86_64-linux-gnu.so (c1e45bfab3)
ase:    /home/niflheim/madkru/new_venv/ase/ase (version 3.23.0b1-ca38c75a67)
numpy:  /home/modules/software/SciPy-bundle/2020.11-foss-2020b/lib/python3.8/site-packages/numpy (version 1.19.4)
scipy:  /home/modules/software/SciPy-bundle/2020.11-foss-2020b/lib/python3.8/site-packages/scipy (version 1.5.4)
libxc:  4.3.4
units:  Angstrom and eV
cores: 40
OpenMP: False
OMP_NUM_THREADS: 1

Input parameters:
  convergence: {density: 1e-09}
  experimental: {magmoms: [[0. 0. 0.]
 [0. 0. 0.]
 [0. 0. 0.]
 ...
 [0. 0. 0.]
 [0. 0. 0.]
 [0. 0. 0.]],
                 soc: True}
  kpts: {gamma: True,
         size: (4, 4, 6)}
  maxiter: 5000
  mixer: {backend: pulay,
          beta: 0.05,
          beta_m: 0.05,
          method: difference,
          nmaxold: 3,
          nmaxold_m: 3,
          weight: 100,
          weight_m: 100}
  mode: {ecut: 600.0,
         gammacentered: False,
         name: pw}
  occupations: {fixmagmom: False,
                name: fermi-dirac,
                width: 0.001}
  setups: {Mn: :d,3.0}
  symmetry: off

System changes: positions, numbers, cell, pbc, initial_charges, initial_magmoms 

Initialize ...

O-setup:
  name: Oxygen
  id: 9b9d51c344dea68c822856295a461509
  Z: 8.0
  valence: 6
  core: 2
  charge: 0.0
  file: /home/modules/software/GPAW-setups/0.9.20000/O.LDA.gz
  compensation charges: gauss, rc=0.21, lmax=2
  cutoffs: 1.17(filt), 0.83(core),
  valence states:
                energy  radius
    2s(2.00)   -23.752   0.688
    2p(4.00)    -9.195   0.598
    *s           3.459   0.688
    *p          18.016   0.598
    *d           0.000   0.619

  Using partial waves for O as LCAO basis

Mn-setup:
  name: Manganese
  id: 0d715a8018be061a6e9ea6f2d364ac92
  Z: 25.0
  valence: 15
  core: 10
  charge: 0.0
  Hubbard U: 3.000000 eV (l=2, scale=True)
  file: /home/modules/software/GPAW-setups/0.9.20000/Mn.LDA.gz
  compensation charges: gauss, rc=0.38, lmax=2
  cutoffs: 2.14(filt), 0.86(core),
  valence states:
                energy  radius
    3s(2.00)   -85.387   1.275
    4s(2.00)    -5.282   1.275
    3p(6.00)   -54.493   1.281
    4p(0.00)    -1.471   1.281
    3d(5.00)    -7.009   1.138
    *d          20.203   1.138

  Using partial waves for Mn as LCAO basis

P-setup:
  name: Phosphorus
  id: a5561c299094968922a179ab894d2e2d
  Z: 15.0
  valence: 5
  core: 10
  charge: 0.0
  file: /home/modules/software/GPAW-setups/0.9.20000/P.LDA.gz
  compensation charges: gauss, rc=0.30, lmax=2
  cutoffs: 1.69(filt), 1.81(core),
  valence states:
                energy  radius
    3s(2.00)   -14.015   0.953
    3p(3.00)    -5.596   0.953
    *s          13.197   0.953
    *p          21.615   0.953
    *d           0.000   0.953

  Using partial waves for P as LCAO basis

Li-setup:
  name: Lithium
  id: b73562207f97a71b6967473b66fe8b65
  Z: 3.0
  valence: 1
  core: 2
  charge: 0.0
  file: /home/modules/software/GPAW-setups/0.9.20000/Li.LDA.gz
  compensation charges: gauss, rc=0.33, lmax=2
  cutoffs: 1.91(filt), 2.55(core),
  valence states:
                energy  radius
    2s(1.00)    -2.874   1.058
    2p(0.00)    -1.126   1.058
    *s          24.338   1.058

  Using partial waves for Li as LCAO basis

Reference energy: -196157.275402

Non-collinear calculation.
Magnetic moment: (0.000000, 0.000000, 0.000000)

Convergence criteria:
  Maximum total energy change: 0.0005 eV / electron
  Maximum integral of absolute density change: 1e-09 electrons
  Maximum integral of absolute eigenstate change: 4e-08 eV^2
  Maximum number of iterations: 5000

Symmetries present (total): 1

  ( 1  0  0)
  ( 0  1  0)
  ( 0  0  1)

96 k-points: 4 x 4 x 6 Monkhorst-Pack grid + [1/8,1/8,1/12]
96 k-points in the irreducible part of the Brillouin zone
       k-points in crystal coordinates                weights
   0:    -0.25000000   -0.25000000   -0.33333333          1/96
   1:    -0.25000000   -0.25000000   -0.16666667          1/96
   2:    -0.25000000   -0.25000000    0.00000000          1/96
   3:    -0.25000000   -0.25000000    0.16666667          1/96
   4:    -0.25000000   -0.25000000    0.33333333          1/96
   5:    -0.25000000   -0.25000000    0.50000000          1/96
   6:    -0.25000000    0.00000000   -0.33333333          1/96
   7:    -0.25000000    0.00000000   -0.16666667          1/96
   8:    -0.25000000    0.00000000    0.00000000          1/96
   9:    -0.25000000    0.00000000    0.16666667          1/96
          ...
  95:     0.50000000    0.50000000    0.50000000          1/96

Wave functions: Plane wave expansion
  Cutoff energy: 600.000 eV
  Number of coefficients (min, max): 9220, 9328
  Pulay-stress correction: 0.000000 eV/Ang^3 (de/decut=0.000000)
  Using FFTW library
  ScaLapack parameters: grid=1x1, blocksize=None
  Wavefunction extrapolation:
    Improved wavefunction reuse through dual PAW basis 

Occupation numbers: Fermi-Dirac: width=0.0010 eV
 

Eigensolver
   Davidson(niter=2) 

Densities:
  Coarse grid: 60*35*27 grid
  Fine grid: 120*70*54 grid
  Total Charge: 0.000000 

Density mixing:
  Method: difference
  Backend: pulay
  Linear mixing parameter: 0.05
  Mixing with 3 old densities
  Damping of long wave oscillations: 100 

Hamiltonian:
  XC and Coulomb potentials evaluated on a 120*70*54 grid
  Using the LDA Exchange-Correlation functional
  External potential:
    <gpaw.external.NoExternalPotential object at 0x2b059e2aff10>
 

Memory estimate:
  Process memory now: 210.08 MiB
  Calculator: 159.60 MiB
    Density: 38.92 MiB
      Arrays: 11.25 MiB
      Localized functions: 17.29 MiB
      Mixer: 10.38 MiB
    Hamiltonian: 7.85 MiB
      Arrays: 7.35 MiB
      XC: 0.00 MiB
      Poisson: 0.00 MiB
      vbar: 0.50 MiB
    Wavefunctions: 112.83 MiB
      Arrays psit_nG: 63.77 MiB
      Eigensolver: 40.26 MiB
      Projections: 2.41 MiB
      Projectors: 3.96 MiB
      PW-descriptor: 2.45 MiB

Total number of cores used: 40
Parallelization over k-points: 40

Number of atoms: 28
Number of atomic orbitals: 148
Number of bands in calculation: 224
Number of valence electrons: 180
Bands to converge: occupied

... initialized

Initializing position-dependent things.

Density initialized from atomic densities
Creating initial wave functions:
  148 bands from LCAO basis set
  76 bands from random numbers

                                           
                                           
                                           
                                           
                                           
               O     O  P  O               
            PO           OMn     O         
                  O          MO            
            O        Li O                  
             Mn  On          OP            
         O         Li O                    
         Li     O P         O              
       Li                                  
                                           
                                           
                                           
                                           

Positions:
   0 O      3.433571    0.262438    1.044982    ( 0.0000,  0.0000,  0.0000)
   1 O      1.625943    5.682714    3.351790    ( 0.0000,  0.0000,  0.0000)
   2 O      6.682308    3.235813    3.571472    ( 0.0000,  0.0000,  0.0000)
   3 O      8.489886    2.710849    1.262350    ( 0.0000,  0.0000,  0.0000)
   4 O      6.682285    5.682702    3.571606    ( 0.0000,  0.0000,  0.0000)
   5 O      8.489910    0.262428    1.262480    ( 0.0000,  0.0000,  0.0000)
   6 O      3.433547    2.710793    1.045114    ( 0.0000,  0.0000,  0.0000)
   7 O      1.625968    3.235755    3.351922    ( 0.0000,  0.0000,  0.0000)
   8 O      0.528250    1.486665    1.279727    ( 0.0000,  0.0000,  0.0000)
   9 O      4.530048    4.459186    3.589440    ( 0.0000,  0.0000,  0.0000)
  10 O      9.586241    4.459210    3.333633    ( 0.0000,  0.0000,  0.0000)
  11 O      5.584443    1.486688    1.028057    ( 0.0000,  0.0000,  0.0000)
  12 Mn     2.247130    1.486372    2.455545    ( 0.0000,  0.0000,  0.0000)
  13 Mn     2.804385    4.459476    0.148184    ( 5.0000,  0.0000,  0.0000)
  14 Mn     7.860566    4.459500    2.159376    (-5.0000,  0.0000,  0.0000)
  15 Mn     7.303312    1.486397    4.467754    (-5.0000,  0.0000,  0.0000)
  16 P      4.165979    1.486666    0.419260    ( 5.0000,  0.0000,  0.0000)
  17 P      0.891169    4.459183    2.725581    ( 0.0000,  0.0000,  0.0000)
  18 P      5.947398    4.459206    4.197686    ( 0.0000,  0.0000,  0.0000)
  19 P      9.222208    1.486689    1.888330    ( 0.0000,  0.0000,  0.0000)
  20 O      4.152288    1.486656    3.508948    ( 0.0000,  0.0000,  0.0000)
  21 O      0.907104    4.459193    1.199965    ( 0.0000,  0.0000,  0.0000)
  22 O      5.963063    4.459214    1.107861    ( 0.0000,  0.0000,  0.0000)
  23 O      9.208248    1.486678    3.414083    ( 0.0000,  0.0000,  0.0000)
  24 Li    -0.003827    0.000438   -0.001946    ( 0.0000,  0.0000,  0.0000)
  25 Li     5.052407    0.000459    2.309656    ( 0.0000,  0.0000,  0.0000)
  26 Li    -0.003809    2.972475   -0.001942    ( 0.0000,  0.0000,  0.0000)
  27 Li     5.052425    2.972500    2.309653    ( 0.0000,  0.0000,  0.0000)

Unit cell:
           periodic     x           y           z      points  spacing
  1. axis:    yes   10.112485    0.000045   -0.000035    60     0.1685
  2. axis:    yes    0.000026    5.945827    0.000001    35     0.1699
  3. axis:    yes   -0.000016    0.000000    4.615463    27     0.1709

  Lengths:  10.112485   5.945827   4.615463
  Angles:   89.999989  90.000396  89.999490

Effective grid spacing dv^(1/3) = 0.1698

                     log10-error:    total        iterations:
           time      wfs    density  energy       poisson
iter:   1  10:09:13                -240.822133            -1.0,+0.0,+0.0
iter:   2  10:09:47  -0.50  -0.94  -234.040132            -1.0,-0.0,-0.0
iter:   3  10:10:20  -0.91  -0.99  -224.909169            -1.0,-0.0,-0.0
iter:   4  10:10:54  -0.71  -1.13  -219.686983            -1.1,-0.0,-0.0
iter:   5  10:11:27  -1.52  -1.36  -219.463910            -1.3,-0.0,-0.0
iter:   6  10:12:01  -1.44  -1.47  -221.028277            -1.5,-0.0,-0.0
iter:   7  10:12:34  -2.12  -1.79  -223.198710            -4.2,-0.0,+0.0
iter:   8  10:13:07  -1.63  -1.97  -221.892238            -6.6,+0.0,+0.0
iter:   9  10:13:40  -2.31  -2.16  -221.828786            -6.5,+0.0,+0.0
iter:  10  10:14:13  -2.89  -2.23  -222.070935            -6.3,-0.0,+0.0
iter:  11  10:14:47  -2.55  -2.36  -222.403585            -5.6,+0.0,+0.0
iter:  12  10:15:20  -3.63  -2.73  -222.405965            -5.6,-0.0,-0.0
iter:  13  10:15:53  -3.49  -2.76  -222.439237            -5.8,+0.0,-0.0
iter:  14  10:16:26  -4.23  -2.82  -222.483928            -6.0,+0.0,-0.0
iter:  15  10:16:59  -4.14  -2.86  -222.485453            -6.1,+0.0,-0.0
iter:  16  10:17:33  -4.19  -3.04  -222.508885            -6.0,-0.0,-0.0
iter:  17  10:18:06  -4.91  -3.15  -222.514519            -5.9,-0.0,-0.0
iter:  18  10:18:39  -4.99  -3.29  -222.516639            -5.9,-0.0,-0.0
iter:  19  10:19:12  -4.83  -3.44  -222.517169            -5.9,-0.0,-0.0
iter:  20  10:19:45  -5.79  -3.56  -222.519294            -5.9,-0.0,-0.0
iter:  21  10:20:19  -5.45  -3.60  -222.527146            -6.0,-0.0,-0.0
iter:  22  10:20:52  -5.71  -3.62  -222.529780            -6.0,-0.0,-0.0
iter:  23  10:21:25  -5.57  -3.59  -222.532744            -6.0,-0.0,-0.0
iter:  24  10:21:58  -6.07  -3.66  -222.535745            -6.0,-0.0,-0.0
iter:  25  10:22:31  -5.87  -3.63  -222.538219            -6.0,-0.0,-0.0
iter:  26  10:23:04  -5.59  -3.67  -222.542148            -5.9,-0.0,-0.0
iter:  27  10:23:37  -6.12  -3.65  -222.544061            -5.9,-0.0,-0.0
iter:  28  10:24:10  -5.51  -3.66  -222.552777            -6.0,-0.0,-0.0
iter:  29  10:24:43  -5.88  -3.62  -222.555312            -6.0,-0.0,-0.0
iter:  30  10:25:17  -5.75  -3.62  -222.558727            -6.0,-0.0,-0.0
iter:  31  10:25:50  -5.09  -3.52  -222.562248            -6.0,-0.0,-0.0
iter:  32  10:26:23  -5.51  -3.53  -222.564499            -6.0,-0.0,-0.0
iter:  33  10:26:56  -5.23  -3.49  -222.571358            -6.0,-0.0,-0.0
iter:  34  10:27:29  -5.27  -3.50  -222.573970            -6.0,-0.0,+0.0
iter:  35  10:28:02  -4.92  -3.41  -222.592519            -6.0,-0.0,-0.0
iter:  36  10:28:35  -4.93  -3.44  -222.608407            -6.0,-0.0,+0.0
iter:  37  10:29:08  -4.61  -3.26  -222.634546            -6.0,-0.0,+0.0
iter:  38  10:29:41  -4.02  -3.17  -222.675426            -6.0,-0.0,+0.0
iter:  39  10:30:14  -4.42  -2.99  -222.670038            -6.0,-0.0,+0.0
iter:  40  10:30:48  -4.44  -2.99  -222.676935            -6.0,-0.0,+0.0
iter:  41  10:31:21  -4.34  -2.89  -222.677442            -6.0,-0.0,+0.0
iter:  42  10:31:54  -3.99  -2.90  -222.669756            -6.0,-0.0,-0.0
iter:  43  10:32:27  -3.35  -2.77  -222.698264            -6.0,-0.0,+0.0
iter:  44  10:33:00  -4.31  -3.10  -222.702082            -6.0,-0.0,+0.0
iter:  45  10:33:33  -4.31  -3.08  -222.709193            -6.0,-0.0,+0.0
iter:  46  10:34:06  -4.63  -3.29  -222.714546            -6.0,-0.0,+0.0
iter:  47  10:34:39  -5.16  -3.26  -222.715486            -6.0,-0.0,+0.0
iter:  48  10:35:12  -5.25  -3.30  -222.713806            -6.0,-0.0,+0.0
iter:  49  10:35:45  -5.54  -3.32  -222.717255            -6.0,-0.0,+0.0
iter:  50  10:36:18  -5.15  -3.35  -222.721386            -6.0,-0.0,+0.0
iter:  51  10:36:51  -5.13  -3.42  -222.723703            -6.0,-0.0,+0.0
iter:  52  10:37:25  -5.28  -3.62  -222.722458            -6.0,-0.0,+0.0
iter:  53  10:37:58  -5.64  -3.68  -222.723447            -6.0,-0.0,+0.0
iter:  54  10:38:31  -5.41  -3.74  -222.724736            -6.0,-0.0,-0.0
iter:  55  10:39:04  -5.52  -3.77  -222.725841            -6.0,-0.0,-0.0
iter:  56  10:39:37  -5.73  -3.88  -222.722774            -6.0,-0.0,-0.0
iter:  57  10:40:10  -5.97  -3.92  -222.724850            -6.0,-0.0,-0.0
iter:  58  10:40:43  -6.00  -3.97  -222.725935            -6.0,-0.0,+0.0
iter:  59  10:41:16  -6.40  -3.95  -222.726409            -6.0,-0.0,+0.0
iter:  60  10:41:49  -6.44  -3.95  -222.726331            -6.0,-0.0,-0.0
iter:  61  10:42:22  -5.48  -3.88  -222.728228            -6.0,-0.0,-0.0
iter:  62  10:42:55  -6.56  -4.06  -222.727948            -6.0,-0.0,-0.0
iter:  63  10:43:28  -5.91  -4.01  -222.728990            -6.0,-0.0,-0.0
iter:  64  10:44:01  -5.74  -3.93  -222.730082            -6.0,-0.0,-0.0
iter:  65  10:44:35  -5.60  -3.86  -222.730175            -6.0,-0.0,-0.0
iter:  66  10:45:08  -5.53  -3.75  -222.730827            -6.0,-0.0,-0.0
iter:  67  10:45:40  -5.85  -3.76  -222.731543            -6.0,-0.0,-0.0
iter:  68  10:46:13  -6.37  -3.74  -222.731031            -6.0,-0.0,-0.0
iter:  69  10:46:46  -5.45  -3.84  -222.730771            -6.0,-0.0,-0.0
iter:  70  10:47:19  -6.21  -3.78  -222.730243            -6.0,-0.0,-0.0
iter:  71  10:47:53  -5.60  -3.91  -222.731462            -6.0,-0.0,-0.0
iter:  72  10:48:25  -6.65  -3.94  -222.731127            -6.0,-0.0,-0.0
iter:  73  10:48:58  -5.57  -3.91  -222.731801            -6.0,-0.0,-0.0
iter:  74  10:49:31  -6.11  -4.05  -222.732305            -6.0,-0.0,-0.0
iter:  75  10:50:04  -6.15  -3.94  -222.732660            -6.0,-0.0,-0.0
iter:  76  10:50:37  -6.32  -4.01  -222.732804            -6.0,-0.0,-0.0
iter:  77  10:51:10  -6.32  -3.93  -222.733443            -6.0,-0.0,+0.0
iter:  78  10:51:43  -5.80  -4.04  -222.732958            -6.0,-0.0,-0.0
iter:  79  10:52:16  -5.82  -4.03  -222.733524            -6.0,-0.0,-0.0
iter:  80  10:52:49  -6.06  -4.00  -222.734744            -6.0,-0.0,-0.0
iter:  81  10:53:22  -5.92  -4.02  -222.734461            -6.0,-0.0,-0.0
iter:  82  10:53:55  -6.81  -4.06  -222.734036            -6.0,-0.0,-0.0
iter:  83  10:54:28  -5.82  -4.10  -222.735386            -6.0,-0.0,-0.0
iter:  84  10:55:01  -6.14  -4.09  -222.736132            -6.0,-0.0,-0.0
iter:  85  10:55:34  -5.74  -4.08  -222.734291            -6.0,-0.0,-0.0
iter:  86  10:56:07  -5.94  -4.15  -222.735975            -6.0,-0.0,+0.0
iter:  87  10:56:40  -5.50  -4.09  -222.735894            -6.0,-0.0,-0.0
iter:  88  10:57:13  -5.81  -3.79  -222.736688            -6.0,-0.0,-0.0
iter:  89  10:57:46  -5.94  -4.03  -222.735896            -6.0,-0.0,-0.0
iter:  90  10:58:18  -5.48  -3.92  -222.736948            -6.0,-0.0,+0.0
iter:  91  10:58:51  -6.41  -4.17  -222.737127            -6.0,-0.0,+0.0
iter:  92  10:59:24  -6.39  -4.19  -222.737133            -6.0,-0.0,-0.0
iter:  93  10:59:57  -6.48  -4.27  -222.736687            -6.0,-0.0,+0.0
iter:  94  11:00:30  -5.56  -4.33  -222.737725            -6.0,-0.0,+0.0
iter:  95  11:01:03  -5.75  -4.05  -222.738398            -6.0,-0.0,-0.0
iter:  96  11:01:36  -5.74  -4.26  -222.737473            -6.0,-0.0,+0.0
iter:  97  11:02:09  -5.37  -3.98  -222.739197            -6.0,-0.0,+0.0
iter:  98  11:02:41  -6.07  -4.31  -222.738269            -6.0,-0.0,+0.0
iter:  99  11:03:14  -6.39  -4.32  -222.738490            -6.0,-0.0,-0.0
iter: 100  11:03:47  -7.43  -4.45  -222.738528            -6.0,-0.0,-0.0
iter: 101  11:04:20  -6.16  -4.54  -222.739675            -6.0,-0.0,-0.0
iter: 102  11:04:53  -5.87  -4.47  -222.741033            -6.0,-0.0,+0.0
iter: 103  11:05:25  -6.21  -4.22  -222.741278            -6.0,-0.0,+0.0
iter: 104  11:05:58  -6.57  -4.10  -222.740998            -6.0,-0.0,+0.0
iter: 105  11:06:31  -5.92  -4.15  -222.743004            -6.0,-0.0,+0.0
iter: 106  11:07:04  -5.78  -4.11  -222.740738            -6.0,-0.0,-0.0
iter: 107  11:07:37  -6.00  -4.14  -222.743318            -6.0,-0.0,-0.0
iter: 108  11:08:09  -5.97  -4.35  -222.740097            -6.0,-0.0,-0.0
iter: 109  11:08:42  -6.62  -4.18  -222.742203            -6.0,-0.0,-0.0
iter: 110  11:09:15  -6.19  -4.09  -222.738545            -6.0,-0.0,-0.0
iter: 111  11:09:48  -6.37  -4.33  -222.729049            -6.0,-0.0,-0.0
iter: 112  11:10:20  -6.02  -4.23  -222.728653            -6.0,-0.0,-0.0
iter: 113  11:10:53  -6.03  -4.39  -222.721415            -6.0,-0.0,-0.0
iter: 114  11:11:26  -5.96  -4.43  -222.726975            -6.0,-0.0,-0.0
iter: 115  11:11:59  -4.98  -4.37  -222.702325            -6.0,-0.0,+0.0
iter: 116  11:12:32  -4.79  -3.87  -222.722313            -6.0,-0.0,-0.0
iter: 117  11:13:05  -5.65  -4.19  -222.719787            -6.0,-0.0,-0.0
iter: 118  11:13:38  -6.26  -4.16  -222.710333            -6.0,-0.0,-0.0
iter: 119  11:14:11  -5.04  -4.43  -222.703569            -6.0,-0.0,-0.0
iter: 120  11:14:44  -5.20  -4.01  -222.712177            -6.0,-0.0,-0.0
iter: 121  11:15:16  -5.43  -4.46  -222.715677            -6.0,-0.0,-0.0
iter: 122  11:15:49  -5.89  -4.15  -222.711962            -6.0,-0.0,-0.0
iter: 123  11:16:22  -6.07  -4.12  -222.714029            -6.0,-0.0,-0.0
iter: 124  11:16:55  -5.81  -4.15  -222.707909            -6.0,-0.0,-0.0
iter: 125  11:17:28  -5.30  -4.45  -222.718704            -6.0,-0.0,-0.0
iter: 126  11:18:01  -6.17  -4.25  -222.711161            -6.0,-0.0,-0.0
iter: 127  11:18:33  -5.47  -4.24  -222.721601            -6.0,-0.0,-0.0
iter: 128  11:19:06  -5.34  -4.04  -222.728001            -6.0,-0.0,-0.0
iter: 129  11:19:39  -5.03  -3.82  -222.708071            -6.0,-0.0,-0.0
iter: 130  11:20:12  -5.01  -4.18  -222.755542            -6.0,-0.0,-0.0
iter: 131  11:20:45  -5.43  -3.93  -222.735860            -6.0,-0.0,-0.0
iter: 132  11:21:17  -5.68  -3.85  -222.728458            -6.0,-0.0,-0.0
iter: 133  11:21:50  -5.53  -3.80  -222.758920            -6.0,-0.0,-0.0
iter: 134  11:22:23  -5.19  -3.76  -222.711832            -6.0,-0.0,-0.0
iter: 135  11:22:56  -5.43  -3.81  -222.712194            -6.0,-0.0,-0.0
iter: 136  11:23:28  -6.11  -3.64  -222.716144            -6.0,-0.0,-0.0
iter: 137  11:24:01  -5.40  -3.64  -222.737904            -6.0,-0.0,-0.0
iter: 138  11:24:34  -6.08  -3.83  -222.768349            -6.0,-0.0,+0.0
iter: 139  11:25:07  -6.10  -3.97  -222.762053            -6.0,-0.0,-0.0
iter: 140  11:25:39  -6.25  -4.11  -222.758780            -6.0,-0.0,-0.0
iter: 141  11:26:12  -6.27  -4.10  -222.783951            -6.0,-0.0,-0.0
iter: 142  11:26:45  -6.10  -3.99  -222.759365            -6.0,-0.0,-0.0
iter: 143  11:27:18  -6.09  -3.98  -222.776308            -6.0,-0.0,-0.0
iter: 144  11:27:50  -5.81  -3.98  -222.825225            -6.0,-0.0,-0.0
iter: 145  11:28:23  -5.73  -3.82  -222.711607            -6.0,-0.0,-0.0
iter: 146  11:28:56  -5.87  -4.21  -222.694429            -6.0,-0.0,-0.0
iter: 147  11:29:28  -6.39  -4.18  -222.703171            -6.0,-0.0,-0.0
iter: 148  11:30:01  -5.77  -4.19  -222.741783            -6.0,-0.0,-0.0
iter: 149  11:30:34  -6.33  -4.12  -222.724937            -6.0,-0.0,+0.0
iter: 150  11:31:07  -5.96  -4.12  -222.639285            -6.0,-0.0,+0.0
iter: 151  11:31:39  -5.25  -4.09  -222.723455            -6.0,-0.0,-0.0
iter: 152  11:32:12  -6.08  -4.07  -222.729185            -6.0,-0.0,+0.0
iter: 153  11:32:45  -5.96  -4.16  -222.729811            -6.0,-0.0,+0.0
iter: 154  11:33:18  -5.65  -4.13  -222.725697            -6.0,-0.0,+0.0
iter: 155  11:33:50  -5.94  -3.99  -222.712469            -6.0,+0.0,+0.0
iter: 156  11:34:23  -6.45  -3.92  -222.727453            -6.0,+0.0,+0.0
iter: 157  11:34:55  -6.13  -4.00  -222.756015            -6.0,-0.0,+0.0
iter: 158  11:35:28  -6.27  -3.99  -222.775342            -6.0,-0.0,+0.0
iter: 159  11:36:01  -6.09  -3.87  -222.740700            -6.0,-0.0,+0.0
iter: 160  11:36:34  -6.09  -4.04  -222.759633            -6.0,-0.0,+0.0
iter: 161  11:37:06  -6.45  -4.07  -222.757760            -6.0,-0.0,+0.0
iter: 162  11:37:39  -5.99  -4.09  -222.731260            -6.0,-0.0,+0.0
iter: 163  11:38:12  -6.66  -4.03  -222.728697            -6.0,-0.0,+0.0
iter: 164  11:38:45  -5.94  -4.00  -222.740565            -6.0,-0.0,-0.0
iter: 165  11:39:17  -6.22  -4.10  -222.732339            -6.0,-0.0,+0.0
iter: 166  11:39:50  -6.13  -4.16  -222.712925            -6.0,-0.0,+0.0
iter: 167  11:40:23  -6.18  -4.27  -222.723085            -6.0,-0.0,-0.0
iter: 168  11:40:55  -6.43  -4.27  -222.723210            -6.0,-0.0,-0.0
iter: 169  11:41:28  -6.18  -4.20  -222.732354            -6.0,-0.0,-0.0
iter: 170  11:42:01  -6.14  -4.12  -222.757611            -6.0,+0.0,+0.0
iter: 171  11:42:34  -6.18  -3.92  -222.777921            -6.0,+0.0,+0.0
iter: 172  11:43:06  -6.21  -4.00  -222.759566            -6.0,+0.0,+0.0
iter: 173  11:43:39  -6.37  -4.41  -222.763886            -6.0,+0.0,-0.0
iter: 174  11:44:12  -6.02  -4.64  -222.765061            -6.0,-0.0,+0.0
iter: 175  11:44:45  -7.10  -4.46  -222.764864            -6.0,-0.0,+0.0
iter: 176  11:45:17  -6.60  -4.52  -222.757035            -6.0,-0.0,+0.0
iter: 177  11:45:50  -6.09  -4.38  -222.753797            -6.0,-0.0,+0.0
iter: 178  11:46:23  -6.61  -4.16  -222.766174            -6.0,+0.0,+0.0
iter: 179  11:46:55  -6.64  -4.23  -222.773817            -6.0,+0.0,+0.0
iter: 180  11:47:28  -6.30  -4.28  -222.787312            -6.0,-0.0,-0.0
iter: 181  11:48:01  -6.13  -4.10  -222.750084            -6.0,-0.0,-0.0
iter: 182  11:48:33  -6.27  -4.32  -222.763681            -6.0,-0.0,-0.0
iter: 183  11:49:06  -6.00  -4.20  -222.771400            -6.0,-0.0,-0.0
iter: 184  11:49:39  -6.14  -4.35  -222.747899            -6.0,+0.0,+0.0
iter: 185  11:50:11  -6.61  -4.31  -222.750969            -6.0,+0.0,-0.0
iter: 186  11:50:44  -6.50  -4.26  -222.772280            -6.0,+0.0,-0.0
iter: 187  11:51:17  -6.59  -4.10  -222.774244            -6.0,-0.0,-0.0
iter: 188  11:51:49  -6.13  -4.22  -222.752659            -6.0,+0.0,+0.0
iter: 189  11:52:22  -6.91  -4.41  -222.752313            -6.0,+0.0,-0.0
iter: 190  11:52:55  -5.81  -4.42  -222.787922            -6.0,-0.0,-0.0
iter: 191  11:53:27  -5.88  -4.54  -222.786295            -6.0,+0.0,+0.0
iter: 192  11:54:00  -6.81  -4.56  -222.789186            -6.0,+0.0,+0.0
iter: 193  11:54:33  -6.96  -4.63  -222.793327            -6.0,+0.0,-0.0
iter: 194  11:55:06  -6.02  -4.66  -222.769522            -6.0,+0.0,+0.0
iter: 195  11:55:38  -6.73  -4.71  -222.765941            -6.0,+0.0,-0.0
iter: 196  11:56:11  -6.99  -4.67  -222.762535            -6.0,+0.0,-0.0
iter: 197  11:56:43  -7.16  -4.62  -222.760662            -6.0,+0.0,-0.0
iter: 198  11:57:16  -6.66  -4.60  -222.765497            -6.0,+0.0,+0.0
iter: 199  11:57:49  -6.71  -4.61  -222.774889            -6.0,+0.0,-0.0
iter: 200  11:58:21  -7.05  -4.58  -222.780429            -6.0,+0.0,-0.0
iter: 201  11:58:54  -6.71  -4.62  -222.794903            -6.0,+0.0,+0.0
iter: 202  11:59:26  -6.85  -4.62  -222.783671            -6.0,+0.0,-0.0
iter: 203  11:59:59  -6.69  -4.65  -222.786059            -6.0,+0.0,-0.0
iter: 204  12:00:32  -6.75  -4.57  -222.777811            -6.0,+0.0,-0.0
iter: 205  12:01:04  -6.62  -4.49  -222.780741            -6.0,-0.0,-0.0
iter: 206  12:01:37  -6.34  -4.99  -222.779129            -6.0,+0.0,-0.0
iter: 207  12:02:09  -6.82  -5.00  -222.778410            -6.0,+0.0,-0.0
iter: 208  12:02:42  -7.27  -5.07  -222.777300            -6.0,+0.0,-0.0
iter: 209  12:03:14  -7.22  -5.15  -222.773944            -6.0,+0.0,-0.0
iter: 210  12:03:47  -6.28  -5.18  -222.773290            -6.0,+0.0,-0.0
iter: 211  12:04:19  -6.60  -5.18  -222.770184            -6.0,+0.0,-0.0
iter: 212  12:04:52  -7.03  -5.21  -222.770669            -6.0,+0.0,-0.0
iter: 213  12:05:25  -7.17  -5.20  -222.769998            -6.0,+0.0,-0.0
iter: 214  12:05:57  -7.51  -5.18  -222.769664            -6.0,-0.0,-0.0
iter: 215  12:06:30  -7.74  -5.17  -222.770533            -6.0,-0.0,-0.0
iter: 216  12:07:02  -7.23  -5.07  -222.766286            -6.0,-0.0,-0.0
iter: 217  12:07:35  -7.34  -5.28  -222.764777            -6.0,-0.0,-0.0
iter: 218  12:08:08  -7.42  -5.31  -222.763526            -6.0,-0.0,-0.0
iter: 219  12:08:40  -8.30  -5.21  -222.764871            -6.0,-0.0,-0.0
iter: 220  12:09:13  -8.01  -5.28  -222.765588            -6.0,-0.0,-0.0
iter: 221  12:09:45  -7.72  -5.42  -222.764260            -6.0,+0.0,-0.0
iter: 222  12:10:18  -7.42  -5.37  -222.765774            -6.0,-0.0,-0.0
iter: 223  12:10:50  -7.42  -5.43  -222.765663            -6.0,-0.0,-0.0
iter: 224  12:11:23  -7.50  -5.75  -222.765897            -6.0,-0.0,-0.0
iter: 225  12:11:55  -7.01  -5.71  -222.765026            -6.0,+0.0,-0.0
iter: 226  12:12:28  -6.72  -5.43  -222.765035            -6.0,-0.0,-0.0
iter: 227  12:13:00  -7.18  -5.49  -222.765832            -6.0,-0.0,-0.0
iter: 228  12:13:33  -7.54  -5.59  -222.765737            -6.0,-0.0,-0.0
iter: 229  12:14:06  -7.13  -5.48  -222.764787            -6.0,+0.0,-0.0
iter: 230  12:14:38  -6.74  -5.54  -222.764326            -6.0,-0.0,-0.0
iter: 231  12:15:11  -7.35  -5.56  -222.763878            -6.0,-0.0,-0.0
iter: 232  12:15:43  -7.65  -5.62  -222.763049            -6.0,-0.0,-0.0
iter: 233  12:16:16  -6.80  -5.53  -222.763128            -6.0,-0.0,-0.0
iter: 234  12:16:49  -6.64  -5.50  -222.763505            -6.0,-0.0,-0.0
iter: 235  12:17:21  -6.98  -5.51  -222.762901            -6.0,-0.0,-0.0
iter: 236  12:17:54  -7.38  -5.47  -222.762744            -6.0,-0.0,-0.0
iter: 237  12:18:27  -6.81  -5.53  -222.762846            -6.0,+0.0,-0.0
iter: 238  12:18:59  -7.57  -5.57  -222.762687            -6.0,+0.0,-0.0
iter: 239  12:19:32  -6.74  -5.60  -222.762736            -6.0,-0.0,-0.0
iter: 240  12:20:04  -7.36  -5.75  -222.762854            -6.0,-0.0,-0.0
iter: 241  12:20:37  -7.85  -5.82  -222.763097            -6.0,-0.0,-0.0
iter: 242  12:21:09  -6.69  -5.90  -222.763031            -6.0,-0.0,-0.0
iter: 243  12:21:42  -6.80  -5.84  -222.762849            -6.0,-0.0,-0.0
iter: 244  12:22:15  -7.77  -5.83  -222.763350            -6.0,-0.0,-0.0
iter: 245  12:22:47  -7.38  -5.94  -222.763286            -6.0,-0.0,-0.0
iter: 246  12:23:20  -6.36  -5.91  -222.763471            -6.0,-0.0,-0.0
iter: 247  12:23:52  -6.68  -5.92  -222.763344            -6.0,-0.0,-0.0
iter: 248  12:24:25  -7.58  -5.85  -222.763288            -6.0,-0.0,-0.0
iter: 249  12:24:58  -7.73  -5.88  -222.763088            -6.0,-0.0,-0.0
iter: 250  12:25:30  -7.64  -5.88  -222.763202            -6.0,-0.0,-0.0
iter: 251  12:26:03  -5.84  -5.93  -222.762886            -6.0,-0.0,-0.0
iter: 252  12:26:35  -6.98  -5.75  -222.762759            -6.0,-0.0,-0.0
iter: 253  12:27:08  -6.91  -5.81  -222.762994            -6.0,-0.0,-0.0
iter: 254  12:27:40  -7.29  -5.85  -222.762927            -6.0,-0.0,-0.0
iter: 255  12:28:13  -6.87  -5.83  -222.763107            -6.0,-0.0,-0.0
iter: 256  12:28:45  -7.19  -5.85  -222.762875            -6.0,-0.0,-0.0
iter: 257  12:29:18  -8.39  -5.86  -222.762769            -6.0,-0.0,-0.0
iter: 258  12:29:50  -7.60  -5.86  -222.762815            -6.0,-0.0,-0.0
iter: 259  12:30:23  -7.62  -5.90  -222.762969            -6.0,-0.0,-0.0
iter: 260  12:30:55  -7.19  -6.05  -222.762903            -6.0,-0.0,-0.0
iter: 261  12:31:28  -7.81  -5.93  -222.762956            -6.0,-0.0,-0.0
iter: 262  12:32:00  -7.69  -5.95  -222.762930            -6.0,-0.0,-0.0
iter: 263  12:32:33  -7.76  -5.96  -222.762999            -6.0,-0.0,-0.0
iter: 264  12:33:06  -7.79  -6.05  -222.762971            -6.0,-0.0,-0.0
iter: 265  12:33:38  -8.81  -6.08  -222.762959            -6.0,-0.0,-0.0
iter: 266  12:34:11  -8.76  -6.05  -222.762968            -6.0,-0.0,-0.0
iter: 267  12:34:43  -7.63  -6.05  -222.762957            -6.0,-0.0,-0.0
iter: 268  12:35:16  -7.40  -6.11  -222.762889            -6.0,-0.0,-0.0
iter: 269  12:35:49  -6.85  -6.07  -222.762958            -6.0,+0.0,-0.0
iter: 270  12:36:21  -6.72  -6.11  -222.762817            -6.0,-0.0,-0.0
iter: 271  12:36:54  -7.23  -5.98  -222.762927            -6.0,-0.0,-0.0
iter: 272  12:37:26  -7.72  -6.11  -222.762792            -6.0,-0.0,-0.0
iter: 273  12:37:59  -7.31  -6.11  -222.762720            -6.0,+0.0,-0.0
iter: 274  12:38:32  -6.48  -6.18  -222.762547            -6.0,-0.0,-0.0
iter: 275  12:39:04  -7.12  -5.95  -222.762551            -6.0,-0.0,-0.0
iter: 276  12:39:37  -7.85  -6.08  -222.762431            -6.0,-0.0,-0.0
iter: 277  12:40:09  -7.23  -6.10  -222.762134            -6.0,-0.0,-0.0
iter: 278  12:40:42  -7.25  -6.12  -222.762143            -6.0,-0.0,-0.0
iter: 279  12:41:15  -7.17  -6.05  -222.761973            -6.0,-0.0,-0.0
iter: 280  12:41:47  -7.11  -5.99  -222.762022            -6.0,-0.0,-0.0
iter: 281  12:42:20  -6.49  -6.05  -222.761929            -6.0,-0.0,-0.0
iter: 282  12:42:52  -6.34  -5.93  -222.761648            -6.0,-0.0,-0.0
iter: 283  12:43:25  -6.36  -5.98  -222.761415            -6.0,-0.0,-0.0
iter: 284  12:43:58  -6.58  -5.96  -222.761501            -6.0,-0.0,+0.0
iter: 285  12:44:30  -6.60  -5.71  -222.761438            -6.0,-0.0,+0.0
iter: 286  12:45:03  -7.27  -5.65  -222.761333            -6.0,-0.0,+0.0
iter: 287  12:45:35  -6.55  -5.60  -222.761685            -6.0,-0.0,+0.0
iter: 288  12:46:08  -6.05  -5.40  -222.760980            -6.0,-0.0,+0.0
iter: 289  12:46:41  -6.30  -5.22  -222.758677            -6.0,+0.0,+0.0
iter: 290  12:47:13  -6.88  -5.22  -222.761509            -6.0,-0.0,+0.0
iter: 291  12:47:46  -6.87  -5.13  -222.754519            -6.0,-0.0,+0.0
iter: 292  12:48:18  -6.97  -5.25  -222.745875            -6.0,-0.0,+0.0
iter: 293  12:48:51  -7.03  -5.13  -222.752907            -6.0,-0.0,+0.0
iter: 294  12:49:24  -7.02  -5.36  -222.758504            -6.0,+0.0,+0.0
iter: 295  12:49:56  -6.96  -5.38  -222.760043            -6.0,-0.0,+0.0
iter: 296  12:50:29  -7.24  -5.35  -222.756146            -6.0,-0.0,+0.0
iter: 297  12:51:01  -7.53  -5.17  -222.755997            -6.0,-0.0,+0.0
iter: 298  12:51:34  -7.46  -5.25  -222.756246            -6.0,-0.0,+0.0
iter: 299  12:52:07  -8.04  -5.48  -222.757731            -6.0,-0.0,+0.0
iter: 300  12:52:39  -7.85  -5.42  -222.758566            -6.0,-0.0,+0.0
iter: 301  12:53:12  -8.04  -5.44  -222.757442            -6.0,-0.0,+0.0
iter: 302  12:53:44  -7.14  -5.37  -222.758422            -6.0,-0.0,+0.0
iter: 303  12:54:17  -7.43  -5.51  -222.762518            -6.0,-0.0,+0.0
iter: 304  12:54:50  -7.04  -5.55  -222.761562            -6.0,-0.0,+0.0
iter: 305  12:55:22  -7.56  -5.63  -222.761714            -6.0,-0.0,+0.0
iter: 306  12:55:55  -7.22  -5.62  -222.761593            -6.0,-0.0,+0.0
iter: 307  12:56:27  -7.71  -5.58  -222.762302            -6.0,-0.0,+0.0
iter: 308  12:57:00  -7.18  -5.48  -222.763295            -6.0,-0.0,+0.0
iter: 309  12:57:33  -7.69  -5.27  -222.763234            -6.0,-0.0,+0.0
iter: 310  12:58:05  -7.47  -5.28  -222.763441            -6.0,-0.0,+0.0
iter: 311  12:58:38  -8.08  -5.28  -222.756356            -6.0,-0.0,+0.0
iter: 312  12:59:11  -7.49  -5.40  -222.752812            -6.0,-0.0,+0.0
iter: 313  12:59:43  -7.86  -5.36  -222.755451            -6.0,-0.0,+0.0
iter: 314  13:00:16  -7.81  -5.37  -222.753122            -6.0,-0.0,+0.0
iter: 315  13:00:48  -8.16  -5.29  -222.758096            -6.0,-0.0,+0.0
iter: 316  13:01:21  -8.11  -5.39  -222.757235            -6.0,-0.0,+0.0
iter: 317  13:01:53  -8.80  -5.38  -222.755111            -6.0,-0.0,+0.0
iter: 318  13:02:26  -8.54  -5.43  -222.756916            -6.0,-0.0,+0.0
iter: 319  13:02:58  -9.19  -5.45  -222.759030            -6.0,-0.0,+0.0
iter: 320  13:03:31  -8.62  -5.55  -222.762814            -6.0,-0.0,+0.0
iter: 321  13:04:03  -7.49  -5.94  -222.762756            -6.0,-0.0,+0.0
iter: 322  13:04:36  -7.48  -5.81  -222.763289            -6.0,-0.0,+0.0
iter: 323  13:05:08  -6.70  -5.52  -222.763065            -6.0,-0.0,+0.0
iter: 324  13:05:41  -7.01  -5.40  -222.762695            -6.0,-0.0,+0.0
iter: 325  13:06:13  -7.48  -5.46  -222.766137            -6.0,-0.0,+0.0
iter: 326  13:06:46  -8.25  -5.51  -222.766036            -6.0,-0.0,+0.0
iter: 327  13:07:19  -7.20  -5.48  -222.766848            -6.0,+0.0,+0.0
iter: 328  13:07:51  -6.86  -5.45  -222.766576            -6.0,-0.0,+0.0
iter: 329  13:08:24  -7.81  -5.43  -222.763102            -6.0,-0.0,+0.0
iter: 330  13:08:56  -8.39  -5.42  -222.770865            -6.0,-0.0,+0.0
iter: 331  13:09:29  -8.22  -5.35  -222.774279            -6.0,-0.0,+0.0
iter: 332  13:10:01  -7.45  -5.32  -222.773624            -6.0,-0.0,+0.0
iter: 333  13:10:33  -7.70  -5.34  -222.776370            -6.0,-0.0,+0.0
iter: 334  13:11:06  -7.77  -5.39  -222.776223            -6.0,-0.0,+0.0
iter: 335  13:11:39  -8.01  -5.43  -222.771771            -6.0,-0.0,+0.0
iter: 336  13:12:11  -7.11  -5.52  -222.766991            -6.0,-0.0,+0.0
iter: 337  13:12:43  -8.03  -5.77  -222.766606            -6.0,-0.0,+0.0
iter: 338  13:13:16  -7.26  -5.80  -222.765433            -6.0,-0.0,+0.0
iter: 339  13:13:49  -8.56  -5.86  -222.763583            -6.0,-0.0,+0.0
iter: 340  13:14:21  -7.58  -5.82  -222.763103            -6.0,-0.0,+0.0
iter: 341  13:14:54  -8.43  -5.85  -222.763175            -6.0,-0.0,+0.0
iter: 342  13:15:26  -7.72  -5.93  -222.763594            -6.0,-0.0,+0.0
iter: 343  13:15:59  -8.46  -5.92  -222.761912            -6.0,-0.0,+0.0
iter: 344  13:16:31  -7.23  -5.81  -222.762105            -6.0,-0.0,+0.0
iter: 345  13:17:04  -8.02  -5.83  -222.762599            -6.0,-0.0,+0.0
iter: 346  13:17:36  -7.29  -5.82  -222.760537            -6.0,-0.0,+0.0
iter: 347  13:18:09  -8.30  -5.73  -222.760857            -6.0,-0.0,+0.0
iter: 348  13:18:41  -6.96  -5.78  -222.761542            -6.0,-0.0,+0.0
iter: 349  13:19:13  -7.58  -5.82  -222.762326            -6.0,-0.0,+0.0
iter: 350  13:19:46  -7.23  -5.84  -222.759994            -6.0,-0.0,+0.0
iter: 351  13:20:19  -8.32  -5.78  -222.759842            -6.0,-0.0,+0.0
iter: 352  13:20:51  -6.93  -5.79  -222.760253            -6.0,-0.0,+0.0
iter: 353  13:21:23  -7.75  -5.83  -222.759572            -6.0,-0.0,+0.0
iter: 354  13:21:56  -7.26  -5.82  -222.757258            -6.0,-0.0,+0.0
iter: 355  13:22:28  -8.38  -5.73  -222.758622            -6.0,-0.0,+0.0
iter: 356  13:23:01  -7.12  -5.78  -222.757804            -6.0,-0.0,+0.0
iter: 357  13:23:33  -7.86  -5.83  -222.758843            -6.0,+0.0,+0.0
iter: 358  13:24:06  -7.15  -5.95  -222.760105            -6.0,-0.0,+0.0
iter: 359  13:24:38  -8.56  -6.03  -222.760468            -6.0,-0.0,+0.0
iter: 360  13:25:11  -7.54  -6.08  -222.760594            -6.0,-0.0,+0.0
iter: 361  13:25:44  -8.17  -6.12  -222.760617            -6.0,-0.0,+0.0
iter: 362  13:26:16  -7.49  -6.12  -222.760551            -6.0,-0.0,+0.0
iter: 363  13:26:49  -8.40  -6.05  -222.760606            -6.0,-0.0,+0.0
iter: 364  13:27:21  -7.27  -6.07  -222.760730            -6.0,-0.0,+0.0
iter: 365  13:27:54  -7.75  -6.17  -222.760878            -6.0,-0.0,+0.0
iter: 366  13:28:26  -7.33  -6.15  -222.760842            -6.0,-0.0,+0.0
iter: 367  13:28:59  -8.35  -6.08  -222.760737            -6.0,-0.0,+0.0
iter: 368  13:29:32  -6.76  -6.07  -222.760974            -6.0,+0.0,+0.0
iter: 369  13:30:04  -7.87  -6.00  -222.760621            -6.0,-0.0,+0.0
iter: 370  13:30:37  -7.20  -5.98  -222.760505            -6.0,-0.0,+0.0
iter: 371  13:31:09  -7.80  -6.02  -222.760384            -6.0,-0.0,+0.0
iter: 372  13:31:42  -7.29  -5.99  -222.760460            -6.0,+0.0,+0.0
iter: 373  13:32:15  -8.05  -5.95  -222.760394            -6.0,-0.0,+0.0
iter: 374  13:32:47  -7.55  -5.95  -222.760381            -6.0,-0.0,+0.0
iter: 375  13:33:20  -8.30  -5.98  -222.760366            -6.0,-0.0,+0.0
iter: 376  13:33:52  -7.35  -5.98  -222.760306            -6.0,+0.0,+0.0
iter: 377  13:34:25  -7.18  -5.94  -222.760237            -6.0,-0.0,+0.0
iter: 378  13:34:57  -6.89  -5.91  -222.760303            -6.0,-0.0,+0.0
iter: 379  13:35:29  -7.65  -5.85  -222.760109            -6.0,-0.0,+0.0
iter: 380  13:36:02  -7.33  -5.83  -222.760174            -6.0,-0.0,+0.0
iter: 381  13:36:34  -7.31  -5.83  -222.760734            -6.0,-0.0,+0.0
iter: 382  13:37:07  -7.10  -6.00  -222.761266            -6.0,-0.0,+0.0
iter: 383  13:37:39  -7.79  -6.19  -222.761536            -6.0,-0.0,+0.0
iter: 384  13:38:12  -7.43  -6.25  -222.761651            -6.0,-0.0,+0.0
iter: 385  13:38:45  -7.45  -6.23  -222.761982            -6.0,-0.0,+0.0
iter: 386  13:39:17  -7.17  -6.26  -222.761838            -6.0,-0.0,+0.0
iter: 387  13:39:50  -7.96  -6.20  -222.762156            -6.0,-0.0,+0.0
iter: 388  13:40:22  -7.11  -6.24  -222.762011            -6.0,-0.0,+0.0
iter: 389  13:40:55  -7.54  -6.19  -222.761912            -6.0,-0.0,+0.0
iter: 390  13:41:27  -7.00  -6.09  -222.762306            -6.0,-0.0,+0.0
iter: 391  13:42:00  -7.90  -5.85  -222.762360            -6.0,-0.0,+0.0
iter: 392  13:42:32  -8.12  -6.05  -222.762633            -6.0,-0.0,+0.0
iter: 393  13:43:05  -6.83  -6.10  -222.762131            -6.0,-0.0,+0.0
iter: 394  13:43:38  -6.56  -5.80  -222.762002            -6.0,+0.0,+0.0
iter: 395  13:44:10  -7.88  -5.47  -222.762585            -6.0,-0.0,+0.0
iter: 396  13:44:43  -8.04  -5.44  -222.762641            -6.0,-0.0,+0.0
iter: 397  13:45:16  -8.48  -5.49  -222.762257            -6.0,-0.0,+0.0
iter: 398  13:45:48  -8.03  -5.67  -222.762329            -6.0,+0.0,+0.0
iter: 399  13:46:21  -7.73  -5.37  -222.761548            -6.0,+0.0,+0.0
iter: 400  13:46:54  -7.70  -5.68  -222.762234            -6.0,+0.0,+0.0
iter: 401  13:47:26  -6.68  -5.72  -222.760979            -6.0,-0.0,+0.0
iter: 402  13:47:59  -6.86  -5.63  -222.763471            -6.0,+0.0,+0.0
iter: 403  13:48:32  -7.85  -5.79  -222.763180            -6.0,+0.0,+0.0
iter: 404  13:49:04  -7.86  -5.92  -222.762825            -6.0,+0.0,+0.0
iter: 405  13:49:37  -6.57  -6.01  -222.763616            -6.0,-0.0,+0.0
iter: 406  13:50:09  -6.70  -5.79  -222.763716            -6.0,+0.0,+0.0
iter: 407  13:50:42  -7.52  -5.77  -222.763283            -6.0,+0.0,+0.0
iter: 408  13:51:14  -7.77  -5.98  -222.763112            -6.0,+0.0,+0.0
iter: 409  13:51:47  -6.52  -5.78  -222.763676            -6.0,-0.0,+0.0
iter: 410  13:52:19  -6.71  -5.94  -222.763625            -6.0,+0.0,+0.0
iter: 411  13:52:52  -7.61  -5.99  -222.763254            -6.0,+0.0,+0.0
iter: 412  13:53:24  -7.71  -5.98  -222.763271            -6.0,-0.0,+0.0
iter: 413  13:53:57  -6.68  -6.12  -222.762946            -6.0,-0.0,+0.0
iter: 414  13:54:30  -6.92  -5.90  -222.763112            -6.0,+0.0,+0.0
iter: 415  13:55:02  -7.75  -5.99  -222.763075            -6.0,+0.0,+0.0
iter: 416  13:55:35  -7.67  -6.05  -222.763036            -6.0,-0.0,+0.0
iter: 417  13:56:08  -6.59  -6.08  -222.762836            -6.0,-0.0,+0.0
iter: 418  13:56:40  -7.05  -6.05  -222.762934            -6.0,+0.0,+0.0
iter: 419  13:57:13  -7.83  -5.88  -222.762975            -6.0,+0.0,+0.0
iter: 420  13:57:45  -7.48  -6.06  -222.762976            -6.0,-0.0,+0.0
iter: 421  13:58:18  -6.75  -5.97  -222.762940            -6.0,-0.0,+0.0
iter: 422  13:58:50  -7.37  -5.85  -222.762888            -6.0,+0.0,+0.0
iter: 423  13:59:23  -7.85  -5.75  -222.762762            -6.0,+0.0,+0.0
iter: 424  13:59:55  -7.40  -5.95  -222.762468            -6.0,-0.0,+0.0
iter: 425  14:00:28  -6.87  -5.98  -222.762494            -6.0,-0.0,+0.0
iter: 426  14:01:00  -7.58  -5.84  -222.762070            -6.0,+0.0,+0.0
iter: 427  14:01:33  -8.13  -5.88  -222.761843            -6.0,+0.0,+0.0
iter: 428  14:02:06  -7.26  -5.96  -222.761257            -6.0,-0.0,+0.0
iter: 429  14:02:38  -6.85  -5.83  -222.761006            -6.0,-0.0,+0.0
iter: 430  14:03:10  -7.55  -6.04  -222.761302            -6.0,+0.0,+0.0
iter: 431  14:03:43  -8.51  -6.21  -222.761725            -6.0,+0.0,+0.0
iter: 432  14:04:16  -7.00  -6.16  -222.762140            -6.0,-0.0,+0.0
iter: 433  14:04:48  -6.62  -6.15  -222.761825            -6.0,-0.0,+0.0
iter: 434  14:05:21  -7.40  -6.25  -222.761859            -6.0,+0.0,+0.0
iter: 435  14:05:53  -8.29  -6.34  -222.761967            -6.0,+0.0,+0.0
iter: 436  14:06:26  -7.05  -6.37  -222.761787            -6.0,-0.0,+0.0
iter: 437  14:06:59  -6.49  -6.20  -222.761757            -6.0,-0.0,+0.0
iter: 438  14:07:31  -7.33  -6.20  -222.762216            -6.0,+0.0,+0.0
iter: 439  14:08:04  -8.45  -6.04  -222.762106            -6.0,+0.0,+0.0
iter: 440  14:08:36  -7.11  -6.09  -222.762174            -6.0,-0.0,+0.0
iter: 441  14:09:09  -6.76  -6.22  -222.762028            -6.0,-0.0,+0.0
iter: 442  14:09:41  -7.64  -6.02  -222.762202            -6.0,+0.0,+0.0
iter: 443  14:10:14  -8.49  -5.88  -222.762172            -6.0,+0.0,+0.0
iter: 444  14:10:47  -7.22  -5.86  -222.761814            -6.0,-0.0,+0.0
iter: 445  14:11:19  -6.81  -5.87  -222.761378            -6.0,-0.0,+0.0
iter: 446  14:11:52  -7.76  -5.74  -222.761529            -6.0,+0.0,+0.0
iter: 447  14:12:24  -7.99  -5.99  -222.761719            -6.0,+0.0,+0.0
iter: 448  14:12:57  -7.51  -5.86  -222.761563            -6.0,+0.0,+0.0
iter: 449  14:13:30  -7.84  -5.67  -222.761839            -6.0,+0.0,+0.0
iter: 450  14:14:02  -7.37  -5.88  -222.762326            -6.0,+0.0,+0.0
iter: 451  14:14:35  -8.26  -6.00  -222.762297            -6.0,-0.0,+0.0
iter: 452  14:15:08  -7.04  -5.96  -222.762269            -6.0,-0.0,+0.0
iter: 453  14:15:41  -8.44  -6.19  -222.762018            -6.0,-0.0,+0.0
iter: 454  14:16:14  -6.56  -6.13  -222.762272            -6.0,+0.0,+0.0
iter: 455  14:16:46  -7.67  -6.13  -222.762186            -6.0,-0.0,+0.0
iter: 456  14:17:19  -6.63  -6.12  -222.762252            -6.0,+0.0,+0.0
iter: 457  14:17:52  -7.90  -6.13  -222.762372            -6.0,+0.0,+0.0
iter: 458  14:18:24  -6.77  -6.12  -222.762200            -6.0,+0.0,+0.0
iter: 459  14:18:57  -7.81  -6.06  -222.762397            -6.0,-0.0,+0.0
iter: 460  14:19:30  -6.63  -6.04  -222.762438            -6.0,+0.0,+0.0
iter: 461  14:20:02  -7.87  -6.18  -222.762399            -6.0,+0.0,+0.0
iter: 462  14:20:35  -6.80  -6.21  -222.762524            -6.0,+0.0,+0.0
iter: 463  14:21:07  -7.75  -6.15  -222.762549            -6.0,-0.0,+0.0
iter: 464  14:21:40  -6.55  -6.16  -222.762349            -6.0,+0.0,+0.0
iter: 465  14:22:13  -7.77  -6.25  -222.762326            -6.0,+0.0,+0.0
iter: 466  14:22:46  -6.92  -6.24  -222.762423            -6.0,+0.0,+0.0
iter: 467  14:23:18  -7.81  -6.13  -222.762450            -6.0,-0.0,+0.0
iter: 468  14:23:51  -6.64  -6.18  -222.762311            -6.0,-0.0,+0.0
iter: 469  14:24:24  -7.84  -6.29  -222.762365            -6.0,-0.0,+0.0
iter: 470  14:24:56  -6.87  -6.30  -222.762400            -6.0,+0.0,+0.0
iter: 471  14:25:29  -7.73  -6.20  -222.762430            -6.0,-0.0,+0.0
iter: 472  14:26:01  -6.62  -6.20  -222.762524            -6.0,-0.0,+0.0
iter: 473  14:26:34  -7.83  -6.32  -222.762579            -6.0,-0.0,+0.0
iter: 474  14:27:07  -6.97  -6.32  -222.762595            -6.0,+0.0,+0.0
iter: 475  14:27:39  -7.78  -6.25  -222.762547            -6.0,-0.0,+0.0
iter: 476  14:28:12  -6.60  -6.24  -222.762528            -6.0,-0.0,+0.0
iter: 477  14:28:45  -7.70  -6.25  -222.762621            -6.0,-0.0,+0.0
iter: 478  14:29:17  -6.99  -6.25  -222.762483            -6.0,+0.0,+0.0
iter: 479  14:29:50  -7.86  -6.25  -222.762436            -6.0,-0.0,+0.0
iter: 480  14:30:23  -6.67  -6.25  -222.762370            -6.0,-0.0,+0.0
iter: 481  14:30:56  -7.79  -6.19  -222.762353            -6.0,-0.0,+0.0
iter: 482  14:31:28  -6.97  -6.27  -222.762400            -6.0,+0.0,+0.0
iter: 483  14:32:01  -7.83  -6.31  -222.762441            -6.0,-0.0,+0.0
iter: 484  14:32:34  -6.69  -6.35  -222.762360            -6.0,-0.0,+0.0
iter: 485  14:33:06  -7.79  -6.30  -222.762371            -6.0,-0.0,+0.0
iter: 486  14:33:39  -7.00  -6.40  -222.762384            -6.0,+0.0,+0.0
iter: 487  14:34:12  -7.78  -6.39  -222.762411            -6.0,-0.0,+0.0
iter: 488  14:34:44  -6.68  -6.44  -222.762316            -6.0,-0.0,+0.0
iter: 489  14:35:17  -7.86  -6.36  -222.762346            -6.0,-0.0,+0.0
iter: 490  14:35:49  -7.02  -6.48  -222.762411            -6.0,+0.0,+0.0
iter: 491  14:36:22  -7.76  -6.47  -222.762402            -6.0,-0.0,+0.0
iter: 492  14:36:54  -6.69  -6.49  -222.762318            -6.0,+0.0,+0.0
iter: 493  14:37:27  -7.85  -6.39  -222.762341            -6.0,-0.0,+0.0
iter: 494  14:38:00  -6.99  -6.51  -222.762381            -6.0,+0.0,+0.0
iter: 495  14:38:32  -7.73  -6.53  -222.762381            -6.0,-0.0,+0.0
iter: 496  14:39:05  -6.61  -6.54  -222.762296            -6.0,+0.0,+0.0
iter: 497  14:39:38  -7.74  -6.40  -222.762324            -6.0,-0.0,+0.0
iter: 498  14:40:10  -7.11  -6.55  -222.762356            -6.0,+0.0,+0.0
iter: 499  14:40:43  -7.84  -6.49  -222.762361            -6.0,-0.0,+0.0
iter: 500  14:41:16  -6.70  -6.47  -222.762258            -6.0,+0.0,+0.0
iter: 501  14:41:48  -7.95  -6.43  -222.762272            -6.0,-0.0,+0.0
iter: 502  14:42:21  -6.95  -6.51  -222.762382            -6.0,+0.0,+0.0
iter: 503  14:42:54  -7.63  -6.50  -222.762424            -6.0,-0.0,+0.0
iter: 504  14:43:26  -6.68  -6.42  -222.762174            -6.0,+0.0,+0.0
iter: 505  14:43:59  -7.89  -6.52  -222.762197            -6.0,-0.0,+0.0
iter: 506  14:44:31  -7.08  -6.61  -222.762396            -6.0,+0.0,+0.0
iter: 507  14:45:04  -7.70  -6.65  -222.762438            -6.0,-0.0,+0.0
iter: 508  14:45:37  -6.68  -6.60  -222.762156            -6.0,+0.0,+0.0
iter: 509  14:46:09  -7.87  -6.51  -222.762222            -6.0,-0.0,+0.0
iter: 510  14:46:42  -7.01  -6.66  -222.762285            -6.0,+0.0,+0.0
iter: 511  14:47:15  -7.68  -6.67  -222.762254            -6.0,-0.0,+0.0
iter: 512  14:47:47  -6.68  -6.63  -222.762210            -6.0,+0.0,+0.0
iter: 513  14:48:20  -7.93  -6.47  -222.762239            -6.0,-0.0,+0.0
iter: 514  14:48:53  -7.00  -6.57  -222.762232            -6.0,+0.0,+0.0
iter: 515  14:49:25  -7.63  -6.71  -222.762205            -6.0,-0.0,+0.0
iter: 516  14:49:58  -6.65  -6.72  -222.762165            -6.0,+0.0,+0.0
iter: 517  14:50:30  -7.92  -6.49  -222.762177            -6.0,-0.0,+0.0
iter: 518  14:51:03  -7.02  -6.66  -222.762213            -6.0,+0.0,+0.0
iter: 519  14:51:36  -7.70  -6.80  -222.762231            -6.0,-0.0,+0.0
iter: 520  14:52:08  -6.74  -6.75  -222.762139            -6.0,+0.0,+0.0
iter: 521  14:52:41  -8.05  -6.50  -222.762163            -6.0,+0.0,+0.0
iter: 522  14:53:14  -7.01  -6.66  -222.762237            -6.0,+0.0,+0.0
iter: 523  14:53:46  -7.63  -6.88  -222.762260            -6.0,-0.0,+0.0
iter: 524  14:54:19  -6.68  -6.79  -222.762151            -6.0,+0.0,+0.0
iter: 525  14:54:52  -7.91  -6.51  -222.762187            -6.0,+0.0,+0.0
iter: 526  14:55:24  -7.07  -6.70  -222.762255            -6.0,+0.0,+0.0
iter: 527  14:55:57  -7.70  -6.80  -222.762252            -6.0,-0.0,+0.0
iter: 528  14:56:30  -6.72  -6.84  -222.762167            -6.0,+0.0,+0.0
iter: 529  14:57:02  -7.97  -6.46  -222.762196            -6.0,+0.0,+0.0
iter: 530  14:57:35  -7.10  -6.62  -222.762249            -6.0,+0.0,+0.0
iter: 531  14:58:07  -7.70  -6.84  -222.762241            -6.0,-0.0,+0.0
iter: 532  14:58:40  -6.73  -6.88  -222.762170            -6.0,+0.0,+0.0
iter: 533  14:59:12  -8.02  -6.49  -222.762198            -6.0,+0.0,+0.0
iter: 534  14:59:45  -7.10  -6.68  -222.762239            -6.0,+0.0,+0.0
iter: 535  15:00:18  -7.70  -6.80  -222.762277            -6.0,-0.0,+0.0
iter: 536  15:00:50  -6.76  -6.92  -222.762219            -6.0,+0.0,+0.0
iter: 537  15:01:23  -8.07  -6.51  -222.762253            -6.0,+0.0,+0.0
iter: 538  15:01:55  -7.13  -6.70  -222.762243            -6.0,+0.0,+0.0
iter: 539  15:02:28  -7.71  -6.76  -222.762206            -6.0,-0.0,+0.0
iter: 540  15:03:00  -6.80  -6.92  -222.762157            -6.0,+0.0,+0.0
iter: 541  15:03:33  -8.13  -6.46  -222.762171            -6.0,+0.0,+0.0
iter: 542  15:04:05  -7.17  -6.61  -222.762205            -6.0,+0.0,+0.0
iter: 543  15:04:38  -7.71  -6.69  -222.762211            -6.0,-0.0,+0.0
iter: 544  15:05:10  -6.80  -6.85  -222.762141            -6.0,+0.0,+0.0
iter: 545  15:05:43  -8.13  -6.44  -222.762162            -6.0,+0.0,+0.0
iter: 546  15:06:15  -7.20  -6.57  -222.762207            -6.0,+0.0,+0.0
iter: 547  15:06:48  -7.68  -6.62  -222.762212            -6.0,-0.0,+0.0
iter: 548  15:07:21  -6.83  -6.75  -222.762143            -6.0,+0.0,+0.0
iter: 549  15:07:53  -8.20  -6.44  -222.762164            -6.0,+0.0,+0.0
iter: 550  15:08:25  -7.19  -6.53  -222.762208            -6.0,+0.0,+0.0
iter: 551  15:08:58  -7.61  -6.52  -222.762212            -6.0,-0.0,+0.0
iter: 552  15:09:30  -6.90  -6.66  -222.762145            -6.0,+0.0,+0.0
iter: 553  15:10:03  -8.32  -6.48  -222.762163            -6.0,+0.0,+0.0
iter: 554  15:10:35  -7.20  -6.51  -222.762199            -6.0,+0.0,+0.0
iter: 555  15:11:07  -7.65  -6.64  -222.762204            -6.0,-0.0,+0.0
iter: 556  15:11:40  -6.91  -6.69  -222.762132            -6.0,+0.0,+0.0
iter: 557  15:12:12  -8.34  -6.46  -222.762162            -6.0,+0.0,+0.0
iter: 558  15:12:45  -7.20  -6.51  -222.762152            -6.0,+0.0,+0.0
iter: 559  15:13:17  -7.59  -6.60  -222.762191            -6.0,-0.0,+0.0
iter: 560  15:13:50  -6.94  -6.61  -222.762000            -6.0,+0.0,+0.0
iter: 561  15:14:22  -8.36  -6.41  -222.762160            -6.0,+0.0,+0.0
iter: 562  15:14:55  -7.22  -6.49  -222.762287            -6.0,+0.0,+0.0
iter: 563  15:15:27  -7.70  -6.76  -222.762230            -6.0,-0.0,+0.0
iter: 564  15:15:59  -6.91  -6.69  -222.762206            -6.0,+0.0,+0.0
iter: 565  15:16:32  -8.30  -6.43  -222.762234            -6.0,+0.0,+0.0
iter: 566  15:17:04  -7.21  -6.52  -222.762298            -6.0,+0.0,+0.0
iter: 567  15:17:37  -7.63  -6.99  -222.762266            -6.0,-0.0,+0.0
iter: 568  15:18:09  -6.88  -6.97  -222.762178            -6.0,+0.0,+0.0
iter: 569  15:18:42  -8.36  -6.49  -222.762235            -6.0,+0.0,+0.0
iter: 570  15:19:15  -7.07  -6.64  -222.762322            -6.0,+0.0,+0.0
iter: 571  15:19:47  -7.59  -6.52  -222.762281            -6.0,-0.0,+0.0
iter: 572  15:20:19  -6.96  -6.39  -222.762216            -6.0,+0.0,+0.0
iter: 573  15:20:52  -8.34  -6.45  -222.762241            -6.0,+0.0,+0.0
iter: 574  15:21:24  -7.06  -6.53  -222.762297            -6.0,+0.0,+0.0
iter: 575  15:21:57  -7.65  -7.05  -222.762232            -6.0,-0.0,+0.0
iter: 576  15:22:29  -7.11  -6.72  -222.762257            -6.0,+0.0,+0.0
iter: 577  15:23:02  -8.54  -6.54  -222.762250            -6.0,+0.0,+0.0
iter: 578  15:23:34  -7.05  -6.60  -222.762282            -6.0,+0.0,+0.0
iter: 579  15:24:06  -7.57  -6.87  -222.762284            -6.0,-0.0,+0.0
iter: 580  15:24:39  -7.26  -6.67  -222.762254            -6.0,+0.0,+0.0
iter: 581  15:25:11  -8.72  -6.49  -222.762275            -6.0,+0.0,+0.0
iter: 582  15:25:43  -7.01  -6.52  -222.762342            -6.0,+0.0,+0.0
iter: 583  15:26:16  -7.45  -6.95  -222.762325            -6.0,-0.0,+0.0
iter: 584  15:26:48  -7.41  -6.69  -222.762300            -6.0,+0.0,+0.0
iter: 585  15:27:21  -8.84  -6.53  -222.762254            -6.0,+0.0,+0.0
iter: 586  15:27:53  -7.01  -6.56  -222.762386            -6.0,+0.0,+0.0
iter: 587  15:28:25  -7.29  -6.81  -222.762320            -6.0,-0.0,+0.0
iter: 588  15:28:58  -7.52  -6.58  -222.762308            -6.0,+0.0,+0.0
iter: 589  15:29:30  -8.74  -6.45  -222.762301            -6.0,+0.0,+0.0
iter: 590  15:30:03  -6.97  -6.48  -222.762290            -6.0,+0.0,+0.0
iter: 591  15:30:35  -7.33  -6.75  -222.762284            -6.0,-0.0,+0.0
iter: 592  15:31:07  -7.50  -6.63  -222.762220            -6.0,+0.0,+0.0
iter: 593  15:31:40  -8.82  -6.42  -222.762267            -6.0,+0.0,+0.0
iter: 594  15:32:12  -7.06  -6.45  -222.762293            -6.0,+0.0,+0.0
iter: 595  15:32:44  -7.26  -6.76  -222.762172            -6.0,-0.0,+0.0
iter: 596  15:33:17  -7.75  -6.66  -222.762188            -6.0,+0.0,+0.0
iter: 597  15:33:49  -8.97  -6.41  -222.762217            -6.0,+0.0,+0.0
iter: 598  15:34:22  -7.09  -6.46  -222.762239            -6.0,+0.0,+0.0
iter: 599  15:34:54  -7.26  -6.61  -222.762174            -6.0,-0.0,+0.0
iter: 600  15:35:26  -7.77  -6.32  -222.762254            -6.0,+0.0,+0.0
iter: 601  15:35:59  -8.98  -6.43  -222.762276            -6.0,+0.0,+0.0
iter: 602  15:36:31  -6.98  -6.48  -222.762366            -6.0,+0.0,+0.0
iter: 603  15:37:04  -7.25  -6.92  -222.762313            -6.0,-0.0,+0.0
iter: 604  15:37:36  -7.76  -6.48  -222.762282            -6.0,+0.0,+0.0
iter: 605  15:38:08  -8.75  -6.24  -222.762319            -6.0,+0.0,+0.0
iter: 606  15:38:41  -7.15  -6.22  -222.762347            -6.0,+0.0,+0.0
iter: 607  15:39:13  -7.41  -6.64  -222.762298            -6.0,-0.0,+0.0
iter: 608  15:39:45  -7.85  -6.31  -222.762276            -6.0,+0.0,+0.0
iter: 609  15:40:18  -8.90  -6.25  -222.762313            -6.0,+0.0,+0.0
iter: 610  15:40:50  -7.26  -6.29  -222.762429            -6.0,+0.0,+0.0
iter: 611  15:41:22  -7.38  -6.40  -222.762390            -6.0,-0.0,+0.0
iter: 612  15:41:55  -8.03  -6.25  -222.762377            -6.0,+0.0,+0.0
iter: 613  15:42:27  -9.17  -6.27  -222.762416            -6.0,+0.0,+0.0
iter: 614  15:42:59  -7.09  -6.16  -222.762447            -6.0,+0.0,+0.0
iter: 615  15:43:32  -7.36  -6.44  -222.762465            -6.0,-0.0,+0.0
iter: 616  15:44:04  -7.87  -6.17  -222.762308            -6.0,+0.0,+0.0
iter: 617  15:44:36  -9.00  -6.28  -222.762157            -6.0,+0.0,+0.0
iter: 618  15:45:08  -7.18  -6.45  -222.762175            -6.0,+0.0,+0.0
iter: 619  15:45:41  -7.30  -6.45  -222.762189            -6.0,-0.0,+0.0
iter: 620  15:46:13  -7.92  -6.49  -222.762193            -6.0,+0.0,+0.0
iter: 621  15:46:45  -9.03  -6.42  -222.762160            -6.0,+0.0,+0.0
iter: 622  15:47:17  -6.82  -6.32  -222.762201            -6.0,+0.0,+0.0
iter: 623  15:47:50  -7.10  -6.46  -222.762172            -6.0,-0.0,+0.0
iter: 624  15:48:22  -7.70  -6.45  -222.762184            -6.0,+0.0,+0.0
iter: 625  15:48:54  -8.97  -6.42  -222.762176            -6.0,+0.0,+0.0
iter: 626  15:49:26  -6.97  -6.39  -222.762224            -6.0,+0.0,+0.0
iter: 627  15:49:59  -7.20  -6.41  -222.762221            -6.0,-0.0,+0.0
iter: 628  15:50:31  -7.89  -6.48  -222.762168            -6.0,+0.0,+0.0
iter: 629  15:51:03  -8.92  -6.37  -222.762131            -6.0,+0.0,+0.0
iter: 630  15:51:35  -7.08  -6.55  -222.762165            -6.0,+0.0,+0.0
iter: 631  15:52:08  -7.25  -6.48  -222.762213            -6.0,-0.0,+0.0
iter: 632  15:52:40  -7.82  -6.45  -222.762244            -6.0,+0.0,+0.0
iter: 633  15:53:12  -9.00  -6.40  -222.762141            -6.0,+0.0,+0.0
iter: 634  15:53:45  -6.95  -6.49  -222.762132            -6.0,+0.0,+0.0
iter: 635  15:54:17  -7.14  -6.61  -222.762141            -6.0,-0.0,+0.0
iter: 636  15:54:49  -7.79  -6.46  -222.762095            -6.0,+0.0,+0.0
iter: 637  15:55:21  -9.03  -6.39  -222.762174            -6.0,+0.0,+0.0
iter: 638  15:55:54  -6.87  -6.54  -222.762444            -6.0,+0.0,+0.0
iter: 639  15:56:26  -7.19  -6.65  -222.762371            -6.0,-0.0,+0.0
iter: 640  15:56:59  -7.81  -6.90  -222.762325            -6.0,+0.0,+0.0
iter: 641  15:57:31  -8.96  -6.83  -222.762327            -6.0,+0.0,+0.0
iter: 642  15:58:03  -7.02  -6.81  -222.762381            -6.0,+0.0,+0.0
iter: 643  15:58:36  -7.21  -6.62  -222.762337            -6.0,-0.0,+0.0
iter: 644  15:59:08  -7.87  -6.80  -222.762336            -6.0,+0.0,+0.0
iter: 645  15:59:40  -9.13  -6.71  -222.762334            -6.0,+0.0,+0.0
iter: 646  16:00:12  -6.96  -6.75  -222.762432            -6.0,+0.0,+0.0
iter: 647  16:00:45  -7.15  -6.65  -222.762393            -6.0,-0.0,+0.0
iter: 648  16:01:17  -7.76  -6.74  -222.762400            -6.0,+0.0,+0.0
iter: 649  16:01:50  -8.98  -6.65  -222.762378            -6.0,+0.0,+0.0
iter: 650  16:02:22  -6.96  -6.71  -222.762361            -6.0,+0.0,+0.0
iter: 651  16:02:54  -7.14  -6.77  -222.762333            -6.0,-0.0,+0.0
iter: 652  16:03:27  -7.77  -6.70  -222.762311            -6.0,+0.0,+0.0
iter: 653  16:03:59  -9.00  -6.63  -222.762304            -6.0,+0.0,+0.0
iter: 654  16:04:31  -6.93  -6.67  -222.762269            -6.0,+0.0,+0.0
iter: 655  16:05:04  -7.13  -6.82  -222.762234            -6.0,-0.0,+0.0
iter: 656  16:05:36  -7.78  -6.63  -222.762230            -6.0,+0.0,+0.0
iter: 657  16:06:08  -8.94  -6.55  -222.762210            -6.0,+0.0,+0.0
iter: 658  16:06:41  -6.90  -6.60  -222.762245            -6.0,+0.0,+0.0
iter: 659  16:07:13  -7.16  -6.91  -222.762194            -6.0,-0.0,+0.0
iter: 660  16:07:45  -7.82  -6.60  -222.762190            -6.0,+0.0,+0.0
iter: 661  16:08:18  -8.92  -6.53  -222.762192            -6.0,+0.0,+0.0
iter: 662  16:08:50  -6.93  -6.58  -222.762233            -6.0,+0.0,+0.0
iter: 663  16:09:23  -7.12  -6.84  -222.762184            -6.0,-0.0,+0.0
iter: 664  16:09:55  -7.77  -6.57  -222.762182            -6.0,+0.0,+0.0
iter: 665  16:10:27  -8.93  -6.49  -222.762168            -6.0,+0.0,+0.0
iter: 666  16:11:00  -6.94  -6.54  -222.762196            -6.0,+0.0,+0.0
iter: 667  16:11:32  -7.14  -6.84  -222.762155            -6.0,-0.0,+0.0
iter: 668  16:12:04  -7.79  -6.56  -222.762157            -6.0,+0.0,+0.0
iter: 669  16:12:37  -8.90  -6.49  -222.762138            -6.0,+0.0,+0.0
iter: 670  16:13:09  -6.96  -6.54  -222.762182            -6.0,+0.0,+0.0
iter: 671  16:13:42  -7.21  -6.91  -222.762135            -6.0,-0.0,+0.0
iter: 672  16:14:14  -7.81  -6.57  -222.762127            -6.0,+0.0,+0.0
iter: 673  16:14:46  -8.91  -6.51  -222.762133            -6.0,+0.0,+0.0
iter: 674  16:15:19  -7.12  -6.56  -222.762168            -6.0,+0.0,+0.0
iter: 675  16:15:51  -7.24  -6.83  -222.762130            -6.0,-0.0,+0.0
iter: 676  16:16:23  -7.93  -6.59  -222.762115            -6.0,+0.0,+0.0
iter: 677  16:16:56  -9.17  -6.52  -222.762120            -6.0,+0.0,+0.0
iter: 678  16:17:28  -6.89  -6.57  -222.762201            -6.0,+0.0,+0.0
iter: 679  16:18:00  -7.11  -6.55  -222.762142            -6.0,-0.0,+0.0
iter: 680  16:18:33  -7.80  -6.60  -222.762110            -6.0,+0.0,+0.0
iter: 681  16:19:05  -9.02  -6.51  -222.762123            -6.0,+0.0,+0.0
iter: 682  16:19:37  -7.03  -6.56  -222.762212            -6.0,+0.0,+0.0
iter: 683  16:20:09  -7.24  -6.67  -222.762165            -6.0,-0.0,+0.0
iter: 684  16:20:42  -7.86  -6.60  -222.762149            -6.0,+0.0,+0.0
iter: 685  16:21:14  -9.04  -6.57  -222.762157            -6.0,+0.0,+0.0
iter: 686  16:21:47  -7.11  -6.62  -222.762201            -6.0,+0.0,+0.0
iter: 687  16:22:19  -7.27  -6.52  -222.762157            -6.0,-0.0,+0.0
iter: 688  16:22:51  -7.96  -6.67  -222.762155            -6.0,+0.0,+0.0
iter: 689  16:23:24  -8.82  -6.53  -222.762159            -6.0,+0.0,+0.0
iter: 690  16:23:56  -7.17  -6.62  -222.762197            -6.0,+0.0,+0.0
iter: 691  16:24:28  -7.40  -6.61  -222.762159            -6.0,-0.0,+0.0
iter: 692  16:25:00  -8.03  -6.64  -222.762159            -6.0,+0.0,+0.0
iter: 693  16:25:33  -9.08  -6.63  -222.762165            -6.0,+0.0,+0.0
iter: 694  16:26:05  -7.16  -6.69  -222.762241            -6.0,+0.0,+0.0
iter: 695  16:26:38  -7.29  -6.51  -222.762173            -6.0,-0.0,+0.0
iter: 696  16:27:10  -8.03  -6.56  -222.762166            -6.0,+0.0,+0.0
iter: 697  16:27:42  -9.28  -6.73  -222.762174            -6.0,+0.0,+0.0
iter: 698  16:28:15  -6.81  -6.75  -222.762311            -6.0,+0.0,+0.0
iter: 699  16:28:47  -7.06  -6.40  -222.762203            -6.0,-0.0,+0.0
iter: 700  16:29:20  -7.63  -6.70  -222.762190            -6.0,+0.0,+0.0
iter: 701  16:29:52  -8.90  -6.76  -222.762221            -6.0,+0.0,+0.0
iter: 702  16:30:24  -7.00  -6.71  -222.762208            -6.0,+0.0,+0.0
iter: 703  16:30:57  -7.14  -6.39  -222.762185            -6.0,-0.0,+0.0
iter: 704  16:31:29  -7.81  -6.70  -222.762186            -6.0,+0.0,+0.0
iter: 705  16:32:02  -9.00  -6.75  -222.762187            -6.0,+0.0,+0.0
iter: 706  16:32:34  -6.84  -6.64  -222.762242            -6.0,+0.0,+0.0
iter: 707  16:33:06  -7.08  -6.35  -222.762240            -6.0,-0.0,+0.0
iter: 708  16:33:39  -7.67  -6.49  -222.762174            -6.0,+0.0,+0.0
iter: 709  16:34:11  -8.82  -6.64  -222.762190            -6.0,+0.0,+0.0
iter: 710  16:34:43  -7.00  -6.54  -222.762262            -6.0,+0.0,+0.0
iter: 711  16:35:16  -7.14  -6.38  -222.762257            -6.0,-0.0,+0.0
iter: 712  16:35:48  -7.79  -6.38  -222.762256            -6.0,+0.0,+0.0
iter: 713  16:36:20  -8.95  -6.31  -222.762166            -6.0,+0.0,+0.0
iter: 714  16:36:52  -7.07  -6.71  -222.762242            -6.0,+0.0,+0.0
iter: 715  16:37:25  -7.20  -6.44  -222.762224            -6.0,-0.0,+0.0
iter: 716  16:37:57  -7.90  -6.34  -222.762162            -6.0,+0.0,+0.0
iter: 717  16:38:29  -9.06  -6.67  -222.762184            -6.0,+0.0,+0.0
iter: 718  16:39:02  -6.91  -6.70  -222.762240            -6.0,+0.0,+0.0
iter: 719  16:39:34  -7.14  -6.47  -222.762240            -6.0,-0.0,+0.0
iter: 720  16:40:06  -7.77  -6.26  -222.762210            -6.0,+0.0,+0.0
iter: 721  16:40:38  -8.91  -6.38  -222.762200            -6.0,+0.0,+0.0
iter: 722  16:41:11  -6.89  -6.46  -222.762263            -6.0,+0.0,+0.0
iter: 723  16:41:43  -7.14  -6.18  -222.762229            -6.0,-0.0,+0.0
iter: 724  16:42:15  -7.80  -6.39  -222.762302            -6.0,+0.0,+0.0
iter: 725  16:42:47  -8.90  -6.40  -222.762333            -6.0,+0.0,+0.0
iter: 726  16:43:20  -6.97  -6.38  -222.762291            -6.0,+0.0,+0.0
iter: 727  16:43:52  -7.18  -6.16  -222.762371            -6.0,-0.0,+0.0
iter: 728  16:44:24  -7.76  -6.33  -222.762410            -6.0,+0.0,+0.0
iter: 729  16:44:57  -9.00  -6.44  -222.762525            -6.0,+0.0,+0.0
iter: 730  16:45:29  -6.97  -6.33  -222.762497            -6.0,+0.0,+0.0
iter: 731  16:46:01  -7.07  -6.18  -222.762392            -6.0,-0.0,+0.0
iter: 732  16:46:34  -7.83  -6.34  -222.762291            -6.0,+0.0,+0.0
iter: 733  16:47:06  -9.04  -6.34  -222.762305            -6.0,+0.0,+0.0
iter: 734  16:47:39  -6.81  -6.27  -222.762431            -6.0,+0.0,+0.0
iter: 735  16:48:11  -7.09  -6.21  -222.762303            -6.0,-0.0,+0.0
iter: 736  16:48:44  -7.71  -6.23  -222.762202            -6.0,+0.0,+0.0
iter: 737  16:49:16  -8.91  -6.10  -222.762374            -6.0,+0.0,+0.0
iter: 738  16:49:49  -7.03  -6.37  -222.762531            -6.0,+0.0,+0.0
iter: 739  16:50:21  -7.26  -6.26  -222.762417            -6.0,-0.0,+0.0
iter: 740  16:50:53  -7.99  -6.27  -222.762461            -6.0,+0.0,+0.0
iter: 741  16:51:26  -9.00  -6.38  -222.762402            -6.0,-0.0,+0.0
iter: 742  16:51:58  -7.08  -6.47  -222.762359            -6.0,+0.0,+0.0
iter: 743  16:52:31  -7.26  -6.49  -222.762319            -6.0,-0.0,+0.0
iter: 744  16:53:03  -7.85  -6.48  -222.762373            -6.0,+0.0,+0.0
iter: 745  16:53:36  -8.97  -6.35  -222.762260            -6.0,+0.0,+0.0
iter: 746  16:54:08  -7.44  -6.22  -222.762365            -6.0,+0.0,+0.0
iter: 747  16:54:41  -7.58  -6.55  -222.762311            -6.0,-0.0,+0.0
iter: 748  16:55:14  -8.33  -6.76  -222.762298            -6.0,+0.0,+0.0
iter: 749  16:55:46  -9.44  -6.82  -222.762292            -6.0,-0.0,+0.0
iter: 750  16:56:19  -6.80  -6.79  -222.762356            -6.0,+0.0,+0.0
iter: 751  16:56:51  -7.13  -6.37  -222.762296            -6.0,-0.0,+0.0
iter: 752  16:57:24  -7.69  -6.67  -222.762270            -6.0,+0.0,+0.0
iter: 753  16:57:56  -8.88  -6.80  -222.762270            -6.0,+0.0,+0.0
iter: 754  16:58:29  -7.08  -6.79  -222.762292            -6.0,+0.0,+0.0
iter: 755  16:59:01  -7.18  -6.48  -222.762253            -6.0,-0.0,+0.0
iter: 756  16:59:34  -7.88  -6.85  -222.762245            -6.0,+0.0,+0.0
iter: 757  17:00:06  -9.08  -6.90  -222.762248            -6.0,-0.0,+0.0
iter: 758  17:00:38  -6.84  -6.88  -222.762310            -6.0,+0.0,+0.0
iter: 759  17:01:11  -7.12  -6.42  -222.762255            -6.0,-0.0,+0.0
iter: 760  17:01:44  -7.74  -6.80  -222.762242            -6.0,+0.0,+0.0
iter: 761  17:02:16  -8.84  -6.87  -222.762249            -6.0,+0.0,+0.0
iter: 762  17:02:48  -7.16  -6.85  -222.762296            -6.0,+0.0,+0.0
iter: 763  17:03:21  -7.22  -6.47  -222.762232            -6.0,-0.0,+0.0
iter: 764  17:03:53  -7.89  -7.03  -222.762227            -6.0,+0.0,+0.0
iter: 765  17:04:26  -9.13  -7.14  -222.762228            -6.0,-0.0,+0.0
iter: 766  17:04:58  -6.80  -7.09  -222.762275            -6.0,+0.0,+0.0
iter: 767  17:05:31  -7.03  -6.39  -222.762219            -6.0,-0.0,+0.0
iter: 768  17:06:03  -7.60  -6.88  -222.762201            -6.0,+0.0,+0.0
iter: 769  17:06:36  -8.83  -7.12  -222.762210            -6.0,-0.0,+0.0
iter: 770  17:07:08  -7.00  -7.00  -222.762247            -6.0,+0.0,+0.0
iter: 771  17:07:40  -7.16  -6.42  -222.762218            -6.0,-0.0,+0.0
iter: 772  17:08:13  -7.80  -6.99  -222.762204            -6.0,+0.0,+0.0
iter: 773  17:08:45  -9.00  -7.31  -222.762211            -6.0,-0.0,+0.0
iter: 774  17:09:18  -6.81  -7.07  -222.762263            -6.0,+0.0,+0.0
iter: 775  17:09:50  -7.15  -6.44  -222.762216            -6.0,-0.0,+0.0
iter: 776  17:10:23  -7.76  -7.01  -222.762204            -6.0,+0.0,+0.0
iter: 777  17:10:55  -8.83  -7.22  -222.762209            -6.0,-0.0,+0.0
iter: 778  17:11:28  -7.15  -7.02  -222.762250            -6.0,+0.0,+0.0
iter: 779  17:12:00  -7.20  -6.53  -222.762202            -6.0,-0.0,+0.0
iter: 780  17:12:33  -7.84  -7.13  -222.762196            -6.0,+0.0,+0.0
iter: 781  17:13:05  -9.09  -7.32  -222.762202            -6.0,-0.0,+0.0
iter: 782  17:13:37  -6.76  -7.18  -222.762266            -6.0,+0.0,+0.0
iter: 783  17:14:10  -7.13  -6.43  -222.762211            -6.0,-0.0,+0.0
iter: 784  17:14:42  -7.77  -6.98  -222.762201            -6.0,+0.0,+0.0
iter: 785  17:15:15  -8.77  -7.26  -222.762210            -6.0,-0.0,+0.0
iter: 786  17:15:47  -7.34  -7.07  -222.762254            -6.0,+0.0,+0.0
iter: 787  17:16:20  -7.36  -6.55  -222.762208            -6.0,-0.0,+0.0
iter: 788  17:16:52  -7.97  -7.16  -222.762197            -6.0,+0.0,+0.0
iter: 789  17:17:25  -9.21  -7.15  -222.762206            -6.0,-0.0,+0.0
iter: 790  17:17:57  -7.06  -7.13  -222.762270            -6.0,+0.0,+0.0
iter: 791  17:18:30  -7.28  -6.47  -222.762212            -6.0,-0.0,+0.0
iter: 792  17:19:02  -7.96  -7.07  -222.762205            -6.0,+0.0,+0.0
iter: 793  17:19:34  -8.94  -7.27  -222.762216            -6.0,-0.0,+0.0
iter: 794  17:20:07  -7.35  -7.08  -222.762252            -6.0,+0.0,+0.0
iter: 795  17:20:39  -7.44  -6.57  -222.762209            -6.0,-0.0,+0.0
iter: 796  17:21:11  -7.98  -7.22  -222.762201            -6.0,+0.0,+0.0
iter: 797  17:21:44  -9.06  -7.35  -222.762206            -6.0,-0.0,+0.0
iter: 798  17:22:17  -7.12  -7.28  -222.762260            -6.0,+0.0,+0.0
iter: 799  17:22:49  -7.21  -6.53  -222.762206            -6.0,-0.0,+0.0
iter: 800  17:23:21  -7.89  -7.22  -222.762197            -6.0,+0.0,+0.0
iter: 801  17:23:54  -8.96  -7.39  -222.762205            -6.0,-0.0,+0.0
iter: 802  17:24:26  -7.05  -7.30  -222.762258            -6.0,+0.0,+0.0
iter: 803  17:24:59  -7.19  -6.51  -222.762206            -6.0,-0.0,+0.0
iter: 804  17:25:31  -7.83  -7.14  -222.762196            -6.0,+0.0,+0.0
iter: 805  17:26:04  -8.91  -7.40  -222.762203            -6.0,-0.0,+0.0
iter: 806  17:26:36  -7.09  -7.22  -222.762250            -6.0,+0.0,+0.0
iter: 807  17:27:09  -7.22  -6.55  -222.762203            -6.0,-0.0,+0.0
iter: 808  17:27:41  -7.90  -7.22  -222.762194            -6.0,+0.0,+0.0
iter: 809  17:28:13  -8.98  -7.37  -222.762200            -6.0,-0.0,+0.0
iter: 810  17:28:46  -7.06  -7.21  -222.762247            -6.0,+0.0,+0.0
iter: 811  17:29:18  -7.30  -6.54  -222.762203            -6.0,-0.0,+0.0
iter: 812  17:29:51  -7.94  -6.95  -222.762191            -6.0,+0.0,+0.0
iter: 813  17:30:23  -8.95  -7.40  -222.762197            -6.0,-0.0,+0.0
iter: 814  17:30:56  -7.17  -7.27  -222.762243            -6.0,+0.0,+0.0
iter: 815  17:31:29  -7.20  -6.61  -222.762201            -6.0,-0.0,+0.0
iter: 816  17:32:01  -7.86  -6.23  -222.762188            -6.0,+0.0,+0.0
iter: 817  17:32:33  -8.52  -6.45  -222.762197            -6.0,-0.0,+0.0
iter: 818  17:33:06  -7.27  -6.51  -222.762234            -6.0,+0.0,+0.0
iter: 819  17:33:38  -7.35  -6.47  -222.762176            -6.0,-0.0,+0.0
iter: 820  17:34:11  -7.94  -6.48  -222.762209            -6.0,+0.0,+0.0
iter: 821  17:34:43  -8.75  -6.48  -222.762434            -6.0,-0.0,+0.0
iter: 822  17:35:16  -7.32  -6.52  -222.762108            -6.0,+0.0,+0.0
iter: 823  17:35:48  -7.45  -6.64  -222.762099            -6.0,-0.0,+0.0
iter: 824  17:36:21  -8.12  -6.55  -222.762083            -6.0,+0.0,+0.0
iter: 825  17:36:53  -8.78  -6.41  -222.762084            -6.0,-0.0,+0.0
iter: 826  17:37:25  -7.27  -6.50  -222.762211            -6.0,+0.0,+0.0
iter: 827  17:37:58  -7.44  -6.38  -222.762142            -6.0,-0.0,+0.0
iter: 828  17:38:30  -8.11  -6.24  -222.762134            -6.0,-0.0,+0.0
iter: 829  17:39:03  -8.93  -6.30  -222.762158            -6.0,-0.0,+0.0
iter: 830  17:39:35  -6.81  -6.49  -222.762222            -6.0,+0.0,+0.0
iter: 831  17:40:07  -7.01  -6.29  -222.762166            -6.0,-0.0,+0.0
iter: 832  17:40:40  -7.98  -6.41  -222.762133            -6.0,+0.0,+0.0
iter: 833  17:41:12  -8.92  -6.31  -222.762115            -6.0,-0.0,+0.0
iter: 834  17:41:45  -7.84  -6.51  -222.762212            -6.0,+0.0,+0.0
iter: 835  17:42:17  -7.88  -6.55  -222.762234            -6.0,-0.0,+0.0
iter: 836  17:42:50  -8.10  -6.94  -222.762195            -6.0,+0.0,+0.0
iter: 837  17:43:22  -8.77  -6.45  -222.762226            -6.0,+0.0,+0.0
iter: 838  17:43:55  -7.17  -6.34  -222.762303            -6.0,+0.0,+0.0
iter: 839  17:44:27  -7.29  -6.00  -222.762110            -6.0,-0.0,+0.0
iter: 840  17:45:00  -7.86  -6.35  -222.762041            -6.0,+0.0,+0.0
iter: 841  17:45:32  -8.03  -6.10  -222.761961            -6.0,+0.0,+0.0
iter: 842  17:46:05  -8.56  -6.36  -222.761844            -6.0,+0.0,+0.0
iter: 843  17:46:37  -8.61  -6.40  -222.762031            -6.0,-0.0,+0.0
iter: 844  17:47:10  -8.25  -6.67  -222.762068            -6.0,-0.0,+0.0
iter: 845  17:47:42  -8.23  -6.28  -222.762091            -6.0,-0.0,+0.0
iter: 846  17:48:14  -8.68  -6.75  -222.761980            -6.0,-0.0,+0.0
iter: 847  17:48:47  -8.18  -6.72  -222.762014            -6.0,+0.0,+0.0
iter: 848  17:49:19  -8.01  -6.70  -222.762030            -6.0,+0.0,+0.0
iter: 849  17:49:51  -8.09  -6.44  -222.762043            -6.0,+0.0,+0.0
iter: 850  17:50:24  -8.19  -6.74  -222.762046            -6.0,+0.0,+0.0
iter: 851  17:50:56  -7.58  -6.51  -222.762077            -6.0,+0.0,+0.0
iter: 852  17:51:28  -7.50  -6.43  -222.762055            -6.0,+0.0,+0.0
iter: 853  17:52:01  -8.26  -5.93  -222.762063            -6.0,+0.0,+0.0
iter: 854  17:52:34  -8.69  -5.88  -222.762045            -6.0,+0.0,+0.0
iter: 855  17:53:06  -7.70  -5.84  -222.762079            -6.0,+0.0,+0.0
iter: 856  17:53:38  -6.09  -5.73  -222.761927            -6.0,-0.0,+0.0
iter: 857  17:54:11  -7.24  -6.18  -222.761820            -6.0,-0.0,+0.0
iter: 858  17:54:43  -6.57  -6.16  -222.762175            -6.0,+0.0,+0.0
iter: 859  17:55:16  -5.99  -5.75  -222.762194            -6.0,-0.0,-0.0
iter: 860  17:55:48  -6.68  -5.98  -222.762183            -6.0,-0.0,+0.0
iter: 861  17:56:20  -7.49  -5.80  -222.762109            -6.0,+0.0,+0.0
iter: 862  17:56:53  -7.21  -6.31  -222.762065            -6.0,-0.0,-0.0
iter: 863  17:57:25  -8.20  -5.88  -222.762080            -6.0,-0.0,+0.0
iter: 864  17:57:58  -7.20  -6.01  -222.762247            -6.0,-0.0,+0.0
iter: 865  17:58:30  -6.84  -6.11  -222.762139            -6.0,-0.0,+0.0
iter: 866  17:59:02  -7.82  -6.25  -222.762283            -6.0,-0.0,+0.0
iter: 867  17:59:35  -7.17  -6.25  -222.762391            -6.0,-0.0,+0.0
iter: 868  18:00:07  -7.88  -5.94  -222.762336            -6.0,-0.0,-0.0
iter: 869  18:00:40  -8.44  -5.76  -222.762392            -6.0,-0.0,+0.0
iter: 870  18:01:12  -7.84  -5.81  -222.762624            -6.0,-0.0,-0.0
iter: 871  18:01:44  -6.77  -5.65  -222.762197            -6.0,-0.0,-0.0
iter: 872  18:02:17  -6.87  -5.53  -222.762524            -6.0,-0.0,-0.0
iter: 873  18:02:49  -6.59  -5.70  -222.762231            -6.0,-0.0,+0.0
iter: 874  18:03:21  -6.60  -5.68  -222.762184            -6.0,-0.0,-0.0
iter: 875  18:03:54  -7.54  -5.80  -222.762473            -6.0,-0.0,+0.0
iter: 876  18:04:26  -7.59  -6.07  -222.762476            -6.0,-0.0,+0.0
iter: 877  18:04:59  -6.69  -6.18  -222.762469            -6.0,-0.0,+0.0
iter: 878  18:05:31  -7.06  -5.77  -222.762382            -6.0,-0.0,+0.0
iter: 879  18:06:03  -7.50  -6.28  -222.762357            -6.0,-0.0,+0.0
iter: 880  18:06:36  -6.88  -5.84  -222.762328            -6.0,-0.0,-0.0
iter: 881  18:07:08  -6.19  -5.90  -222.762204            -6.0,-0.0,-0.0
iter: 882  18:07:41  -6.50  -5.49  -222.762437            -6.0,-0.0,-0.0
iter: 883  18:08:13  -7.54  -5.88  -222.762588            -6.0,-0.0,-0.0
iter: 884  18:08:45  -7.22  -5.70  -222.762351            -6.0,-0.0,-0.0
iter: 885  18:09:18  -5.50  -5.86  -222.761844            -6.0,-0.0,+0.0
iter: 886  18:09:50  -5.85  -5.22  -222.762296            -6.0,-0.0,-0.0
iter: 887  18:10:22  -7.31  -5.92  -222.762284            -6.0,-0.0,-0.0
iter: 888  18:10:55  -6.65  -5.71  -222.762306            -6.0,-0.0,+0.0
iter: 889  18:11:27  -6.97  -6.20  -222.762206            -6.0,-0.0,-0.0
iter: 890  18:11:59  -6.89  -5.70  -222.762168            -6.0,-0.0,-0.0
iter: 891  18:12:32  -7.42  -5.83  -222.762158            -6.0,-0.0,-0.0
iter: 892  18:13:04  -7.90  -5.71  -222.761813            -6.0,-0.0,+0.0
iter: 893  18:13:37  -7.81  -6.05  -222.761952            -6.0,-0.0,-0.0
iter: 894  18:14:09  -7.26  -5.86  -222.761668            -6.0,-0.0,-0.0
iter: 895  18:14:42  -7.42  -5.98  -222.761585            -6.0,-0.0,-0.0
iter: 896  18:15:14  -8.00  -5.91  -222.761785            -6.0,-0.0,-0.0
iter: 897  18:15:46  -7.37  -5.96  -222.762533            -6.0,-0.0,-0.0
iter: 898  18:16:19  -7.21  -5.86  -222.762352            -6.0,-0.0,-0.0
iter: 899  18:16:51  -7.73  -5.50  -222.762349            -6.0,-0.0,-0.0
iter: 900  18:17:23  -7.30  -5.80  -222.762350            -6.0,-0.0,+0.0
iter: 901  18:17:56  -6.99  -6.12  -222.762200            -6.0,-0.0,+0.0
iter: 902  18:18:28  -7.33  -5.95  -222.762109            -6.0,-0.0,+0.0
iter: 903  18:19:00  -7.08  -5.77  -222.762174            -6.0,-0.0,+0.0
iter: 904  18:19:33  -6.72  -6.01  -222.762112            -6.0,-0.0,-0.0
iter: 905  18:20:05  -7.43  -5.58  -222.761944            -6.0,-0.0,-0.0
iter: 906  18:20:38  -6.66  -5.76  -222.762036            -6.0,-0.0,+0.0
iter: 907  18:21:10  -7.58  -5.77  -222.762046            -6.0,-0.0,-0.0
iter: 908  18:21:42  -6.91  -5.88  -222.762058            -6.0,-0.0,-0.0
iter: 909  18:22:15  -6.78  -5.81  -222.761884            -6.0,-0.0,+0.0
iter: 910  18:22:47  -6.89  -5.54  -222.762123            -6.0,-0.0,+0.0
iter: 911  18:23:19  -6.93  -5.65  -222.761962            -6.0,-0.0,-0.0
iter: 912  18:23:52  -6.87  -5.26  -222.762198            -6.0,-0.0,-0.0
iter: 913  18:24:25  -7.19  -6.08  -222.762187            -6.0,+0.0,-0.0
iter: 914  18:24:57  -7.13  -5.46  -222.762186            -6.0,-0.0,-0.0
iter: 915  18:25:30  -6.95  -5.81  -222.762199            -6.0,-0.0,-0.0
iter: 916  18:26:02  -7.22  -5.75  -222.762158            -6.0,-0.0,-0.0
iter: 917  18:26:34  -6.54  -5.89  -222.762117            -6.0,-0.0,+0.0
iter: 918  18:27:07  -7.47  -5.51  -222.762132            -6.0,-0.0,+0.0
iter: 919  18:27:39  -6.57  -5.46  -222.762172            -6.0,-0.0,-0.0
iter: 920  18:28:12  -6.20  -5.40  -222.762006            -6.0,-0.0,-0.0
iter: 921  18:28:44  -7.10  -5.55  -222.762052            -6.0,-0.0,-0.0
iter: 922  18:29:16  -6.48  -5.44  -222.761947            -6.0,-0.0,-0.0
iter: 923  18:29:49  -6.94  -5.79  -222.761930            -6.0,-0.0,-0.0
iter: 924  18:30:21  -6.07  -5.89  -222.761985            -6.0,+0.0,-0.0
iter: 925  18:30:54  -7.02  -5.38  -222.762055            -6.0,-0.0,-0.0
iter: 926  18:31:26  -7.29  -5.56  -222.761997            -6.0,-0.0,-0.0
iter: 927  18:31:59  -7.57  -5.69  -222.761842            -6.0,-0.0,-0.0
iter: 928  18:32:31  -6.72  -5.71  -222.761777            -6.0,-0.0,-0.0
iter: 929  18:33:03  -7.68  -5.52  -222.762025            -6.0,-0.0,-0.0
iter: 930  18:33:35  -7.27  -5.54  -222.761426            -6.0,-0.0,-0.0
iter: 931  18:34:08  -7.26  -5.63  -222.761394            -6.0,-0.0,-0.0
iter: 932  18:34:40  -6.80  -5.62  -222.761422            -6.0,-0.0,-0.0
iter: 933  18:35:12  -7.14  -5.48  -222.760919            -6.0,-0.0,+0.0
iter: 934  18:35:45  -6.69  -5.84  -222.760688            -6.0,-0.0,-0.0
iter: 935  18:36:17  -6.06  -5.41  -222.761814            -6.0,-0.0,-0.0
iter: 936  18:36:49  -6.65  -5.76  -222.761624            -6.0,+0.0,-0.0
iter: 937  18:37:22  -6.73  -5.89  -222.762000            -6.0,-0.0,-0.0
iter: 938  18:37:54  -6.91  -5.59  -222.761299            -6.0,-0.0,-0.0
iter: 939  18:38:26  -6.34  -5.94  -222.762043            -6.0,-0.0,-0.0
iter: 940  18:38:59  -6.46  -5.94  -222.761573            -6.0,+0.0,+0.0
iter: 941  18:39:31  -6.38  -5.43  -222.760892            -6.0,-0.0,+0.0
iter: 942  18:40:03  -6.30  -5.46  -222.760796            -6.0,-0.0,-0.0
iter: 943  18:40:36  -7.33  -5.82  -222.761766            -6.0,-0.0,-0.0
iter: 944  18:41:08  -7.15  -6.01  -222.761002            -6.0,-0.0,-0.0
iter: 945  18:41:40  -7.19  -5.82  -222.761217            -6.0,-0.0,-0.0
iter: 946  18:42:12  -6.63  -5.78  -222.760970            -6.0,-0.0,+0.0
iter: 947  18:42:45  -7.02  -5.86  -222.760853            -6.0,-0.0,+0.0
iter: 948  18:43:17  -7.37  -5.82  -222.761141            -6.0,-0.0,-0.0
iter: 949  18:43:49  -6.70  -5.71  -222.761526            -6.0,-0.0,-0.0
iter: 950  18:44:22  -5.86  -5.40  -222.759122            -6.0,-0.0,+0.0
iter: 951  18:44:54  -6.02  -5.23  -222.762014            -6.0,-0.0,-0.0
iter: 952  18:45:26  -6.81  -5.39  -222.762743            -6.0,-0.0,-0.0
iter: 953  18:45:59  -6.88  -4.91  -222.761793            -6.0,-0.0,-0.0
iter: 954  18:46:31  -6.38  -5.58  -222.760908            -6.0,-0.0,-0.0
iter: 955  18:47:04  -7.03  -5.92  -222.760129            -6.0,-0.0,-0.0
iter: 956  18:47:36  -6.44  -5.90  -222.761049            -6.0,-0.0,+0.0
iter: 957  18:48:09  -6.26  -5.68  -222.761293            -6.0,-0.0,-0.0
[...]
iter: 4731  04:40:53  -8.58  -6.48  -222.761925            -6.0,+0.0,-0.2
iter: 4732  04:41:26  -7.54  -6.13  -222.761925            -6.0,+0.0,-0.2
iter: 4733  04:41:58  -8.79  -6.45  -222.761930            -6.0,+0.0,-0.2
iter: 4734  04:42:31  -9.22  -6.92  -222.761924            -6.0,+0.0,-0.2
iter: 4735  04:43:03  -8.78  -6.84  -222.761938            -6.0,+0.0,-0.2
iter: 4736  04:43:35  -8.70  -6.51  -222.761935            -6.0,+0.0,-0.2
iter: 4737  04:44:08  -8.80  -6.32  -222.761939            -6.0,+0.0,-0.2
iter: 4738  04:44:40  -8.42  -6.66  -222.761943            -6.0,+0.0,-0.2
iter: 4739  04:45:12  -9.29  -6.64  -222.761946            -6.0,+0.0,-0.2
iter: 4740  04:45:45  -8.68  -6.68  -222.761912            -6.0,+0.0,-0.2
iter: 4741  04:46:17  -8.56  -6.50  -222.761930            -6.0,+0.0,-0.2
iter: 4742  04:46:49  -9.05  -6.80  -222.761935            -6.0,+0.0,-0.2
iter: 4743  04:47:22 -10.00  -6.64  -222.761902            -6.0,+0.0,-0.2
iter: 4744  04:47:54 -10.26  -6.92  -222.761923            -6.0,+0.0,-0.2
iter: 4745  04:48:26  -8.50  -6.74  -222.761839            -6.0,+0.0,-0.2
iter: 4746  04:48:59  -8.75  -6.30  -222.761880            -6.0,+0.0,-0.2
iter: 4747  04:49:31  -9.78  -6.66  -222.761831            -6.0,+0.0,-0.2
iter: 4748  04:50:03  -8.69  -6.55  -222.761852            -6.0,+0.0,-0.2
iter: 4749  04:50:36  -7.26  -6.33  -222.761834            -6.0,+0.0,-0.2
iter: 4750  04:51:08  -7.59  -6.00  -222.761907            -6.0,+0.0,-0.2
iter: 4751  04:51:40  -8.81  -6.59  -222.761808            -6.0,+0.0,-0.2
iter: 4752  04:52:13  -8.36  -6.48  -222.761820            -6.0,+0.0,-0.2
iter: 4753  04:52:45  -7.70  -6.28  -222.761851            -6.0,+0.0,-0.2
iter: 4754  04:53:17  -8.34  -6.29  -222.761901            -6.0,+0.0,-0.2
iter: 4755  04:53:49  -9.84  -6.71  -222.761914            -6.0,+0.0,-0.2
iter: 4756  04:54:21  -8.29  -6.69  -222.761912            -6.0,+0.0,-0.2
iter: 4757  04:54:54  -7.70  -6.27  -222.761927            -6.0,+0.0,-0.2
iter: 4758  04:55:26  -8.23  -6.35  -222.761899            -6.0,+0.0,-0.2
iter: 4759  04:55:58  -9.56  -6.59  -222.761956            -6.0,+0.0,-0.2
iter: 4760  04:56:31  -9.74  -6.52  -222.761842            -6.0,+0.0,-0.2
iter: 4761  04:57:03  -9.54  -6.70  -222.761815            -6.0,+0.0,-0.2
iter: 4762  04:57:35  -7.86  -6.74  -222.761806            -6.0,+0.0,-0.2
iter: 4763  04:58:07  -8.54  -6.11  -222.761806            -6.0,+0.0,-0.2
iter: 4764  04:58:40  -8.18  -6.35  -222.761826            -6.0,+0.0,-0.2
iter: 4765  04:59:12  -9.37  -6.94  -222.761842            -6.0,+0.0,-0.2
iter: 4766  04:59:45  -8.36  -6.80  -222.761848            -6.0,+0.0,-0.2
iter: 4767  05:00:17  -8.38  -6.27  -222.761846            -6.0,+0.0,-0.2
iter: 4768  05:00:49  -9.85  -6.80  -222.761834            -6.0,+0.0,-0.2
iter: 4769  05:01:22 -10.02  -6.81  -222.761831            -6.0,+0.0,-0.2
iter: 4770  05:01:54  -8.40  -6.88  -222.761821            -6.0,+0.0,-0.2
iter: 4771  05:02:26  -8.11  -6.48  -222.761817            -6.0,+0.0,-0.2
iter: 4772  05:02:59  -9.32  -6.51  -222.761816            -6.0,+0.0,-0.2
iter: 4773  05:03:31  -9.90  -6.86  -222.761841            -6.0,+0.0,-0.2
iter: 4774  05:04:03  -8.21  -7.04  -222.761835            -6.0,+0.0,-0.2
iter: 4775  05:04:36  -8.04  -6.35  -222.761824            -6.0,+0.0,-0.2
iter: 4776  05:05:08  -8.91  -6.48  -222.761838            -6.0,+0.0,-0.2
iter: 4777  05:05:40  -9.82  -7.36  -222.761836            -6.0,+0.0,-0.2
iter: 4778  05:06:13  -8.45  -6.93  -222.761819            -6.0,+0.0,-0.2
iter: 4779  05:06:45  -9.67  -6.45  -222.761817            -6.0,+0.0,-0.2
iter: 4780  05:07:18 -10.23  -6.62  -222.761820            -6.0,+0.0,-0.2
iter: 4781  05:07:50  -8.60  -6.55  -222.761828            -6.0,+0.0,-0.2
iter: 4782  05:08:22  -8.65  -7.15  -222.761804            -6.0,+0.0,-0.2
iter: 4783  05:08:55  -8.91  -6.60  -222.761811            -6.0,+0.0,-0.2
iter: 4784  05:09:27  -8.78  -6.99  -222.761808            -6.0,+0.0,-0.2
iter: 4785  05:09:59  -8.58  -6.61  -222.761803            -6.0,+0.0,-0.2
iter: 4786  05:10:32  -9.20  -6.74  -222.761804            -6.0,+0.0,-0.2
iter: 4787  05:11:04  -9.04  -6.97  -222.761805            -6.0,+0.0,-0.2
iter: 4788  05:11:36  -8.30  -7.07  -222.761804            -6.0,+0.0,-0.2
iter: 4789  05:12:08  -7.76  -6.43  -222.761805            -6.0,+0.0,-0.2
iter: 4790  05:12:41  -8.58  -6.27  -222.761807            -6.0,+0.0,-0.2
iter: 4791  05:13:13  -9.16  -6.77  -222.761805            -6.0,+0.0,-0.2
iter: 4792  05:13:45  -9.44  -7.15  -222.761807            -6.0,+0.0,-0.2
iter: 4793  05:14:18  -8.02  -7.13  -222.761805            -6.0,+0.0,-0.2
iter: 4794  05:14:50  -8.04  -6.22  -222.761809            -6.0,+0.0,-0.2
iter: 4795  05:15:22  -7.39  -5.98  -222.761804            -6.0,+0.0,-0.2
iter: 4796  05:15:55  -8.35  -6.40  -222.761805            -6.0,+0.0,-0.2
iter: 4797  05:16:27  -8.64  -6.82  -222.761809            -6.0,+0.0,-0.2
iter: 4798  05:16:59  -8.66  -6.32  -222.761812            -6.0,+0.0,-0.2
iter: 4799  05:17:31  -7.84  -6.19  -222.761795            -6.0,+0.0,-0.2
iter: 4800  05:18:04  -8.65  -6.78  -222.761793            -6.0,+0.0,-0.2
iter: 4801  05:18:36  -9.31  -6.57  -222.761804            -6.0,+0.0,-0.2
iter: 4802  05:19:09  -9.12  -6.46  -222.761807            -6.0,+0.0,-0.2
iter: 4803  05:19:41  -7.73  -6.35  -222.761798            -6.0,+0.0,-0.2
iter: 4804  05:20:14  -8.73  -6.40  -222.761799            -6.0,+0.0,-0.2
iter: 4805  05:20:46  -8.86  -7.35  -222.761805            -6.0,+0.0,-0.2
iter: 4806  05:21:18  -8.26  -6.91  -222.761805            -6.0,+0.0,-0.2
iter: 4807  05:21:51  -7.75  -6.30  -222.761800            -6.0,+0.0,-0.2
iter: 4808  05:22:23  -8.66  -6.38  -222.761803            -6.0,+0.0,-0.2
iter: 4809  05:22:55  -9.20  -7.40  -222.761802            -6.0,+0.0,-0.2
iter: 4810  05:23:28  -8.05  -6.76  -222.761805            -6.0,+0.0,-0.2
iter: 4811  05:24:00  -8.25  -6.35  -222.761803            -6.0,+0.0,-0.2
iter: 4812  05:24:32  -9.28  -6.80  -222.761804            -6.0,+0.0,-0.2
iter: 4813  05:25:05  -8.13  -6.99  -222.761809            -6.0,+0.0,-0.2
iter: 4814  05:25:37  -8.81  -6.21  -222.761806            -6.0,+0.0,-0.2
iter: 4815  05:26:09  -7.59  -6.19  -222.761802            -6.0,+0.0,-0.2
iter: 4816  05:26:41  -9.12  -6.43  -222.761804            -6.0,+0.0,-0.2
iter: 4817  05:27:14  -9.17  -6.82  -222.761801            -6.0,+0.0,-0.2
iter: 4818  05:27:46  -7.53  -6.50  -222.761807            -6.0,+0.0,-0.2
iter: 4819  05:28:18  -7.80  -6.09  -222.761803            -6.0,+0.0,-0.2
iter: 4820  05:28:50  -9.21  -6.76  -222.761806            -6.0,+0.0,-0.2
iter: 4821  05:29:23  -9.94  -7.05  -222.761812            -6.0,+0.0,-0.2
iter: 4822  05:29:55  -9.05  -6.84  -222.761801            -6.0,+0.0,-0.2
iter: 4823  05:30:27  -7.42  -6.50  -222.761753            -6.0,+0.0,-0.2
iter: 4824  05:31:00  -8.81  -6.01  -222.761738            -6.0,+0.0,-0.2
iter: 4825  05:31:32  -8.57  -6.08  -222.761769            -6.0,+0.0,-0.2
iter: 4826  05:32:04  -7.52  -5.96  -222.761672            -6.0,+0.0,-0.2
iter: 4827  05:32:36  -8.28  -6.96  -222.761720            -6.0,+0.0,-0.2
iter: 4828  05:33:09  -9.02  -6.24  -222.761736            -6.0,+0.0,-0.2
iter: 4829  05:33:41  -8.21  -6.49  -222.761722            -6.0,+0.0,-0.2
iter: 4830  05:34:13  -7.97  -6.79  -222.761727            -6.0,+0.0,-0.2
iter: 4831  05:34:45  -8.85  -6.21  -222.761725            -6.0,+0.0,-0.2
iter: 4832  05:35:18  -9.05  -6.56  -222.761742            -6.0,+0.0,-0.2
iter: 4833  05:35:50  -8.49  -6.89  -222.761769            -6.0,+0.0,-0.2
iter: 4834  05:36:23  -7.42  -6.70  -222.761752            -6.0,+0.0,-0.2
iter: 4835  05:36:55  -8.56  -5.95  -222.761755            -6.0,+0.0,-0.2
iter: 4836  05:37:27  -8.11  -6.20  -222.761771            -6.0,+0.0,-0.2
iter: 4837  05:38:00  -8.33  -7.04  -222.761771            -6.0,+0.0,-0.2
iter: 4838  05:38:32  -7.41  -6.68  -222.761757            -6.0,+0.0,-0.2
iter: 4839  05:39:04  -8.60  -5.95  -222.761763            -6.0,+0.0,-0.2
iter: 4840  05:39:37  -8.54  -6.17  -222.761771            -6.0,+0.0,-0.2
iter: 4841  05:40:09  -8.04  -6.45  -222.761774            -6.0,+0.0,-0.2
iter: 4842  05:40:41  -7.54  -6.71  -222.761782            -6.0,+0.0,-0.2
iter: 4843  05:41:14  -8.65  -5.99  -222.761759            -6.0,+0.0,-0.2
iter: 4844  05:41:46  -8.78  -6.24  -222.761749            -6.0,+0.0,-0.2
iter: 4845  05:42:18  -8.13  -6.44  -222.761750            -6.0,+0.0,-0.2
iter: 4846  05:42:51  -7.60  -6.63  -222.761860            -6.0,+0.0,-0.2
iter: 4847  05:43:23  -8.86  -6.00  -222.761751            -6.0,+0.0,-0.2
iter: 4848  05:43:55  -9.74  -6.19  -222.761780            -6.0,+0.0,-0.2
iter: 4849  05:44:28  -7.81  -6.13  -222.761674            -6.0,+0.0,-0.2
iter: 4850  05:45:00  -7.79  -6.94  -222.761725            -6.0,+0.0,-0.2
iter: 4851  05:45:32  -9.16  -6.07  -222.761803            -6.0,+0.0,-0.2
iter: 4852  05:46:04 -10.53  -6.21  -222.761789            -6.0,+0.0,-0.2
iter: 4853  05:46:37  -9.60  -6.21  -222.761886            -6.0,+0.0,-0.2
iter: 4854  05:47:09  -8.13  -6.14  -222.761527            -6.0,+0.0,-0.2
iter: 4855  05:47:41  -8.47  -5.93  -222.761960            -6.0,+0.0,-0.2
iter: 4856  05:48:14  -8.82  -6.09  -222.762217            -6.0,+0.0,-0.2
iter: 4857  05:48:46  -8.64  -6.12  -222.762717            -6.0,+0.0,-0.2
iter: 4858  05:49:18  -7.82  -6.05  -222.762394            -6.0,+0.0,-0.2
iter: 4859  05:49:51  -9.06  -5.87  -222.762038            -6.0,+0.0,-0.2
iter: 4860  05:50:23  -8.70  -5.90  -222.762027            -6.0,+0.0,-0.2
iter: 4861  05:50:56  -7.60  -5.84  -222.762218            -6.0,+0.0,-0.2
iter: 4862  05:51:28  -8.01  -5.67  -222.762050            -6.0,+0.0,-0.2
iter: 4863  05:52:00  -8.04  -6.05  -222.761976            -6.0,+0.0,-0.2
iter: 4864  05:52:33  -8.00  -5.91  -222.762143            -6.0,+0.0,-0.2
iter: 4865  05:53:05  -8.03  -5.80  -222.762155            -6.0,+0.0,-0.2
iter: 4866  05:53:37  -8.00  -6.00  -222.762208            -6.0,+0.0,-0.2
iter: 4867  05:54:10  -8.50  -5.71  -222.762262            -6.0,+0.0,-0.2
iter: 4868  05:54:42  -8.00  -5.60  -222.762275            -6.0,+0.0,-0.2
iter: 4869  05:55:15  -7.05  -6.06  -222.761921            -6.0,+0.0,-0.2
iter: 4870  05:55:47  -7.59  -5.70  -222.762491            -6.0,+0.0,-0.2
iter: 4871  05:56:19  -8.28  -5.99  -222.761284            -6.0,+0.0,-0.2
iter: 4872  05:56:52  -8.75  -6.02  -222.761155            -6.0,+0.0,-0.2
iter: 4873  05:57:24  -8.81  -5.97  -222.761166            -6.0,+0.0,-0.2
iter: 4874  05:57:56  -9.40  -5.94  -222.761205            -6.0,+0.0,-0.2
iter: 4875  05:58:28  -8.70  -5.91  -222.761702            -6.0,+0.0,-0.2
iter: 4876  05:59:01  -8.83  -5.89  -222.762180            -6.0,+0.0,-0.2
iter: 4877  05:59:33  -7.87  -5.81  -222.761561            -6.0,+0.0,-0.2
iter: 4878  06:00:06  -8.27  -5.86  -222.761951            -6.0,+0.0,-0.2
iter: 4879  06:00:38  -9.24  -6.07  -222.762354            -6.0,+0.0,-0.2
iter: 4880  06:01:10  -8.13  -5.92  -222.761656            -6.0,+0.0,-0.2
iter: 4881  06:01:43  -9.44  -5.94  -222.761622            -6.0,+0.0,-0.2
iter: 4882  06:02:15  -8.50  -6.00  -222.761927            -6.0,+0.0,-0.2
iter: 4883  06:02:47  -8.67  -6.13  -222.761813            -6.0,+0.0,-0.2
iter: 4884  06:03:20  -9.52  -6.09  -222.761786            -6.0,+0.0,-0.2
iter: 4885  06:03:52  -8.06  -6.13  -222.761734            -6.0,+0.0,-0.2
iter: 4886  06:04:24  -8.78  -6.17  -222.761852            -6.0,+0.0,-0.2
iter: 4887  06:04:57  -9.34  -6.17  -222.761840            -6.0,+0.0,-0.2
iter: 4888  06:05:29  -9.15  -6.16  -222.761888            -6.0,+0.0,-0.2
iter: 4889  06:06:01  -9.28  -6.22  -222.761996            -6.0,+0.0,-0.2
iter: 4890  06:06:33  -9.04  -5.98  -222.761849            -6.0,+0.0,-0.2
iter: 4891  06:07:06  -8.81  -6.04  -222.761863            -6.0,+0.0,-0.2
iter: 4892  06:07:38  -9.53  -5.91  -222.761848            -6.0,+0.0,-0.2
iter: 4893  06:08:11  -9.08  -5.99  -222.761820            -6.0,+0.0,-0.2
iter: 4894  06:08:43  -9.53  -6.03  -222.761834            -6.0,+0.0,-0.2
iter: 4895  06:09:16  -9.19  -5.95  -222.761800            -6.0,+0.0,-0.2
iter: 4896  06:09:48 -10.19  -5.97  -222.761768            -6.0,+0.0,-0.2
iter: 4897  06:10:21  -7.40  -5.95  -222.761737            -6.0,+0.0,-0.2
iter: 4898  06:10:53  -8.17  -5.64  -222.761798            -6.0,+0.0,-0.2
iter: 4899  06:11:25  -8.88  -5.62  -222.761729            -6.0,+0.0,-0.2
iter: 4900  06:11:58  -7.67  -5.68  -222.761759            -6.0,+0.0,-0.2
iter: 4901  06:12:30  -7.91  -6.17  -222.761884            -6.0,+0.0,-0.2
iter: 4902  06:13:02  -7.87  -5.88  -222.761919            -6.0,+0.0,-0.2
iter: 4903  06:13:35  -8.36  -6.25  -222.761880            -6.0,+0.0,-0.2
iter: 4904  06:14:07  -8.32  -6.06  -222.762062            -6.0,+0.0,-0.2
iter: 4905  06:14:39  -8.06  -5.97  -222.762120            -6.0,+0.0,-0.2
iter: 4906  06:15:12  -7.87  -6.19  -222.762176            -6.0,+0.0,-0.2
iter: 4907  06:15:44  -8.80  -6.11  -222.762133            -6.0,+0.0,-0.2
iter: 4908  06:16:16  -8.81  -6.28  -222.762154            -6.0,+0.0,-0.2
iter: 4909  06:16:49  -8.38  -6.12  -222.762170            -6.0,+0.0,-0.2
iter: 4910  06:17:21  -8.42  -6.07  -222.762189            -6.0,+0.0,-0.2
iter: 4911  06:17:53  -7.88  -5.74  -222.762201            -6.0,+0.0,-0.2
iter: 4912  06:18:25  -8.65  -5.72  -222.762213            -6.0,+0.0,-0.2
iter: 4913  06:18:58  -8.10  -5.97  -222.762273            -6.0,+0.0,-0.2
iter: 4914  06:19:30  -8.44  -5.80  -222.762213            -6.0,+0.0,-0.2
iter: 4915  06:20:02  -7.65  -5.84  -222.762082            -6.0,+0.0,-0.2
iter: 4916  06:20:34  -8.47  -6.32  -222.762089            -6.0,+0.0,-0.2
iter: 4917  06:21:07  -9.10  -6.42  -222.762205            -6.0,+0.0,-0.2
iter: 4918  06:21:39  -9.27  -6.55  -222.762288            -6.0,+0.0,-0.2
iter: 4919  06:22:11  -7.66  -6.28  -222.762231            -6.0,+0.0,-0.2
iter: 4920  06:22:43  -8.22  -5.83  -222.762279            -6.0,+0.0,-0.2
iter: 4921  06:23:16  -8.21  -5.83  -222.762269            -6.0,+0.0,-0.2
iter: 4922  06:23:48  -7.77  -5.97  -222.762388            -6.0,+0.0,-0.2
iter: 4923  06:24:20  -7.65  -5.71  -222.762176            -6.0,+0.0,-0.2
iter: 4924  06:24:53  -8.96  -6.00  -222.762141            -6.0,+0.0,-0.2
iter: 4925  06:25:25  -9.38  -5.96  -222.762054            -6.0,+0.0,-0.2
iter: 4926  06:25:58  -7.83  -6.14  -222.762079            -6.0,+0.0,-0.2
iter: 4927  06:26:30  -9.25  -5.72  -222.762147            -6.0,+0.0,-0.2
iter: 4928  06:27:02  -7.49  -5.76  -222.762211            -6.0,+0.0,-0.2
iter: 4929  06:27:35  -8.53  -5.66  -222.762038            -6.0,+0.0,-0.2
iter: 4930  06:28:07  -6.84  -5.54  -222.762397            -6.0,+0.0,-0.2
iter: 4931  06:28:39  -7.95  -6.06  -222.762421            -6.0,+0.0,-0.2
iter: 4932  06:29:11  -7.53  -5.92  -222.762207            -6.0,+0.0,-0.2
iter: 4933  06:29:44  -7.95  -5.71  -222.762266            -6.0,+0.0,-0.2
iter: 4934  06:30:16  -7.08  -5.64  -222.762089            -6.0,+0.0,-0.2
iter: 4935  06:30:48  -7.03  -6.23  -222.762074            -6.0,+0.0,-0.2
iter: 4936  06:31:20  -7.64  -5.57  -222.762202            -6.0,+0.0,-0.2
iter: 4937  06:31:53  -8.11  -5.85  -222.762193            -6.0,+0.0,-0.2
iter: 4938  06:32:25  -8.46  -5.97  -222.762174            -6.0,+0.0,-0.2
iter: 4939  06:32:58  -7.00  -5.82  -222.762112            -6.0,+0.0,-0.2
iter: 4940  06:33:30  -6.97  -5.47  -222.762218            -6.0,+0.0,-0.2
iter: 4941  06:34:02  -7.85  -5.98  -222.762233            -6.0,+0.0,-0.2
iter: 4942  06:34:34  -9.06  -6.14  -222.762239            -6.0,+0.0,-0.2
iter: 4943  06:35:07  -7.43  -6.09  -222.762263            -6.0,+0.0,-0.2
iter: 4944  06:35:39  -7.93  -5.71  -222.762222            -6.0,+0.0,-0.2
iter: 4945  06:36:12  -7.90  -5.92  -222.762142            -6.0,+0.0,-0.2
iter: 4946  06:36:44  -9.20  -6.19  -222.762179            -6.0,+0.0,-0.2
iter: 4947  06:37:17  -7.27  -6.10  -222.762124            -6.0,+0.0,-0.2
iter: 4948  06:37:49  -7.61  -5.66  -222.762270            -6.0,+0.0,-0.2
iter: 4949  06:38:21  -7.80  -5.95  -222.762120            -6.0,+0.0,-0.2
iter: 4950  06:38:54  -9.02  -6.32  -222.762189            -6.0,+0.0,-0.2
iter: 4951  06:39:26  -8.19  -6.28  -222.762169            -6.0,+0.0,-0.2
iter: 4952  06:39:58  -9.08  -6.00  -222.762292            -6.0,+0.0,-0.2
iter: 4953  06:40:31  -7.94  -5.94  -222.762135            -6.0,+0.0,-0.2
iter: 4954  06:41:03  -9.31  -6.43  -222.762108            -6.0,+0.0,-0.2
iter: 4955  06:41:35  -7.84  -6.36  -222.762267            -6.0,+0.0,-0.2
iter: 4956  06:42:08  -8.70  -5.93  -222.762239            -6.0,+0.0,-0.2
iter: 4957  06:42:40  -7.64  -5.89  -222.762061            -6.0,+0.0,-0.2
iter: 4958  06:43:13  -9.07  -6.50  -222.762027            -6.0,+0.0,-0.2
iter: 4959  06:43:45  -7.97  -6.38  -222.762552            -6.0,+0.0,-0.2
iter: 4960  06:44:17  -8.77  -5.94  -222.762111            -6.0,+0.0,-0.2
iter: 4961  06:44:50  -7.84  -5.94  -222.762576            -6.0,+0.0,-0.2
iter: 4962  06:45:22  -9.28  -6.31  -222.762503            -6.0,+0.0,-0.2
iter: 4963  06:45:55  -7.91  -6.28  -222.762563            -6.0,+0.0,-0.2
iter: 4964  06:46:27  -8.71  -5.94  -222.762266            -6.0,+0.0,-0.2
iter: 4965  06:46:59  -7.71  -5.91  -222.762638            -6.0,+0.0,-0.2
iter: 4966  06:47:32  -9.11  -6.35  -222.762635            -6.0,+0.0,-0.2
iter: 4967  06:48:04  -8.06  -6.29  -222.762466            -6.0,+0.0,-0.2
iter: 4968  06:48:36  -8.71  -5.97  -222.762043            -6.0,+0.0,-0.2
iter: 4969  06:49:09  -7.88  -5.95  -222.762592            -6.0,+0.0,-0.2
iter: 4970  06:49:41  -9.32  -6.39  -222.762697            -6.0,+0.0,-0.2
iter: 4971  06:50:13  -7.84  -6.29  -222.762333            -6.0,+0.0,-0.2
iter: 4972  06:50:46  -8.43  -5.93  -222.762357            -6.0,+0.0,-0.2
iter: 4973  06:51:18  -7.63  -5.87  -222.762448            -6.0,+0.0,-0.2
iter: 4974  06:51:50  -8.98  -6.37  -222.762507            -6.0,+0.0,-0.2
iter: 4975  06:52:23  -8.09  -6.35  -222.762507            -6.0,+0.0,-0.2
iter: 4976  06:52:55  -8.75  -5.99  -222.762505            -6.0,+0.0,-0.2
iter: 4977  06:53:27  -7.86  -5.94  -222.762499            -6.0,+0.0,-0.2
iter: 4978  06:53:59  -9.42  -6.41  -222.762496            -6.0,+0.0,-0.2
iter: 4979  06:54:32  -8.06  -6.30  -222.762450            -6.0,+0.0,-0.2
iter: 4980  06:55:04  -8.41  -5.99  -222.762536            -6.0,+0.0,-0.2
iter: 4981  06:55:36  -7.68  -5.90  -222.762303            -6.0,+0.0,-0.2
iter: 4982  06:56:09  -9.02  -6.50  -222.762269            -6.0,+0.0,-0.2
iter: 4983  06:56:41  -8.12  -6.44  -222.762308            -6.0,+0.0,-0.2
iter: 4984  06:57:13  -8.82  -6.03  -222.762324            -6.0,+0.0,-0.2
iter: 4985  06:57:45  -7.91  -5.99  -222.762348            -6.0,+0.0,-0.2
iter: 4986  06:58:17  -9.32  -6.50  -222.762398            -6.0,+0.0,-0.2
iter: 4987  06:58:50  -9.68  -6.31  -222.762342            -6.0,+0.0,-0.2
iter: 4988  06:59:22  -8.26  -6.25  -222.762196            -6.0,+0.0,-0.2
iter: 4989  06:59:54  -7.92  -6.01  -222.762404            -6.0,+0.0,-0.2
iter: 4990  07:00:26  -9.51  -6.60  -222.762436            -6.0,+0.0,-0.2
iter: 4991  07:00:58  -8.64  -6.43  -222.762429            -6.0,+0.0,-0.2
iter: 4992  07:01:31  -7.97  -6.18  -222.762394            -6.0,+0.0,-0.2
iter: 4993  07:02:03  -7.71  -5.92  -222.762457            -6.0,+0.0,-0.2
iter: 4994  07:02:35  -9.25  -6.57  -222.762450            -6.0,+0.0,-0.2
iter: 4995  07:03:07  -8.57  -6.45  -222.762464            -6.0,+0.0,-0.2
iter: 4996  07:03:40  -8.10  -6.17  -222.762457            -6.0,+0.0,-0.2
iter: 4997  07:04:12  -7.77  -5.95  -222.762447            -6.0,+0.0,-0.2
iter: 4998  07:04:44  -9.17  -6.58  -222.762431            -6.0,+0.0,-0.2
iter: 4999  07:05:17  -8.29  -6.50  -222.762365            -6.0,+0.0,-0.2
iter: 5000  07:05:49  -8.43  -6.13  -222.762445            -6.0,+0.0,-0.2
