
  ___ ___ ___ _ _ _  
 |   |   |_  | | | | 
 | | | | | . | | | | 
 |__ |  _|___|_____|  20.10.1b1
 |___|_|             

User:   madkru@g006.nifl.fysik.dtu.dk
Date:   Tue Mar 23 18:39:55 2021
Arch:   x86_64
Pid:    12017
Python: 3.7.4
gpaw:   /home/niflheim/madkru/venv_folder/gpaw/gpaw (d0d1ca1c71)
_gpaw:  /home/niflheim/madkru/venv_folder/gpaw/build/lib.linux-x86_64-sandybridge-3.7/
        _gpaw.cpython-37m-x86_64-linux-gnu.so (4fd39e8b1e)
ase:    /home/niflheim/madkru/venv_folder/ase/ase (version 3.21.0b1-7e6c206a91)
numpy:  /home/niflheim/madkru/venv_folder/lib/python3.7/site-packages/numpy (version 1.19.4)
scipy:  /home/niflheim/madkru/venv_folder/lib/python3.7/site-packages/scipy (version 1.5.4)
libxc:  4.3.4
units:  Angstrom and eV
cores: 64
OMP_NUM_THREADS: 1

Input parameters:
  convergence: {bands: occupied,
                density: 0.0001,
                eigenstates: 4e-08,
                energy: 0.0005,
                forces: 1e-06}
  kpts: [6 6 4]
  mode: {ecut: 600.0,
         gammacentered: False,
         name: pw}
  occupations: {fixmagmom: False,
                name: fermi-dirac,
                width: 0.001}
  setups: {Mn: :d,3.0}
  symmetry: {point_group: False,
             time_reversal: False}

System changes: positions, numbers, cell, pbc, initial_charges, initial_magmoms 

Initialize ...

O-setup:
  name: Oxygen
  id: 9b9d51c344dea68c822856295a461509
  Z: 8.0
  valence: 6
  core: 2
  charge: 0.0
  file: /home/modules/software/GPAW-setups/0.9.20000/O.LDA.gz
  compensation charges: gauss, rc=0.21, lmax=2
  cutoffs: 1.17(filt), 0.83(core),
  valence states:
                energy  radius
    2s(2.00)   -23.752   0.688
    2p(4.00)    -9.195   0.598
    *s           3.459   0.688
    *p          18.016   0.598
    *d           0.000   0.619

  Using partial waves for O as LCAO basis

Mn-setup:
  name: Manganese
  id: 0d715a8018be061a6e9ea6f2d364ac92
  Z: 25.0
  valence: 15
  core: 10
  charge: 0.0
  Hubbard U: 3.000000 eV (l=2, scale=True)
  file: /home/modules/software/GPAW-setups/0.9.20000/Mn.LDA.gz
  compensation charges: gauss, rc=0.38, lmax=2
  cutoffs: 2.14(filt), 0.86(core),
  valence states:
                energy  radius
    3s(2.00)   -85.387   1.275
    4s(2.00)    -5.282   1.275
    3p(6.00)   -54.493   1.281
    4p(0.00)    -1.471   1.281
    3d(5.00)    -7.009   1.138
    *d          20.203   1.138

  Using partial waves for Mn as LCAO basis

P-setup:
  name: Phosphorus
  id: a5561c299094968922a179ab894d2e2d
  Z: 15.0
  valence: 5
  core: 10
  charge: 0.0
  file: /home/modules/software/GPAW-setups/0.9.20000/P.LDA.gz
  compensation charges: gauss, rc=0.30, lmax=2
  cutoffs: 1.69(filt), 1.81(core),
  valence states:
                energy  radius
    3s(2.00)   -14.015   0.953
    3p(3.00)    -5.596   0.953
    *s          13.197   0.953
    *p          21.615   0.953
    *d           0.000   0.953

  Using partial waves for P as LCAO basis

Li-setup:
  name: Lithium
  id: b73562207f97a71b6967473b66fe8b65
  Z: 3.0
  valence: 1
  core: 2
  charge: 0.0
  file: /home/modules/software/GPAW-setups/0.9.20000/Li.LDA.gz
  compensation charges: gauss, rc=0.33, lmax=2
  cutoffs: 1.91(filt), 2.55(core),
  valence states:
                energy  radius
    2s(1.00)    -2.874   1.058
    2p(0.00)    -1.126   1.058
    *s          24.338   1.058

  Using partial waves for Li as LCAO basis

Reference energy: -196157.275402

Spin-polarized calculation.
Magnetic moment: 0.000000

Convergence criteria:
  Maximum total energy change: 0.0005 eV / electron
  Maximum integral of absolute density change: 0.0001 electrons
  Maximum integral of absolute eigenstate change: 4e-08 eV^2
  Maximum change in atomic force: 1e-06 eV / Ang
  Maximum number of iterations: 333

Symmetries present (total): 1

  ( 1  0  0)
  ( 0  1  0)
  ( 0  0  1)

144 k-points: 6 x 6 x 4 Monkhorst-Pack grid
144 k-points in the irreducible part of the Brillouin zone
       k-points in crystal coordinates                weights
   0:    -0.41666667   -0.41666667   -0.37500000          1/144
   1:    -0.41666667   -0.41666667   -0.12500000          1/144
   2:    -0.41666667   -0.41666667    0.12500000          1/144
   3:    -0.41666667   -0.41666667    0.37500000          1/144
   4:    -0.41666667   -0.25000000   -0.37500000          1/144
   5:    -0.41666667   -0.25000000   -0.12500000          1/144
   6:    -0.41666667   -0.25000000    0.12500000          1/144
   7:    -0.41666667   -0.25000000    0.37500000          1/144
   8:    -0.41666667   -0.08333333   -0.37500000          1/144
   9:    -0.41666667   -0.08333333   -0.12500000          1/144
          ...
 143:     0.41666667    0.41666667    0.37500000          1/144

Wave functions: Plane wave expansion
  Cutoff energy: 600.000 eV
  Number of coefficients (min, max): 10068, 10125
  Pulay-stress correction: 0.000000 eV/Ang^3 (de/decut=0.000000)
  Using FFTW library
  ScaLapack parameters: grid=1x1, blocksize=None
  Wavefunction extrapolation:
    Improved wavefunction reuse through dual PAW basis 

  Fermi-Dirac: width=0.0010 eV

Eigensolver
   Davidson(niter=2, smin=None, normalize=True) 

Densities:
  Coarse grid: 60*35*27 grid
  Fine grid: 120*70*54 grid
  Total Charge: 0.000000 

Density mixing:
  Method: difference
  Backend: pulay
  Linear mixing parameter: 0.05
  Mixing with 5 old densities
  Damping of long wave oscillations: 50 

Hamiltonian:
  XC and Coulomb potentials evaluated on a 120*70*54 grid
  Using the LDA Exchange-Correlation functional
 

Memory estimate:
  Process memory now: 12148.48 MiB
  Calculator: 354.82 MiB
    Density: 10.06 MiB
      Arrays: 3.79 MiB
      Localized functions: 4.71 MiB
      Mixer: 1.56 MiB
    Hamiltonian: 2.95 MiB
      Arrays: 2.82 MiB
      XC: 0.00 MiB
      Poisson: 0.00 MiB
      vbar: 0.14 MiB
    Wavefunctions: 341.80 MiB
      Arrays psit_nG: 311.46 MiB
      Eigensolver: 19.99 MiB
      Projections: 2.71 MiB
      Projectors: 4.87 MiB
      PW-descriptor: 2.77 MiB

Total number of cores used: 64
Parallelization over k-points: 16
Domain decomposition: 2 x 2 x 1

Number of atoms: 28
Number of atomic orbitals: 148
Number of bands in calculation: 112
Number of valence electrons: 180
Bands to converge: occupied

... initialized

Initializing position-dependent things.

Density initialized from atomic densities
Creating initial wave functions:
  112 bands from LCAO basis set

     .-------------------------.  
    /|         OP              |  
   / |O            O        O  |  
  /  |       O            O  P |  
 *   |O    Mn      O           |  
 |   |          OLi          O |  
 |   P--O--------------Mn------.  
 |  /          Li    O  Mn  O /   
 | /LiO           PO         /    
 |/       Mn                /     
 *Li-----------------------*      

Positions:
   0 O     -1.330281   -2.539252   -1.168500    ( 0.0000,  0.0000,  0.0000)
   1 O     -3.152392    2.974909    1.200956    ( 0.0000,  0.0000,  0.0000)
   2 O      2.077234    0.510133    1.506966    ( 0.0000,  0.0000,  0.0000)
   3 O      3.899724   -0.074476   -0.862491    ( 0.0000,  0.0000,  0.0000)
   4 O      2.077424    2.974966    1.507072    ( 0.0000,  0.0000,  0.0000)
   5 O      3.899535   -2.539195   -0.862384    ( 0.0000,  0.0000,  0.0000)
   6 O     -1.330092   -0.074418   -1.168395    ( 0.0000,  0.0000,  0.0000)
   7 O     -3.152581    0.510191    1.201063    ( 0.0000,  0.0000,  0.0000)
   8 O     -4.389675   -1.306969   -0.813152    ( 0.0000,  0.0000,  0.0000)
   9 O     -0.093301    1.742683    1.556268    ( 0.0000,  0.0000,  0.0000)
  10 O      5.136817    1.742683    1.151723    ( 0.0000,  0.0000,  0.0000)
  11 O      0.840444   -1.306969   -1.227697    ( 0.0000,  0.0000,  0.0000)
  12 Mn    -2.557192   -1.307258    0.273595    ( 0.0000,  0.0000,  1.0000)
  13 Mn    -1.925535    1.742972   -2.096623    ( 0.0000,  0.0000, -1.0000)
  14 Mn     3.304335    1.742972    0.064976    ( 0.0000,  0.0000, -1.0000)
  15 Mn     2.672678   -1.307258    2.435195    ( 0.0000,  0.0000,  1.0000)
  16 P     -0.597175   -1.306854   -1.801474    ( 0.0000,  0.0000,  0.0000)
  17 P     -3.885565    1.742568    0.568028    ( 0.0000,  0.0000,  0.0000)
  18 P      1.344318    1.742568    2.140045    ( 0.0000,  0.0000,  0.0000)
  19 P      4.632708   -1.306854   -0.229456    ( 0.0000,  0.0000,  0.0000)
  20 O     -0.636957   -1.306861    1.403074    ( 0.0000,  0.0000,  0.0000)
  21 O     -3.845824    1.742575   -0.967462    ( 0.0000,  0.0000,  0.0000)
  22 O      1.384100    1.742576   -1.064503    ( 0.0000,  0.0000,  0.0000)
  23 O      4.592967   -1.306861    1.306033    ( 0.0000,  0.0000,  0.0000)
  24 Li    -4.856429   -2.832143   -2.200714    ( 0.0000,  0.0000,  0.0000)
  25 Li     0.373571   -2.832143    0.169286    ( 0.0000,  0.0000,  0.0000)
  26 Li    -4.856429    0.217857   -2.200714    ( 0.0000,  0.0000,  0.0000)
  27 Li     0.373571    0.217857    0.169286    ( 0.0000,  0.0000,  0.0000)

Unit cell:
           periodic     x           y           z      points  spacing
  1. axis:    yes   10.460000    0.000000    0.000000    60     0.1743
  2. axis:    yes    0.000000    6.100000    0.000000    35     0.1743
  3. axis:    yes    0.000000    0.000000    4.740000    27     0.1756

  Lengths:  10.460000   6.100000   4.740000
  Angles:   90.000000  90.000000  90.000000

Effective grid spacing dv^(1/3) = 0.1747

                     log10-error:           total        iterations:
           time      wfs    density  force  energy       poisson  magmom
iter:   1  18:41:27                       -220.683844             +0.0000
iter:   2  18:41:49  -0.64  -0.92         -235.499357             +0.0000
iter:   3  18:42:10  -0.40  -0.96         -226.168258             -0.0000
iter:   4  18:42:32  -1.41  -1.29         -225.887223             +0.0000
iter:   5  18:42:53  -1.19  -1.38         -227.590749             +0.0000
iter:   6  18:43:15  -1.39  -1.51         -225.828717             +0.0000
iter:   7  18:43:36  -2.57  -2.06         -225.900203             +0.0000
iter:   8  18:43:57  -2.23  -2.01         -225.637332             -0.0000
iter:   9  18:44:19  -2.69  -2.09         -225.546562             +0.0000
iter:  10  18:44:40  -3.56  -2.95         -225.546167             +0.0000
iter:  11  18:45:02  -3.95  -3.00         -225.547224             +0.0000
iter:  12  18:45:23  -4.30  -3.23         -225.547400             +0.0000
iter:  13  18:45:45  -5.42  -3.37         -225.547295             -0.0000
iter:  14  18:46:06  -5.23  -3.44         -225.547132             -0.0000
iter:  15  18:46:27  -5.45  -3.61         -225.547074             -0.0000
iter:  16  18:46:49  -6.34  -3.66         -225.547053             +0.0000
iter:  17  18:47:10  -6.12  -3.73         -225.547074             -0.0000
iter:  18  18:47:32  -6.68  -3.80         -225.547074             -0.0000
iter:  19  18:47:53  -5.94  -3.82         -225.547030             -0.0000
iter:  20  18:48:14  -6.79  -4.20         -225.547031             -0.0000
iter:  21  18:48:36  -6.33  -4.39         -225.547030             -0.0000
iter:  22  18:48:57  -7.19  -4.49         -225.547018             +0.0000
iter:  23  18:49:24  -7.74  -4.90         -225.547027             -0.0000
iter:  24  18:49:51  -8.45  -5.06    -3.13-225.547027             -0.0000
iter:  25  18:50:18  -8.74  -5.09    -3.26-225.547027             +0.0000
iter:  26  18:50:44  -8.30  -5.17    -3.61-225.547026             +0.0000
iter:  27  18:51:11  -8.38  -5.25    -3.55-225.547026             +0.0000
iter:  28  18:51:38  -9.00  -5.38    -3.20-225.547026             +0.0000
iter:  29  18:52:05  -9.30  -5.80    -3.95-225.547026             +0.0000
iter:  30  18:52:31  -9.65  -5.93    -3.85-225.547026             +0.0000
iter:  31  18:52:58 -10.38  -5.98    -4.04-225.547026             +0.0000
iter:  32  18:53:25  -9.93  -6.01    -4.23-225.547026             +0.0000
iter:  33  18:53:52 -10.47  -6.12    -4.32-225.547026             +0.0000
iter:  34  18:54:18 -10.65  -6.20    -4.61-225.547026             +0.0000
iter:  35  18:54:45  -9.95  -6.21    -3.99-225.547026             +0.0000
iter:  36  18:55:12 -11.30  -6.68    -4.70-225.547026             +0.0000
iter:  37  18:55:39 -12.36  -6.82    -5.39-225.547026             +0.0000
iter:  38  18:56:05 -11.93  -6.85    -5.01-225.547026             +0.0000
iter:  39  18:56:32 -11.67  -6.92    -4.78-225.547026             +0.0000
iter:  40  18:56:59 -12.14  -6.94    -4.66-225.547026             +0.0000
iter:  41  18:57:26 -12.54  -7.22    -5.13-225.547026             +0.0000
iter:  42  18:57:53 -12.87  -7.35    -5.48-225.547026             +0.0000
iter:  43  18:58:19 -13.17  -7.44    -5.35-225.547026             +0.0000
iter:  44  18:58:46 -13.92  -7.56    -6.30-225.547026             +0.0000

Converged after 44 iterations.

Dipole moment: (13.156919, 1.715884, -5.511577) |e|*Ang

Total magnetic moment: (0.000000, 0.000000, 0.000000)
Local magnetic moments:
   0 O  ( 0.000000,  0.000000,  0.001106)
   1 O  ( 0.000000,  0.000000, -0.001049)
   2 O  ( 0.000000,  0.000000, -0.001023)
   3 O  ( 0.000000,  0.000000,  0.001049)
   4 O  ( 0.000000,  0.000000, -0.001031)
   5 O  ( 0.000000,  0.000000,  0.001058)
   6 O  ( 0.000000,  0.000000,  0.001098)
   7 O  ( 0.000000,  0.000000, -0.001041)
   8 O  ( 0.000000,  0.000000,  0.019757)
   9 O  ( 0.000000,  0.000000, -0.019764)
  10 O  ( 0.000000,  0.000000, -0.019784)
  11 O  ( 0.000000,  0.000000,  0.019822)
  12 Mn ( 0.000000,  0.000000,  4.601559)
  13 Mn ( 0.000000,  0.000000, -4.601595)
  14 Mn ( 0.000000,  0.000000, -4.601512)
  15 Mn ( 0.000000,  0.000000,  4.601235)
  16 P  ( 0.000000,  0.000000,  0.001347)
  17 P  ( 0.000000,  0.000000, -0.001288)
  18 P  ( 0.000000,  0.000000, -0.001292)
  19 P  ( 0.000000,  0.000000,  0.001298)
  20 O  ( 0.000000,  0.000000,  0.018149)
  21 O  ( 0.000000,  0.000000, -0.018063)
  22 O  ( 0.000000,  0.000000, -0.018067)
  23 O  ( 0.000000,  0.000000,  0.018038)
  24 Li ( 0.000000,  0.000000,  0.000000)
  25 Li ( 0.000000,  0.000000, -0.000005)
  26 Li ( 0.000000,  0.000000,  0.000000)
  27 Li ( 0.000000,  0.000000, -0.000005)

Energy contributions relative to reference atoms: (reference = -196157.275402)

Kinetic:       +243.261704
Potential:     -215.688142
External:        +0.000000
XC:            -255.034846
Entropy (-ST):   -0.000000
Local:           +1.914257
--------------------------
Free energy:   -225.547026
Extrapolated:  -225.547026

Spin contamination: 9.747401 electrons
Showing only first 2 kpts
                      Up                     Down
 Kpt  Band  Eigenvalues  Occupancy  Eigenvalues  Occupancy
  0    88      3.92762    0.00694      3.92299    0.00694
  0    89      3.97657    0.00694      3.97177    0.00694
  0    90      8.66753    0.00000      8.67001    0.00000
  0    91      8.68719    0.00000      8.68824    0.00000

  1    88      3.92408    0.00694      3.91942    0.00694
  1    89      3.98074    0.00694      3.97549    0.00694
  1    90      8.51341    0.00000      8.51464    0.00000
  1    91      8.53002    0.00000      8.53045    0.00000


Fermi level: 5.31942

Gap: 3.774 eV
Transition (v -> c):
  (s=0, k=69, n=89, [-0.08, 0.42, -0.12]) -> (s=1, k=57, n=90, [-0.08, -0.08, -0.12])
Writing to born-0.01-11z-.gpw (mode='all')

Timing:                              incl.     excl.
-----------------------------------------------------------
Hamiltonian:                         0.247     0.002   0.0% |
 Atomic:                             0.057     0.057   0.0% |
  XC Correction:                     0.000     0.000   0.0% |
 Calculate atomic Hamiltonians:      0.092     0.092   0.0% |
 Communicate:                        0.002     0.002   0.0% |
 Initialize Hamiltonian:             0.000     0.000   0.0% |
 Poisson:                            0.001     0.001   0.0% |
 XC 3D grid:                         0.093     0.093   0.0% |
LCAO initialization:                68.049     0.678   0.0% |
 LCAO eigensolver:                  17.561     0.002   0.0% |
  Calculate projections:             0.029     0.029   0.0% |
  DenseAtomicCorrection:             0.042     0.042   0.0% |
  Distribute overlap matrix:         0.012     0.012   0.0% |
  Orbital Layouts:                   0.474     0.474   0.0% |
  Potential matrix:                 16.912    16.912   0.5% |
  Sum over cells:                    0.089     0.089   0.0% |
 LCAO to grid:                      48.541    48.541   1.5% ||
 Set positions (LCAO WFS):           1.269     0.180   0.0% |
  Basic WFS set positions:           0.001     0.001   0.0% |
  Basis functions set positions:     0.000     0.000   0.0% |
  P tci:                             0.520     0.520   0.0% |
  ST tci:                            0.361     0.361   0.0% |
  mktci:                             0.207     0.207   0.0% |
PWDescriptor:                        0.025     0.025   0.0% |
SCF-cycle:                        1061.817     0.557   0.0% |
 Davidson:                         895.281   279.518   8.8% |---|
  Apply H:                          60.503    58.763   1.9% ||
   HMM T:                            1.741     1.741   0.1% |
  Subspace diag:                   129.569     0.129   0.0% |
   calc_h_matrix:                   82.588    21.933   0.7% |
    Apply H:                        60.655    58.937   1.9% ||
     HMM T:                          1.718     1.718   0.1% |
   diagonalize:                      6.404     6.404   0.2% |
   rotate_psi:                      40.447    40.447   1.3% ||
  calc. matrices:                  264.924   147.790   4.7% |-|
   Apply H:                        117.134   113.962   3.6% ||
    HMM T:                           3.172     3.172   0.1% |
  diagonalize:                      73.205    73.205   2.3% ||
  rotate_psi:                       87.562    87.562   2.8% ||
 Density:                           35.671     0.001   0.0% |
  Atomic density matrices:           0.761     0.761   0.0% |
  Mix:                               5.652     5.652   0.2% |
  Multipole moments:                 0.015     0.015   0.0% |
  Pseudo density:                   29.242    29.240   0.9% |
   Symmetrize density:               0.001     0.001   0.0% |
 Forces:                           117.180   117.180   3.7% ||
 Hamiltonian:                       10.839     0.093   0.0% |
  Atomic:                            2.549     2.548   0.1% |
   XC Correction:                    0.000     0.000   0.0% |
  Calculate atomic Hamiltonians:     4.074     4.074   0.1% |
  Communicate:                       0.080     0.080   0.0% |
  Poisson:                           0.033     0.033   0.0% |
  XC 3D grid:                        4.009     4.009   0.1% |
 Orthonormalize:                     2.290     0.003   0.0% |
  calc_s_matrix:                     0.265     0.265   0.0% |
  inverse-cholesky:                  0.078     0.078   0.0% |
  projections:                       1.470     1.470   0.0% |
  rotate_psi_s:                      0.474     0.474   0.0% |
Set symmetry:                        0.000     0.000   0.0% |
Other:                            2045.799  2045.799  64.4% |-------------------------|
-----------------------------------------------------------
Total:                                      3175.937 100.0%

Memory usage: 11.90 GiB
Date: Tue Mar 23 19:32:51 2021
