
  ___ ___ ___ _ _ _  
 |   |   |_  | | | | 
 | | | | | . | | | | 
 |__ |  _|___|_____|  20.10.1b1
 |___|_|             

User:   madkru@g031.nifl.fysik.dtu.dk
Date:   Mon Mar 22 19:40:32 2021
Arch:   x86_64
Pid:    47913
Python: 3.7.4
gpaw:   /home/niflheim/madkru/venv_folder/gpaw/gpaw (d0d1ca1c71)
_gpaw:  /home/niflheim/madkru/venv_folder/gpaw/build/lib.linux-x86_64-sandybridge-3.7/
        _gpaw.cpython-37m-x86_64-linux-gnu.so (4fd39e8b1e)
ase:    /home/niflheim/madkru/venv_folder/ase/ase (version 3.21.0b1-7e6c206a91)
numpy:  /home/niflheim/madkru/venv_folder/lib/python3.7/site-packages/numpy (version 1.19.4)
scipy:  /home/niflheim/madkru/venv_folder/lib/python3.7/site-packages/scipy (version 1.5.4)
libxc:  4.3.4
units:  Angstrom and eV
cores: 32
OMP_NUM_THREADS: 1

Input parameters:
  convergence: {bands: occupied,
                density: 0.0001,
                eigenstates: 4e-08,
                energy: 0.0005,
                forces: 1e-06}
  kpts: [6 6 4]
  mode: {ecut: 600.0,
         gammacentered: False,
         name: pw}
  occupations: {fixmagmom: False,
                name: fermi-dirac,
                width: 0.001}
  setups: {Mn: :d,3.0}
  symmetry: {point_group: False,
             time_reversal: False}

System changes: positions, numbers, cell, pbc, initial_charges, initial_magmoms 

Initialize ...

O-setup:
  name: Oxygen
  id: 9b9d51c344dea68c822856295a461509
  Z: 8.0
  valence: 6
  core: 2
  charge: 0.0
  file: /home/modules/software/GPAW-setups/0.9.20000/O.LDA.gz
  compensation charges: gauss, rc=0.21, lmax=2
  cutoffs: 1.17(filt), 0.83(core),
  valence states:
                energy  radius
    2s(2.00)   -23.752   0.688
    2p(4.00)    -9.195   0.598
    *s           3.459   0.688
    *p          18.016   0.598
    *d           0.000   0.619

  Using partial waves for O as LCAO basis

Mn-setup:
  name: Manganese
  id: 0d715a8018be061a6e9ea6f2d364ac92
  Z: 25.0
  valence: 15
  core: 10
  charge: 0.0
  Hubbard U: 3.000000 eV (l=2, scale=True)
  file: /home/modules/software/GPAW-setups/0.9.20000/Mn.LDA.gz
  compensation charges: gauss, rc=0.38, lmax=2
  cutoffs: 2.14(filt), 0.86(core),
  valence states:
                energy  radius
    3s(2.00)   -85.387   1.275
    4s(2.00)    -5.282   1.275
    3p(6.00)   -54.493   1.281
    4p(0.00)    -1.471   1.281
    3d(5.00)    -7.009   1.138
    *d          20.203   1.138

  Using partial waves for Mn as LCAO basis

P-setup:
  name: Phosphorus
  id: a5561c299094968922a179ab894d2e2d
  Z: 15.0
  valence: 5
  core: 10
  charge: 0.0
  file: /home/modules/software/GPAW-setups/0.9.20000/P.LDA.gz
  compensation charges: gauss, rc=0.30, lmax=2
  cutoffs: 1.69(filt), 1.81(core),
  valence states:
                energy  radius
    3s(2.00)   -14.015   0.953
    3p(3.00)    -5.596   0.953
    *s          13.197   0.953
    *p          21.615   0.953
    *d           0.000   0.953

  Using partial waves for P as LCAO basis

Li-setup:
  name: Lithium
  id: b73562207f97a71b6967473b66fe8b65
  Z: 3.0
  valence: 1
  core: 2
  charge: 0.0
  file: /home/modules/software/GPAW-setups/0.9.20000/Li.LDA.gz
  compensation charges: gauss, rc=0.33, lmax=2
  cutoffs: 1.91(filt), 2.55(core),
  valence states:
                energy  radius
    2s(1.00)    -2.874   1.058
    2p(0.00)    -1.126   1.058
    *s          24.338   1.058

  Using partial waves for Li as LCAO basis

Reference energy: -196157.275402

Spin-polarized calculation.
Magnetic moment: 0.000000

Convergence criteria:
  Maximum total energy change: 0.0005 eV / electron
  Maximum integral of absolute density change: 0.0001 electrons
  Maximum integral of absolute eigenstate change: 4e-08 eV^2
  Maximum change in atomic force: 1e-06 eV / Ang
  Maximum number of iterations: 333

Symmetries present (total): 1

  ( 1  0  0)
  ( 0  1  0)
  ( 0  0  1)

144 k-points: 6 x 6 x 4 Monkhorst-Pack grid
144 k-points in the irreducible part of the Brillouin zone
       k-points in crystal coordinates                weights
   0:    -0.41666667   -0.41666667   -0.37500000          1/144
   1:    -0.41666667   -0.41666667   -0.12500000          1/144
   2:    -0.41666667   -0.41666667    0.12500000          1/144
   3:    -0.41666667   -0.41666667    0.37500000          1/144
   4:    -0.41666667   -0.25000000   -0.37500000          1/144
   5:    -0.41666667   -0.25000000   -0.12500000          1/144
   6:    -0.41666667   -0.25000000    0.12500000          1/144
   7:    -0.41666667   -0.25000000    0.37500000          1/144
   8:    -0.41666667   -0.08333333   -0.37500000          1/144
   9:    -0.41666667   -0.08333333   -0.12500000          1/144
          ...
 143:     0.41666667    0.41666667    0.37500000          1/144

Wave functions: Plane wave expansion
  Cutoff energy: 600.000 eV
  Number of coefficients (min, max): 10068, 10125
  Pulay-stress correction: 0.000000 eV/Ang^3 (de/decut=0.000000)
  Using FFTW library
  ScaLapack parameters: grid=1x1, blocksize=None
  Wavefunction extrapolation:
    Improved wavefunction reuse through dual PAW basis 

  Fermi-Dirac: width=0.0010 eV

Eigensolver
   Davidson(niter=2, smin=None, normalize=True) 

Densities:
  Coarse grid: 60*35*27 grid
  Fine grid: 120*70*54 grid
  Total Charge: 0.000000 

Density mixing:
  Method: difference
  Backend: pulay
  Linear mixing parameter: 0.05
  Mixing with 5 old densities
  Damping of long wave oscillations: 50 

Hamiltonian:
  XC and Coulomb potentials evaluated on a 120*70*54 grid
  Using the LDA Exchange-Correlation functional
 

Memory estimate:
  Process memory now: 13250.01 MiB
  Calculator: 375.55 MiB
    Density: 20.02 MiB
      Arrays: 7.57 MiB
      Localized functions: 9.42 MiB
      Mixer: 3.03 MiB
    Hamiltonian: 5.90 MiB
      Arrays: 5.62 MiB
      XC: 0.00 MiB
      Poisson: 0.00 MiB
      vbar: 0.27 MiB
    Wavefunctions: 349.64 MiB
      Arrays psit_nG: 311.46 MiB
      Eigensolver: 19.99 MiB
      Projections: 5.41 MiB
      Projectors: 9.73 MiB
      PW-descriptor: 3.03 MiB

Total number of cores used: 32
Parallelization over k-points: 16
Domain decomposition: 2 x 1 x 1

Number of atoms: 28
Number of atomic orbitals: 148
Number of bands in calculation: 112
Number of valence electrons: 180
Bands to converge: occupied

... initialized

Initializing position-dependent things.

Density initialized from atomic densities
Creating initial wave functions:
  112 bands from LCAO basis set

     .-------------------------.  
    /|         OP              |  
   / |O            O        O  |  
  /  |       O            O  P |  
 *   |O    Mn      O           |  
 |   |          OLi          O |  
 |   P--O--------------Mn------.  
 |  /          Li    O  Mn  O /   
 | /LiO           PO         /    
 |/       Mn                /     
 *Li-----------------------*      

Positions:
   0 O     -1.330281   -2.539252   -1.168500    ( 0.0000,  0.0000,  0.0000)
   1 O     -3.152392    2.974909    1.200956    ( 0.0000,  0.0000,  0.0000)
   2 O      2.077234    0.510133    1.506966    ( 0.0000,  0.0000,  0.0000)
   3 O      3.899724   -0.074476   -0.862491    ( 0.0000,  0.0000,  0.0000)
   4 O      2.077424    2.974966    1.507072    ( 0.0000,  0.0000,  0.0000)
   5 O      3.899535   -2.539195   -0.862384    ( 0.0000,  0.0000,  0.0000)
   6 O     -1.330092   -0.074418   -1.168395    ( 0.0000,  0.0000,  0.0000)
   7 O     -3.152581    0.510191    1.201063    ( 0.0000,  0.0000,  0.0000)
   8 O     -4.389675   -1.296969   -0.813152    ( 0.0000,  0.0000,  0.0000)
   9 O     -0.093301    1.742683    1.556268    ( 0.0000,  0.0000,  0.0000)
  10 O      5.136817    1.742683    1.151723    ( 0.0000,  0.0000,  0.0000)
  11 O      0.840444   -1.306969   -1.217697    ( 0.0000,  0.0000,  0.0000)
  12 Mn    -2.557192   -1.307258    0.273595    ( 0.0000,  0.0000,  1.0000)
  13 Mn    -1.925535    1.742972   -2.096623    ( 0.0000,  0.0000, -1.0000)
  14 Mn     3.304335    1.742972    0.064976    ( 0.0000,  0.0000, -1.0000)
  15 Mn     2.672678   -1.307258    2.435195    ( 0.0000,  0.0000,  1.0000)
  16 P     -0.597175   -1.306854   -1.801474    ( 0.0000,  0.0000,  0.0000)
  17 P     -3.885565    1.742568    0.568028    ( 0.0000,  0.0000,  0.0000)
  18 P      1.344318    1.742568    2.140045    ( 0.0000,  0.0000,  0.0000)
  19 P      4.632708   -1.306854   -0.229456    ( 0.0000,  0.0000,  0.0000)
  20 O     -0.636957   -1.306861    1.403074    ( 0.0000,  0.0000,  0.0000)
  21 O     -3.845824    1.742575   -0.967462    ( 0.0000,  0.0000,  0.0000)
  22 O      1.384100    1.742576   -1.064503    ( 0.0000,  0.0000,  0.0000)
  23 O      4.592967   -1.306861    1.306033    ( 0.0000,  0.0000,  0.0000)
  24 Li    -4.856429   -2.832143   -2.200714    ( 0.0000,  0.0000,  0.0000)
  25 Li     0.373571   -2.832143    0.169286    ( 0.0000,  0.0000,  0.0000)
  26 Li    -4.856429    0.217857   -2.200714    ( 0.0000,  0.0000,  0.0000)
  27 Li     0.373571    0.217857    0.169286    ( 0.0000,  0.0000,  0.0000)

Unit cell:
           periodic     x           y           z      points  spacing
  1. axis:    yes   10.460000    0.000000    0.000000    60     0.1743
  2. axis:    yes    0.000000    6.100000    0.000000    35     0.1743
  3. axis:    yes    0.000000    0.000000    4.740000    27     0.1756

  Lengths:  10.460000   6.100000   4.740000
  Angles:   90.000000  90.000000  90.000000

Effective grid spacing dv^(1/3) = 0.1747

                     log10-error:           total        iterations:
           time      wfs    density  force  energy       poisson  magmom
iter:   1  19:43:34                       -220.688388             +0.0000
iter:   2  19:44:14  -0.64  -0.92         -235.503829             +0.0000
iter:   3  19:44:54  -0.40  -0.96         -226.168756             -0.0000
iter:   4  19:45:33  -1.41  -1.29         -225.888186             +0.0000
iter:   5  19:46:13  -1.19  -1.38         -227.589058             +0.0000
iter:   6  19:46:53  -1.39  -1.51         -225.829040             +0.0000
iter:   7  19:47:32  -2.57  -2.06         -225.899012             +0.0000
iter:   8  19:48:12  -2.23  -2.01         -225.642001             -0.0000
iter:   9  19:48:52  -2.68  -2.09         -225.546665             +0.0000
iter:  10  19:49:31  -3.55  -2.95         -225.545883             +0.0000
iter:  11  19:50:11  -3.95  -3.00         -225.547457             +0.0000
iter:  12  19:50:50  -4.29  -3.22         -225.547634             +0.0000
iter:  13  19:51:30  -5.37  -3.36         -225.547525             -0.0000
iter:  14  19:52:10  -5.18  -3.44         -225.547377             -0.0000
iter:  15  19:52:49  -5.36  -3.60         -225.547291             -0.0000
iter:  16  19:53:29  -6.31  -3.68         -225.547276             +0.0000
iter:  17  19:54:09  -6.27  -3.76         -225.547295             -0.0000
iter:  18  19:54:48  -6.76  -3.82         -225.547296             -0.0000
iter:  19  19:55:28  -5.82  -3.83         -225.547261             -0.0000
iter:  20  19:56:07  -7.02  -4.42         -225.547257             -0.0000
iter:  21  19:56:58  -7.84  -4.68         -225.547255             -0.0000
iter:  22  19:57:37  -7.20  -4.77         -225.547253             +0.0000
iter:  23  19:58:27  -7.86  -4.77    -3.01-225.547253             +0.0000
iter:  24  19:59:17  -8.56  -4.92    -3.01-225.547253             +0.0000
iter:  25  19:59:57  -7.40  -4.94         -225.547253             +0.0000
iter:  26  20:00:47  -8.00  -4.93    -2.71-225.547253             +0.0000
iter:  27  20:01:37  -7.82  -5.05    -3.16-225.547253             +0.0000
iter:  28  20:02:27  -8.03  -5.01    -2.83-225.547253             +0.0000
iter:  29  20:03:18  -8.15  -5.22    -2.89-225.547253             +0.0000
iter:  30  20:04:08  -9.58  -5.58    -3.71-225.547253             +0.0000
iter:  31  20:04:58  -9.30  -5.65    -3.77-225.547253             +0.0000
iter:  32  20:05:48  -9.65  -5.76    -3.65-225.547253             +0.0000
iter:  33  20:06:38  -8.71  -5.79    -3.22-225.547253             +0.0000
iter:  34  20:07:28  -9.67  -5.76    -3.68-225.547253             +0.0000
iter:  35  20:08:18  -9.96  -6.11    -3.79-225.547253             +0.0000
iter:  36  20:09:08 -10.17  -6.18    -4.20-225.547253             +0.0000
iter:  37  20:09:58 -10.45  -6.40    -4.19-225.547253             +0.0000
iter:  38  20:10:48 -10.08  -6.32    -4.02-225.547253             +0.0000
iter:  39  20:11:38 -11.53  -7.12    -5.49-225.547253             +0.0000
iter:  40  20:12:28 -12.61  -7.17    -5.50-225.547253             +0.0000
iter:  41  20:13:19 -12.38  -7.20    -5.26-225.547253             +0.0000
iter:  42  20:14:09 -12.04  -7.30    -4.92-225.547253             +0.0000
iter:  43  20:14:59 -13.16  -7.32    -5.45-225.547253             +0.0000
iter:  44  20:15:49 -12.71  -7.43    -5.33-225.547253             +0.0000
iter:  45  20:16:39 -13.26  -7.25    -5.46-225.547253             +0.0000
iter:  46  20:17:29 -12.62  -7.35    -5.41-225.547253             -0.0000
iter:  47  20:18:19 -13.49  -7.50    -6.14-225.547253             -0.0000

Converged after 47 iterations.

Dipole moment: (13.160090, 1.715693, -5.512633) |e|*Ang

Total magnetic moment: (0.000000, 0.000000, -0.000000)
Local magnetic moments:
   0 O  ( 0.000000,  0.000000,  0.001063)
   1 O  ( 0.000000,  0.000000, -0.001038)
   2 O  ( 0.000000,  0.000000, -0.001059)
   3 O  ( 0.000000,  0.000000,  0.001062)
   4 O  ( 0.000000,  0.000000, -0.001065)
   5 O  ( 0.000000,  0.000000,  0.001034)
   6 O  ( 0.000000,  0.000000,  0.001060)
   7 O  ( 0.000000,  0.000000, -0.001060)
   8 O  ( 0.000000,  0.000000,  0.019779)
   9 O  ( 0.000000,  0.000000, -0.019776)
  10 O  ( 0.000000,  0.000000, -0.019779)
  11 O  ( 0.000000,  0.000000,  0.019776)
  12 Mn ( 0.000000,  0.000000,  4.601525)
  13 Mn ( 0.000000,  0.000000, -4.601591)
  14 Mn ( 0.000000,  0.000000, -4.601524)
  15 Mn ( 0.000000,  0.000000,  4.601592)
  16 P  ( 0.000000,  0.000000,  0.001300)
  17 P  ( 0.000000,  0.000000, -0.001293)
  18 P  ( 0.000000,  0.000000, -0.001300)
  19 P  ( 0.000000,  0.000000,  0.001293)
  20 O  ( 0.000000,  0.000000,  0.018072)
  21 O  ( 0.000000,  0.000000, -0.018068)
  22 O  ( 0.000000,  0.000000, -0.018072)
  23 O  ( 0.000000,  0.000000,  0.018067)
  24 Li ( 0.000000,  0.000000, -0.000011)
  25 Li ( 0.000000,  0.000000,  0.000000)
  26 Li ( 0.000000,  0.000000,  0.000011)
  27 Li ( 0.000000,  0.000000, -0.000000)

Energy contributions relative to reference atoms: (reference = -196157.275402)

Kinetic:       +242.940609
Potential:     -215.437294
External:        +0.000000
XC:            -254.965864
Entropy (-ST):   -0.000000
Local:           +1.915297
--------------------------
Free energy:   -225.547253
Extrapolated:  -225.547253

Spin contamination: 9.747498 electrons
Showing only first 2 kpts
                      Up                     Down
 Kpt  Band  Eigenvalues  Occupancy  Eigenvalues  Occupancy
  0    88      3.92313    0.00694      3.92292    0.00694
  0    89      3.97145    0.00694      3.97163    0.00694
  0    90      8.66734    0.00000      8.66738    0.00000
  0    91      8.68682    0.00000      8.68676    0.00000

  1    88      3.91919    0.00694      3.91943    0.00694
  1    89      3.97562    0.00694      3.97543    0.00694
  1    90      8.51310    0.00000      8.51305    0.00000
  1    91      8.52961    0.00000      8.52959    0.00000


Fermi level: 5.31837

Gap: 3.778 eV
Transition (v -> c):
  (s=0, k=94, n=89, [0.08, 0.42, 0.12]) -> (s=0, k=61, n=90, [-0.08, 0.08, -0.12])
Writing to born-0.01-8y+.gpw (mode='all')

Timing:                              incl.     excl.
-----------------------------------------------------------
Hamiltonian:                         0.417     0.002   0.0% |
 Atomic:                             0.057     0.057   0.0% |
  XC Correction:                     0.000     0.000   0.0% |
 Calculate atomic Hamiltonians:      0.181     0.181   0.0% |
 Communicate:                        0.002     0.002   0.0% |
 Initialize Hamiltonian:             0.000     0.000   0.0% |
 Poisson:                            0.002     0.002   0.0% |
 XC 3D grid:                         0.173     0.173   0.0% |
LCAO initialization:               137.353     0.675   0.0% |
 LCAO eigensolver:                  34.343     0.002   0.0% |
  Calculate projections:             0.057     0.057   0.0% |
  DenseAtomicCorrection:             0.083     0.083   0.0% |
  Distribute overlap matrix:         0.007     0.007   0.0% |
  Orbital Layouts:                   0.363     0.363   0.0% |
  Potential matrix:                 33.731    33.731   0.6% |
  Sum over cells:                    0.101     0.101   0.0% |
 LCAO to grid:                     100.071   100.071   1.9% ||
 Set positions (LCAO WFS):           2.265     0.345   0.0% |
  Basic WFS set positions:           0.001     0.001   0.0% |
  Basis functions set positions:     0.000     0.000   0.0% |
  P tci:                             1.050     1.050   0.0% |
  ST tci:                            0.660     0.660   0.0% |
  mktci:                             0.208     0.208   0.0% |
PWDescriptor:                        0.025     0.025   0.0% |
SCF-cycle:                        2126.611     0.334   0.0% |
 Davidson:                        1767.005   570.986  10.7% |---|
  Apply H:                         125.937   121.877   2.3% ||
   HMM T:                            4.059     4.059   0.1% |
  Subspace diag:                   263.444     0.153   0.0% |
   calc_h_matrix:                  172.184    46.633   0.9% |
    Apply H:                       125.551   121.537   2.3% ||
     HMM T:                          4.014     4.014   0.1% |
   diagonalize:                      5.860     5.860   0.1% |
   rotate_psi:                      85.248    85.248   1.6% ||
  calc. matrices:                  554.432   311.486   5.8% |-|
   Apply H:                        242.946   235.793   4.4% |-|
    HMM T:                           7.153     7.153   0.1% |
  diagonalize:                      78.638    78.638   1.5% ||
  rotate_psi:                      173.568   173.568   3.3% ||
 Density:                           69.890     0.001   0.0% |
  Atomic density matrices:           1.243     1.243   0.0% |
  Mix:                              11.262    11.262   0.2% |
  Multipole moments:                 0.028     0.028   0.0% |
  Pseudo density:                   57.357    57.356   1.1% |
   Symmetrize density:               0.001     0.001   0.0% |
 Forces:                           265.256   265.256   5.0% |-|
 Hamiltonian:                       19.715     0.113   0.0% |
  Atomic:                            2.770     2.769   0.1% |
   XC Correction:                    0.000     0.000   0.0% |
  Calculate atomic Hamiltonians:     8.508     8.508   0.2% |
  Communicate:                       0.065     0.065   0.0% |
  Poisson:                           0.078     0.078   0.0% |
  XC 3D grid:                        8.180     8.180   0.2% |
 Orthonormalize:                     4.411     0.004   0.0% |
  calc_s_matrix:                     0.524     0.524   0.0% |
  inverse-cholesky:                  0.055     0.055   0.0% |
  projections:                       2.894     2.894   0.1% |
  rotate_psi_s:                      0.934     0.934   0.0% |
Set symmetry:                        0.000     0.000   0.0% |
Other:                            3066.873  3066.873  57.5% |----------------------|
-----------------------------------------------------------
Total:                                      5331.279 100.0%

Memory usage: 12.98 GiB
Date: Mon Mar 22 21:09:24 2021
