
  ___ ___ ___ _ _ _  
 |   |   |_  | | | | 
 | | | | | . | | | | 
 |__ |  _|___|_____|  20.10.1b1
 |___|_|             

User:   madkru@g006.nifl.fysik.dtu.dk
Date:   Wed Mar 24 15:14:35 2021
Arch:   x86_64
Pid:    12017
Python: 3.7.4
gpaw:   /home/niflheim/madkru/venv_folder/gpaw/gpaw (d224efde0f)
_gpaw:  /home/niflheim/madkru/venv_folder/gpaw/build/lib.linux-x86_64-sandybridge-3.7/
        _gpaw.cpython-37m-x86_64-linux-gnu.so (4fd39e8b1e)
ase:    /home/niflheim/madkru/venv_folder/ase/ase (version 3.21.0b1-4d5a73cb29)
numpy:  /home/niflheim/madkru/venv_folder/lib/python3.7/site-packages/numpy (version 1.19.4)
scipy:  /home/niflheim/madkru/venv_folder/lib/python3.7/site-packages/scipy (version 1.5.4)
libxc:  4.3.4
units:  Angstrom and eV
cores: 64
OMP_NUM_THREADS: 1

Input parameters:
  convergence: {bands: occupied,
                density: 0.0001,
                eigenstates: 4e-08,
                energy: 0.0005,
                forces: 1e-06}
  kpts: [6 6 4]
  mode: {ecut: 600.0,
         gammacentered: False,
         name: pw}
  occupations: {fixmagmom: False,
                name: fermi-dirac,
                width: 0.001}
  setups: {Mn: :d,3.0}
  symmetry: {point_group: False,
             time_reversal: False}

System changes: positions, numbers, cell, pbc, initial_charges, initial_magmoms 

Initialize ...

O-setup:
  name: Oxygen
  id: 9b9d51c344dea68c822856295a461509
  Z: 8.0
  valence: 6
  core: 2
  charge: 0.0
  file: /home/modules/software/GPAW-setups/0.9.20000/O.LDA.gz
  compensation charges: gauss, rc=0.21, lmax=2
  cutoffs: 1.17(filt), 0.83(core),
  valence states:
                energy  radius
    2s(2.00)   -23.752   0.688
    2p(4.00)    -9.195   0.598
    *s           3.459   0.688
    *p          18.016   0.598
    *d           0.000   0.619

  Using partial waves for O as LCAO basis

Mn-setup:
  name: Manganese
  id: 0d715a8018be061a6e9ea6f2d364ac92
  Z: 25.0
  valence: 15
  core: 10
  charge: 0.0
  Hubbard U: 3.000000 eV (l=2, scale=True)
  file: /home/modules/software/GPAW-setups/0.9.20000/Mn.LDA.gz
  compensation charges: gauss, rc=0.38, lmax=2
  cutoffs: 2.14(filt), 0.86(core),
  valence states:
                energy  radius
    3s(2.00)   -85.387   1.275
    4s(2.00)    -5.282   1.275
    3p(6.00)   -54.493   1.281
    4p(0.00)    -1.471   1.281
    3d(5.00)    -7.009   1.138
    *d          20.203   1.138

  Using partial waves for Mn as LCAO basis

P-setup:
  name: Phosphorus
  id: a5561c299094968922a179ab894d2e2d
  Z: 15.0
  valence: 5
  core: 10
  charge: 0.0
  file: /home/modules/software/GPAW-setups/0.9.20000/P.LDA.gz
  compensation charges: gauss, rc=0.30, lmax=2
  cutoffs: 1.69(filt), 1.81(core),
  valence states:
                energy  radius
    3s(2.00)   -14.015   0.953
    3p(3.00)    -5.596   0.953
    *s          13.197   0.953
    *p          21.615   0.953
    *d           0.000   0.953

  Using partial waves for P as LCAO basis

Li-setup:
  name: Lithium
  id: b73562207f97a71b6967473b66fe8b65
  Z: 3.0
  valence: 1
  core: 2
  charge: 0.0
  file: /home/modules/software/GPAW-setups/0.9.20000/Li.LDA.gz
  compensation charges: gauss, rc=0.33, lmax=2
  cutoffs: 1.91(filt), 2.55(core),
  valence states:
                energy  radius
    2s(1.00)    -2.874   1.058
    2p(0.00)    -1.126   1.058
    *s          24.338   1.058

  Using partial waves for Li as LCAO basis

Reference energy: -196157.275402

Spin-polarized calculation.
Magnetic moment: 0.000000

Convergence criteria:
  Maximum total energy change: 0.0005 eV / electron
  Maximum integral of absolute density change: 0.0001 electrons
  Maximum integral of absolute eigenstate change: 4e-08 eV^2
  Maximum change in atomic force: 1e-06 eV / Ang
  Maximum number of iterations: 333

Symmetries present (total): 1

  ( 1  0  0)
  ( 0  1  0)
  ( 0  0  1)

144 k-points: 6 x 6 x 4 Monkhorst-Pack grid
144 k-points in the irreducible part of the Brillouin zone
       k-points in crystal coordinates                weights
   0:    -0.41666667   -0.41666667   -0.37500000          1/144
   1:    -0.41666667   -0.41666667   -0.12500000          1/144
   2:    -0.41666667   -0.41666667    0.12500000          1/144
   3:    -0.41666667   -0.41666667    0.37500000          1/144
   4:    -0.41666667   -0.25000000   -0.37500000          1/144
   5:    -0.41666667   -0.25000000   -0.12500000          1/144
   6:    -0.41666667   -0.25000000    0.12500000          1/144
   7:    -0.41666667   -0.25000000    0.37500000          1/144
   8:    -0.41666667   -0.08333333   -0.37500000          1/144
   9:    -0.41666667   -0.08333333   -0.12500000          1/144
          ...
 143:     0.41666667    0.41666667    0.37500000          1/144

Wave functions: Plane wave expansion
  Cutoff energy: 600.000 eV
  Number of coefficients (min, max): 10068, 10125
  Pulay-stress correction: 0.000000 eV/Ang^3 (de/decut=0.000000)
  Using FFTW library
  ScaLapack parameters: grid=1x1, blocksize=None
  Wavefunction extrapolation:
    Improved wavefunction reuse through dual PAW basis 

  Fermi-Dirac: width=0.0010 eV

Eigensolver
   Davidson(niter=2, smin=None, normalize=True) 

Densities:
  Coarse grid: 60*35*27 grid
  Fine grid: 120*70*54 grid
  Total Charge: 0.000000 

Density mixing:
  Method: difference
  Backend: pulay
  Linear mixing parameter: 0.05
  Mixing with 5 old densities
  Damping of long wave oscillations: 50 

Hamiltonian:
  XC and Coulomb potentials evaluated on a 120*70*54 grid
  Using the LDA Exchange-Correlation functional
 

Memory estimate:
  Process memory now: 13032.30 MiB
  Calculator: 354.82 MiB
    Density: 10.06 MiB
      Arrays: 3.79 MiB
      Localized functions: 4.71 MiB
      Mixer: 1.56 MiB
    Hamiltonian: 2.95 MiB
      Arrays: 2.82 MiB
      XC: 0.00 MiB
      Poisson: 0.00 MiB
      vbar: 0.14 MiB
    Wavefunctions: 341.80 MiB
      Arrays psit_nG: 311.46 MiB
      Eigensolver: 19.99 MiB
      Projections: 2.71 MiB
      Projectors: 4.87 MiB
      PW-descriptor: 2.77 MiB

Total number of cores used: 64
Parallelization over k-points: 16
Domain decomposition: 2 x 2 x 1

Number of atoms: 28
Number of atomic orbitals: 148
Number of bands in calculation: 112
Number of valence electrons: 180
Bands to converge: occupied

... initialized

Initializing position-dependent things.

Density initialized from atomic densities
Creating initial wave functions:
  112 bands from LCAO basis set

     .-------------------------.  
    /|         OP              |  
   / |O            O        O  |  
  /  |       O            O  P |  
 *   |O    Mn      O           |  
 |   |          OLi          O |  
 |   P--O--------------Mn------.  
 |  /          Li    O  Mn  O /   
 | /LiO           PO         /    
 |/       Mn                /     
 *Li-----------------------*      

Positions:
   0 O     -1.330281   -2.539252   -1.168500    ( 0.0000,  0.0000,  0.0000)
   1 O     -3.152392    2.974909    1.200956    ( 0.0000,  0.0000,  0.0000)
   2 O      2.077234    0.510133    1.506966    ( 0.0000,  0.0000,  0.0000)
   3 O      3.899724   -0.074476   -0.862491    ( 0.0000,  0.0000,  0.0000)
   4 O      2.077424    2.974966    1.507072    ( 0.0000,  0.0000,  0.0000)
   5 O      3.899535   -2.539195   -0.862384    ( 0.0000,  0.0000,  0.0000)
   6 O     -1.330092   -0.074418   -1.168395    ( 0.0000,  0.0000,  0.0000)
   7 O     -3.152581    0.510191    1.201063    ( 0.0000,  0.0000,  0.0000)
   8 O     -4.389675   -1.306969   -0.813152    ( 0.0000,  0.0000,  0.0000)
   9 O     -0.093301    1.742683    1.556268    ( 0.0000,  0.0000,  0.0000)
  10 O      5.136817    1.742683    1.151723    ( 0.0000,  0.0000,  0.0000)
  11 O      0.840444   -1.306969   -1.217697    ( 0.0000,  0.0000,  0.0000)
  12 Mn    -2.557192   -1.307258    0.273595    ( 0.0000,  0.0000,  1.0000)
  13 Mn    -1.925535    1.742972   -2.096623    ( 0.0000,  0.0000, -1.0000)
  14 Mn     3.304335    1.742972    0.064976    ( 0.0000,  0.0000, -1.0000)
  15 Mn     2.672678   -1.307258    2.435195    ( 0.0000,  0.0000,  1.0000)
  16 P     -0.597175   -1.306854   -1.801474    ( 0.0000,  0.0000,  0.0000)
  17 P     -3.885565    1.742568    0.568028    ( 0.0000,  0.0000,  0.0000)
  18 P      1.344318    1.752568    2.140045    ( 0.0000,  0.0000,  0.0000)
  19 P      4.632708   -1.306854   -0.229456    ( 0.0000,  0.0000,  0.0000)
  20 O     -0.636957   -1.306861    1.403074    ( 0.0000,  0.0000,  0.0000)
  21 O     -3.845824    1.742575   -0.967462    ( 0.0000,  0.0000,  0.0000)
  22 O      1.384100    1.742576   -1.064503    ( 0.0000,  0.0000,  0.0000)
  23 O      4.592967   -1.306861    1.306033    ( 0.0000,  0.0000,  0.0000)
  24 Li    -4.856429   -2.832143   -2.200714    ( 0.0000,  0.0000,  0.0000)
  25 Li     0.373571   -2.832143    0.169286    ( 0.0000,  0.0000,  0.0000)
  26 Li    -4.856429    0.217857   -2.200714    ( 0.0000,  0.0000,  0.0000)
  27 Li     0.373571    0.217857    0.169286    ( 0.0000,  0.0000,  0.0000)

Unit cell:
           periodic     x           y           z      points  spacing
  1. axis:    yes   10.460000    0.000000    0.000000    60     0.1743
  2. axis:    yes    0.000000    6.100000    0.000000    35     0.1743
  3. axis:    yes    0.000000    0.000000    4.740000    27     0.1756

  Lengths:  10.460000   6.100000   4.740000
  Angles:   90.000000  90.000000  90.000000

Effective grid spacing dv^(1/3) = 0.1747

                     log10-error:           total        iterations:
           time      wfs    density  force  energy       poisson  magmom
iter:   1  15:16:09                       -220.686542             +0.0000
iter:   2  15:16:30  -0.64  -0.92         -235.501873             +0.0000
iter:   3  15:16:51  -0.40  -0.96         -226.166573             -0.0000
iter:   4  15:17:13  -1.41  -1.29         -225.885987             +0.0000
iter:   5  15:17:34  -1.19  -1.38         -227.586469             +0.0000
iter:   6  15:17:56  -1.39  -1.51         -225.826702             +0.0000
iter:   7  15:18:17  -2.57  -2.06         -225.896049             +0.0000
iter:   8  15:18:38  -2.23  -2.01         -225.641693             -0.0000
iter:   9  15:19:00  -2.67  -2.08         -225.544344             +0.0000
iter:  10  15:19:21  -3.54  -2.94         -225.543441             +0.0000
iter:  11  15:19:43  -3.95  -3.00         -225.545200             +0.0000
iter:  12  15:20:04  -4.30  -3.22         -225.545353             +0.0000
iter:  13  15:20:25  -5.39  -3.36         -225.545256             -0.0000
iter:  14  15:20:47  -5.20  -3.44         -225.545118             -0.0000
iter:  15  15:21:08  -5.38  -3.60         -225.545037             -0.0000
iter:  16  15:21:30  -6.34  -3.68         -225.545017             +0.0000
iter:  17  15:21:51  -6.23  -3.75         -225.545037             -0.0000
iter:  18  15:22:12  -6.72  -3.81         -225.545038             -0.0000
iter:  19  15:22:34  -5.81  -3.83         -225.545002             -0.0000
iter:  20  15:22:55  -6.93  -4.39         -225.544998             -0.0000
iter:  21  15:23:22  -7.85  -4.69         -225.544996             -0.0000
iter:  22  15:23:43  -7.04  -4.79         -225.544994             +0.0000
iter:  23  15:24:10  -7.61  -4.68    -2.83-225.544993             +0.0000
iter:  24  15:24:37  -8.69  -5.01    -3.39-225.544993             +0.0000
iter:  25  15:25:04  -7.92  -5.04    -2.53-225.544994             +0.0000
iter:  26  15:25:30  -8.15  -4.96    -2.85-225.544993             +0.0000
iter:  27  15:25:57  -9.16  -5.63    -3.84-225.544993             +0.0000
iter:  28  15:26:24  -9.60  -5.67    -3.69-225.544993             +0.0000
iter:  29  15:26:51  -9.97  -5.72    -3.56-225.544993             +0.0000
iter:  30  15:27:18 -10.16  -5.82    -3.92-225.544993             +0.0000
iter:  31  15:27:44 -10.63  -5.95    -3.79-225.544993             +0.0000
iter:  32  15:28:11 -10.78  -6.02    -4.01-225.544993             +0.0000
iter:  33  15:28:38 -11.27  -6.07    -4.62-225.544993             +0.0000
iter:  34  15:29:05 -11.34  -6.10    -4.36-225.544993             +0.0000
iter:  35  15:29:32 -10.68  -6.13    -4.24-225.544993             +0.0000
iter:  36  15:29:59 -11.22  -6.15    -4.65-225.544993             +0.0000
iter:  37  15:30:25 -12.69  -6.24    -5.01-225.544993             +0.0000
iter:  38  15:30:52 -10.29  -6.27    -3.90-225.544993             +0.0000
iter:  39  15:31:19 -11.41  -6.80    -4.67-225.544993             +0.0000
iter:  40  15:31:46 -11.99  -6.96    -4.86-225.544993             +0.0000
iter:  41  15:32:12 -12.12  -7.01    -5.34-225.544993             +0.0000
iter:  42  15:32:39 -12.93  -7.09    -5.26-225.544993             +0.0000
iter:  43  15:33:06 -11.99  -7.18    -4.78-225.544993             +0.0000
iter:  44  15:33:33 -13.41  -7.16    -5.41-225.544993             +0.0000
iter:  45  15:33:59 -12.43  -7.27    -5.26-225.544993             +0.0000
iter:  46  15:34:26 -14.01  -7.89    -5.92-225.544993             +0.0000
iter:  47  15:34:53 -13.80  -7.89    -6.19-225.544993             +0.0000

Converged after 47 iterations.

Dipole moment: (13.160087, 1.731717, -5.512639) |e|*Ang

Total magnetic moment: (0.000000, 0.000000, 0.000000)
Local magnetic moments:
   0 O  ( 0.000000,  0.000000,  0.001055)
   1 O  ( 0.000000,  0.000000, -0.001052)
   2 O  ( 0.000000,  0.000000, -0.001152)
   3 O  ( 0.000000,  0.000000,  0.001034)
   4 O  ( 0.000000,  0.000000, -0.000967)
   5 O  ( 0.000000,  0.000000,  0.001063)
   6 O  ( 0.000000,  0.000000,  0.001068)
   7 O  ( 0.000000,  0.000000, -0.001046)
   8 O  ( 0.000000,  0.000000,  0.019779)
   9 O  ( 0.000000,  0.000000, -0.019777)
  10 O  ( 0.000000,  0.000000, -0.019778)
  11 O  ( 0.000000,  0.000000,  0.019776)
  12 Mn ( 0.000000,  0.000000,  4.601525)
  13 Mn ( 0.000000,  0.000000, -4.601590)
  14 Mn ( 0.000000,  0.000000, -4.601517)
  15 Mn ( 0.000000,  0.000000,  4.601583)
  16 P  ( 0.000000,  0.000000,  0.001300)
  17 P  ( 0.000000,  0.000000, -0.001293)
  18 P  ( 0.000000,  0.000000, -0.001301)
  19 P  ( 0.000000,  0.000000,  0.001293)
  20 O  ( 0.000000,  0.000000,  0.018072)
  21 O  ( 0.000000,  0.000000, -0.018068)
  22 O  ( 0.000000,  0.000000, -0.018073)
  23 O  ( 0.000000,  0.000000,  0.018068)
  24 Li ( 0.000000,  0.000000, -0.000000)
  25 Li ( 0.000000,  0.000000, -0.000003)
  26 Li ( 0.000000,  0.000000,  0.000000)
  27 Li ( 0.000000,  0.000000,  0.000003)

Energy contributions relative to reference atoms: (reference = -196157.275402)

Kinetic:       +242.954733
Potential:     -215.448014
External:        +0.000000
XC:            -254.966986
Entropy (-ST):   -0.000000
Local:           +1.915273
--------------------------
Free energy:   -225.544993
Extrapolated:  -225.544993

Spin contamination: 9.747492 electrons
Showing only first 2 kpts
                      Up                     Down
 Kpt  Band  Eigenvalues  Occupancy  Eigenvalues  Occupancy
  0    88      3.92271    0.00694      3.92313    0.00694
  0    89      3.97172    0.00694      3.97144    0.00694
  0    90      8.66739    0.00000      8.66736    0.00000
  0    91      8.68679    0.00000      8.68675    0.00000

  1    88      3.91938    0.00694      3.91914    0.00694
  1    89      3.97537    0.00694      3.97556    0.00694
  1    90      8.51307    0.00000      8.51309    0.00000
  1    91      8.52960    0.00000      8.52967    0.00000


Fermi level: 5.31837

Gap: 3.778 eV
Transition (v -> c):
  (s=1, k=50, n=89, [-0.08, -0.42, 0.12]) -> (s=0, k=85, n=90, [0.08, 0.08, -0.12])
Writing to born-0.01-18y+.gpw (mode='all')

Timing:                              incl.     excl.
-----------------------------------------------------------
Hamiltonian:                         0.248     0.002   0.0% |
 Atomic:                             0.057     0.057   0.0% |
  XC Correction:                     0.000     0.000   0.0% |
 Calculate atomic Hamiltonians:      0.093     0.093   0.0% |
 Communicate:                        0.002     0.002   0.0% |
 Initialize Hamiltonian:             0.000     0.000   0.0% |
 Poisson:                            0.001     0.001   0.0% |
 XC 3D grid:                         0.093     0.093   0.0% |
LCAO initialization:                67.567     0.678   0.0% |
 LCAO eigensolver:                  17.658     0.002   0.0% |
  Calculate projections:             0.029     0.029   0.0% |
  DenseAtomicCorrection:             0.042     0.042   0.0% |
  Distribute overlap matrix:         0.093     0.093   0.0% |
  Orbital Layouts:                   0.474     0.474   0.0% |
  Potential matrix:                 16.916    16.916   0.6% |
  Sum over cells:                    0.101     0.101   0.0% |
 LCAO to grid:                      47.951    47.951   1.6% ||
 Set positions (LCAO WFS):           1.281     0.193   0.0% |
  Basic WFS set positions:           0.001     0.001   0.0% |
  Basis functions set positions:     0.000     0.000   0.0% |
  P tci:                             0.519     0.519   0.0% |
  ST tci:                            0.361     0.361   0.0% |
  mktci:                             0.207     0.207   0.0% |
PWDescriptor:                        0.026     0.026   0.0% |
SCF-cycle:                        1148.814     1.831   0.1% |
 Davidson:                         955.501   298.178   9.9% |---|
  Apply H:                          64.514    62.633   2.1% ||
   HMM T:                            1.881     1.881   0.1% |
  Subspace diag:                   138.322     0.141   0.0% |
   calc_h_matrix:                   88.186    23.428   0.8% |
    Apply H:                        64.759    62.925   2.1% ||
     HMM T:                          1.833     1.833   0.1% |
   diagonalize:                      6.835     6.835   0.2% |
   rotate_psi:                      43.160    43.160   1.4% ||
  calc. matrices:                  282.701   157.774   5.2% |-|
   Apply H:                        124.927   121.462   4.0% |-|
    HMM T:                           3.466     3.466   0.1% |
  diagonalize:                      78.405    78.405   2.6% ||
  rotate_psi:                       93.381    93.381   3.1% ||
 Density:                           38.110     0.001   0.0% |
  Atomic density matrices:           0.790     0.790   0.0% |
  Mix:                               5.963     5.963   0.2% |
  Multipole moments:                 0.017     0.017   0.0% |
  Pseudo density:                   31.339    31.338   1.0% |
   Symmetrize density:               0.001     0.001   0.0% |
 Forces:                           139.517   139.517   4.6% |-|
 Hamiltonian:                       11.571     0.100   0.0% |
  Atomic:                            2.670     2.670   0.1% |
   XC Correction:                    0.000     0.000   0.0% |
  Calculate atomic Hamiltonians:     4.392     4.392   0.1% |
  Communicate:                       0.079     0.079   0.0% |
  Poisson:                           0.035     0.035   0.0% |
  XC 3D grid:                        4.296     4.296   0.1% |
 Orthonormalize:                     2.285     0.003   0.0% |
  calc_s_matrix:                     0.264     0.264   0.0% |
  inverse-cholesky:                  0.078     0.078   0.0% |
  projections:                       1.467     1.467   0.0% |
  rotate_psi_s:                      0.473     0.473   0.0% |
Set symmetry:                        0.000     0.000   0.0% |
Other:                            1796.431  1796.431  59.6% |-----------------------|
-----------------------------------------------------------
Total:                                      3013.086 100.0%

Memory usage: 12.76 GiB
Date: Wed Mar 24 16:04:48 2021
