
  ___ ___ ___ _ _ _  
 |   |   |_  | | | | 
 | | | | | . | | | | 
 |__ |  _|___|_____|  20.10.1b1
 |___|_|             

User:   madkru@g006.nifl.fysik.dtu.dk
Date:   Wed Mar 24 14:43:58 2021
Arch:   x86_64
Pid:    12017
Python: 3.7.4
gpaw:   /home/niflheim/madkru/venv_folder/gpaw/gpaw (d224efde0f)
_gpaw:  /home/niflheim/madkru/venv_folder/gpaw/build/lib.linux-x86_64-sandybridge-3.7/
        _gpaw.cpython-37m-x86_64-linux-gnu.so (4fd39e8b1e)
ase:    /home/niflheim/madkru/venv_folder/ase/ase (version 3.21.0b1-4d5a73cb29)
numpy:  /home/niflheim/madkru/venv_folder/lib/python3.7/site-packages/numpy (version 1.19.4)
scipy:  /home/niflheim/madkru/venv_folder/lib/python3.7/site-packages/scipy (version 1.5.4)
libxc:  4.3.4
units:  Angstrom and eV
cores: 64
OMP_NUM_THREADS: 1

Input parameters:
  convergence: {bands: occupied,
                density: 0.0001,
                eigenstates: 4e-08,
                energy: 0.0005,
                forces: 1e-06}
  kpts: [6 6 4]
  mode: {ecut: 600.0,
         gammacentered: False,
         name: pw}
  occupations: {fixmagmom: False,
                name: fermi-dirac,
                width: 0.001}
  setups: {Mn: :d,3.0}
  symmetry: {point_group: False,
             time_reversal: False}

System changes: positions, numbers, cell, pbc, initial_charges, initial_magmoms 

Initialize ...

O-setup:
  name: Oxygen
  id: 9b9d51c344dea68c822856295a461509
  Z: 8.0
  valence: 6
  core: 2
  charge: 0.0
  file: /home/modules/software/GPAW-setups/0.9.20000/O.LDA.gz
  compensation charges: gauss, rc=0.21, lmax=2
  cutoffs: 1.17(filt), 0.83(core),
  valence states:
                energy  radius
    2s(2.00)   -23.752   0.688
    2p(4.00)    -9.195   0.598
    *s           3.459   0.688
    *p          18.016   0.598
    *d           0.000   0.619

  Using partial waves for O as LCAO basis

Mn-setup:
  name: Manganese
  id: 0d715a8018be061a6e9ea6f2d364ac92
  Z: 25.0
  valence: 15
  core: 10
  charge: 0.0
  Hubbard U: 3.000000 eV (l=2, scale=True)
  file: /home/modules/software/GPAW-setups/0.9.20000/Mn.LDA.gz
  compensation charges: gauss, rc=0.38, lmax=2
  cutoffs: 2.14(filt), 0.86(core),
  valence states:
                energy  radius
    3s(2.00)   -85.387   1.275
    4s(2.00)    -5.282   1.275
    3p(6.00)   -54.493   1.281
    4p(0.00)    -1.471   1.281
    3d(5.00)    -7.009   1.138
    *d          20.203   1.138

  Using partial waves for Mn as LCAO basis

P-setup:
  name: Phosphorus
  id: a5561c299094968922a179ab894d2e2d
  Z: 15.0
  valence: 5
  core: 10
  charge: 0.0
  file: /home/modules/software/GPAW-setups/0.9.20000/P.LDA.gz
  compensation charges: gauss, rc=0.30, lmax=2
  cutoffs: 1.69(filt), 1.81(core),
  valence states:
                energy  radius
    3s(2.00)   -14.015   0.953
    3p(3.00)    -5.596   0.953
    *s          13.197   0.953
    *p          21.615   0.953
    *d           0.000   0.953

  Using partial waves for P as LCAO basis

Li-setup:
  name: Lithium
  id: b73562207f97a71b6967473b66fe8b65
  Z: 3.0
  valence: 1
  core: 2
  charge: 0.0
  file: /home/modules/software/GPAW-setups/0.9.20000/Li.LDA.gz
  compensation charges: gauss, rc=0.33, lmax=2
  cutoffs: 1.91(filt), 2.55(core),
  valence states:
                energy  radius
    2s(1.00)    -2.874   1.058
    2p(0.00)    -1.126   1.058
    *s          24.338   1.058

  Using partial waves for Li as LCAO basis

Reference energy: -196157.275402

Spin-polarized calculation.
Magnetic moment: 0.000000

Convergence criteria:
  Maximum total energy change: 0.0005 eV / electron
  Maximum integral of absolute density change: 0.0001 electrons
  Maximum integral of absolute eigenstate change: 4e-08 eV^2
  Maximum change in atomic force: 1e-06 eV / Ang
  Maximum number of iterations: 333

Symmetries present (total): 1

  ( 1  0  0)
  ( 0  1  0)
  ( 0  0  1)

144 k-points: 6 x 6 x 4 Monkhorst-Pack grid
144 k-points in the irreducible part of the Brillouin zone
       k-points in crystal coordinates                weights
   0:    -0.41666667   -0.41666667   -0.37500000          1/144
   1:    -0.41666667   -0.41666667   -0.12500000          1/144
   2:    -0.41666667   -0.41666667    0.12500000          1/144
   3:    -0.41666667   -0.41666667    0.37500000          1/144
   4:    -0.41666667   -0.25000000   -0.37500000          1/144
   5:    -0.41666667   -0.25000000   -0.12500000          1/144
   6:    -0.41666667   -0.25000000    0.12500000          1/144
   7:    -0.41666667   -0.25000000    0.37500000          1/144
   8:    -0.41666667   -0.08333333   -0.37500000          1/144
   9:    -0.41666667   -0.08333333   -0.12500000          1/144
          ...
 143:     0.41666667    0.41666667    0.37500000          1/144

Wave functions: Plane wave expansion
  Cutoff energy: 600.000 eV
  Number of coefficients (min, max): 10068, 10125
  Pulay-stress correction: 0.000000 eV/Ang^3 (de/decut=0.000000)
  Using FFTW library
  ScaLapack parameters: grid=1x1, blocksize=None
  Wavefunction extrapolation:
    Improved wavefunction reuse through dual PAW basis 

  Fermi-Dirac: width=0.0010 eV

Eigensolver
   Davidson(niter=2, smin=None, normalize=True) 

Densities:
  Coarse grid: 60*35*27 grid
  Fine grid: 120*70*54 grid
  Total Charge: 0.000000 

Density mixing:
  Method: difference
  Backend: pulay
  Linear mixing parameter: 0.05
  Mixing with 5 old densities
  Damping of long wave oscillations: 50 

Hamiltonian:
  XC and Coulomb potentials evaluated on a 120*70*54 grid
  Using the LDA Exchange-Correlation functional
 

Memory estimate:
  Process memory now: 13014.30 MiB
  Calculator: 354.82 MiB
    Density: 10.06 MiB
      Arrays: 3.79 MiB
      Localized functions: 4.71 MiB
      Mixer: 1.56 MiB
    Hamiltonian: 2.95 MiB
      Arrays: 2.82 MiB
      XC: 0.00 MiB
      Poisson: 0.00 MiB
      vbar: 0.14 MiB
    Wavefunctions: 341.80 MiB
      Arrays psit_nG: 311.46 MiB
      Eigensolver: 19.99 MiB
      Projections: 2.71 MiB
      Projectors: 4.87 MiB
      PW-descriptor: 2.77 MiB

Total number of cores used: 64
Parallelization over k-points: 16
Domain decomposition: 2 x 2 x 1

Number of atoms: 28
Number of atomic orbitals: 148
Number of bands in calculation: 112
Number of valence electrons: 180
Bands to converge: occupied

... initialized

Initializing position-dependent things.

Density initialized from atomic densities
Creating initial wave functions:
  112 bands from LCAO basis set

     .-------------------------.  
    /|         OP              |  
   / |O            O        O  |  
  /  |       O            O  P |  
 *   |O    Mn      O           |  
 |   |          OLi          O |  
 |   P--O--------------Mn------.  
 |  /          Li    O  Mn  O /   
 | /LiO           PO         /    
 |/       Mn                /     
 *Li-----------------------*      

Positions:
   0 O     -1.330281   -2.539252   -1.168500    ( 0.0000,  0.0000,  0.0000)
   1 O     -3.152392    2.974909    1.200956    ( 0.0000,  0.0000,  0.0000)
   2 O      2.077234    0.510133    1.506966    ( 0.0000,  0.0000,  0.0000)
   3 O      3.899724   -0.074476   -0.862491    ( 0.0000,  0.0000,  0.0000)
   4 O      2.077424    2.974966    1.507072    ( 0.0000,  0.0000,  0.0000)
   5 O      3.899535   -2.539195   -0.862384    ( 0.0000,  0.0000,  0.0000)
   6 O     -1.330092   -0.074418   -1.168395    ( 0.0000,  0.0000,  0.0000)
   7 O     -3.152581    0.510191    1.201063    ( 0.0000,  0.0000,  0.0000)
   8 O     -4.389675   -1.306969   -0.813152    ( 0.0000,  0.0000,  0.0000)
   9 O     -0.093301    1.742683    1.556268    ( 0.0000,  0.0000,  0.0000)
  10 O      5.136817    1.742683    1.151723    ( 0.0000,  0.0000,  0.0000)
  11 O      0.840444   -1.306969   -1.217697    ( 0.0000,  0.0000,  0.0000)
  12 Mn    -2.557192   -1.307258    0.273595    ( 0.0000,  0.0000,  1.0000)
  13 Mn    -1.925535    1.742972   -2.096623    ( 0.0000,  0.0000, -1.0000)
  14 Mn     3.304335    1.742972    0.064976    ( 0.0000,  0.0000, -1.0000)
  15 Mn     2.672678   -1.307258    2.435195    ( 0.0000,  0.0000,  1.0000)
  16 P     -0.597175   -1.306854   -1.801474    ( 0.0000,  0.0000,  0.0000)
  17 P     -3.885565    1.742568    0.568028    ( 0.0000,  0.0000,  0.0000)
  18 P      1.344318    1.732568    2.140045    ( 0.0000,  0.0000,  0.0000)
  19 P      4.632708   -1.306854   -0.229456    ( 0.0000,  0.0000,  0.0000)
  20 O     -0.636957   -1.306861    1.403074    ( 0.0000,  0.0000,  0.0000)
  21 O     -3.845824    1.742575   -0.967462    ( 0.0000,  0.0000,  0.0000)
  22 O      1.384100    1.742576   -1.064503    ( 0.0000,  0.0000,  0.0000)
  23 O      4.592967   -1.306861    1.306033    ( 0.0000,  0.0000,  0.0000)
  24 Li    -4.856429   -2.832143   -2.200714    ( 0.0000,  0.0000,  0.0000)
  25 Li     0.373571   -2.832143    0.169286    ( 0.0000,  0.0000,  0.0000)
  26 Li    -4.856429    0.217857   -2.200714    ( 0.0000,  0.0000,  0.0000)
  27 Li     0.373571    0.217857    0.169286    ( 0.0000,  0.0000,  0.0000)

Unit cell:
           periodic     x           y           z      points  spacing
  1. axis:    yes   10.460000    0.000000    0.000000    60     0.1743
  2. axis:    yes    0.000000    6.100000    0.000000    35     0.1743
  3. axis:    yes    0.000000    0.000000    4.740000    27     0.1756

  Lengths:  10.460000   6.100000   4.740000
  Angles:   90.000000  90.000000  90.000000

Effective grid spacing dv^(1/3) = 0.1747

                     log10-error:           total        iterations:
           time      wfs    density  force  energy       poisson  magmom
iter:   1  14:45:33                       -220.686527             +0.0000
iter:   2  14:45:54  -0.64  -0.92         -235.501862             +0.0000
iter:   3  14:46:16  -0.40  -0.96         -226.166575             -0.0000
iter:   4  14:46:37  -1.41  -1.29         -225.885987             +0.0000
iter:   5  14:46:59  -1.19  -1.38         -227.586465             +0.0000
iter:   6  14:47:20  -1.39  -1.51         -225.826705             +0.0000
iter:   7  14:47:41  -2.57  -2.06         -225.896075             +0.0000
iter:   8  14:48:03  -2.23  -2.01         -225.641621             -0.0000
iter:   9  14:48:24  -2.67  -2.08         -225.544347             +0.0000
iter:  10  14:48:46  -3.54  -2.94         -225.543448             +0.0000
iter:  11  14:49:07  -3.95  -3.00         -225.545201             +0.0000
iter:  12  14:49:29  -4.30  -3.22         -225.545355             +0.0000
iter:  13  14:49:50  -5.39  -3.36         -225.545257             -0.0000
iter:  14  14:50:12  -5.20  -3.44         -225.545119             -0.0000
iter:  15  14:50:33  -5.38  -3.60         -225.545038             -0.0000
iter:  16  14:50:54  -6.34  -3.68         -225.545018             +0.0000
iter:  17  14:51:16  -6.24  -3.75         -225.545038             -0.0000
iter:  18  14:51:37  -6.72  -3.81         -225.545039             -0.0000
iter:  19  14:51:59  -5.81  -3.83         -225.545003             -0.0000
iter:  20  14:52:20  -6.94  -4.39         -225.544999             -0.0000
iter:  21  14:52:47  -7.87  -4.69         -225.544997             -0.0000
iter:  22  14:53:09  -7.01  -4.78         -225.544995             -0.0000
iter:  23  14:53:35  -7.59  -4.68    -2.82-225.544994             -0.0000
iter:  24  14:54:02  -8.70  -5.01    -3.36-225.544994             -0.0000
iter:  25  14:54:29  -7.87  -5.03    -2.53-225.544995             -0.0000
iter:  26  14:54:56  -8.10  -4.96    -2.83-225.544994             -0.0000
iter:  27  14:55:22  -9.08  -5.60    -3.82-225.544994             -0.0000
iter:  28  14:55:49  -9.57  -5.62    -3.66-225.544994             -0.0000
iter:  29  14:56:16  -9.97  -5.68    -3.52-225.544994             -0.0000
iter:  30  14:56:43 -10.33  -5.82    -3.90-225.544994             -0.0000
iter:  31  14:57:09 -10.64  -5.92    -3.77-225.544994             -0.0000
iter:  32  14:57:36 -10.72  -6.00    -3.93-225.544994             -0.0000
iter:  33  14:58:03 -11.53  -6.05    -4.63-225.544994             -0.0000
iter:  34  14:58:30 -11.04  -6.07    -4.21-225.544994             -0.0000
iter:  35  14:58:57 -10.26  -6.12    -4.14-225.544994             -0.0000
iter:  36  14:59:23 -10.56  -6.25    -4.14-225.544994             -0.0000
iter:  37  14:59:50 -11.93  -6.44    -5.25-225.544994             -0.0000
iter:  38  15:00:17 -10.68  -6.48    -4.53-225.544994             -0.0000
iter:  39  15:00:44 -11.52  -6.82    -5.04-225.544994             -0.0000
iter:  40  15:01:10 -12.17  -6.96    -4.65-225.544994             -0.0000
iter:  41  15:01:37 -12.51  -7.04    -4.91-225.544994             -0.0000
iter:  42  15:02:04 -12.22  -7.44    -5.06-225.544994             -0.0000
iter:  43  15:02:31 -13.15  -7.49    -5.33-225.544994             -0.0000
iter:  44  15:02:57 -13.26  -7.53    -5.19-225.544994             +0.0000
iter:  45  15:03:24 -13.70  -7.77    -5.79-225.544994             +0.0000
iter:  46  15:03:51 -14.66  -7.82    -5.81-225.544994             +0.0000
iter:  47  15:04:18 -13.16  -7.87    -5.69-225.544994             +0.0000
iter:  48  15:04:45 -13.98  -8.01    -5.84-225.544994             +0.0000
iter:  49  15:05:11 -14.61  -8.12    -5.96-225.544994             -0.0000
iter:  50  15:05:38 -15.09  -8.19    -6.23-225.544994             -0.0000

Converged after 50 iterations.

Dipole moment: (13.160086, 1.698897, -5.512639) |e|*Ang

Total magnetic moment: (0.000000, 0.000000, -0.000000)
Local magnetic moments:
   0 O  ( 0.000000,  0.000000,  0.001076)
   1 O  ( 0.000000,  0.000000, -0.001054)
   2 O  ( 0.000000,  0.000000, -0.000959)
   3 O  ( 0.000000,  0.000000,  0.001055)
   4 O  ( 0.000000,  0.000000, -0.001160)
   5 O  ( 0.000000,  0.000000,  0.001042)
   6 O  ( 0.000000,  0.000000,  0.001047)
   7 O  ( 0.000000,  0.000000, -0.001044)
   8 O  ( 0.000000,  0.000000,  0.019779)
   9 O  ( 0.000000,  0.000000, -0.019777)
  10 O  ( 0.000000,  0.000000, -0.019779)
  11 O  ( 0.000000,  0.000000,  0.019776)
  12 Mn ( 0.000000,  0.000000,  4.601525)
  13 Mn ( 0.000000,  0.000000, -4.601590)
  14 Mn ( 0.000000,  0.000000, -4.601517)
  15 Mn ( 0.000000,  0.000000,  4.601583)
  16 P  ( 0.000000,  0.000000,  0.001300)
  17 P  ( 0.000000,  0.000000, -0.001293)
  18 P  ( 0.000000,  0.000000, -0.001301)
  19 P  ( 0.000000,  0.000000,  0.001293)
  20 O  ( 0.000000,  0.000000,  0.018072)
  21 O  ( 0.000000,  0.000000, -0.018068)
  22 O  ( 0.000000,  0.000000, -0.018073)
  23 O  ( 0.000000,  0.000000,  0.018068)
  24 Li ( 0.000000,  0.000000,  0.000000)
  25 Li ( 0.000000,  0.000000,  0.000003)
  26 Li ( 0.000000,  0.000000, -0.000000)
  27 Li ( 0.000000,  0.000000, -0.000003)

Energy contributions relative to reference atoms: (reference = -196157.275402)

Kinetic:       +242.954808
Potential:     -215.448062
External:        +0.000000
XC:            -254.967007
Entropy (-ST):   -0.000000
Local:           +1.915268
--------------------------
Free energy:   -225.544994
Extrapolated:  -225.544994

Spin contamination: 9.747492 electrons
Showing only first 2 kpts
                      Up                     Down
 Kpt  Band  Eigenvalues  Occupancy  Eigenvalues  Occupancy
  0    88      3.92317    0.00694      3.92285    0.00694
  0    89      3.97156    0.00694      3.97198    0.00694
  0    90      8.66738    0.00000      8.66735    0.00000
  0    91      8.68681    0.00000      8.68680    0.00000

  1    88      3.91946    0.00694      3.91980    0.00694
  1    89      3.97555    0.00694      3.97558    0.00694
  1    90      8.51307    0.00000      8.51305    0.00000
  1    91      8.52962    0.00000      8.52952    0.00000


Fermi level: 5.31837

Gap: 3.778 eV
Transition (v -> c):
  (s=1, k=70, n=89, [-0.08, 0.42, 0.12]) -> (s=0, k=62, n=90, [-0.08, 0.08, 0.12])
Writing to born-0.01-18y-.gpw (mode='all')

Timing:                              incl.     excl.
-----------------------------------------------------------
Hamiltonian:                         0.248     0.002   0.0% |
 Atomic:                             0.057     0.057   0.0% |
  XC Correction:                     0.000     0.000   0.0% |
 Calculate atomic Hamiltonians:      0.094     0.094   0.0% |
 Communicate:                        0.001     0.001   0.0% |
 Initialize Hamiltonian:             0.000     0.000   0.0% |
 Poisson:                            0.001     0.001   0.0% |
 XC 3D grid:                         0.093     0.093   0.0% |
LCAO initialization:                67.530     0.679   0.0% |
 LCAO eigensolver:                  17.868     0.002   0.0% |
  Calculate projections:             0.029     0.029   0.0% |
  DenseAtomicCorrection:             0.043     0.043   0.0% |
  Distribute overlap matrix:         0.321     0.321   0.0% |
  Orbital Layouts:                   0.473     0.473   0.0% |
  Potential matrix:                 16.898    16.898   0.5% |
  Sum over cells:                    0.102     0.102   0.0% |
 LCAO to grid:                      47.677    47.677   1.5% ||
 Set positions (LCAO WFS):           1.307     0.189   0.0% |
  Basic WFS set positions:           0.001     0.001   0.0% |
  Basis functions set positions:     0.000     0.000   0.0% |
  P tci:                             0.520     0.520   0.0% |
  ST tci:                            0.360     0.360   0.0% |
  mktci:                             0.237     0.237   0.0% |
PWDescriptor:                        0.025     0.025   0.0% |
SCF-cycle:                        1231.195     3.594   0.1% |
 Davidson:                        1017.121   317.561  10.1% |---|
  Apply H:                          68.932    66.874   2.1% ||
   HMM T:                            2.058     2.058   0.1% |
  Subspace diag:                   147.066     0.150   0.0% |
   calc_h_matrix:                   93.701    24.937   0.8% |
    Apply H:                        68.764    66.757   2.1% ||
     HMM T:                          2.007     2.007   0.1% |
   diagonalize:                      7.289     7.289   0.2% |
   rotate_psi:                      45.926    45.926   1.5% ||
  calc. matrices:                  300.958   167.776   5.3% |-|
   Apply H:                        133.182   129.447   4.1% |-|
    HMM T:                           3.736     3.736   0.1% |
  diagonalize:                      83.288    83.288   2.7% ||
  rotate_psi:                       99.317    99.317   3.2% ||
 Density:                           41.040     0.001   0.0% |
  Atomic density matrices:           0.881     0.881   0.0% |
  Mix:                               6.365     6.365   0.2% |
  Multipole moments:                 0.019     0.019   0.0% |
  Pseudo density:                   33.775    33.774   1.1% |
   Symmetrize density:               0.001     0.001   0.0% |
 Forces:                           154.784   154.784   4.9% |-|
 Hamiltonian:                       12.373     0.107   0.0% |
  Atomic:                            2.924     2.924   0.1% |
   XC Correction:                    0.000     0.000   0.0% |
  Calculate atomic Hamiltonians:     4.652     4.652   0.1% |
  Communicate:                       0.075     0.075   0.0% |
  Poisson:                           0.039     0.039   0.0% |
  XC 3D grid:                        4.577     4.577   0.1% |
 Orthonormalize:                     2.282     0.003   0.0% |
  calc_s_matrix:                     0.264     0.264   0.0% |
  inverse-cholesky:                  0.077     0.077   0.0% |
  projections:                       1.466     1.466   0.0% |
  rotate_psi_s:                      0.472     0.472   0.0% |
Set symmetry:                        0.000     0.000   0.0% |
Other:                            1840.448  1840.448  58.6% |----------------------|
-----------------------------------------------------------
Total:                                      3139.447 100.0%

Memory usage: 12.73 GiB
Date: Wed Mar 24 15:36:17 2021
