
  ___ ___ ___ _ _ _  
 |   |   |_  | | | | 
 | | | | | . | | | | 
 |__ |  _|___|_____|  20.10.1b1
 |___|_|             

User:   madkru@g031.nifl.fysik.dtu.dk
Date:   Tue Mar 23 00:30:50 2021
Arch:   x86_64
Pid:    47913
Python: 3.7.4
gpaw:   /home/niflheim/madkru/venv_folder/gpaw/gpaw (d0d1ca1c71)
_gpaw:  /home/niflheim/madkru/venv_folder/gpaw/build/lib.linux-x86_64-sandybridge-3.7/
        _gpaw.cpython-37m-x86_64-linux-gnu.so (4fd39e8b1e)
ase:    /home/niflheim/madkru/venv_folder/ase/ase (version 3.21.0b1-7e6c206a91)
numpy:  /home/niflheim/madkru/venv_folder/lib/python3.7/site-packages/numpy (version 1.19.4)
scipy:  /home/niflheim/madkru/venv_folder/lib/python3.7/site-packages/scipy (version 1.5.4)
libxc:  4.3.4
units:  Angstrom and eV
cores: 32
OMP_NUM_THREADS: 1

Input parameters:
  convergence: {bands: occupied,
                density: 0.0001,
                eigenstates: 4e-08,
                energy: 0.0005,
                forces: 1e-06}
  kpts: [6 6 4]
  mode: {ecut: 600.0,
         gammacentered: False,
         name: pw}
  occupations: {fixmagmom: False,
                name: fermi-dirac,
                width: 0.001}
  setups: {Mn: :d,3.0}
  symmetry: {point_group: False,
             time_reversal: False}

System changes: positions, numbers, cell, pbc, initial_charges, initial_magmoms 

Initialize ...

O-setup:
  name: Oxygen
  id: 9b9d51c344dea68c822856295a461509
  Z: 8.0
  valence: 6
  core: 2
  charge: 0.0
  file: /home/modules/software/GPAW-setups/0.9.20000/O.LDA.gz
  compensation charges: gauss, rc=0.21, lmax=2
  cutoffs: 1.17(filt), 0.83(core),
  valence states:
                energy  radius
    2s(2.00)   -23.752   0.688
    2p(4.00)    -9.195   0.598
    *s           3.459   0.688
    *p          18.016   0.598
    *d           0.000   0.619

  Using partial waves for O as LCAO basis

Mn-setup:
  name: Manganese
  id: 0d715a8018be061a6e9ea6f2d364ac92
  Z: 25.0
  valence: 15
  core: 10
  charge: 0.0
  Hubbard U: 3.000000 eV (l=2, scale=True)
  file: /home/modules/software/GPAW-setups/0.9.20000/Mn.LDA.gz
  compensation charges: gauss, rc=0.38, lmax=2
  cutoffs: 2.14(filt), 0.86(core),
  valence states:
                energy  radius
    3s(2.00)   -85.387   1.275
    4s(2.00)    -5.282   1.275
    3p(6.00)   -54.493   1.281
    4p(0.00)    -1.471   1.281
    3d(5.00)    -7.009   1.138
    *d          20.203   1.138

  Using partial waves for Mn as LCAO basis

P-setup:
  name: Phosphorus
  id: a5561c299094968922a179ab894d2e2d
  Z: 15.0
  valence: 5
  core: 10
  charge: 0.0
  file: /home/modules/software/GPAW-setups/0.9.20000/P.LDA.gz
  compensation charges: gauss, rc=0.30, lmax=2
  cutoffs: 1.69(filt), 1.81(core),
  valence states:
                energy  radius
    3s(2.00)   -14.015   0.953
    3p(3.00)    -5.596   0.953
    *s          13.197   0.953
    *p          21.615   0.953
    *d           0.000   0.953

  Using partial waves for P as LCAO basis

Li-setup:
  name: Lithium
  id: b73562207f97a71b6967473b66fe8b65
  Z: 3.0
  valence: 1
  core: 2
  charge: 0.0
  file: /home/modules/software/GPAW-setups/0.9.20000/Li.LDA.gz
  compensation charges: gauss, rc=0.33, lmax=2
  cutoffs: 1.91(filt), 2.55(core),
  valence states:
                energy  radius
    2s(1.00)    -2.874   1.058
    2p(0.00)    -1.126   1.058
    *s          24.338   1.058

  Using partial waves for Li as LCAO basis

Reference energy: -196157.275402

Spin-polarized calculation.
Magnetic moment: 0.000000

Convergence criteria:
  Maximum total energy change: 0.0005 eV / electron
  Maximum integral of absolute density change: 0.0001 electrons
  Maximum integral of absolute eigenstate change: 4e-08 eV^2
  Maximum change in atomic force: 1e-06 eV / Ang
  Maximum number of iterations: 333

Symmetries present (total): 1

  ( 1  0  0)
  ( 0  1  0)
  ( 0  0  1)

144 k-points: 6 x 6 x 4 Monkhorst-Pack grid
144 k-points in the irreducible part of the Brillouin zone
       k-points in crystal coordinates                weights
   0:    -0.41666667   -0.41666667   -0.37500000          1/144
   1:    -0.41666667   -0.41666667   -0.12500000          1/144
   2:    -0.41666667   -0.41666667    0.12500000          1/144
   3:    -0.41666667   -0.41666667    0.37500000          1/144
   4:    -0.41666667   -0.25000000   -0.37500000          1/144
   5:    -0.41666667   -0.25000000   -0.12500000          1/144
   6:    -0.41666667   -0.25000000    0.12500000          1/144
   7:    -0.41666667   -0.25000000    0.37500000          1/144
   8:    -0.41666667   -0.08333333   -0.37500000          1/144
   9:    -0.41666667   -0.08333333   -0.12500000          1/144
          ...
 143:     0.41666667    0.41666667    0.37500000          1/144

Wave functions: Plane wave expansion
  Cutoff energy: 600.000 eV
  Number of coefficients (min, max): 10068, 10125
  Pulay-stress correction: 0.000000 eV/Ang^3 (de/decut=0.000000)
  Using FFTW library
  ScaLapack parameters: grid=1x1, blocksize=None
  Wavefunction extrapolation:
    Improved wavefunction reuse through dual PAW basis 

  Fermi-Dirac: width=0.0010 eV

Eigensolver
   Davidson(niter=2, smin=None, normalize=True) 

Densities:
  Coarse grid: 60*35*27 grid
  Fine grid: 120*70*54 grid
  Total Charge: 0.000000 

Density mixing:
  Method: difference
  Backend: pulay
  Linear mixing parameter: 0.05
  Mixing with 5 old densities
  Damping of long wave oscillations: 50 

Hamiltonian:
  XC and Coulomb potentials evaluated on a 120*70*54 grid
  Using the LDA Exchange-Correlation functional
 

Memory estimate:
  Process memory now: 13388.87 MiB
  Calculator: 375.55 MiB
    Density: 20.02 MiB
      Arrays: 7.57 MiB
      Localized functions: 9.42 MiB
      Mixer: 3.03 MiB
    Hamiltonian: 5.90 MiB
      Arrays: 5.62 MiB
      XC: 0.00 MiB
      Poisson: 0.00 MiB
      vbar: 0.27 MiB
    Wavefunctions: 349.64 MiB
      Arrays psit_nG: 311.46 MiB
      Eigensolver: 19.99 MiB
      Projections: 5.41 MiB
      Projectors: 9.73 MiB
      PW-descriptor: 3.03 MiB

Total number of cores used: 32
Parallelization over k-points: 16
Domain decomposition: 2 x 1 x 1

Number of atoms: 28
Number of atomic orbitals: 148
Number of bands in calculation: 112
Number of valence electrons: 180
Bands to converge: occupied

... initialized

Initializing position-dependent things.

Density initialized from atomic densities
Creating initial wave functions:
  112 bands from LCAO basis set

     .-------------------------.  
    /|         OP              |  
   / |O            O        O  |  
  /  |       O            O  P |  
 *   |O    Mn      O           |  
 |   |          OLi          O |  
 |   P--O--------------Mn------.  
 |  /          Li    O  Mn  O /   
 | /LiO           PO         /    
 |/       Mn                /     
 *Li-----------------------*      

Positions:
   0 O     -1.330281   -2.539252   -1.168500    ( 0.0000,  0.0000,  0.0000)
   1 O     -3.152392    2.974909    1.200956    ( 0.0000,  0.0000,  0.0000)
   2 O      2.077234    0.510133    1.506966    ( 0.0000,  0.0000,  0.0000)
   3 O      3.899724   -0.074476   -0.862491    ( 0.0000,  0.0000,  0.0000)
   4 O      2.077424    2.974966    1.507072    ( 0.0000,  0.0000,  0.0000)
   5 O      3.899535   -2.539195   -0.862384    ( 0.0000,  0.0000,  0.0000)
   6 O     -1.330092   -0.074418   -1.168395    ( 0.0000,  0.0000,  0.0000)
   7 O     -3.152581    0.510191    1.201063    ( 0.0000,  0.0000,  0.0000)
   8 O     -4.389675   -1.306969   -0.813152    ( 0.0000,  0.0000,  0.0000)
   9 O     -0.093301    1.752683    1.556268    ( 0.0000,  0.0000,  0.0000)
  10 O      5.136817    1.742683    1.151723    ( 0.0000,  0.0000,  0.0000)
  11 O      0.840444   -1.306969   -1.217697    ( 0.0000,  0.0000,  0.0000)
  12 Mn    -2.557192   -1.307258    0.273595    ( 0.0000,  0.0000,  1.0000)
  13 Mn    -1.925535    1.742972   -2.096623    ( 0.0000,  0.0000, -1.0000)
  14 Mn     3.304335    1.742972    0.064976    ( 0.0000,  0.0000, -1.0000)
  15 Mn     2.672678   -1.307258    2.435195    ( 0.0000,  0.0000,  1.0000)
  16 P     -0.597175   -1.306854   -1.801474    ( 0.0000,  0.0000,  0.0000)
  17 P     -3.885565    1.742568    0.568028    ( 0.0000,  0.0000,  0.0000)
  18 P      1.344318    1.742568    2.140045    ( 0.0000,  0.0000,  0.0000)
  19 P      4.632708   -1.306854   -0.229456    ( 0.0000,  0.0000,  0.0000)
  20 O     -0.636957   -1.306861    1.403074    ( 0.0000,  0.0000,  0.0000)
  21 O     -3.845824    1.742575   -0.967462    ( 0.0000,  0.0000,  0.0000)
  22 O      1.384100    1.742576   -1.064503    ( 0.0000,  0.0000,  0.0000)
  23 O      4.592967   -1.306861    1.306033    ( 0.0000,  0.0000,  0.0000)
  24 Li    -4.856429   -2.832143   -2.200714    ( 0.0000,  0.0000,  0.0000)
  25 Li     0.373571   -2.832143    0.169286    ( 0.0000,  0.0000,  0.0000)
  26 Li    -4.856429    0.217857   -2.200714    ( 0.0000,  0.0000,  0.0000)
  27 Li     0.373571    0.217857    0.169286    ( 0.0000,  0.0000,  0.0000)

Unit cell:
           periodic     x           y           z      points  spacing
  1. axis:    yes   10.460000    0.000000    0.000000    60     0.1743
  2. axis:    yes    0.000000    6.100000    0.000000    35     0.1743
  3. axis:    yes    0.000000    0.000000    4.740000    27     0.1756

  Lengths:  10.460000   6.100000   4.740000
  Angles:   90.000000  90.000000  90.000000

Effective grid spacing dv^(1/3) = 0.1747

                     log10-error:           total        iterations:
           time      wfs    density  force  energy       poisson  magmom
iter:   1  00:33:53                       -220.688397             +0.0000
iter:   2  00:34:32  -0.64  -0.92         -235.503841             +0.0000
iter:   3  00:35:11  -0.40  -0.96         -226.168779             -0.0000
iter:   4  00:35:51  -1.41  -1.29         -225.888207             +0.0000
iter:   5  00:36:30  -1.19  -1.38         -227.589072             +0.0000
iter:   6  00:37:10  -1.39  -1.51         -225.829057             +0.0000
iter:   7  00:37:49  -2.57  -2.06         -225.899036             +0.0000
iter:   8  00:38:28  -2.23  -2.01         -225.641995             -0.0000
iter:   9  00:39:08  -2.68  -2.09         -225.546682             +0.0000
iter:  10  00:39:47  -3.55  -2.95         -225.545901             +0.0000
iter:  11  00:40:26  -3.95  -3.00         -225.547474             +0.0000
iter:  12  00:41:06  -4.29  -3.22         -225.547651             +0.0000
iter:  13  00:41:45  -5.37  -3.36         -225.547541             -0.0000
iter:  14  00:42:24  -5.18  -3.44         -225.547394             -0.0000
iter:  15  00:43:04  -5.36  -3.60         -225.547308             -0.0000
iter:  16  00:43:43  -6.31  -3.68         -225.547293             +0.0000
iter:  17  00:44:22  -6.27  -3.76         -225.547311             -0.0000
iter:  18  00:45:02  -6.76  -3.82         -225.547312             -0.0000
iter:  19  00:45:41  -5.82  -3.83         -225.547277             -0.0000
iter:  20  00:46:20  -7.02  -4.42         -225.547273             -0.0000
iter:  21  00:47:11  -7.84  -4.68         -225.547271             -0.0000
iter:  22  00:47:50  -7.20  -4.77         -225.547269             -0.0000
iter:  23  00:48:40  -7.86  -4.77    -3.01-225.547269             -0.0000
iter:  24  00:49:30  -8.56  -4.92    -3.01-225.547269             -0.0000
iter:  25  00:50:20  -7.40  -4.94    -2.54-225.547270             -0.0000
iter:  26  00:51:10  -8.01  -4.93    -2.81-225.547269             -0.0000
iter:  27  00:52:00  -7.81  -5.05    -3.16-225.547269             -0.0000
iter:  28  00:52:50  -8.04  -5.01    -2.84-225.547269             -0.0000
iter:  29  00:53:40  -8.17  -5.23    -2.89-225.547269             -0.0000
iter:  30  00:54:30  -9.54  -5.58    -3.68-225.547269             -0.0000
iter:  31  00:55:20  -9.35  -5.66    -3.79-225.547269             -0.0000
iter:  32  00:56:10  -9.70  -5.77    -3.68-225.547269             -0.0000
iter:  33  00:57:00  -8.80  -5.81    -3.26-225.547269             -0.0000
iter:  34  00:57:50  -9.85  -5.84    -3.74-225.547269             -0.0000
iter:  35  00:58:40 -10.07  -6.16    -3.80-225.547269             -0.0000
iter:  36  00:59:30 -10.12  -6.22    -4.14-225.547269             -0.0000
iter:  37  01:00:20 -11.01  -6.50    -4.47-225.547269             -0.0000
iter:  38  01:01:10 -10.68  -6.50    -4.23-225.547269             +0.0000
iter:  39  01:02:00 -11.30  -6.93    -4.92-225.547269             -0.0000
iter:  40  01:02:49 -12.13  -7.22    -5.55-225.547269             -0.0000
iter:  41  01:03:39 -13.19  -7.21    -5.57-225.547269             -0.0000
iter:  42  01:04:29 -12.73  -7.26    -4.95-225.547269             -0.0000
iter:  43  01:05:19 -12.53  -7.37    -5.37-225.547269             -0.0000
iter:  44  01:06:09 -13.24  -7.49    -5.92-225.547269             -0.0000
iter:  45  01:06:59 -13.02  -7.56    -5.74-225.547269             -0.0000
iter:  46  01:07:49 -14.46  -7.85    -6.16-225.547269             +0.0000

Converged after 46 iterations.

Dipole moment: (13.160088, 1.710174, -5.512641) |e|*Ang

Total magnetic moment: (0.000000, 0.000000, 0.000000)
Local magnetic moments:
   0 O  ( 0.000000,  0.000000,  0.001080)
   1 O  ( 0.000000,  0.000000, -0.001055)
   2 O  ( 0.000000,  0.000000, -0.001040)
   3 O  ( 0.000000,  0.000000,  0.001044)
   4 O  ( 0.000000,  0.000000, -0.001084)
   5 O  ( 0.000000,  0.000000,  0.001053)
   6 O  ( 0.000000,  0.000000,  0.001043)
   7 O  ( 0.000000,  0.000000, -0.001043)
   8 O  ( 0.000000,  0.000000,  0.019779)
   9 O  ( 0.000000,  0.000000, -0.019776)
  10 O  ( 0.000000,  0.000000, -0.019779)
  11 O  ( 0.000000,  0.000000,  0.019776)
  12 Mn ( 0.000000,  0.000000,  4.601525)
  13 Mn ( 0.000000,  0.000000, -4.601591)
  14 Mn ( 0.000000,  0.000000, -4.601524)
  15 Mn ( 0.000000,  0.000000,  4.601592)
  16 P  ( 0.000000,  0.000000,  0.001300)
  17 P  ( 0.000000,  0.000000, -0.001293)
  18 P  ( 0.000000,  0.000000, -0.001299)
  19 P  ( 0.000000,  0.000000,  0.001293)
  20 O  ( 0.000000,  0.000000,  0.018072)
  21 O  ( 0.000000,  0.000000, -0.018068)
  22 O  ( 0.000000,  0.000000, -0.018072)
  23 O  ( 0.000000,  0.000000,  0.018068)
  24 Li ( 0.000000,  0.000000,  0.000000)
  25 Li ( 0.000000,  0.000000, -0.000011)
  26 Li ( 0.000000,  0.000000, -0.000000)
  27 Li ( 0.000000,  0.000000,  0.000011)

Energy contributions relative to reference atoms: (reference = -196157.275402)

Kinetic:       +242.940623
Potential:     -215.437376
External:        +0.000000
XC:            -254.965830
Entropy (-ST):   -0.000000
Local:           +1.915314
--------------------------
Free energy:   -225.547269
Extrapolated:  -225.547269

Spin contamination: 9.747498 electrons
Showing only first 2 kpts
                      Up                     Down
 Kpt  Band  Eigenvalues  Occupancy  Eigenvalues  Occupancy
  0    88      3.92292    0.00694      3.92259    0.00694
  0    89      3.97160    0.00694      3.97188    0.00694
  0    90      8.66734    0.00000      8.66740    0.00000
  0    91      8.68682    0.00000      8.68676    0.00000

  1    88      3.91937    0.00694      3.91952    0.00694
  1    89      3.97544    0.00694      3.97533    0.00694
  1    90      8.51312    0.00000      8.51309    0.00000
  1    91      8.52961    0.00000      8.52963    0.00000


Fermi level: 5.31836

Gap: 3.778 eV
Transition (v -> c):
  (s=1, k=73, n=89, [0.08, -0.42, -0.12]) -> (s=1, k=85, n=90, [0.08, 0.08, -0.12])
Writing to born-0.01-9y+.gpw (mode='all')

Timing:                              incl.     excl.
-----------------------------------------------------------
Hamiltonian:                         0.415     0.002   0.0% |
 Atomic:                             0.057     0.057   0.0% |
  XC Correction:                     0.000     0.000   0.0% |
 Calculate atomic Hamiltonians:      0.179     0.179   0.0% |
 Communicate:                        0.002     0.002   0.0% |
 Initialize Hamiltonian:             0.000     0.000   0.0% |
 Poisson:                            0.002     0.002   0.0% |
 XC 3D grid:                         0.173     0.173   0.0% |
LCAO initialization:               133.298     0.677   0.0% |
 LCAO eigensolver:                  34.135     0.002   0.0% |
  Calculate projections:             0.057     0.057   0.0% |
  DenseAtomicCorrection:             0.082     0.082   0.0% |
  Distribute overlap matrix:         0.007     0.007   0.0% |
  Orbital Layouts:                   0.364     0.364   0.0% |
  Potential matrix:                 33.521    33.521   0.6% |
  Sum over cells:                    0.102     0.102   0.0% |
 LCAO to grid:                      96.224    96.224   1.8% ||
 Set positions (LCAO WFS):           2.262     0.344   0.0% |
  Basic WFS set positions:           0.001     0.001   0.0% |
  Basis functions set positions:     0.000     0.000   0.0% |
  P tci:                             1.051     1.051   0.0% |
  ST tci:                            0.660     0.660   0.0% |
  mktci:                             0.206     0.206   0.0% |
PWDescriptor:                        0.025     0.025   0.0% |
SCF-cycle:                        2083.570     9.349   0.2% |
 Davidson:                        1716.793   561.342  10.4% |---|
  Apply H:                         119.201   115.363   2.1% ||
   HMM T:                            3.838     3.838   0.1% |
  Subspace diag:                   252.915     0.149   0.0% |
   calc_h_matrix:                  163.485    45.508   0.8% |
    Apply H:                       117.977   114.233   2.1% ||
     HMM T:                          3.745     3.745   0.1% |
   diagonalize:                      5.626     5.626   0.1% |
   rotate_psi:                      83.655    83.655   1.6% ||
  calc. matrices:                  536.912   304.105   5.6% |-|
   Apply H:                        232.807   225.670   4.2% |-|
    HMM T:                           7.137     7.137   0.1% |
  diagonalize:                      76.707    76.707   1.4% ||
  rotate_psi:                      169.716   169.716   3.2% ||
 Density:                           68.162     0.001   0.0% |
  Atomic density matrices:           1.229     1.229   0.0% |
  Mix:                              11.025    11.025   0.2% |
  Multipole moments:                 0.026     0.026   0.0% |
  Pseudo density:                   55.881    55.880   1.0% |
   Symmetrize density:               0.001     0.001   0.0% |
 Forces:                           265.545   265.545   4.9% |-|
 Hamiltonian:                       19.313     0.109   0.0% |
  Atomic:                            2.621     2.621   0.0% |
   XC Correction:                    0.000     0.000   0.0% |
  Calculate atomic Hamiltonians:     8.331     8.331   0.2% |
  Communicate:                       0.151     0.151   0.0% |
  Poisson:                           0.070     0.070   0.0% |
  XC 3D grid:                        8.031     8.031   0.1% |
 Orthonormalize:                     4.408     0.004   0.0% |
  calc_s_matrix:                     0.523     0.523   0.0% |
  inverse-cholesky:                  0.055     0.055   0.0% |
  projections:                       2.890     2.890   0.1% |
  rotate_psi_s:                      0.936     0.936   0.0% |
Set symmetry:                        0.000     0.000   0.0% |
Other:                            3168.994  3168.994  58.8% |-----------------------|
-----------------------------------------------------------
Total:                                      5386.303 100.0%

Memory usage: 13.11 GiB
Date: Tue Mar 23 02:00:36 2021
