
  ___ ___ ___ _ _ _  
 |   |   |_  | | | | 
 | | | | | . | | | | 
 |__ |  _|___|_____|  20.10.1b1
 |___|_|             

User:   madkru@g031.nifl.fysik.dtu.dk
Date:   Sun Mar 21 21:53:37 2021
Arch:   x86_64
Pid:    47913
Python: 3.7.4
gpaw:   /home/niflheim/madkru/venv_folder/gpaw/gpaw (d0d1ca1c71)
_gpaw:  /home/niflheim/madkru/venv_folder/gpaw/build/lib.linux-x86_64-sandybridge-3.7/
        _gpaw.cpython-37m-x86_64-linux-gnu.so (4fd39e8b1e)
ase:    /home/niflheim/madkru/venv_folder/ase/ase (version 3.21.0b1-7e6c206a91)
numpy:  /home/niflheim/madkru/venv_folder/lib/python3.7/site-packages/numpy (version 1.19.4)
scipy:  /home/niflheim/madkru/venv_folder/lib/python3.7/site-packages/scipy (version 1.5.4)
libxc:  4.3.4
units:  Angstrom and eV
cores: 32
OMP_NUM_THREADS: 1

Input parameters:
  convergence: {bands: occupied,
                density: 0.0001,
                eigenstates: 4e-08,
                energy: 0.0005,
                forces: 1e-06}
  kpts: [6 6 4]
  mode: {ecut: 600.0,
         gammacentered: False,
         name: pw}
  occupations: {fixmagmom: False,
                name: fermi-dirac,
                width: 0.001}
  setups: {Mn: :d,3.0}
  symmetry: {point_group: False,
             time_reversal: False}

System changes: positions, numbers, cell, pbc, initial_charges, initial_magmoms 

Initialize ...

O-setup:
  name: Oxygen
  id: 9b9d51c344dea68c822856295a461509
  Z: 8.0
  valence: 6
  core: 2
  charge: 0.0
  file: /home/modules/software/GPAW-setups/0.9.20000/O.LDA.gz
  compensation charges: gauss, rc=0.21, lmax=2
  cutoffs: 1.17(filt), 0.83(core),
  valence states:
                energy  radius
    2s(2.00)   -23.752   0.688
    2p(4.00)    -9.195   0.598
    *s           3.459   0.688
    *p          18.016   0.598
    *d           0.000   0.619

  Using partial waves for O as LCAO basis

Mn-setup:
  name: Manganese
  id: 0d715a8018be061a6e9ea6f2d364ac92
  Z: 25.0
  valence: 15
  core: 10
  charge: 0.0
  Hubbard U: 3.000000 eV (l=2, scale=True)
  file: /home/modules/software/GPAW-setups/0.9.20000/Mn.LDA.gz
  compensation charges: gauss, rc=0.38, lmax=2
  cutoffs: 2.14(filt), 0.86(core),
  valence states:
                energy  radius
    3s(2.00)   -85.387   1.275
    4s(2.00)    -5.282   1.275
    3p(6.00)   -54.493   1.281
    4p(0.00)    -1.471   1.281
    3d(5.00)    -7.009   1.138
    *d          20.203   1.138

  Using partial waves for Mn as LCAO basis

P-setup:
  name: Phosphorus
  id: a5561c299094968922a179ab894d2e2d
  Z: 15.0
  valence: 5
  core: 10
  charge: 0.0
  file: /home/modules/software/GPAW-setups/0.9.20000/P.LDA.gz
  compensation charges: gauss, rc=0.30, lmax=2
  cutoffs: 1.69(filt), 1.81(core),
  valence states:
                energy  radius
    3s(2.00)   -14.015   0.953
    3p(3.00)    -5.596   0.953
    *s          13.197   0.953
    *p          21.615   0.953
    *d           0.000   0.953

  Using partial waves for P as LCAO basis

Li-setup:
  name: Lithium
  id: b73562207f97a71b6967473b66fe8b65
  Z: 3.0
  valence: 1
  core: 2
  charge: 0.0
  file: /home/modules/software/GPAW-setups/0.9.20000/Li.LDA.gz
  compensation charges: gauss, rc=0.33, lmax=2
  cutoffs: 1.91(filt), 2.55(core),
  valence states:
                energy  radius
    2s(1.00)    -2.874   1.058
    2p(0.00)    -1.126   1.058
    *s          24.338   1.058

  Using partial waves for Li as LCAO basis

Reference energy: -196157.275402

Spin-polarized calculation.
Magnetic moment: 0.000000

Convergence criteria:
  Maximum total energy change: 0.0005 eV / electron
  Maximum integral of absolute density change: 0.0001 electrons
  Maximum integral of absolute eigenstate change: 4e-08 eV^2
  Maximum change in atomic force: 1e-06 eV / Ang
  Maximum number of iterations: 333

Symmetries present (total): 1

  ( 1  0  0)
  ( 0  1  0)
  ( 0  0  1)

144 k-points: 6 x 6 x 4 Monkhorst-Pack grid
144 k-points in the irreducible part of the Brillouin zone
       k-points in crystal coordinates                weights
   0:    -0.41666667   -0.41666667   -0.37500000          1/144
   1:    -0.41666667   -0.41666667   -0.12500000          1/144
   2:    -0.41666667   -0.41666667    0.12500000          1/144
   3:    -0.41666667   -0.41666667    0.37500000          1/144
   4:    -0.41666667   -0.25000000   -0.37500000          1/144
   5:    -0.41666667   -0.25000000   -0.12500000          1/144
   6:    -0.41666667   -0.25000000    0.12500000          1/144
   7:    -0.41666667   -0.25000000    0.37500000          1/144
   8:    -0.41666667   -0.08333333   -0.37500000          1/144
   9:    -0.41666667   -0.08333333   -0.12500000          1/144
          ...
 143:     0.41666667    0.41666667    0.37500000          1/144

Wave functions: Plane wave expansion
  Cutoff energy: 600.000 eV
  Number of coefficients (min, max): 10068, 10125
  Pulay-stress correction: 0.000000 eV/Ang^3 (de/decut=0.000000)
  Using FFTW library
  ScaLapack parameters: grid=1x1, blocksize=None
  Wavefunction extrapolation:
    Improved wavefunction reuse through dual PAW basis 

  Fermi-Dirac: width=0.0010 eV

Eigensolver
   Davidson(niter=2, smin=None, normalize=True) 

Densities:
  Coarse grid: 60*35*27 grid
  Fine grid: 120*70*54 grid
  Total Charge: 0.000000 

Density mixing:
  Method: difference
  Backend: pulay
  Linear mixing parameter: 0.05
  Mixing with 5 old densities
  Damping of long wave oscillations: 50 

Hamiltonian:
  XC and Coulomb potentials evaluated on a 120*70*54 grid
  Using the LDA Exchange-Correlation functional
 

Memory estimate:
  Process memory now: 12692.89 MiB
  Calculator: 375.55 MiB
    Density: 20.02 MiB
      Arrays: 7.57 MiB
      Localized functions: 9.42 MiB
      Mixer: 3.03 MiB
    Hamiltonian: 5.90 MiB
      Arrays: 5.62 MiB
      XC: 0.00 MiB
      Poisson: 0.00 MiB
      vbar: 0.27 MiB
    Wavefunctions: 349.64 MiB
      Arrays psit_nG: 311.46 MiB
      Eigensolver: 19.99 MiB
      Projections: 5.41 MiB
      Projectors: 9.73 MiB
      PW-descriptor: 3.03 MiB

Total number of cores used: 32
Parallelization over k-points: 16
Domain decomposition: 2 x 1 x 1

Number of atoms: 28
Number of atomic orbitals: 148
Number of bands in calculation: 112
Number of valence electrons: 180
Bands to converge: occupied

... initialized

Initializing position-dependent things.

Density initialized from atomic densities
Creating initial wave functions:
  112 bands from LCAO basis set

     .-------------------------.  
    /|         OP              |  
   / |O            O        O  |  
  /  |       O            O  P |  
 *   |O    Mn      O           |  
 |   |          OLi          O |  
 |   P--O--------------Mn------.  
 |  /          Li    O  Mn  O /   
 | /LiO           PO         /    
 |/       Mn                /     
 *Li-----------------------*      

Positions:
   0 O     -1.330281   -2.539252   -1.168500    ( 0.0000,  0.0000,  0.0000)
   1 O     -3.152392    2.974909    1.200956    ( 0.0000,  0.0000,  0.0000)
   2 O      2.077234    0.510133    1.506966    ( 0.0000,  0.0000,  0.0000)
   3 O      3.899724   -0.074476   -0.852491    ( 0.0000,  0.0000,  0.0000)
   4 O      2.077424    2.974966    1.507072    ( 0.0000,  0.0000,  0.0000)
   5 O      3.899535   -2.539195   -0.862384    ( 0.0000,  0.0000,  0.0000)
   6 O     -1.330092   -0.074418   -1.168395    ( 0.0000,  0.0000,  0.0000)
   7 O     -3.152581    0.510191    1.201063    ( 0.0000,  0.0000,  0.0000)
   8 O     -4.389675   -1.306969   -0.813152    ( 0.0000,  0.0000,  0.0000)
   9 O     -0.093301    1.742683    1.556268    ( 0.0000,  0.0000,  0.0000)
  10 O      5.136817    1.742683    1.151723    ( 0.0000,  0.0000,  0.0000)
  11 O      0.840444   -1.306969   -1.217697    ( 0.0000,  0.0000,  0.0000)
  12 Mn    -2.557192   -1.307258    0.273595    ( 0.0000,  0.0000,  1.0000)
  13 Mn    -1.925535    1.742972   -2.096623    ( 0.0000,  0.0000, -1.0000)
  14 Mn     3.304335    1.742972    0.064976    ( 0.0000,  0.0000, -1.0000)
  15 Mn     2.672678   -1.307258    2.435195    ( 0.0000,  0.0000,  1.0000)
  16 P     -0.597175   -1.306854   -1.801474    ( 0.0000,  0.0000,  0.0000)
  17 P     -3.885565    1.742568    0.568028    ( 0.0000,  0.0000,  0.0000)
  18 P      1.344318    1.742568    2.140045    ( 0.0000,  0.0000,  0.0000)
  19 P      4.632708   -1.306854   -0.229456    ( 0.0000,  0.0000,  0.0000)
  20 O     -0.636957   -1.306861    1.403074    ( 0.0000,  0.0000,  0.0000)
  21 O     -3.845824    1.742575   -0.967462    ( 0.0000,  0.0000,  0.0000)
  22 O      1.384100    1.742576   -1.064503    ( 0.0000,  0.0000,  0.0000)
  23 O      4.592967   -1.306861    1.306033    ( 0.0000,  0.0000,  0.0000)
  24 Li    -4.856429   -2.832143   -2.200714    ( 0.0000,  0.0000,  0.0000)
  25 Li     0.373571   -2.832143    0.169286    ( 0.0000,  0.0000,  0.0000)
  26 Li    -4.856429    0.217857   -2.200714    ( 0.0000,  0.0000,  0.0000)
  27 Li     0.373571    0.217857    0.169286    ( 0.0000,  0.0000,  0.0000)

Unit cell:
           periodic     x           y           z      points  spacing
  1. axis:    yes   10.460000    0.000000    0.000000    60     0.1743
  2. axis:    yes    0.000000    6.100000    0.000000    35     0.1743
  3. axis:    yes    0.000000    0.000000    4.740000    27     0.1756

  Lengths:  10.460000   6.100000   4.740000
  Angles:   90.000000  90.000000  90.000000

Effective grid spacing dv^(1/3) = 0.1747

                     log10-error:           total        iterations:
           time      wfs    density  force  energy       poisson  magmom
iter:   1  21:56:37                       -220.687682             +0.0000
iter:   2  21:57:17  -0.64  -0.92         -235.505851             +0.0000
iter:   3  21:57:56  -0.40  -0.96         -226.169149             -0.0000
iter:   4  21:58:36  -1.41  -1.29         -225.887804             +0.0000
iter:   5  21:59:15  -1.19  -1.38         -227.587636             +0.0000
iter:   6  21:59:55  -1.39  -1.51         -225.828889             +0.0000
iter:   7  22:00:34  -2.57  -2.06         -225.898404             +0.0000
iter:   8  22:01:14  -2.23  -2.01         -225.642906             -0.0000
iter:   9  22:01:53  -2.68  -2.08         -225.546337             +0.0000
iter:  10  22:02:33  -3.54  -2.94         -225.545467             +0.0000
iter:  11  22:03:12  -3.95  -3.00         -225.547196             +0.0000
iter:  12  22:03:52  -4.30  -3.22         -225.547364             +0.0000
iter:  13  22:04:31  -5.37  -3.36         -225.547257             -0.0000
iter:  14  22:05:11  -5.19  -3.44         -225.547117             -0.0000
iter:  15  22:05:50  -5.36  -3.60         -225.547027             -0.0000
iter:  16  22:06:30  -6.33  -3.69         -225.547013             +0.0000
iter:  17  22:07:09  -6.27  -3.76         -225.547032             -0.0000
iter:  18  22:07:49  -6.72  -3.82         -225.547032             -0.0000
iter:  19  22:08:28  -5.83  -3.83         -225.546997             -0.0000
iter:  20  22:09:07  -7.04  -4.40         -225.546993             -0.0000
iter:  21  22:09:58  -7.92  -4.61         -225.546991             -0.0000
iter:  22  22:10:37  -7.19  -4.68         -225.546990             -0.0000
iter:  23  22:11:27  -7.62  -4.70    -2.79-225.546990             -0.0000
iter:  24  22:12:17  -8.45  -4.85    -3.17-225.546990             -0.0000
iter:  25  22:13:07  -7.65  -4.88    -2.42-225.546990             +0.0000
iter:  26  22:13:57  -7.94  -4.88    -2.77-225.546990             +0.0000
iter:  27  22:14:47  -8.71  -5.30    -3.54-225.546990             +0.0000
iter:  28  22:15:37  -8.94  -5.28    -3.33-225.546990             +0.0000
iter:  29  22:16:27  -8.47  -5.38    -3.10-225.546990             +0.0000
iter:  30  22:17:17  -9.74  -5.82    -4.62-225.546990             +0.0000
iter:  31  22:18:07  -8.96  -5.84    -3.72-225.546990             +0.0000
iter:  32  22:18:57  -9.85  -5.91    -3.78-225.546990             +0.0000
iter:  33  22:19:47 -10.08  -6.29    -4.46-225.546990             +0.0000
iter:  34  22:20:37 -10.12  -6.37    -3.96-225.546990             +0.0000
iter:  35  22:21:27 -11.26  -6.55    -4.56-225.546990             +0.0000
iter:  36  22:22:17 -10.85  -6.66    -4.12-225.546990             +0.0000
iter:  37  22:23:07 -10.70  -6.73    -4.17-225.546990             +0.0000
iter:  38  22:23:57 -11.88  -7.13    -4.80-225.546990             +0.0000
iter:  39  22:24:47 -12.85  -7.67    -5.72-225.546990             +0.0000
iter:  40  22:25:37 -13.15  -7.66    -5.36-225.546990             +0.0000
iter:  41  22:26:27 -13.13  -7.75    -5.60-225.546990             +0.0000
iter:  42  22:27:17 -13.07  -7.79    -5.39-225.546990             +0.0000
iter:  43  22:28:07 -13.30  -7.84    -5.62-225.546990             +0.0000
iter:  44  22:28:57 -14.09  -7.85    -5.83-225.546990             +0.0000
iter:  45  22:29:47 -14.93  -7.92    -6.25-225.546990             +0.0000

Converged after 45 iterations.

Dipole moment: (13.159282, 1.712706, -5.487443) |e|*Ang

Total magnetic moment: (0.000000, 0.000000, 0.000000)
Local magnetic moments:
   0 O  ( 0.000000,  0.000000,  0.001060)
   1 O  ( 0.000000,  0.000000, -0.001063)
   2 O  ( 0.000000,  0.000000, -0.001111)
   3 O  ( 0.000000,  0.000000,  0.000852)
   4 O  ( 0.000000,  0.000000, -0.000981)
   5 O  ( 0.000000,  0.000000,  0.001026)
   6 O  ( 0.000000,  0.000000,  0.001055)
   7 O  ( 0.000000,  0.000000, -0.001052)
   8 O  ( 0.000000,  0.000000,  0.019719)
   9 O  ( 0.000000,  0.000000, -0.019773)
  10 O  ( 0.000000,  0.000000, -0.019820)
  11 O  ( 0.000000,  0.000000,  0.019763)
  12 Mn ( 0.000000,  0.000000,  4.601527)
  13 Mn ( 0.000000,  0.000000, -4.601593)
  14 Mn ( 0.000000,  0.000000, -4.601252)
  15 Mn ( 0.000000,  0.000000,  4.601883)
  16 P  ( 0.000000,  0.000000,  0.001292)
  17 P  ( 0.000000,  0.000000, -0.001298)
  18 P  ( 0.000000,  0.000000, -0.001305)
  19 P  ( 0.000000,  0.000000,  0.001165)
  20 O  ( 0.000000,  0.000000,  0.018070)
  21 O  ( 0.000000,  0.000000, -0.018073)
  22 O  ( 0.000000,  0.000000, -0.018083)
  23 O  ( 0.000000,  0.000000,  0.018072)
  24 Li ( 0.000000,  0.000000,  0.000000)
  25 Li ( 0.000000,  0.000000, -0.000000)
  26 Li ( 0.000000,  0.000000, -0.000006)
  27 Li ( 0.000000,  0.000000,  0.000001)

Energy contributions relative to reference atoms: (reference = -196157.275402)

Kinetic:       +243.192175
Potential:     -215.629940
External:        +0.000000
XC:            -255.023888
Entropy (-ST):   -0.000000
Local:           +1.914663
--------------------------
Free energy:   -225.546990
Extrapolated:  -225.546990

Spin contamination: 9.747563 electrons
Showing only first 2 kpts
                      Up                     Down
 Kpt  Band  Eigenvalues  Occupancy  Eigenvalues  Occupancy
  0    88      3.92006    0.00694      3.92423    0.00694
  0    89      3.97023    0.00694      3.97309    0.00694
  0    90      8.66684    0.00000      8.66543    0.00000
  0    91      8.68687    0.00000      8.68375    0.00000

  1    88      3.91664    0.00694      3.92056    0.00694
  1    89      3.97331    0.00694      3.97681    0.00694
  1    90      8.51219    0.00000      8.51251    0.00000
  1    91      8.52936    0.00000      8.52753    0.00000


Fermi level: 5.31843

Gap: 3.778 eV
Transition (v -> c):
  (s=1, k=50, n=89, [-0.08, -0.42, 0.12]) -> (s=0, k=82, n=90, [0.08, -0.08, 0.12])
Writing to born-0.01-3z+.gpw (mode='all')

Timing:                              incl.     excl.
-----------------------------------------------------------
Hamiltonian:                         0.415     0.002   0.0% |
 Atomic:                             0.058     0.058   0.0% |
  XC Correction:                     0.000     0.000   0.0% |
 Calculate atomic Hamiltonians:      0.182     0.182   0.0% |
 Communicate:                        0.002     0.002   0.0% |
 Initialize Hamiltonian:             0.000     0.000   0.0% |
 Poisson:                            0.002     0.002   0.0% |
 XC 3D grid:                         0.169     0.169   0.0% |
LCAO initialization:               130.463     0.677   0.0% |
 LCAO eigensolver:                  33.923     0.002   0.0% |
  Calculate projections:             0.057     0.057   0.0% |
  DenseAtomicCorrection:             0.082     0.082   0.0% |
  Distribute overlap matrix:         0.179     0.179   0.0% |
  Orbital Layouts:                   0.363     0.363   0.0% |
  Potential matrix:                 33.151    33.151   0.6% |
  Sum over cells:                    0.088     0.088   0.0% |
 LCAO to grid:                      93.565    93.565   1.8% ||
 Set positions (LCAO WFS):           2.298     0.345   0.0% |
  Basic WFS set positions:           0.001     0.001   0.0% |
  Basis functions set positions:     0.000     0.000   0.0% |
  P tci:                             1.053     1.053   0.0% |
  ST tci:                            0.661     0.661   0.0% |
  mktci:                             0.238     0.238   0.0% |
PWDescriptor:                        0.025     0.025   0.0% |
SCF-cycle:                        2037.280     7.447   0.1% |
 Davidson:                        1684.239   547.692  10.4% |---|
  Apply H:                         118.794   114.552   2.2% ||
   HMM T:                            4.242     4.242   0.1% |
  Subspace diag:                   250.078     0.148   0.0% |
   calc_h_matrix:                  162.623    44.696   0.8% |
    Apply H:                       117.928   113.865   2.2% ||
     HMM T:                          4.063     4.063   0.1% |
   diagonalize:                      5.532     5.532   0.1% |
   rotate_psi:                      81.775    81.775   1.6% ||
  calc. matrices:                  526.143   297.705   5.6% |-|
   Apply H:                        228.438   221.302   4.2% |-|
    HMM T:                           7.136     7.136   0.1% |
  diagonalize:                      75.251    75.251   1.4% ||
  rotate_psi:                      166.280   166.280   3.2% ||
 Density:                           67.206     0.001   0.0% |
  Atomic density matrices:           1.220     1.220   0.0% |
  Mix:                              10.769    10.769   0.2% |
  Multipole moments:                 0.026     0.026   0.0% |
  Pseudo density:                   55.190    55.189   1.0% |
   Symmetrize density:               0.001     0.001   0.0% |
 Forces:                           255.147   255.147   4.8% |-|
 Hamiltonian:                       18.818     0.115   0.0% |
  Atomic:                            2.626     2.626   0.0% |
   XC Correction:                    0.000     0.000   0.0% |
  Calculate atomic Hamiltonians:     8.126     8.126   0.2% |
  Communicate:                       0.060     0.060   0.0% |
  Poisson:                           0.069     0.069   0.0% |
  XC 3D grid:                        7.822     7.822   0.1% |
 Orthonormalize:                     4.423     0.004   0.0% |
  calc_s_matrix:                     0.525     0.525   0.0% |
  inverse-cholesky:                  0.055     0.055   0.0% |
  projections:                       2.903     2.903   0.1% |
  rotate_psi_s:                      0.935     0.935   0.0% |
Set symmetry:                        0.000     0.000   0.0% |
Other:                            3102.249  3102.249  58.9% |-----------------------|
-----------------------------------------------------------
Total:                                      5270.433 100.0%

Memory usage: 12.43 GiB
Date: Sun Mar 21 23:21:27 2021
