
  ___ ___ ___ _ _ _  
 |   |   |_  | | | | 
 | | | | | . | | | | 
 |__ |  _|___|_____|  20.10.1b1
 |___|_|             

User:   madkru@g031.nifl.fysik.dtu.dk
Date:   Sun Mar 21 18:50:34 2021
Arch:   x86_64
Pid:    47913
Python: 3.7.4
gpaw:   /home/niflheim/madkru/venv_folder/gpaw/gpaw (d0d1ca1c71)
_gpaw:  /home/niflheim/madkru/venv_folder/gpaw/build/lib.linux-x86_64-sandybridge-3.7/
        _gpaw.cpython-37m-x86_64-linux-gnu.so (4fd39e8b1e)
ase:    /home/niflheim/madkru/venv_folder/ase/ase (version 3.21.0b1-7e6c206a91)
numpy:  /home/niflheim/madkru/venv_folder/lib/python3.7/site-packages/numpy (version 1.19.4)
scipy:  /home/niflheim/madkru/venv_folder/lib/python3.7/site-packages/scipy (version 1.5.4)
libxc:  4.3.4
units:  Angstrom and eV
cores: 32
OMP_NUM_THREADS: 1

Input parameters:
  convergence: {bands: occupied,
                density: 0.0001,
                eigenstates: 4e-08,
                energy: 0.0005,
                forces: 1e-06}
  kpts: [6 6 4]
  mode: {ecut: 600.0,
         gammacentered: False,
         name: pw}
  occupations: {fixmagmom: False,
                name: fermi-dirac,
                width: 0.001}
  setups: {Mn: :d,3.0}
  symmetry: {point_group: False,
             time_reversal: False}

System changes: positions, numbers, cell, pbc, initial_charges, initial_magmoms 

Initialize ...

O-setup:
  name: Oxygen
  id: 9b9d51c344dea68c822856295a461509
  Z: 8.0
  valence: 6
  core: 2
  charge: 0.0
  file: /home/modules/software/GPAW-setups/0.9.20000/O.LDA.gz
  compensation charges: gauss, rc=0.21, lmax=2
  cutoffs: 1.17(filt), 0.83(core),
  valence states:
                energy  radius
    2s(2.00)   -23.752   0.688
    2p(4.00)    -9.195   0.598
    *s           3.459   0.688
    *p          18.016   0.598
    *d           0.000   0.619

  Using partial waves for O as LCAO basis

Mn-setup:
  name: Manganese
  id: 0d715a8018be061a6e9ea6f2d364ac92
  Z: 25.0
  valence: 15
  core: 10
  charge: 0.0
  Hubbard U: 3.000000 eV (l=2, scale=True)
  file: /home/modules/software/GPAW-setups/0.9.20000/Mn.LDA.gz
  compensation charges: gauss, rc=0.38, lmax=2
  cutoffs: 2.14(filt), 0.86(core),
  valence states:
                energy  radius
    3s(2.00)   -85.387   1.275
    4s(2.00)    -5.282   1.275
    3p(6.00)   -54.493   1.281
    4p(0.00)    -1.471   1.281
    3d(5.00)    -7.009   1.138
    *d          20.203   1.138

  Using partial waves for Mn as LCAO basis

P-setup:
  name: Phosphorus
  id: a5561c299094968922a179ab894d2e2d
  Z: 15.0
  valence: 5
  core: 10
  charge: 0.0
  file: /home/modules/software/GPAW-setups/0.9.20000/P.LDA.gz
  compensation charges: gauss, rc=0.30, lmax=2
  cutoffs: 1.69(filt), 1.81(core),
  valence states:
                energy  radius
    3s(2.00)   -14.015   0.953
    3p(3.00)    -5.596   0.953
    *s          13.197   0.953
    *p          21.615   0.953
    *d           0.000   0.953

  Using partial waves for P as LCAO basis

Li-setup:
  name: Lithium
  id: b73562207f97a71b6967473b66fe8b65
  Z: 3.0
  valence: 1
  core: 2
  charge: 0.0
  file: /home/modules/software/GPAW-setups/0.9.20000/Li.LDA.gz
  compensation charges: gauss, rc=0.33, lmax=2
  cutoffs: 1.91(filt), 2.55(core),
  valence states:
                energy  radius
    2s(1.00)    -2.874   1.058
    2p(0.00)    -1.126   1.058
    *s          24.338   1.058

  Using partial waves for Li as LCAO basis

Reference energy: -196157.275402

Spin-polarized calculation.
Magnetic moment: 0.000000

Convergence criteria:
  Maximum total energy change: 0.0005 eV / electron
  Maximum integral of absolute density change: 0.0001 electrons
  Maximum integral of absolute eigenstate change: 4e-08 eV^2
  Maximum change in atomic force: 1e-06 eV / Ang
  Maximum number of iterations: 333

Symmetries present (total): 1

  ( 1  0  0)
  ( 0  1  0)
  ( 0  0  1)

144 k-points: 6 x 6 x 4 Monkhorst-Pack grid
144 k-points in the irreducible part of the Brillouin zone
       k-points in crystal coordinates                weights
   0:    -0.41666667   -0.41666667   -0.37500000          1/144
   1:    -0.41666667   -0.41666667   -0.12500000          1/144
   2:    -0.41666667   -0.41666667    0.12500000          1/144
   3:    -0.41666667   -0.41666667    0.37500000          1/144
   4:    -0.41666667   -0.25000000   -0.37500000          1/144
   5:    -0.41666667   -0.25000000   -0.12500000          1/144
   6:    -0.41666667   -0.25000000    0.12500000          1/144
   7:    -0.41666667   -0.25000000    0.37500000          1/144
   8:    -0.41666667   -0.08333333   -0.37500000          1/144
   9:    -0.41666667   -0.08333333   -0.12500000          1/144
          ...
 143:     0.41666667    0.41666667    0.37500000          1/144

Wave functions: Plane wave expansion
  Cutoff energy: 600.000 eV
  Number of coefficients (min, max): 10068, 10125
  Pulay-stress correction: 0.000000 eV/Ang^3 (de/decut=0.000000)
  Using FFTW library
  ScaLapack parameters: grid=1x1, blocksize=None
  Wavefunction extrapolation:
    Improved wavefunction reuse through dual PAW basis 

  Fermi-Dirac: width=0.0010 eV

Eigensolver
   Davidson(niter=2, smin=None, normalize=True) 

Densities:
  Coarse grid: 60*35*27 grid
  Fine grid: 120*70*54 grid
  Total Charge: 0.000000 

Density mixing:
  Method: difference
  Backend: pulay
  Linear mixing parameter: 0.05
  Mixing with 5 old densities
  Damping of long wave oscillations: 50 

Hamiltonian:
  XC and Coulomb potentials evaluated on a 120*70*54 grid
  Using the LDA Exchange-Correlation functional
 

Memory estimate:
  Process memory now: 12615.57 MiB
  Calculator: 375.55 MiB
    Density: 20.02 MiB
      Arrays: 7.57 MiB
      Localized functions: 9.42 MiB
      Mixer: 3.03 MiB
    Hamiltonian: 5.90 MiB
      Arrays: 5.62 MiB
      XC: 0.00 MiB
      Poisson: 0.00 MiB
      vbar: 0.27 MiB
    Wavefunctions: 349.64 MiB
      Arrays psit_nG: 311.46 MiB
      Eigensolver: 19.99 MiB
      Projections: 5.41 MiB
      Projectors: 9.73 MiB
      PW-descriptor: 3.03 MiB

Total number of cores used: 32
Parallelization over k-points: 16
Domain decomposition: 2 x 1 x 1

Number of atoms: 28
Number of atomic orbitals: 148
Number of bands in calculation: 112
Number of valence electrons: 180
Bands to converge: occupied

... initialized

Initializing position-dependent things.

Density initialized from atomic densities
Creating initial wave functions:
  112 bands from LCAO basis set

     .-------------------------.  
    /|         OP              |  
   / |O            O        O  |  
  /  |       O            O  P |  
 *   |O    Mn      O           |  
 |   |          OLi          O |  
 |   P--O--------------Mn------.  
 |  /          Li    O  Mn  O /   
 | /LiO           PO         /    
 |/       Mn                /     
 *Li-----------------------*      

Positions:
   0 O     -1.330281   -2.539252   -1.168500    ( 0.0000,  0.0000,  0.0000)
   1 O     -3.152392    2.974909    1.200956    ( 0.0000,  0.0000,  0.0000)
   2 O      2.077234    0.510133    1.506966    ( 0.0000,  0.0000,  0.0000)
   3 O      3.909724   -0.074476   -0.862491    ( 0.0000,  0.0000,  0.0000)
   4 O      2.077424    2.974966    1.507072    ( 0.0000,  0.0000,  0.0000)
   5 O      3.899535   -2.539195   -0.862384    ( 0.0000,  0.0000,  0.0000)
   6 O     -1.330092   -0.074418   -1.168395    ( 0.0000,  0.0000,  0.0000)
   7 O     -3.152581    0.510191    1.201063    ( 0.0000,  0.0000,  0.0000)
   8 O     -4.389675   -1.306969   -0.813152    ( 0.0000,  0.0000,  0.0000)
   9 O     -0.093301    1.742683    1.556268    ( 0.0000,  0.0000,  0.0000)
  10 O      5.136817    1.742683    1.151723    ( 0.0000,  0.0000,  0.0000)
  11 O      0.840444   -1.306969   -1.217697    ( 0.0000,  0.0000,  0.0000)
  12 Mn    -2.557192   -1.307258    0.273595    ( 0.0000,  0.0000,  1.0000)
  13 Mn    -1.925535    1.742972   -2.096623    ( 0.0000,  0.0000, -1.0000)
  14 Mn     3.304335    1.742972    0.064976    ( 0.0000,  0.0000, -1.0000)
  15 Mn     2.672678   -1.307258    2.435195    ( 0.0000,  0.0000,  1.0000)
  16 P     -0.597175   -1.306854   -1.801474    ( 0.0000,  0.0000,  0.0000)
  17 P     -3.885565    1.742568    0.568028    ( 0.0000,  0.0000,  0.0000)
  18 P      1.344318    1.742568    2.140045    ( 0.0000,  0.0000,  0.0000)
  19 P      4.632708   -1.306854   -0.229456    ( 0.0000,  0.0000,  0.0000)
  20 O     -0.636957   -1.306861    1.403074    ( 0.0000,  0.0000,  0.0000)
  21 O     -3.845824    1.742575   -0.967462    ( 0.0000,  0.0000,  0.0000)
  22 O      1.384100    1.742576   -1.064503    ( 0.0000,  0.0000,  0.0000)
  23 O      4.592967   -1.306861    1.306033    ( 0.0000,  0.0000,  0.0000)
  24 Li    -4.856429   -2.832143   -2.200714    ( 0.0000,  0.0000,  0.0000)
  25 Li     0.373571   -2.832143    0.169286    ( 0.0000,  0.0000,  0.0000)
  26 Li    -4.856429    0.217857   -2.200714    ( 0.0000,  0.0000,  0.0000)
  27 Li     0.373571    0.217857    0.169286    ( 0.0000,  0.0000,  0.0000)

Unit cell:
           periodic     x           y           z      points  spacing
  1. axis:    yes   10.460000    0.000000    0.000000    60     0.1743
  2. axis:    yes    0.000000    6.100000    0.000000    35     0.1743
  3. axis:    yes    0.000000    0.000000    4.740000    27     0.1756

  Lengths:  10.460000   6.100000   4.740000
  Angles:   90.000000  90.000000  90.000000

Effective grid spacing dv^(1/3) = 0.1747

                     log10-error:           total        iterations:
           time      wfs    density  force  energy       poisson  magmom
iter:   1  18:53:35                       -220.694195             +0.0000
iter:   2  18:54:14  -0.64  -0.92         -235.516934             +0.0000
iter:   3  18:54:54  -0.40  -0.96         -226.169663             -0.0000
iter:   4  18:55:33  -1.41  -1.29         -225.887839             +0.0000
iter:   5  18:56:13  -1.19  -1.38         -227.589619             +0.0000
iter:   6  18:56:53  -1.39  -1.51         -225.829118             +0.0000
iter:   7  18:57:32  -2.56  -2.06         -225.898621             +0.0000
iter:   8  18:58:12  -2.24  -2.01         -225.643480             -0.0000
iter:   9  18:58:52  -2.67  -2.08         -225.546189             +0.0000
iter:  10  18:59:31  -3.54  -2.94         -225.545192             +0.0000
iter:  11  19:00:11  -3.95  -3.00         -225.547110             +0.0000
iter:  12  19:00:51  -4.30  -3.22         -225.547267             +0.0000
iter:  13  19:01:30  -5.36  -3.36         -225.547162             -0.0000
iter:  14  19:02:09  -5.17  -3.44         -225.547033             -0.0000
iter:  15  19:02:49  -5.33  -3.59         -225.546937             -0.0000
iter:  16  19:03:28  -6.32  -3.70         -225.546920             +0.0000
iter:  17  19:04:08  -6.34  -3.77         -225.546938             -0.0000
iter:  18  19:04:47  -6.72  -3.83         -225.546939             -0.0000
iter:  19  19:05:27  -5.90  -3.85         -225.546903             -0.0000
iter:  20  19:06:06  -7.12  -4.37         -225.546899             -0.0000
iter:  21  19:06:56  -7.71  -4.46         -225.546898             +0.0000
iter:  22  19:07:36  -7.35  -4.50         -225.546900             +0.0000
iter:  23  19:08:26  -7.69  -4.52    -2.73-225.546898             +0.0000
iter:  24  19:09:16  -7.56  -4.59    -2.51-225.546898             +0.0000
iter:  25  19:09:55  -7.31  -4.63         -225.546899             +0.0000
iter:  26  19:10:46  -7.62  -4.70    -2.61-225.546898             +0.0000
iter:  27  19:11:36  -8.55  -4.75    -3.21-225.546898             +0.0000
iter:  28  19:12:26  -7.67  -4.78    -2.97-225.546898             +0.0000
iter:  29  19:13:16  -8.61  -4.98    -3.22-225.546898             +0.0000
iter:  30  19:14:06  -8.28  -5.01    -3.06-225.546898             +0.0000
iter:  31  19:14:56  -9.57  -5.26    -3.50-225.546898             +0.0000
iter:  32  19:15:46  -9.47  -5.31    -3.36-225.546898             +0.0000
iter:  33  19:16:36  -8.89  -5.36    -3.37-225.546898             +0.0000
iter:  34  19:17:26  -8.76  -5.36    -3.45-225.546898             +0.0000
iter:  35  19:18:16  -8.74  -5.42    -3.42-225.546898             +0.0000
iter:  36  19:19:06  -9.64  -5.43    -3.86-225.546898             +0.0000
iter:  37  19:19:56 -10.17  -5.61    -3.97-225.546898             +0.0000
iter:  38  19:20:46  -9.79  -5.72    -3.60-225.546898             +0.0000
iter:  39  19:21:36 -10.25  -5.77    -3.79-225.546898             +0.0000
iter:  40  19:22:26 -11.49  -5.87    -4.61-225.546898             +0.0000
iter:  41  19:23:16 -10.40  -5.89    -3.80-225.546898             +0.0000
iter:  42  19:24:06 -10.72  -6.12    -4.60-225.546898             +0.0000
iter:  43  19:24:57 -10.42  -6.23    -3.82-225.546898             +0.0000
iter:  44  19:25:47 -10.83  -6.29    -4.68-225.546898             +0.0000
iter:  45  19:26:37 -11.57  -6.68    -4.83-225.546898             +0.0000
iter:  46  19:27:27 -12.57  -6.78    -5.08-225.546898             +0.0000
iter:  47  19:28:17 -12.39  -6.80    -5.02-225.546898             +0.0000
iter:  48  19:29:07 -12.98  -6.92    -5.37-225.546898             +0.0000
iter:  49  19:29:57 -12.52  -6.97    -4.78-225.546898             +0.0000
iter:  50  19:30:47 -12.58  -7.14    -5.79-225.546898             +0.0000
iter:  51  19:31:37 -13.69  -7.18    -6.06-225.546898             +0.0000

Converged after 51 iterations.

Dipole moment: (13.154983, 1.712207, -5.515202) |e|*Ang

Total magnetic moment: (0.000000, 0.000000, 0.000000)
Local magnetic moments:
   0 O  ( 0.000000,  0.000000,  0.001053)
   1 O  ( 0.000000,  0.000000, -0.001061)
   2 O  ( 0.000000,  0.000000, -0.001046)
   3 O  ( 0.000000,  0.000000,  0.001008)
   4 O  ( 0.000000,  0.000000, -0.001027)
   5 O  ( 0.000000,  0.000000,  0.001029)
   6 O  ( 0.000000,  0.000000,  0.001045)
   7 O  ( 0.000000,  0.000000, -0.001056)
   8 O  ( 0.000000,  0.000000,  0.019856)
   9 O  ( 0.000000,  0.000000, -0.019743)
  10 O  ( 0.000000,  0.000000, -0.019795)
  11 O  ( 0.000000,  0.000000,  0.019763)
  12 Mn ( 0.000000,  0.000000,  4.601528)
  13 Mn ( 0.000000,  0.000000, -4.601593)
  14 Mn ( 0.000000,  0.000000, -4.601917)
  15 Mn ( 0.000000,  0.000000,  4.601892)
  16 P  ( 0.000000,  0.000000,  0.001293)
  17 P  ( 0.000000,  0.000000, -0.001286)
  18 P  ( 0.000000,  0.000000, -0.001306)
  19 P  ( 0.000000,  0.000000,  0.001270)
  20 O  ( 0.000000,  0.000000,  0.018046)
  21 O  ( 0.000000,  0.000000, -0.018083)
  22 O  ( 0.000000,  0.000000, -0.018035)
  23 O  ( 0.000000,  0.000000,  0.018079)
  24 Li ( 0.000000,  0.000000,  0.000002)
  25 Li ( 0.000000,  0.000000, -0.000000)
  26 Li ( 0.000000,  0.000000, -0.000003)
  27 Li ( 0.000000,  0.000000, -0.000000)

Energy contributions relative to reference atoms: (reference = -196157.275402)

Kinetic:       +243.205838
Potential:     -215.638960
External:        +0.000000
XC:            -255.028801
Entropy (-ST):   -0.000000
Local:           +1.915024
--------------------------
Free energy:   -225.546898
Extrapolated:  -225.546898

Spin contamination: 9.747905 electrons
Showing only first 2 kpts
                      Up                     Down
 Kpt  Band  Eigenvalues  Occupancy  Eigenvalues  Occupancy
  0    88      3.92091    0.00694      3.91910    0.00694
  0    89      3.97232    0.00694      3.96849    0.00694
  0    90      8.66198    0.00000      8.66642    0.00000
  0    91      8.68700    0.00000      8.68238    0.00000

  1    88      3.91721    0.00694      3.91552    0.00694
  1    89      3.97624    0.00694      3.97229    0.00694
  1    90      8.50798    0.00000      8.50823    0.00000
  1    91      8.52924    0.00000      8.52659    0.00000


Fermi level: 5.31825

Gap: 3.777 eV
Transition (v -> c):
  (s=0, k=94, n=89, [0.08, 0.42, 0.12]) -> (s=1, k=58, n=90, [-0.08, -0.08, 0.12])
Writing to born-0.01-3x+.gpw (mode='all')

Timing:                              incl.     excl.
-----------------------------------------------------------
Hamiltonian:                         0.420     0.002   0.0% |
 Atomic:                             0.057     0.057   0.0% |
  XC Correction:                     0.000     0.000   0.0% |
 Calculate atomic Hamiltonians:      0.183     0.183   0.0% |
 Communicate:                        0.002     0.002   0.0% |
 Initialize Hamiltonian:             0.000     0.000   0.0% |
 Poisson:                            0.002     0.002   0.0% |
 XC 3D grid:                         0.173     0.173   0.0% |
LCAO initialization:               134.342     0.678   0.0% |
 LCAO eigensolver:                  34.132     0.002   0.0% |
  Calculate projections:             0.057     0.057   0.0% |
  DenseAtomicCorrection:             0.082     0.082   0.0% |
  Distribute overlap matrix:         0.006     0.006   0.0% |
  Orbital Layouts:                   0.363     0.363   0.0% |
  Potential matrix:                 33.534    33.534   0.6% |
  Sum over cells:                    0.088     0.088   0.0% |
 LCAO to grid:                      97.256    97.256   1.9% ||
 Set positions (LCAO WFS):           2.276     0.344   0.0% |
  Basic WFS set positions:           0.001     0.001   0.0% |
  Basis functions set positions:     0.000     0.000   0.0% |
  P tci:                             1.061     1.061   0.0% |
  ST tci:                            0.663     0.663   0.0% |
  mktci:                             0.207     0.207   0.0% |
PWDescriptor:                        0.026     0.026   0.0% |
SCF-cycle:                        2326.556     7.941   0.2% |
 Davidson:                        1907.550   621.292  11.9% |----|
  Apply H:                         133.657   129.569   2.5% ||
   HMM T:                            4.088     4.088   0.1% |
  Subspace diag:                   281.995     0.165   0.0% |
   calc_h_matrix:                  182.826    50.592   1.0% |
    Apply H:                       132.234   128.261   2.5% ||
     HMM T:                          3.974     3.974   0.1% |
   diagonalize:                      6.265     6.265   0.1% |
   rotate_psi:                      92.740    92.740   1.8% ||
  calc. matrices:                  597.210   337.467   6.5% |--|
   Apply H:                        259.743   252.262   4.8% |-|
    HMM T:                           7.482     7.482   0.1% |
  diagonalize:                      85.077    85.077   1.6% ||
  rotate_psi:                      188.318   188.318   3.6% ||
 Density:                           76.858     0.001   0.0% |
  Atomic density matrices:           1.301     1.301   0.0% |
  Mix:                              12.361    12.361   0.2% |
  Multipole moments:                 0.029     0.029   0.0% |
  Pseudo density:                   63.166    63.165   1.2% |
   Symmetrize density:               0.001     0.001   0.0% |
 Forces:                           308.351   308.351   5.9% |-|
 Hamiltonian:                       21.445     0.123   0.0% |
  Atomic:                            2.929     2.929   0.1% |
   XC Correction:                    0.000     0.000   0.0% |
  Calculate atomic Hamiltonians:     9.321     9.321   0.2% |
  Communicate:                       0.077     0.077   0.0% |
  Poisson:                           0.082     0.082   0.0% |
  XC 3D grid:                        8.913     8.913   0.2% |
 Orthonormalize:                     4.412     0.004   0.0% |
  calc_s_matrix:                     0.524     0.524   0.0% |
  inverse-cholesky:                  0.055     0.055   0.0% |
  projections:                       2.893     2.893   0.1% |
  rotate_psi_s:                      0.935     0.935   0.0% |
Set symmetry:                        0.000     0.000   0.0% |
Other:                            2752.869  2752.869  52.8% |--------------------|
-----------------------------------------------------------
Total:                                      5214.212 100.0%

Memory usage: 12.35 GiB
Date: Sun Mar 21 20:17:28 2021
