
  ___ ___ ___ _ _ _  
 |   |   |_  | | | | 
 | | | | | . | | | | 
 |__ |  _|___|_____|  20.10.1b1
 |___|_|             

User:   madkru@g006.nifl.fysik.dtu.dk
Date:   Wed Mar 24 17:12:38 2021
Arch:   x86_64
Pid:    12017
Python: 3.7.4
gpaw:   /home/niflheim/madkru/venv_folder/gpaw/gpaw (d224efde0f)
_gpaw:  /home/niflheim/madkru/venv_folder/gpaw/build/lib.linux-x86_64-sandybridge-3.7/
        _gpaw.cpython-37m-x86_64-linux-gnu.so (4fd39e8b1e)
ase:    /home/niflheim/madkru/venv_folder/ase/ase (version 3.21.0b1-4d5a73cb29)
numpy:  /home/niflheim/madkru/venv_folder/lib/python3.7/site-packages/numpy (version 1.19.4)
scipy:  /home/niflheim/madkru/venv_folder/lib/python3.7/site-packages/scipy (version 1.5.4)
libxc:  4.3.4
units:  Angstrom and eV
cores: 64
OMP_NUM_THREADS: 1

Input parameters:
  convergence: {bands: occupied,
                density: 0.0001,
                eigenstates: 4e-08,
                energy: 0.0005,
                forces: 1e-06}
  kpts: [6 6 4]
  mode: {ecut: 600.0,
         gammacentered: False,
         name: pw}
  occupations: {fixmagmom: False,
                name: fermi-dirac,
                width: 0.001}
  setups: {Mn: :d,3.0}
  symmetry: {point_group: False,
             time_reversal: False}

System changes: positions, numbers, cell, pbc, initial_charges, initial_magmoms 

Initialize ...

O-setup:
  name: Oxygen
  id: 9b9d51c344dea68c822856295a461509
  Z: 8.0
  valence: 6
  core: 2
  charge: 0.0
  file: /home/modules/software/GPAW-setups/0.9.20000/O.LDA.gz
  compensation charges: gauss, rc=0.21, lmax=2
  cutoffs: 1.17(filt), 0.83(core),
  valence states:
                energy  radius
    2s(2.00)   -23.752   0.688
    2p(4.00)    -9.195   0.598
    *s           3.459   0.688
    *p          18.016   0.598
    *d           0.000   0.619

  Using partial waves for O as LCAO basis

Mn-setup:
  name: Manganese
  id: 0d715a8018be061a6e9ea6f2d364ac92
  Z: 25.0
  valence: 15
  core: 10
  charge: 0.0
  Hubbard U: 3.000000 eV (l=2, scale=True)
  file: /home/modules/software/GPAW-setups/0.9.20000/Mn.LDA.gz
  compensation charges: gauss, rc=0.38, lmax=2
  cutoffs: 2.14(filt), 0.86(core),
  valence states:
                energy  radius
    3s(2.00)   -85.387   1.275
    4s(2.00)    -5.282   1.275
    3p(6.00)   -54.493   1.281
    4p(0.00)    -1.471   1.281
    3d(5.00)    -7.009   1.138
    *d          20.203   1.138

  Using partial waves for Mn as LCAO basis

P-setup:
  name: Phosphorus
  id: a5561c299094968922a179ab894d2e2d
  Z: 15.0
  valence: 5
  core: 10
  charge: 0.0
  file: /home/modules/software/GPAW-setups/0.9.20000/P.LDA.gz
  compensation charges: gauss, rc=0.30, lmax=2
  cutoffs: 1.69(filt), 1.81(core),
  valence states:
                energy  radius
    3s(2.00)   -14.015   0.953
    3p(3.00)    -5.596   0.953
    *s          13.197   0.953
    *p          21.615   0.953
    *d           0.000   0.953

  Using partial waves for P as LCAO basis

Li-setup:
  name: Lithium
  id: b73562207f97a71b6967473b66fe8b65
  Z: 3.0
  valence: 1
  core: 2
  charge: 0.0
  file: /home/modules/software/GPAW-setups/0.9.20000/Li.LDA.gz
  compensation charges: gauss, rc=0.33, lmax=2
  cutoffs: 1.91(filt), 2.55(core),
  valence states:
                energy  radius
    2s(1.00)    -2.874   1.058
    2p(0.00)    -1.126   1.058
    *s          24.338   1.058

  Using partial waves for Li as LCAO basis

Reference energy: -196157.275402

Spin-polarized calculation.
Magnetic moment: 0.000000

Convergence criteria:
  Maximum total energy change: 0.0005 eV / electron
  Maximum integral of absolute density change: 0.0001 electrons
  Maximum integral of absolute eigenstate change: 4e-08 eV^2
  Maximum change in atomic force: 1e-06 eV / Ang
  Maximum number of iterations: 333

Symmetries present (total): 1

  ( 1  0  0)
  ( 0  1  0)
  ( 0  0  1)

144 k-points: 6 x 6 x 4 Monkhorst-Pack grid
144 k-points in the irreducible part of the Brillouin zone
       k-points in crystal coordinates                weights
   0:    -0.41666667   -0.41666667   -0.37500000          1/144
   1:    -0.41666667   -0.41666667   -0.12500000          1/144
   2:    -0.41666667   -0.41666667    0.12500000          1/144
   3:    -0.41666667   -0.41666667    0.37500000          1/144
   4:    -0.41666667   -0.25000000   -0.37500000          1/144
   5:    -0.41666667   -0.25000000   -0.12500000          1/144
   6:    -0.41666667   -0.25000000    0.12500000          1/144
   7:    -0.41666667   -0.25000000    0.37500000          1/144
   8:    -0.41666667   -0.08333333   -0.37500000          1/144
   9:    -0.41666667   -0.08333333   -0.12500000          1/144
          ...
 143:     0.41666667    0.41666667    0.37500000          1/144

Wave functions: Plane wave expansion
  Cutoff energy: 600.000 eV
  Number of coefficients (min, max): 10068, 10125
  Pulay-stress correction: 0.000000 eV/Ang^3 (de/decut=0.000000)
  Using FFTW library
  ScaLapack parameters: grid=1x1, blocksize=None
  Wavefunction extrapolation:
    Improved wavefunction reuse through dual PAW basis 

  Fermi-Dirac: width=0.0010 eV

Eigensolver
   Davidson(niter=2, smin=None, normalize=True) 

Densities:
  Coarse grid: 60*35*27 grid
  Fine grid: 120*70*54 grid
  Total Charge: 0.000000 

Density mixing:
  Method: difference
  Backend: pulay
  Linear mixing parameter: 0.05
  Mixing with 5 old densities
  Damping of long wave oscillations: 50 

Hamiltonian:
  XC and Coulomb potentials evaluated on a 120*70*54 grid
  Using the LDA Exchange-Correlation functional
 

Memory estimate:
  Process memory now: 13115.77 MiB
  Calculator: 354.82 MiB
    Density: 10.06 MiB
      Arrays: 3.79 MiB
      Localized functions: 4.71 MiB
      Mixer: 1.56 MiB
    Hamiltonian: 2.95 MiB
      Arrays: 2.82 MiB
      XC: 0.00 MiB
      Poisson: 0.00 MiB
      vbar: 0.14 MiB
    Wavefunctions: 341.80 MiB
      Arrays psit_nG: 311.46 MiB
      Eigensolver: 19.99 MiB
      Projections: 2.71 MiB
      Projectors: 4.87 MiB
      PW-descriptor: 2.77 MiB

Total number of cores used: 64
Parallelization over k-points: 16
Domain decomposition: 2 x 2 x 1

Number of atoms: 28
Number of atomic orbitals: 148
Number of bands in calculation: 112
Number of valence electrons: 180
Bands to converge: occupied

... initialized

Initializing position-dependent things.

Density initialized from atomic densities
Creating initial wave functions:
  112 bands from LCAO basis set

     .-------------------------.  
    /|         OP              |  
   / |O            O        O  |  
  /  |       O            O  P |  
 *   |O    Mn      O           |  
 |   |          OLi          O |  
 |   P--O--------------Mn------.  
 |  /          Li    O  Mn  O /   
 | /LiO           PO         /    
 |/       Mn                /     
 *Li-----------------------*      

Positions:
   0 O     -1.330281   -2.539252   -1.168500    ( 0.0000,  0.0000,  0.0000)
   1 O     -3.152392    2.974909    1.200956    ( 0.0000,  0.0000,  0.0000)
   2 O      2.077234    0.510133    1.506966    ( 0.0000,  0.0000,  0.0000)
   3 O      3.899724   -0.074476   -0.862491    ( 0.0000,  0.0000,  0.0000)
   4 O      2.077424    2.974966    1.507072    ( 0.0000,  0.0000,  0.0000)
   5 O      3.899535   -2.539195   -0.862384    ( 0.0000,  0.0000,  0.0000)
   6 O     -1.330092   -0.074418   -1.168395    ( 0.0000,  0.0000,  0.0000)
   7 O     -3.152581    0.510191    1.201063    ( 0.0000,  0.0000,  0.0000)
   8 O     -4.389675   -1.306969   -0.813152    ( 0.0000,  0.0000,  0.0000)
   9 O     -0.093301    1.742683    1.556268    ( 0.0000,  0.0000,  0.0000)
  10 O      5.136817    1.742683    1.151723    ( 0.0000,  0.0000,  0.0000)
  11 O      0.840444   -1.306969   -1.217697    ( 0.0000,  0.0000,  0.0000)
  12 Mn    -2.557192   -1.307258    0.273595    ( 0.0000,  0.0000,  1.0000)
  13 Mn    -1.925535    1.742972   -2.096623    ( 0.0000,  0.0000, -1.0000)
  14 Mn     3.304335    1.742972    0.064976    ( 0.0000,  0.0000, -1.0000)
  15 Mn     2.672678   -1.307258    2.435195    ( 0.0000,  0.0000,  1.0000)
  16 P     -0.597175   -1.306854   -1.801474    ( 0.0000,  0.0000,  0.0000)
  17 P     -3.885565    1.742568    0.568028    ( 0.0000,  0.0000,  0.0000)
  18 P      1.344318    1.742568    2.140045    ( 0.0000,  0.0000,  0.0000)
  19 P      4.642708   -1.306854   -0.229456    ( 0.0000,  0.0000,  0.0000)
  20 O     -0.636957   -1.306861    1.403074    ( 0.0000,  0.0000,  0.0000)
  21 O     -3.845824    1.742575   -0.967462    ( 0.0000,  0.0000,  0.0000)
  22 O      1.384100    1.742576   -1.064503    ( 0.0000,  0.0000,  0.0000)
  23 O      4.592967   -1.306861    1.306033    ( 0.0000,  0.0000,  0.0000)
  24 Li    -4.856429   -2.832143   -2.200714    ( 0.0000,  0.0000,  0.0000)
  25 Li     0.373571   -2.832143    0.169286    ( 0.0000,  0.0000,  0.0000)
  26 Li    -4.856429    0.217857   -2.200714    ( 0.0000,  0.0000,  0.0000)
  27 Li     0.373571    0.217857    0.169286    ( 0.0000,  0.0000,  0.0000)

Unit cell:
           periodic     x           y           z      points  spacing
  1. axis:    yes   10.460000    0.000000    0.000000    60     0.1743
  2. axis:    yes    0.000000    6.100000    0.000000    35     0.1743
  3. axis:    yes    0.000000    0.000000    4.740000    27     0.1756

  Lengths:  10.460000   6.100000   4.740000
  Angles:   90.000000  90.000000  90.000000

Effective grid spacing dv^(1/3) = 0.1747

                     log10-error:           total        iterations:
           time      wfs    density  force  energy       poisson  magmom
iter:   1  17:14:11                       -220.680122             +0.0000
iter:   2  17:14:32  -0.64  -0.92         -235.496088             +0.0000
iter:   3  17:14:54  -0.40  -0.96         -226.165069             -0.0000
iter:   4  17:15:15  -1.41  -1.29         -225.885122             +0.0000
iter:   5  17:15:36  -1.19  -1.38         -227.588059             +0.0000
iter:   6  17:15:58  -1.40  -1.51         -225.825447             +0.0000
iter:   7  17:16:19  -2.58  -2.06         -225.898880             +0.0000
iter:   8  17:16:41  -2.22  -2.01         -225.628902             -0.0000
iter:   9  17:17:02  -2.71  -2.11         -225.544255             +0.0000
iter:  10  17:17:24  -3.58  -2.96         -225.544069             +0.0000
iter:  11  17:17:45  -3.95  -3.00         -225.544765             +0.0000
iter:  12  17:18:06  -4.31  -3.23         -225.544919             +0.0000
iter:  13  17:18:28  -5.48  -3.38         -225.544823             -0.0000
iter:  14  17:18:49  -5.29  -3.44         -225.544654             -0.0000
iter:  15  17:19:11  -5.53  -3.62         -225.544623             -0.0000
iter:  16  17:19:32  -6.34  -3.65         -225.544593             +0.0000
iter:  17  17:19:53  -5.88  -3.70         -225.544618             -0.0000
iter:  18  17:20:15  -6.40  -3.78         -225.544613             -0.0000
iter:  19  17:20:36  -6.60  -3.83         -225.544579             -0.0000
iter:  20  17:20:58  -6.90  -3.95         -225.544569             -0.0000
iter:  21  17:21:19  -6.29  -4.04         -225.544584             -0.0000
iter:  22  17:21:46  -7.52  -4.23         -225.544580             -0.0000
iter:  23  17:22:13  -7.61  -4.26    -2.54-225.544574             -0.0000
iter:  24  17:22:34  -7.19  -4.32         -225.544572             -0.0000
iter:  25  17:22:55  -6.69  -4.58         -225.544564             -0.0000
iter:  26  17:23:17  -7.27  -4.83         -225.544564             -0.0000
iter:  27  17:23:44  -7.57  -4.72    -2.34-225.544565             -0.0000
iter:  28  17:24:10  -8.62  -4.96    -3.37-225.544565             -0.0000
iter:  29  17:24:37  -8.02  -4.98    -3.08-225.544564             -0.0000
iter:  30  17:25:04  -8.23  -5.06    -2.81-225.544564             -0.0000
iter:  31  17:25:31  -8.37  -5.11    -3.15-225.544564             -0.0000
iter:  32  17:25:58  -8.63  -5.23    -3.16-225.544564             -0.0000
iter:  33  17:26:24  -8.92  -5.29    -3.05-225.544564             -0.0000
iter:  34  17:26:51  -9.46  -5.49    -4.02-225.544564             -0.0000
iter:  35  17:27:18  -9.39  -5.52    -3.47-225.544564             -0.0000
iter:  36  17:27:45  -9.97  -5.62    -4.00-225.544564             -0.0000
iter:  37  17:28:11  -9.91  -5.64    -3.51-225.544564             -0.0000
iter:  38  17:28:38 -10.45  -5.83    -4.02-225.544564             -0.0000
iter:  39  17:29:05 -10.76  -5.86    -4.29-225.544564             -0.0000
iter:  40  17:29:32 -10.81  -6.02    -4.11-225.544564             -0.0000
iter:  41  17:29:59 -10.91  -6.18    -4.39-225.544564             -0.0000
iter:  42  17:30:25 -11.14  -6.23    -4.02-225.544564             -0.0000
iter:  43  17:30:52 -11.51  -6.28    -4.57-225.544564             -0.0000
iter:  44  17:31:19 -10.84  -6.30    -4.50-225.544564             -0.0000
iter:  45  17:31:45 -11.41  -6.47    -4.50-225.544564             -0.0000
iter:  46  17:32:12 -11.31  -6.53    -4.17-225.544564             -0.0000
iter:  47  17:32:39 -11.67  -6.69    -4.38-225.544564             -0.0000
iter:  48  17:33:06 -12.47  -7.23    -4.99-225.544564             -0.0000
iter:  49  17:33:33 -13.17  -7.29    -5.24-225.544564             -0.0000
iter:  50  17:33:59 -12.61  -7.38    -5.06-225.544564             -0.0000
iter:  51  17:34:26 -13.45  -7.67    -5.88-225.544564             -0.0000
iter:  52  17:34:53 -14.09  -7.87    -5.89-225.544564             -0.0000
iter:  53  17:35:20 -14.44  -7.93    -5.87-225.544564             -0.0000
iter:  54  17:35:46 -14.54  -8.04    -6.30-225.544564             -0.0000

Converged after 54 iterations.

Dipole moment: (13.171420, 1.725210, -5.512512) |e|*Ang

Total magnetic moment: (0.000000, 0.000000, -0.000000)
Local magnetic moments:
   0 O  ( 0.000000,  0.000000,  0.001111)
   1 O  ( 0.000000,  0.000000, -0.000996)
   2 O  ( 0.000000,  0.000000, -0.001079)
   3 O  ( 0.000000,  0.000000,  0.000914)
   4 O  ( 0.000000,  0.000000, -0.001087)
   5 O  ( 0.000000,  0.000000,  0.000922)
   6 O  ( 0.000000,  0.000000,  0.001103)
   7 O  ( 0.000000,  0.000000, -0.000988)
   8 O  ( 0.000000,  0.000000,  0.019635)
   9 O  ( 0.000000,  0.000000, -0.019837)
  10 O  ( 0.000000,  0.000000, -0.019698)
  11 O  ( 0.000000,  0.000000,  0.019728)
  12 Mn ( 0.000000,  0.000000,  4.601610)
  13 Mn ( 0.000000,  0.000000, -4.601585)
  14 Mn ( 0.000000,  0.000000, -4.601410)
  15 Mn ( 0.000000,  0.000000,  4.601715)
  16 P  ( 0.000000,  0.000000,  0.001304)
  17 P  ( 0.000000,  0.000000, -0.001314)
  18 P  ( 0.000000,  0.000000, -0.001297)
  19 P  ( 0.000000,  0.000000,  0.001399)
  20 O  ( 0.000000,  0.000000,  0.018148)
  21 O  ( 0.000000,  0.000000, -0.018054)
  22 O  ( 0.000000,  0.000000, -0.018063)
  23 O  ( 0.000000,  0.000000,  0.017936)
  24 Li ( 0.000000,  0.000000, -0.000010)
  25 Li ( 0.000000,  0.000000,  0.000000)
  26 Li ( 0.000000,  0.000000, -0.000010)
  27 Li ( 0.000000,  0.000000,  0.000000)

Energy contributions relative to reference atoms: (reference = -196157.275402)

Kinetic:       +242.980353
Potential:     -215.472499
External:        +0.000000
XC:            -254.967659
Entropy (-ST):   -0.000000
Local:           +1.915241
--------------------------
Free energy:   -225.544564
Extrapolated:  -225.544564

Spin contamination: 9.747377 electrons
Showing only first 2 kpts
                      Up                     Down
 Kpt  Band  Eigenvalues  Occupancy  Eigenvalues  Occupancy
  0    88      3.91124    0.00694      3.92596    0.00694
  0    89      3.96943    0.00694      3.98056    0.00694
  0    90      8.67185    0.00000      8.65452    0.00000
  0    91      8.69093    0.00000      8.70369    0.00000

  1    88      3.90808    0.00694      3.92279    0.00694
  1    89      3.97325    0.00694      3.98396    0.00694
  1    90      8.51504    0.00000      8.49983    0.00000
  1    91      8.53761    0.00000      8.54850    0.00000


Fermi level: 5.31856

Gap: 3.773 eV
Transition (v -> c):
  (s=1, k=69, n=89, [-0.08, 0.42, -0.12]) -> (s=0, k=58, n=90, [-0.08, -0.08, 0.12])
Writing to born-0.01-19x+.gpw (mode='all')

Timing:                              incl.     excl.
-----------------------------------------------------------
Hamiltonian:                         0.248     0.002   0.0% |
 Atomic:                             0.057     0.057   0.0% |
  XC Correction:                     0.000     0.000   0.0% |
 Calculate atomic Hamiltonians:      0.094     0.094   0.0% |
 Communicate:                        0.002     0.002   0.0% |
 Initialize Hamiltonian:             0.000     0.000   0.0% |
 Poisson:                            0.001     0.001   0.0% |
 XC 3D grid:                         0.092     0.092   0.0% |
LCAO initialization:                67.382     0.685   0.0% |
 LCAO eigensolver:                  17.671     0.002   0.0% |
  Calculate projections:             0.029     0.029   0.0% |
  DenseAtomicCorrection:             0.042     0.042   0.0% |
  Distribute overlap matrix:         0.052     0.052   0.0% |
  Orbital Layouts:                   0.473     0.473   0.0% |
  Potential matrix:                 16.978    16.978   0.5% |
  Sum over cells:                    0.095     0.095   0.0% |
 LCAO to grid:                      47.752    47.752   1.5% ||
 Set positions (LCAO WFS):           1.274     0.179   0.0% |
  Basic WFS set positions:           0.001     0.001   0.0% |
  Basis functions set positions:     0.000     0.000   0.0% |
  P tci:                             0.526     0.526   0.0% |
  ST tci:                            0.360     0.360   0.0% |
  mktci:                             0.207     0.207   0.0% |
PWDescriptor:                        0.025     0.025   0.0% |
SCF-cycle:                        1319.156     1.359   0.0% |
 Davidson:                        1098.051   342.632  10.5% |---|
  Apply H:                          74.174    72.100   2.2% ||
   HMM T:                            2.074     2.074   0.1% |
  Subspace diag:                   158.615     0.162   0.0% |
   calc_h_matrix:                  101.107    26.918   0.8% |
    Apply H:                        74.189    72.155   2.2% ||
     HMM T:                          2.034     2.034   0.1% |
   diagonalize:                      7.757     7.757   0.2% |
   rotate_psi:                      49.589    49.589   1.5% ||
  calc. matrices:                  325.202   181.498   5.6% |-|
   Apply H:                        143.704   139.909   4.3% |-|
    HMM T:                           3.795     3.795   0.1% |
  diagonalize:                      90.093    90.093   2.8% ||
  rotate_psi:                      107.334   107.334   3.3% ||
 Density:                           43.664     0.001   0.0% |
  Atomic density matrices:           0.944     0.944   0.0% |
  Mix:                               6.834     6.834   0.2% |
  Multipole moments:                 0.019     0.019   0.0% |
  Pseudo density:                   35.866    35.864   1.1% |
   Symmetrize density:               0.001     0.001   0.0% |
 Forces:                           160.363   160.363   4.9% |-|
 Hamiltonian:                       13.427     0.116   0.0% |
  Atomic:                            3.194     3.194   0.1% |
   XC Correction:                    0.000     0.000   0.0% |
  Calculate atomic Hamiltonians:     5.039     5.039   0.2% |
  Communicate:                       0.099     0.099   0.0% |
  Poisson:                           0.042     0.042   0.0% |
  XC 3D grid:                        4.937     4.937   0.2% |
 Orthonormalize:                     2.292     0.003   0.0% |
  calc_s_matrix:                     0.264     0.264   0.0% |
  inverse-cholesky:                  0.078     0.078   0.0% |
  projections:                       1.471     1.471   0.0% |
  rotate_psi_s:                      0.475     0.475   0.0% |
Set symmetry:                        0.000     0.000   0.0% |
Other:                            1881.915  1881.915  57.6% |----------------------|
-----------------------------------------------------------
Total:                                      3268.726 100.0%

Memory usage: 12.85 GiB
Date: Wed Mar 24 18:07:07 2021
