
  ___ ___ ___ _ _ _  
 |   |   |_  | | | | 
 | | | | | . | | | | 
 |__ |  _|___|_____|  20.10.1b1
 |___|_|             

User:   madkru@g031.nifl.fysik.dtu.dk
Date:   Sun Mar 21 10:30:04 2021
Arch:   x86_64
Pid:    47913
Python: 3.7.4
gpaw:   /home/niflheim/madkru/venv_folder/gpaw/gpaw (d0d1ca1c71)
_gpaw:  /home/niflheim/madkru/venv_folder/gpaw/build/lib.linux-x86_64-sandybridge-3.7/
        _gpaw.cpython-37m-x86_64-linux-gnu.so (4fd39e8b1e)
ase:    /home/niflheim/madkru/venv_folder/ase/ase (version 3.21.0b1-7e6c206a91)
numpy:  /home/niflheim/madkru/venv_folder/lib/python3.7/site-packages/numpy (version 1.19.4)
scipy:  /home/niflheim/madkru/venv_folder/lib/python3.7/site-packages/scipy (version 1.5.4)
libxc:  4.3.4
units:  Angstrom and eV
cores: 32
OMP_NUM_THREADS: 1

Input parameters:
  convergence: {bands: occupied,
                density: 0.0001,
                eigenstates: 4e-08,
                energy: 0.0005,
                forces: 1e-06}
  kpts: [6 6 4]
  mode: {ecut: 600.0,
         gammacentered: False,
         name: pw}
  occupations: {fixmagmom: False,
                name: fermi-dirac,
                width: 0.001}
  setups: {Mn: :d,3.0}
  symmetry: {point_group: False,
             time_reversal: False}

System changes: positions, numbers, cell, pbc, initial_charges, initial_magmoms 

Initialize ...

O-setup:
  name: Oxygen
  id: 9b9d51c344dea68c822856295a461509
  Z: 8.0
  valence: 6
  core: 2
  charge: 0.0
  file: /home/modules/software/GPAW-setups/0.9.20000/O.LDA.gz
  compensation charges: gauss, rc=0.21, lmax=2
  cutoffs: 1.17(filt), 0.83(core),
  valence states:
                energy  radius
    2s(2.00)   -23.752   0.688
    2p(4.00)    -9.195   0.598
    *s           3.459   0.688
    *p          18.016   0.598
    *d           0.000   0.619

  Using partial waves for O as LCAO basis

Mn-setup:
  name: Manganese
  id: 0d715a8018be061a6e9ea6f2d364ac92
  Z: 25.0
  valence: 15
  core: 10
  charge: 0.0
  Hubbard U: 3.000000 eV (l=2, scale=True)
  file: /home/modules/software/GPAW-setups/0.9.20000/Mn.LDA.gz
  compensation charges: gauss, rc=0.38, lmax=2
  cutoffs: 2.14(filt), 0.86(core),
  valence states:
                energy  radius
    3s(2.00)   -85.387   1.275
    4s(2.00)    -5.282   1.275
    3p(6.00)   -54.493   1.281
    4p(0.00)    -1.471   1.281
    3d(5.00)    -7.009   1.138
    *d          20.203   1.138

  Using partial waves for Mn as LCAO basis

P-setup:
  name: Phosphorus
  id: a5561c299094968922a179ab894d2e2d
  Z: 15.0
  valence: 5
  core: 10
  charge: 0.0
  file: /home/modules/software/GPAW-setups/0.9.20000/P.LDA.gz
  compensation charges: gauss, rc=0.30, lmax=2
  cutoffs: 1.69(filt), 1.81(core),
  valence states:
                energy  radius
    3s(2.00)   -14.015   0.953
    3p(3.00)    -5.596   0.953
    *s          13.197   0.953
    *p          21.615   0.953
    *d           0.000   0.953

  Using partial waves for P as LCAO basis

Li-setup:
  name: Lithium
  id: b73562207f97a71b6967473b66fe8b65
  Z: 3.0
  valence: 1
  core: 2
  charge: 0.0
  file: /home/modules/software/GPAW-setups/0.9.20000/Li.LDA.gz
  compensation charges: gauss, rc=0.33, lmax=2
  cutoffs: 1.91(filt), 2.55(core),
  valence states:
                energy  radius
    2s(1.00)    -2.874   1.058
    2p(0.00)    -1.126   1.058
    *s          24.338   1.058

  Using partial waves for Li as LCAO basis

Reference energy: -196157.275402

Spin-polarized calculation.
Magnetic moment: 0.000000

Convergence criteria:
  Maximum total energy change: 0.0005 eV / electron
  Maximum integral of absolute density change: 0.0001 electrons
  Maximum integral of absolute eigenstate change: 4e-08 eV^2
  Maximum change in atomic force: 1e-06 eV / Ang
  Maximum number of iterations: 333

Symmetries present (total): 1

  ( 1  0  0)
  ( 0  1  0)
  ( 0  0  1)

144 k-points: 6 x 6 x 4 Monkhorst-Pack grid
144 k-points in the irreducible part of the Brillouin zone
       k-points in crystal coordinates                weights
   0:    -0.41666667   -0.41666667   -0.37500000          1/144
   1:    -0.41666667   -0.41666667   -0.12500000          1/144
   2:    -0.41666667   -0.41666667    0.12500000          1/144
   3:    -0.41666667   -0.41666667    0.37500000          1/144
   4:    -0.41666667   -0.25000000   -0.37500000          1/144
   5:    -0.41666667   -0.25000000   -0.12500000          1/144
   6:    -0.41666667   -0.25000000    0.12500000          1/144
   7:    -0.41666667   -0.25000000    0.37500000          1/144
   8:    -0.41666667   -0.08333333   -0.37500000          1/144
   9:    -0.41666667   -0.08333333   -0.12500000          1/144
          ...
 143:     0.41666667    0.41666667    0.37500000          1/144

Wave functions: Plane wave expansion
  Cutoff energy: 600.000 eV
  Number of coefficients (min, max): 10068, 10125
  Pulay-stress correction: 0.000000 eV/Ang^3 (de/decut=0.000000)
  Using FFTW library
  ScaLapack parameters: grid=1x1, blocksize=None
  Wavefunction extrapolation:
    Improved wavefunction reuse through dual PAW basis 

  Fermi-Dirac: width=0.0010 eV

Eigensolver
   Davidson(niter=2, smin=None, normalize=True) 

Densities:
  Coarse grid: 60*35*27 grid
  Fine grid: 120*70*54 grid
  Total Charge: 0.000000 

Density mixing:
  Method: difference
  Backend: pulay
  Linear mixing parameter: 0.05
  Mixing with 5 old densities
  Damping of long wave oscillations: 50 

Hamiltonian:
  XC and Coulomb potentials evaluated on a 120*70*54 grid
  Using the LDA Exchange-Correlation functional
 

Memory estimate:
  Process memory now: 12385.27 MiB
  Calculator: 375.55 MiB
    Density: 20.02 MiB
      Arrays: 7.57 MiB
      Localized functions: 9.42 MiB
      Mixer: 3.03 MiB
    Hamiltonian: 5.90 MiB
      Arrays: 5.62 MiB
      XC: 0.00 MiB
      Poisson: 0.00 MiB
      vbar: 0.27 MiB
    Wavefunctions: 349.64 MiB
      Arrays psit_nG: 311.46 MiB
      Eigensolver: 19.99 MiB
      Projections: 5.41 MiB
      Projectors: 9.73 MiB
      PW-descriptor: 3.03 MiB

Total number of cores used: 32
Parallelization over k-points: 16
Domain decomposition: 2 x 1 x 1

Number of atoms: 28
Number of atomic orbitals: 148
Number of bands in calculation: 112
Number of valence electrons: 180
Bands to converge: occupied

... initialized

Initializing position-dependent things.

Density initialized from atomic densities
Creating initial wave functions:
  112 bands from LCAO basis set

     .-------------------------.  
    /|         OP              |  
   / |O            O        O  |  
  /  |       O            O  P |  
 *   |O    Mn      O           |  
 |   |          OLi          O |  
 |   P--O--------------Mn------.  
 |  /          Li    O  Mn  O /   
 | /LiO           PO         /    
 |/       Mn                /     
 *Li-----------------------*      

Positions:
   0 O     -1.330281   -2.539252   -1.168500    ( 0.0000,  0.0000,  0.0000)
   1 O     -3.152392    2.964909    1.200956    ( 0.0000,  0.0000,  0.0000)
   2 O      2.077234    0.510133    1.506966    ( 0.0000,  0.0000,  0.0000)
   3 O      3.899724   -0.074476   -0.862491    ( 0.0000,  0.0000,  0.0000)
   4 O      2.077424    2.974966    1.507072    ( 0.0000,  0.0000,  0.0000)
   5 O      3.899535   -2.539195   -0.862384    ( 0.0000,  0.0000,  0.0000)
   6 O     -1.330092   -0.074418   -1.168395    ( 0.0000,  0.0000,  0.0000)
   7 O     -3.152581    0.510191    1.201063    ( 0.0000,  0.0000,  0.0000)
   8 O     -4.389675   -1.306969   -0.813152    ( 0.0000,  0.0000,  0.0000)
   9 O     -0.093301    1.742683    1.556268    ( 0.0000,  0.0000,  0.0000)
  10 O      5.136817    1.742683    1.151723    ( 0.0000,  0.0000,  0.0000)
  11 O      0.840444   -1.306969   -1.217697    ( 0.0000,  0.0000,  0.0000)
  12 Mn    -2.557192   -1.307258    0.273595    ( 0.0000,  0.0000,  1.0000)
  13 Mn    -1.925535    1.742972   -2.096623    ( 0.0000,  0.0000, -1.0000)
  14 Mn     3.304335    1.742972    0.064976    ( 0.0000,  0.0000, -1.0000)
  15 Mn     2.672678   -1.307258    2.435195    ( 0.0000,  0.0000,  1.0000)
  16 P     -0.597175   -1.306854   -1.801474    ( 0.0000,  0.0000,  0.0000)
  17 P     -3.885565    1.742568    0.568028    ( 0.0000,  0.0000,  0.0000)
  18 P      1.344318    1.742568    2.140045    ( 0.0000,  0.0000,  0.0000)
  19 P      4.632708   -1.306854   -0.229456    ( 0.0000,  0.0000,  0.0000)
  20 O     -0.636957   -1.306861    1.403074    ( 0.0000,  0.0000,  0.0000)
  21 O     -3.845824    1.742575   -0.967462    ( 0.0000,  0.0000,  0.0000)
  22 O      1.384100    1.742576   -1.064503    ( 0.0000,  0.0000,  0.0000)
  23 O      4.592967   -1.306861    1.306033    ( 0.0000,  0.0000,  0.0000)
  24 Li    -4.856429   -2.832143   -2.200714    ( 0.0000,  0.0000,  0.0000)
  25 Li     0.373571   -2.832143    0.169286    ( 0.0000,  0.0000,  0.0000)
  26 Li    -4.856429    0.217857   -2.200714    ( 0.0000,  0.0000,  0.0000)
  27 Li     0.373571    0.217857    0.169286    ( 0.0000,  0.0000,  0.0000)

Unit cell:
           periodic     x           y           z      points  spacing
  1. axis:    yes   10.460000    0.000000    0.000000    60     0.1743
  2. axis:    yes    0.000000    6.100000    0.000000    35     0.1743
  3. axis:    yes    0.000000    0.000000    4.740000    27     0.1756

  Lengths:  10.460000   6.100000   4.740000
  Angles:   90.000000  90.000000  90.000000

Effective grid spacing dv^(1/3) = 0.1747

                     log10-error:           total        iterations:
           time      wfs    density  force  energy       poisson  magmom
iter:   1  10:33:01                       -220.690022             +0.0000
iter:   2  10:33:41  -0.64  -0.92         -235.514590             +0.0000
iter:   3  10:34:20  -0.40  -0.96         -226.168978             -0.0000
iter:   4  10:34:59  -1.41  -1.29         -225.886728             +0.0000
iter:   5  10:35:39  -1.19  -1.38         -227.587041             +0.0000
iter:   6  10:36:18  -1.39  -1.51         -225.828457             +0.0000
iter:   7  10:36:57  -2.56  -2.06         -225.897573             +0.0000
iter:   8  10:37:36  -2.24  -2.01         -225.643195             -0.0000
iter:   9  10:38:16  -2.67  -2.08         -225.545346             +0.0000
iter:  10  10:38:55  -3.54  -2.94         -225.544264             +0.0000
iter:  11  10:39:35  -3.95  -3.00         -225.546299             +0.0000
iter:  12  10:40:14  -4.30  -3.22         -225.546455             +0.0000
iter:  13  10:40:53  -5.35  -3.36         -225.546351             -0.0000
iter:  14  10:41:33  -5.18  -3.44         -225.546225             -0.0000
iter:  15  10:42:12  -5.33  -3.59         -225.546123             -0.0000
iter:  16  10:42:51  -6.33  -3.70         -225.546111             +0.0000
iter:  17  10:43:30  -6.32  -3.77         -225.546128             -0.0000
iter:  18  10:44:10  -6.71  -3.82         -225.546129             -0.0000
iter:  19  10:44:49  -5.90  -3.84         -225.546094             -0.0000
iter:  20  10:45:28  -7.08  -4.37         -225.546090             -0.0000
iter:  21  10:46:18  -7.76  -4.47         -225.546088             -0.0000
iter:  22  10:46:58  -7.27  -4.52         -225.546091             +0.0000
iter:  23  10:47:47  -7.63  -4.54    -2.74-225.546088             +0.0000
iter:  24  10:48:37  -7.61  -4.62    -2.60-225.546089             +0.0000
iter:  25  10:49:17  -7.06  -4.65         -225.546091             +0.0000
iter:  26  10:49:56  -7.29  -4.56         -225.546089             +0.0000
iter:  27  10:50:46  -8.45  -4.82    -2.53-225.546089             +0.0000
iter:  28  10:51:36  -7.40  -4.84    -2.93-225.546089             +0.0000
iter:  29  10:52:26  -8.06  -4.93    -2.97-225.546089             +0.0000
iter:  30  10:53:16  -9.12  -5.35    -3.74-225.546089             +0.0000
iter:  31  10:54:06  -8.43  -5.37    -3.40-225.546089             +0.0000
iter:  32  10:54:56  -9.30  -5.69    -3.86-225.546089             +0.0000
iter:  33  10:55:46 -10.11  -6.02    -3.93-225.546089             +0.0000
iter:  34  10:56:36 -10.90  -6.01    -4.39-225.546089             +0.0000
iter:  35  10:57:25  -9.58  -6.06    -3.88-225.546089             +0.0000
iter:  36  10:58:15 -10.62  -6.13    -4.31-225.546089             +0.0000
iter:  37  10:59:05 -10.46  -6.31    -4.45-225.546089             +0.0000
iter:  38  10:59:55 -11.46  -6.45    -4.60-225.546089             +0.0000
iter:  39  11:00:45 -11.61  -6.49    -4.36-225.546089             +0.0000
iter:  40  11:01:35 -11.85  -6.69    -5.28-225.546089             +0.0000
iter:  41  11:02:25 -11.62  -6.74    -4.56-225.546089             +0.0000
iter:  42  11:03:15 -12.55  -6.94    -4.62-225.546089             +0.0000
iter:  43  11:04:05 -12.13  -7.16    -5.03-225.546089             +0.0000
iter:  44  11:04:55 -12.89  -7.31    -5.21-225.546089             +0.0000
iter:  45  11:05:45 -13.10  -7.40    -5.60-225.546089             +0.0000
iter:  46  11:06:35 -12.92  -7.47    -5.39-225.546089             -0.0000
iter:  47  11:07:25 -13.89  -7.52    -6.54-225.546089             +0.0000

Converged after 47 iterations.

Dipole moment: (13.161320, 1.721020, -5.511690) |e|*Ang

Total magnetic moment: (0.000000, 0.000000, 0.000000)
Local magnetic moments:
   0 O  ( 0.000000,  0.000000,  0.001018)
   1 O  ( 0.000000,  0.000000, -0.001287)
   2 O  ( 0.000000,  0.000000, -0.001054)
   3 O  ( 0.000000,  0.000000,  0.001045)
   4 O  ( 0.000000,  0.000000, -0.001060)
   5 O  ( 0.000000,  0.000000,  0.001059)
   6 O  ( 0.000000,  0.000000,  0.001189)
   7 O  ( 0.000000,  0.000000, -0.000984)
   8 O  ( 0.000000,  0.000000,  0.019746)
   9 O  ( 0.000000,  0.000000, -0.019769)
  10 O  ( 0.000000,  0.000000, -0.019919)
  11 O  ( 0.000000,  0.000000,  0.019763)
  12 Mn ( 0.000000,  0.000000,  4.602308)
  13 Mn ( 0.000000,  0.000000, -4.601535)
  14 Mn ( 0.000000,  0.000000, -4.601558)
  15 Mn ( 0.000000,  0.000000,  4.601587)
  16 P  ( 0.000000,  0.000000,  0.001288)
  17 P  ( 0.000000,  0.000000, -0.001516)
  18 P  ( 0.000000,  0.000000, -0.001305)
  19 P  ( 0.000000,  0.000000,  0.001282)
  20 O  ( 0.000000,  0.000000,  0.018022)
  21 O  ( 0.000000,  0.000000, -0.018149)
  22 O  ( 0.000000,  0.000000, -0.018057)
  23 O  ( 0.000000,  0.000000,  0.018070)
  24 Li ( 0.000000,  0.000000, -0.000015)
  25 Li ( 0.000000,  0.000000, -0.000000)
  26 Li ( 0.000000,  0.000000, -0.000001)
  27 Li ( 0.000000,  0.000000, -0.000001)

Energy contributions relative to reference atoms: (reference = -196157.275402)

Kinetic:       +243.472393
Potential:     -215.849377
External:        +0.000000
XC:            -255.083308
Entropy (-ST):   -0.000000
Local:           +1.914203
--------------------------
Free energy:   -225.546089
Extrapolated:  -225.546089

Spin contamination: 9.747956 electrons
Showing only first 2 kpts
                      Up                     Down
 Kpt  Band  Eigenvalues  Occupancy  Eigenvalues  Occupancy
  0    88      3.91617    0.00694      3.92642    0.00694
  0    89      3.96583    0.00694      3.97523    0.00694
  0    90      8.67049    0.00000      8.65907    0.00000
  0    91      8.69077    0.00000      8.68409    0.00000

  1    88      3.91280    0.00694      3.92275    0.00694
  1    89      3.96930    0.00694      3.97908    0.00694
  1    90      8.51649    0.00000      8.50469    0.00000
  1    91      8.53537    0.00000      8.52671    0.00000


Fermi level: 5.31860

Gap: 3.775 eV
Transition (v -> c):
  (s=1, k=70, n=89, [-0.08, 0.42, 0.12]) -> (s=1, k=57, n=90, [-0.08, -0.08, -0.12])
Writing to born-0.01-1y-.gpw (mode='all')

Timing:                              incl.     excl.
-----------------------------------------------------------
Hamiltonian:                         0.437     0.002   0.0% |
 Atomic:                             0.082     0.082   0.0% |
  XC Correction:                     0.000     0.000   0.0% |
 Calculate atomic Hamiltonians:      0.176     0.176   0.0% |
 Communicate:                        0.002     0.002   0.0% |
 Initialize Hamiltonian:             0.000     0.000   0.0% |
 Poisson:                            0.002     0.002   0.0% |
 XC 3D grid:                         0.173     0.173   0.0% |
LCAO initialization:               127.648     0.680   0.0% |
 LCAO eigensolver:                  33.954     0.003   0.0% |
  Calculate projections:             0.057     0.057   0.0% |
  DenseAtomicCorrection:             0.083     0.083   0.0% |
  Distribute overlap matrix:         0.219     0.219   0.0% |
  Orbital Layouts:                   0.362     0.362   0.0% |
  Potential matrix:                 33.131    33.131   0.6% |
  Sum over cells:                    0.100     0.100   0.0% |
 LCAO to grid:                      90.717    90.717   1.8% ||
 Set positions (LCAO WFS):           2.297     0.344   0.0% |
  Basic WFS set positions:           0.001     0.001   0.0% |
  Basis functions set positions:     0.000     0.000   0.0% |
  P tci:                             1.051     1.051   0.0% |
  ST tci:                            0.660     0.660   0.0% |
  mktci:                             0.241     0.241   0.0% |
PWDescriptor:                        0.025     0.025   0.0% |
SCF-cycle:                        2110.524     9.487   0.2% |
 Davidson:                        1752.409   572.923  11.2% |---|
  Apply H:                         122.053   117.921   2.3% ||
   HMM T:                            4.132     4.132   0.1% |
  Subspace diag:                   257.897     0.150   0.0% |
   calc_h_matrix:                  166.784    46.432   0.9% |
    Apply H:                       120.352   116.425   2.3% ||
     HMM T:                          3.926     3.926   0.1% |
   diagonalize:                      5.753     5.753   0.1% |
   rotate_psi:                      85.211    85.211   1.7% ||
  calc. matrices:                  548.105   310.462   6.1% |-|
   Apply H:                        237.643   230.252   4.5% |-|
    HMM T:                           7.391     7.391   0.1% |
  diagonalize:                      78.424    78.424   1.5% ||
  rotate_psi:                      173.006   173.006   3.4% ||
 Density:                           69.385     0.001   0.0% |
  Atomic density matrices:           1.190     1.190   0.0% |
  Mix:                              11.416    11.416   0.2% |
  Multipole moments:                 0.027     0.027   0.0% |
  Pseudo density:                   56.751    56.750   1.1% |
   Symmetrize density:               0.001     0.001   0.0% |
 Forces:                           255.094   255.094   5.0% |-|
 Hamiltonian:                       19.732     0.116   0.0% |
  Atomic:                            2.682     2.682   0.1% |
   XC Correction:                    0.000     0.000   0.0% |
  Calculate atomic Hamiltonians:     8.552     8.552   0.2% |
  Communicate:                       0.078     0.078   0.0% |
  Poisson:                           0.075     0.075   0.0% |
  XC 3D grid:                        8.228     8.228   0.2% |
 Orthonormalize:                     4.417     0.004   0.0% |
  calc_s_matrix:                     0.522     0.522   0.0% |
  inverse-cholesky:                  0.055     0.055   0.0% |
  projections:                       2.904     2.904   0.1% |
  rotate_psi_s:                      0.932     0.932   0.0% |
Set symmetry:                        0.000     0.000   0.0% |
Other:                            2887.099  2887.099  56.3% |----------------------|
-----------------------------------------------------------
Total:                                      5125.733 100.0%

Memory usage: 12.09 GiB
Date: Sun Mar 21 11:55:30 2021
