
  ___ ___ ___ _ _ _  
 |   |   |_  | | | | 
 | | | | | . | | | | 
 |__ |  _|___|_____|  20.10.1b1
 |___|_|             

User:   madkru@g031.nifl.fysik.dtu.dk
Date:   Sun Mar 21 13:29:15 2021
Arch:   x86_64
Pid:    47913
Python: 3.7.4
gpaw:   /home/niflheim/madkru/venv_folder/gpaw/gpaw (d0d1ca1c71)
_gpaw:  /home/niflheim/madkru/venv_folder/gpaw/build/lib.linux-x86_64-sandybridge-3.7/
        _gpaw.cpython-37m-x86_64-linux-gnu.so (4fd39e8b1e)
ase:    /home/niflheim/madkru/venv_folder/ase/ase (version 3.21.0b1-7e6c206a91)
numpy:  /home/niflheim/madkru/venv_folder/lib/python3.7/site-packages/numpy (version 1.19.4)
scipy:  /home/niflheim/madkru/venv_folder/lib/python3.7/site-packages/scipy (version 1.5.4)
libxc:  4.3.4
units:  Angstrom and eV
cores: 32
OMP_NUM_THREADS: 1

Input parameters:
  convergence: {bands: occupied,
                density: 0.0001,
                eigenstates: 4e-08,
                energy: 0.0005,
                forces: 1e-06}
  kpts: [6 6 4]
  mode: {ecut: 600.0,
         gammacentered: False,
         name: pw}
  occupations: {fixmagmom: False,
                name: fermi-dirac,
                width: 0.001}
  setups: {Mn: :d,3.0}
  symmetry: {point_group: False,
             time_reversal: False}

System changes: positions, numbers, cell, pbc, initial_charges, initial_magmoms 

Initialize ...

O-setup:
  name: Oxygen
  id: 9b9d51c344dea68c822856295a461509
  Z: 8.0
  valence: 6
  core: 2
  charge: 0.0
  file: /home/modules/software/GPAW-setups/0.9.20000/O.LDA.gz
  compensation charges: gauss, rc=0.21, lmax=2
  cutoffs: 1.17(filt), 0.83(core),
  valence states:
                energy  radius
    2s(2.00)   -23.752   0.688
    2p(4.00)    -9.195   0.598
    *s           3.459   0.688
    *p          18.016   0.598
    *d           0.000   0.619

  Using partial waves for O as LCAO basis

Mn-setup:
  name: Manganese
  id: 0d715a8018be061a6e9ea6f2d364ac92
  Z: 25.0
  valence: 15
  core: 10
  charge: 0.0
  Hubbard U: 3.000000 eV (l=2, scale=True)
  file: /home/modules/software/GPAW-setups/0.9.20000/Mn.LDA.gz
  compensation charges: gauss, rc=0.38, lmax=2
  cutoffs: 2.14(filt), 0.86(core),
  valence states:
                energy  radius
    3s(2.00)   -85.387   1.275
    4s(2.00)    -5.282   1.275
    3p(6.00)   -54.493   1.281
    4p(0.00)    -1.471   1.281
    3d(5.00)    -7.009   1.138
    *d          20.203   1.138

  Using partial waves for Mn as LCAO basis

P-setup:
  name: Phosphorus
  id: a5561c299094968922a179ab894d2e2d
  Z: 15.0
  valence: 5
  core: 10
  charge: 0.0
  file: /home/modules/software/GPAW-setups/0.9.20000/P.LDA.gz
  compensation charges: gauss, rc=0.30, lmax=2
  cutoffs: 1.69(filt), 1.81(core),
  valence states:
                energy  radius
    3s(2.00)   -14.015   0.953
    3p(3.00)    -5.596   0.953
    *s          13.197   0.953
    *p          21.615   0.953
    *d           0.000   0.953

  Using partial waves for P as LCAO basis

Li-setup:
  name: Lithium
  id: b73562207f97a71b6967473b66fe8b65
  Z: 3.0
  valence: 1
  core: 2
  charge: 0.0
  file: /home/modules/software/GPAW-setups/0.9.20000/Li.LDA.gz
  compensation charges: gauss, rc=0.33, lmax=2
  cutoffs: 1.91(filt), 2.55(core),
  valence states:
                energy  radius
    2s(1.00)    -2.874   1.058
    2p(0.00)    -1.126   1.058
    *s          24.338   1.058

  Using partial waves for Li as LCAO basis

Reference energy: -196157.275402

Spin-polarized calculation.
Magnetic moment: 0.000000

Convergence criteria:
  Maximum total energy change: 0.0005 eV / electron
  Maximum integral of absolute density change: 0.0001 electrons
  Maximum integral of absolute eigenstate change: 4e-08 eV^2
  Maximum change in atomic force: 1e-06 eV / Ang
  Maximum number of iterations: 333

Symmetries present (total): 1

  ( 1  0  0)
  ( 0  1  0)
  ( 0  0  1)

144 k-points: 6 x 6 x 4 Monkhorst-Pack grid
144 k-points in the irreducible part of the Brillouin zone
       k-points in crystal coordinates                weights
   0:    -0.41666667   -0.41666667   -0.37500000          1/144
   1:    -0.41666667   -0.41666667   -0.12500000          1/144
   2:    -0.41666667   -0.41666667    0.12500000          1/144
   3:    -0.41666667   -0.41666667    0.37500000          1/144
   4:    -0.41666667   -0.25000000   -0.37500000          1/144
   5:    -0.41666667   -0.25000000   -0.12500000          1/144
   6:    -0.41666667   -0.25000000    0.12500000          1/144
   7:    -0.41666667   -0.25000000    0.37500000          1/144
   8:    -0.41666667   -0.08333333   -0.37500000          1/144
   9:    -0.41666667   -0.08333333   -0.12500000          1/144
          ...
 143:     0.41666667    0.41666667    0.37500000          1/144

Wave functions: Plane wave expansion
  Cutoff energy: 600.000 eV
  Number of coefficients (min, max): 10068, 10125
  Pulay-stress correction: 0.000000 eV/Ang^3 (de/decut=0.000000)
  Using FFTW library
  ScaLapack parameters: grid=1x1, blocksize=None
  Wavefunction extrapolation:
    Improved wavefunction reuse through dual PAW basis 

  Fermi-Dirac: width=0.0010 eV

Eigensolver
   Davidson(niter=2, smin=None, normalize=True) 

Densities:
  Coarse grid: 60*35*27 grid
  Fine grid: 120*70*54 grid
  Total Charge: 0.000000 

Density mixing:
  Method: difference
  Backend: pulay
  Linear mixing parameter: 0.05
  Mixing with 5 old densities
  Damping of long wave oscillations: 50 

Hamiltonian:
  XC and Coulomb potentials evaluated on a 120*70*54 grid
  Using the LDA Exchange-Correlation functional
 

Memory estimate:
  Process memory now: 12482.20 MiB
  Calculator: 375.55 MiB
    Density: 20.02 MiB
      Arrays: 7.57 MiB
      Localized functions: 9.42 MiB
      Mixer: 3.03 MiB
    Hamiltonian: 5.90 MiB
      Arrays: 5.62 MiB
      XC: 0.00 MiB
      Poisson: 0.00 MiB
      vbar: 0.27 MiB
    Wavefunctions: 349.64 MiB
      Arrays psit_nG: 311.46 MiB
      Eigensolver: 19.99 MiB
      Projections: 5.41 MiB
      Projectors: 9.73 MiB
      PW-descriptor: 3.03 MiB

Total number of cores used: 32
Parallelization over k-points: 16
Domain decomposition: 2 x 1 x 1

Number of atoms: 28
Number of atomic orbitals: 148
Number of bands in calculation: 112
Number of valence electrons: 180
Bands to converge: occupied

... initialized

Initializing position-dependent things.

Density initialized from atomic densities
Creating initial wave functions:
  112 bands from LCAO basis set

     .-------------------------.  
    /|         OP              |  
   / |O            O        O  |  
  /  |       O            O  P |  
 *   |O    Mn      O           |  
 |   |          OLi          O |  
 |   P--O--------------Mn------.  
 |  /          Li    O  Mn  O /   
 | /LiO           PO         /    
 |/       Mn                /     
 *Li-----------------------*      

Positions:
   0 O     -1.330281   -2.539252   -1.168500    ( 0.0000,  0.0000,  0.0000)
   1 O     -3.152392    2.974909    1.200956    ( 0.0000,  0.0000,  0.0000)
   2 O      2.067234    0.510133    1.506966    ( 0.0000,  0.0000,  0.0000)
   3 O      3.899724   -0.074476   -0.862491    ( 0.0000,  0.0000,  0.0000)
   4 O      2.077424    2.974966    1.507072    ( 0.0000,  0.0000,  0.0000)
   5 O      3.899535   -2.539195   -0.862384    ( 0.0000,  0.0000,  0.0000)
   6 O     -1.330092   -0.074418   -1.168395    ( 0.0000,  0.0000,  0.0000)
   7 O     -3.152581    0.510191    1.201063    ( 0.0000,  0.0000,  0.0000)
   8 O     -4.389675   -1.306969   -0.813152    ( 0.0000,  0.0000,  0.0000)
   9 O     -0.093301    1.742683    1.556268    ( 0.0000,  0.0000,  0.0000)
  10 O      5.136817    1.742683    1.151723    ( 0.0000,  0.0000,  0.0000)
  11 O      0.840444   -1.306969   -1.217697    ( 0.0000,  0.0000,  0.0000)
  12 Mn    -2.557192   -1.307258    0.273595    ( 0.0000,  0.0000,  1.0000)
  13 Mn    -1.925535    1.742972   -2.096623    ( 0.0000,  0.0000, -1.0000)
  14 Mn     3.304335    1.742972    0.064976    ( 0.0000,  0.0000, -1.0000)
  15 Mn     2.672678   -1.307258    2.435195    ( 0.0000,  0.0000,  1.0000)
  16 P     -0.597175   -1.306854   -1.801474    ( 0.0000,  0.0000,  0.0000)
  17 P     -3.885565    1.742568    0.568028    ( 0.0000,  0.0000,  0.0000)
  18 P      1.344318    1.742568    2.140045    ( 0.0000,  0.0000,  0.0000)
  19 P      4.632708   -1.306854   -0.229456    ( 0.0000,  0.0000,  0.0000)
  20 O     -0.636957   -1.306861    1.403074    ( 0.0000,  0.0000,  0.0000)
  21 O     -3.845824    1.742575   -0.967462    ( 0.0000,  0.0000,  0.0000)
  22 O      1.384100    1.742576   -1.064503    ( 0.0000,  0.0000,  0.0000)
  23 O      4.592967   -1.306861    1.306033    ( 0.0000,  0.0000,  0.0000)
  24 Li    -4.856429   -2.832143   -2.200714    ( 0.0000,  0.0000,  0.0000)
  25 Li     0.373571   -2.832143    0.169286    ( 0.0000,  0.0000,  0.0000)
  26 Li    -4.856429    0.217857   -2.200714    ( 0.0000,  0.0000,  0.0000)
  27 Li     0.373571    0.217857    0.169286    ( 0.0000,  0.0000,  0.0000)

Unit cell:
           periodic     x           y           z      points  spacing
  1. axis:    yes   10.460000    0.000000    0.000000    60     0.1743
  2. axis:    yes    0.000000    6.100000    0.000000    35     0.1743
  3. axis:    yes    0.000000    0.000000    4.740000    27     0.1756

  Lengths:  10.460000   6.100000   4.740000
  Angles:   90.000000  90.000000  90.000000

Effective grid spacing dv^(1/3) = 0.1747

                     log10-error:           total        iterations:
           time      wfs    density  force  energy       poisson  magmom
iter:   1  13:32:14                       -220.694223             +0.0000
iter:   2  13:32:54  -0.64  -0.92         -235.516951             +0.0000
iter:   3  13:33:33  -0.40  -0.96         -226.169658             -0.0000
iter:   4  13:34:13  -1.41  -1.29         -225.887840             +0.0000
iter:   5  13:34:52  -1.19  -1.38         -227.589678             +0.0000
iter:   6  13:35:32  -1.39  -1.51         -225.829117             +0.0000
iter:   7  13:36:12  -2.56  -2.06         -225.898625             +0.0000
iter:   8  13:36:51  -2.24  -2.01         -225.643464             -0.0000
iter:   9  13:37:31  -2.67  -2.08         -225.546189             +0.0000
iter:  10  13:38:11  -3.54  -2.94         -225.545196             +0.0000
iter:  11  13:38:51  -3.95  -3.00         -225.547110             +0.0000
iter:  12  13:39:30  -4.30  -3.22         -225.547267             +0.0000
iter:  13  13:40:10  -5.36  -3.36         -225.547162             -0.0000
iter:  14  13:40:50  -5.17  -3.44         -225.547033             -0.0000
iter:  15  13:41:30  -5.33  -3.59         -225.546936             -0.0000
iter:  16  13:42:09  -6.32  -3.70         -225.546920             +0.0000
iter:  17  13:42:49  -6.34  -3.77         -225.546938             -0.0000
iter:  18  13:43:29  -6.72  -3.83         -225.546939             -0.0000
iter:  19  13:44:09  -5.90  -3.84         -225.546903             -0.0000
iter:  20  13:44:48  -7.12  -4.37         -225.546899             -0.0000
iter:  21  13:45:39  -7.72  -4.46         -225.546897             -0.0000
iter:  22  13:46:18  -7.35  -4.50         -225.546899             -0.0000
iter:  23  13:47:09  -7.69  -4.53    -2.74-225.546897             -0.0000
iter:  24  13:47:59  -7.57  -4.59    -2.51-225.546898             -0.0000
iter:  25  13:48:39  -7.27  -4.64         -225.546899             -0.0000
iter:  26  13:49:29  -7.56  -4.68    -2.60-225.546898             -0.0000
iter:  27  13:50:19  -8.54  -4.76    -3.23-225.546898             -0.0000
iter:  28  13:51:10  -7.63  -4.78    -2.97-225.546898             -0.0000
iter:  29  13:52:00  -8.54  -4.99    -3.20-225.546898             -0.0000
iter:  30  13:52:50  -8.22  -5.03    -3.09-225.546898             -0.0000
iter:  31  13:53:40  -9.51  -5.28    -3.49-225.546898             -0.0000
iter:  32  13:54:31  -9.55  -5.34    -3.44-225.546898             -0.0000
iter:  33  13:55:21  -8.84  -5.39    -3.32-225.546898             -0.0000
iter:  34  13:56:11  -9.08  -5.39    -3.57-225.546898             -0.0000
iter:  35  13:57:01  -8.93  -5.44    -3.42-225.546898             -0.0000
iter:  36  13:57:52  -9.33  -5.44    -3.73-225.546898             -0.0000
iter:  37  13:58:42 -10.10  -5.69    -4.02-225.546898             -0.0000
iter:  38  13:59:33 -10.04  -5.78    -3.69-225.546898             -0.0000
iter:  39  14:00:23 -10.39  -5.85    -3.82-225.546898             -0.0000
iter:  40  14:01:13 -11.41  -5.96    -4.56-225.546898             -0.0000
iter:  41  14:02:03 -10.68  -5.98    -3.96-225.546898             -0.0000
iter:  42  14:02:54 -10.84  -6.16    -4.60-225.546898             -0.0000
iter:  43  14:03:44 -10.24  -6.27    -3.99-225.546898             -0.0000
iter:  44  14:04:34 -10.77  -6.33    -4.55-225.546898             -0.0000
iter:  45  14:05:24 -11.35  -6.78    -5.20-225.546898             -0.0000
iter:  46  14:06:14 -12.17  -6.86    -4.72-225.546898             -0.0000
iter:  47  14:07:05 -12.23  -7.00    -4.52-225.546898             -0.0000
iter:  48  14:07:55 -13.23  -7.22    -5.55-225.546898             -0.0000
iter:  49  14:08:45 -13.05  -7.30    -5.08-225.546898             -0.0000
iter:  50  14:09:35 -14.25  -7.47    -6.36-225.546898             -0.0000

Converged after 50 iterations.

Dipole moment: (13.161262, 1.719162, -5.512411) |e|*Ang

Total magnetic moment: (0.000000, 0.000000, -0.000000)
Local magnetic moments:
   0 O  ( 0.000000,  0.000000,  0.001073)
   1 O  ( 0.000000,  0.000000, -0.001040)
   2 O  ( 0.000000,  0.000000, -0.001022)
   3 O  ( 0.000000,  0.000000,  0.001032)
   4 O  ( 0.000000,  0.000000, -0.001043)
   5 O  ( 0.000000,  0.000000,  0.001013)
   6 O  ( 0.000000,  0.000000,  0.001069)
   7 O  ( 0.000000,  0.000000, -0.001032)
   8 O  ( 0.000000,  0.000000,  0.019746)
   9 O  ( 0.000000,  0.000000, -0.019853)
  10 O  ( 0.000000,  0.000000, -0.019765)
  11 O  ( 0.000000,  0.000000,  0.019792)
  12 Mn ( 0.000000,  0.000000,  4.601527)
  13 Mn ( 0.000000,  0.000000, -4.601594)
  14 Mn ( 0.000000,  0.000000, -4.601824)
  15 Mn ( 0.000000,  0.000000,  4.601984)
  16 P  ( 0.000000,  0.000000,  0.001292)
  17 P  ( 0.000000,  0.000000, -0.001287)
  18 P  ( 0.000000,  0.000000, -0.001276)
  19 P  ( 0.000000,  0.000000,  0.001300)
  20 O  ( 0.000000,  0.000000,  0.018087)
  21 O  ( 0.000000,  0.000000, -0.018041)
  22 O  ( 0.000000,  0.000000, -0.018084)
  23 O  ( 0.000000,  0.000000,  0.018030)
  24 Li ( 0.000000,  0.000000,  0.000000)
  25 Li ( 0.000000,  0.000000, -0.000002)
  26 Li ( 0.000000,  0.000000,  0.000000)
  27 Li ( 0.000000,  0.000000,  0.000003)

Energy contributions relative to reference atoms: (reference = -196157.275402)

Kinetic:       +243.206219
Potential:     -215.639259
External:        +0.000000
XC:            -255.028826
Entropy (-ST):   -0.000000
Local:           +1.914968
--------------------------
Free energy:   -225.546898
Extrapolated:  -225.546898

Spin contamination: 9.747903 electrons
Showing only first 2 kpts
                      Up                     Down
 Kpt  Band  Eigenvalues  Occupancy  Eigenvalues  Occupancy
  0    88      3.91904    0.00694      3.92128    0.00694
  0    89      3.96866    0.00694      3.97185    0.00694
  0    90      8.66081    0.00000      8.66607    0.00000
  0    91      8.68926    0.00000      8.68197    0.00000

  1    88      3.91547    0.00694      3.91800    0.00694
  1    89      3.97246    0.00694      3.97543    0.00694
  1    90      8.50335    0.00000      8.51103    0.00000
  1    91      8.53176    0.00000      8.52588    0.00000


Fermi level: 5.31796

Gap: 3.777 eV
Transition (v -> c):
  (s=1, k=93, n=89, [0.08, 0.42, -0.12]) -> (s=0, k=57, n=90, [-0.08, -0.08, -0.12])
Writing to born-0.01-2x-.gpw (mode='all')

Timing:                              incl.     excl.
-----------------------------------------------------------
Hamiltonian:                         0.415     0.002   0.0% |
 Atomic:                             0.058     0.058   0.0% |
  XC Correction:                     0.000     0.000   0.0% |
 Calculate atomic Hamiltonians:      0.180     0.180   0.0% |
 Communicate:                        0.002     0.002   0.0% |
 Initialize Hamiltonian:             0.000     0.000   0.0% |
 Poisson:                            0.002     0.002   0.0% |
 XC 3D grid:                         0.171     0.171   0.0% |
LCAO initialization:               134.339     0.676   0.0% |
 LCAO eigensolver:                  34.309     0.002   0.0% |
  Calculate projections:             0.056     0.056   0.0% |
  DenseAtomicCorrection:             0.083     0.083   0.0% |
  Distribute overlap matrix:         0.007     0.007   0.0% |
  Orbital Layouts:                   0.362     0.362   0.0% |
  Potential matrix:                 33.697    33.697   0.7% |
  Sum over cells:                    0.101     0.101   0.0% |
 LCAO to grid:                      97.066    97.066   1.9% ||
 Set positions (LCAO WFS):           2.288     0.343   0.0% |
  Basic WFS set positions:           0.001     0.001   0.0% |
  Basis functions set positions:     0.000     0.000   0.0% |
  P tci:                             1.046     1.046   0.0% |
  ST tci:                            0.660     0.660   0.0% |
  mktci:                             0.237     0.237   0.0% |
PWDescriptor:                        0.025     0.025   0.0% |
SCF-cycle:                        2283.044     0.353   0.0% |
 Davidson:                        1885.529   606.623  11.7% |----|
  Apply H:                         134.888   130.585   2.5% ||
   HMM T:                            4.304     4.304   0.1% |
  Subspace diag:                   281.608     0.165   0.0% |
   calc_h_matrix:                  185.084    49.504   1.0% |
    Apply H:                       135.579   131.256   2.5% ||
     HMM T:                          4.323     4.323   0.1% |
   diagonalize:                      6.125     6.125   0.1% |
   rotate_psi:                      90.234    90.234   1.7% ||
  calc. matrices:                  594.624   331.957   6.4% |--|
   Apply H:                        262.667   254.903   4.9% |-|
    HMM T:                           7.764     7.764   0.2% |
  diagonalize:                      83.451    83.451   1.6% ||
  rotate_psi:                      184.334   184.334   3.6% ||
 Density:                           74.117     0.001   0.0% |
  Atomic density matrices:           1.325     1.325   0.0% |
  Mix:                              12.144    12.144   0.2% |
  Multipole moments:                 0.029     0.029   0.0% |
  Pseudo density:                   60.617    60.616   1.2% |
   Symmetrize density:               0.001     0.001   0.0% |
 Forces:                           297.622   297.622   5.8% |-|
 Hamiltonian:                       21.010     0.124   0.0% |
  Atomic:                            2.867     2.867   0.1% |
   XC Correction:                    0.000     0.000   0.0% |
  Calculate atomic Hamiltonians:     9.104     9.104   0.2% |
  Communicate:                       0.082     0.082   0.0% |
  Poisson:                           0.084     0.084   0.0% |
  XC 3D grid:                        8.750     8.750   0.2% |
 Orthonormalize:                     4.413     0.004   0.0% |
  calc_s_matrix:                     0.524     0.524   0.0% |
  inverse-cholesky:                  0.054     0.054   0.0% |
  projections:                       2.901     2.901   0.1% |
  rotate_psi_s:                      0.931     0.931   0.0% |
Set symmetry:                        0.000     0.000   0.0% |
Other:                            2755.891  2755.891  53.3% |--------------------|
-----------------------------------------------------------
Total:                                      5173.713 100.0%

Memory usage: 12.19 GiB
Date: Sun Mar 21 14:55:29 2021
