
  ___ ___ ___ _ _ _  
 |   |   |_  | | | | 
 | | | | | . | | | | 
 |__ |  _|___|_____|  20.10.1b1
 |___|_|             

User:   madkru@g031.nifl.fysik.dtu.dk
Date:   Mon Mar 22 20:27:56 2021
Arch:   x86_64
Pid:    47913
Python: 3.7.4
gpaw:   /home/niflheim/madkru/venv_folder/gpaw/gpaw (d0d1ca1c71)
_gpaw:  /home/niflheim/madkru/venv_folder/gpaw/build/lib.linux-x86_64-sandybridge-3.7/
        _gpaw.cpython-37m-x86_64-linux-gnu.so (4fd39e8b1e)
ase:    /home/niflheim/madkru/venv_folder/ase/ase (version 3.21.0b1-7e6c206a91)
numpy:  /home/niflheim/madkru/venv_folder/lib/python3.7/site-packages/numpy (version 1.19.4)
scipy:  /home/niflheim/madkru/venv_folder/lib/python3.7/site-packages/scipy (version 1.5.4)
libxc:  4.3.4
units:  Angstrom and eV
cores: 32
OMP_NUM_THREADS: 1

Input parameters:
  convergence: {bands: occupied,
                density: 0.0001,
                eigenstates: 4e-08,
                energy: 0.0005,
                forces: 1e-06}
  kpts: [6 6 4]
  mode: {ecut: 600.0,
         gammacentered: False,
         name: pw}
  occupations: {fixmagmom: False,
                name: fermi-dirac,
                width: 0.001}
  setups: {Mn: :d,3.0}
  symmetry: {point_group: False,
             time_reversal: False}

System changes: positions, numbers, cell, pbc, initial_charges, initial_magmoms 

Initialize ...

O-setup:
  name: Oxygen
  id: 9b9d51c344dea68c822856295a461509
  Z: 8.0
  valence: 6
  core: 2
  charge: 0.0
  file: /home/modules/software/GPAW-setups/0.9.20000/O.LDA.gz
  compensation charges: gauss, rc=0.21, lmax=2
  cutoffs: 1.17(filt), 0.83(core),
  valence states:
                energy  radius
    2s(2.00)   -23.752   0.688
    2p(4.00)    -9.195   0.598
    *s           3.459   0.688
    *p          18.016   0.598
    *d           0.000   0.619

  Using partial waves for O as LCAO basis

Mn-setup:
  name: Manganese
  id: 0d715a8018be061a6e9ea6f2d364ac92
  Z: 25.0
  valence: 15
  core: 10
  charge: 0.0
  Hubbard U: 3.000000 eV (l=2, scale=True)
  file: /home/modules/software/GPAW-setups/0.9.20000/Mn.LDA.gz
  compensation charges: gauss, rc=0.38, lmax=2
  cutoffs: 2.14(filt), 0.86(core),
  valence states:
                energy  radius
    3s(2.00)   -85.387   1.275
    4s(2.00)    -5.282   1.275
    3p(6.00)   -54.493   1.281
    4p(0.00)    -1.471   1.281
    3d(5.00)    -7.009   1.138
    *d          20.203   1.138

  Using partial waves for Mn as LCAO basis

P-setup:
  name: Phosphorus
  id: a5561c299094968922a179ab894d2e2d
  Z: 15.0
  valence: 5
  core: 10
  charge: 0.0
  file: /home/modules/software/GPAW-setups/0.9.20000/P.LDA.gz
  compensation charges: gauss, rc=0.30, lmax=2
  cutoffs: 1.69(filt), 1.81(core),
  valence states:
                energy  radius
    3s(2.00)   -14.015   0.953
    3p(3.00)    -5.596   0.953
    *s          13.197   0.953
    *p          21.615   0.953
    *d           0.000   0.953

  Using partial waves for P as LCAO basis

Li-setup:
  name: Lithium
  id: b73562207f97a71b6967473b66fe8b65
  Z: 3.0
  valence: 1
  core: 2
  charge: 0.0
  file: /home/modules/software/GPAW-setups/0.9.20000/Li.LDA.gz
  compensation charges: gauss, rc=0.33, lmax=2
  cutoffs: 1.91(filt), 2.55(core),
  valence states:
                energy  radius
    2s(1.00)    -2.874   1.058
    2p(0.00)    -1.126   1.058
    *s          24.338   1.058

  Using partial waves for Li as LCAO basis

Reference energy: -196157.275402

Spin-polarized calculation.
Magnetic moment: 0.000000

Convergence criteria:
  Maximum total energy change: 0.0005 eV / electron
  Maximum integral of absolute density change: 0.0001 electrons
  Maximum integral of absolute eigenstate change: 4e-08 eV^2
  Maximum change in atomic force: 1e-06 eV / Ang
  Maximum number of iterations: 333

Symmetries present (total): 1

  ( 1  0  0)
  ( 0  1  0)
  ( 0  0  1)

144 k-points: 6 x 6 x 4 Monkhorst-Pack grid
144 k-points in the irreducible part of the Brillouin zone
       k-points in crystal coordinates                weights
   0:    -0.41666667   -0.41666667   -0.37500000          1/144
   1:    -0.41666667   -0.41666667   -0.12500000          1/144
   2:    -0.41666667   -0.41666667    0.12500000          1/144
   3:    -0.41666667   -0.41666667    0.37500000          1/144
   4:    -0.41666667   -0.25000000   -0.37500000          1/144
   5:    -0.41666667   -0.25000000   -0.12500000          1/144
   6:    -0.41666667   -0.25000000    0.12500000          1/144
   7:    -0.41666667   -0.25000000    0.37500000          1/144
   8:    -0.41666667   -0.08333333   -0.37500000          1/144
   9:    -0.41666667   -0.08333333   -0.12500000          1/144
          ...
 143:     0.41666667    0.41666667    0.37500000          1/144

Wave functions: Plane wave expansion
  Cutoff energy: 600.000 eV
  Number of coefficients (min, max): 10068, 10125
  Pulay-stress correction: 0.000000 eV/Ang^3 (de/decut=0.000000)
  Using FFTW library
  ScaLapack parameters: grid=1x1, blocksize=None
  Wavefunction extrapolation:
    Improved wavefunction reuse through dual PAW basis 

  Fermi-Dirac: width=0.0010 eV

Eigensolver
   Davidson(niter=2, smin=None, normalize=True) 

Densities:
  Coarse grid: 60*35*27 grid
  Fine grid: 120*70*54 grid
  Total Charge: 0.000000 

Density mixing:
  Method: difference
  Backend: pulay
  Linear mixing parameter: 0.05
  Mixing with 5 old densities
  Damping of long wave oscillations: 50 

Hamiltonian:
  XC and Coulomb potentials evaluated on a 120*70*54 grid
  Using the LDA Exchange-Correlation functional
 

Memory estimate:
  Process memory now: 13295.05 MiB
  Calculator: 375.55 MiB
    Density: 20.02 MiB
      Arrays: 7.57 MiB
      Localized functions: 9.42 MiB
      Mixer: 3.03 MiB
    Hamiltonian: 5.90 MiB
      Arrays: 5.62 MiB
      XC: 0.00 MiB
      Poisson: 0.00 MiB
      vbar: 0.27 MiB
    Wavefunctions: 349.64 MiB
      Arrays psit_nG: 311.46 MiB
      Eigensolver: 19.99 MiB
      Projections: 5.41 MiB
      Projectors: 9.73 MiB
      PW-descriptor: 3.03 MiB

Total number of cores used: 32
Parallelization over k-points: 16
Domain decomposition: 2 x 1 x 1

Number of atoms: 28
Number of atomic orbitals: 148
Number of bands in calculation: 112
Number of valence electrons: 180
Bands to converge: occupied

... initialized

Initializing position-dependent things.

Density initialized from atomic densities
Creating initial wave functions:
  112 bands from LCAO basis set

     .-------------------------.  
    /|         OP              |  
   / |O            O        O  |  
  /  |       O            O  P |  
 *   |O    Mn      O           |  
 |   |          OLi          O |  
 |   P--O--------------Mn------.  
 |  /          Li    O  Mn  O /   
 | /LiO           PO         /    
 |/       Mn                /     
 *Li-----------------------*      

Positions:
   0 O     -1.330281   -2.539252   -1.168500    ( 0.0000,  0.0000,  0.0000)
   1 O     -3.152392    2.974909    1.200956    ( 0.0000,  0.0000,  0.0000)
   2 O      2.077234    0.510133    1.506966    ( 0.0000,  0.0000,  0.0000)
   3 O      3.899724   -0.074476   -0.862491    ( 0.0000,  0.0000,  0.0000)
   4 O      2.077424    2.974966    1.507072    ( 0.0000,  0.0000,  0.0000)
   5 O      3.899535   -2.539195   -0.862384    ( 0.0000,  0.0000,  0.0000)
   6 O     -1.330092   -0.074418   -1.168395    ( 0.0000,  0.0000,  0.0000)
   7 O     -3.152581    0.510191    1.201063    ( 0.0000,  0.0000,  0.0000)
   8 O     -4.389675   -1.306969   -0.823152    ( 0.0000,  0.0000,  0.0000)
   9 O     -0.093301    1.742683    1.556268    ( 0.0000,  0.0000,  0.0000)
  10 O      5.136817    1.742683    1.151723    ( 0.0000,  0.0000,  0.0000)
  11 O      0.840444   -1.306969   -1.217697    ( 0.0000,  0.0000,  0.0000)
  12 Mn    -2.557192   -1.307258    0.273595    ( 0.0000,  0.0000,  1.0000)
  13 Mn    -1.925535    1.742972   -2.096623    ( 0.0000,  0.0000, -1.0000)
  14 Mn     3.304335    1.742972    0.064976    ( 0.0000,  0.0000, -1.0000)
  15 Mn     2.672678   -1.307258    2.435195    ( 0.0000,  0.0000,  1.0000)
  16 P     -0.597175   -1.306854   -1.801474    ( 0.0000,  0.0000,  0.0000)
  17 P     -3.885565    1.742568    0.568028    ( 0.0000,  0.0000,  0.0000)
  18 P      1.344318    1.742568    2.140045    ( 0.0000,  0.0000,  0.0000)
  19 P      4.632708   -1.306854   -0.229456    ( 0.0000,  0.0000,  0.0000)
  20 O     -0.636957   -1.306861    1.403074    ( 0.0000,  0.0000,  0.0000)
  21 O     -3.845824    1.742575   -0.967462    ( 0.0000,  0.0000,  0.0000)
  22 O      1.384100    1.742576   -1.064503    ( 0.0000,  0.0000,  0.0000)
  23 O      4.592967   -1.306861    1.306033    ( 0.0000,  0.0000,  0.0000)
  24 Li    -4.856429   -2.832143   -2.200714    ( 0.0000,  0.0000,  0.0000)
  25 Li     0.373571   -2.832143    0.169286    ( 0.0000,  0.0000,  0.0000)
  26 Li    -4.856429    0.217857   -2.200714    ( 0.0000,  0.0000,  0.0000)
  27 Li     0.373571    0.217857    0.169286    ( 0.0000,  0.0000,  0.0000)

Unit cell:
           periodic     x           y           z      points  spacing
  1. axis:    yes   10.460000    0.000000    0.000000    60     0.1743
  2. axis:    yes    0.000000    6.100000    0.000000    35     0.1743
  3. axis:    yes    0.000000    0.000000    4.740000    27     0.1756

  Lengths:  10.460000   6.100000   4.740000
  Angles:   90.000000  90.000000  90.000000

Effective grid spacing dv^(1/3) = 0.1747

                     log10-error:           total        iterations:
           time      wfs    density  force  energy       poisson  magmom
iter:   1  20:31:00                       -220.692566             +0.0000
iter:   2  20:31:39  -0.64  -0.92         -235.507896             +0.0000
iter:   3  20:32:19  -0.40  -0.96         -226.168853             -0.0000
iter:   4  20:32:58  -1.41  -1.29         -225.888707             +0.0000
iter:   5  20:33:38  -1.19  -1.38         -227.586734             +0.0000
iter:   6  20:34:17  -1.39  -1.51         -225.828950             +0.0000
iter:   7  20:34:57  -2.56  -2.06         -225.897221             +0.0000
iter:   8  20:35:36  -2.24  -2.01         -225.647549             -0.0000
iter:   9  20:36:16  -2.67  -2.08         -225.546290             +0.0000
iter:  10  20:36:55  -3.53  -2.94         -225.545036             +0.0000
iter:  11  20:37:35  -3.95  -3.00         -225.547250             +0.0000
iter:  12  20:38:14  -4.29  -3.21         -225.547421             +0.0000
iter:  13  20:38:54  -5.33  -3.35         -225.547307             -0.0000
iter:  14  20:39:33  -5.13  -3.43         -225.547185             -0.0000
iter:  15  20:40:13  -5.27  -3.58         -225.547064             -0.0000
iter:  16  20:40:52  -6.26  -3.71         -225.547055             +0.0000
iter:  17  20:41:31  -6.42  -3.79         -225.547071             -0.0000
iter:  18  20:42:11  -6.71  -3.84         -225.547071             -0.0000
iter:  19  20:42:50  -5.97  -3.86         -225.547038             -0.0000
iter:  20  20:43:30  -7.21  -4.37         -225.547035             -0.0000
iter:  21  20:44:20  -7.48  -4.42         -225.547035             -0.0000
iter:  22  20:44:59  -7.18  -4.47         -225.547037             -0.0000
iter:  23  20:45:49  -7.52  -4.48    -2.66-225.547034             -0.0000
iter:  24  20:46:39  -7.48  -4.55    -2.42-225.547034             -0.0000
iter:  25  20:47:19  -7.00  -4.62         -225.547037             -0.0000
iter:  26  20:47:58  -7.26  -4.57         -225.547035             -0.0000
iter:  27  20:48:48  -8.40  -4.91    -2.44-225.547035             -0.0000
iter:  28  20:49:38  -8.31  -4.91    -3.25-225.547034             +0.0000
iter:  29  20:50:28  -8.38  -5.08    -3.00-225.547034             -0.0000
iter:  30  20:51:18  -9.16  -5.12    -3.50-225.547034             -0.0000
iter:  31  20:52:08  -7.83  -5.19    -3.07-225.547035             -0.0000
iter:  32  20:52:58  -8.41  -5.15    -3.04-225.547034             -0.0000
iter:  33  20:53:48 -10.00  -5.59    -3.87-225.547034             -0.0000
iter:  34  20:54:38  -9.29  -5.66    -3.43-225.547034             -0.0000
iter:  35  20:55:28  -9.15  -5.56    -3.43-225.547034             -0.0000
iter:  36  20:56:18 -10.59  -6.31    -4.59-225.547034             -0.0000
iter:  37  20:57:08 -10.55  -6.46    -4.27-225.547034             +0.0000
iter:  38  20:57:58 -11.17  -6.37    -4.54-225.547034             -0.0000
iter:  39  20:58:48 -11.73  -6.66    -4.83-225.547034             -0.0000
iter:  40  20:59:38 -11.88  -6.81    -4.99-225.547034             -0.0000
iter:  41  21:00:28 -12.39  -6.95    -5.18-225.547034             -0.0000
iter:  42  21:01:18 -12.59  -7.00    -5.05-225.547034             -0.0000
iter:  43  21:02:08 -13.25  -7.07    -5.81-225.547034             -0.0000
iter:  44  21:02:58 -13.13  -7.13    -5.21-225.547034             -0.0000
iter:  45  21:03:48 -13.12  -7.20    -5.32-225.547034             -0.0000
iter:  46  21:04:38 -13.16  -7.37    -5.68-225.547034             -0.0000
iter:  47  21:05:28 -13.68  -7.46    -5.98-225.547034             -0.0000
iter:  48  21:06:18 -13.37  -7.53    -5.26-225.547034             -0.0000
iter:  49  21:07:08 -14.18  -7.95    -5.77-225.547034             -0.0000
iter:  50  21:07:58 -14.54  -8.02    -6.26-225.547034             -0.0000

Converged after 50 iterations.

Dipole moment: (13.159394, 1.714883, -5.544765) |e|*Ang

Total magnetic moment: (0.000000, 0.000000, -0.000000)
Local magnetic moments:
   0 O  ( 0.000000,  0.000000,  0.001060)
   1 O  ( 0.000000,  0.000000, -0.001088)
   2 O  ( 0.000000,  0.000000, -0.001062)
   3 O  ( 0.000000,  0.000000,  0.001004)
   4 O  ( 0.000000,  0.000000, -0.001070)
   5 O  ( 0.000000,  0.000000,  0.001012)
   6 O  ( 0.000000,  0.000000,  0.001052)
   7 O  ( 0.000000,  0.000000, -0.001080)
   8 O  ( 0.000000,  0.000000,  0.019735)
   9 O  ( 0.000000,  0.000000, -0.019771)
  10 O  ( 0.000000,  0.000000, -0.019791)
  11 O  ( 0.000000,  0.000000,  0.019797)
  12 Mn ( 0.000000,  0.000000,  4.601876)
  13 Mn ( 0.000000,  0.000000, -4.601604)
  14 Mn ( 0.000000,  0.000000, -4.601520)
  15 Mn ( 0.000000,  0.000000,  4.601558)
  16 P  ( 0.000000,  0.000000,  0.001295)
  17 P  ( 0.000000,  0.000000, -0.001301)
  18 P  ( 0.000000,  0.000000, -0.001304)
  19 P  ( 0.000000,  0.000000,  0.001248)
  20 O  ( 0.000000,  0.000000,  0.018101)
  21 O  ( 0.000000,  0.000000, -0.018073)
  22 O  ( 0.000000,  0.000000, -0.018077)
  23 O  ( 0.000000,  0.000000,  0.017991)
  24 Li ( 0.000000,  0.000000,  0.000005)
  25 Li ( 0.000000,  0.000000, -0.000000)
  26 Li ( 0.000000,  0.000000,  0.000005)
  27 Li ( 0.000000,  0.000000, -0.000000)

Energy contributions relative to reference atoms: (reference = -196157.275402)

Kinetic:       +242.626459
Potential:     -215.191908
External:        +0.000000
XC:            -254.897764
Entropy (-ST):   -0.000000
Local:           +1.916179
--------------------------
Free energy:   -225.547034
Extrapolated:  -225.547034

Spin contamination: 9.747596 electrons
Showing only first 2 kpts
                      Up                     Down
 Kpt  Band  Eigenvalues  Occupancy  Eigenvalues  Occupancy
  0    88      3.91760    0.00694      3.92273    0.00694
  0    89      3.96716    0.00694      3.97152    0.00694
  0    90      8.66697    0.00000      8.66569    0.00000
  0    91      8.68669    0.00000      8.68410    0.00000

  1    88      3.91424    0.00694      3.91931    0.00694
  1    89      3.97050    0.00694      3.97538    0.00694
  1    90      8.51258    0.00000      8.51243    0.00000
  1    91      8.52940    0.00000      8.52783    0.00000


Fermi level: 5.31824

Gap: 3.776 eV
Transition (v -> c):
  (s=1, k=69, n=89, [-0.08, 0.42, -0.12]) -> (s=0, k=57, n=90, [-0.08, -0.08, -0.12])
Writing to born-0.01-8z-.gpw (mode='all')

Timing:                              incl.     excl.
-----------------------------------------------------------
Hamiltonian:                         0.452     0.003   0.0% |
 Atomic:                             0.104     0.104   0.0% |
  XC Correction:                     0.000     0.000   0.0% |
 Calculate atomic Hamiltonians:      0.176     0.176   0.0% |
 Communicate:                        0.003     0.003   0.0% |
 Initialize Hamiltonian:             0.000     0.000   0.0% |
 Poisson:                            0.002     0.002   0.0% |
 XC 3D grid:                         0.165     0.165   0.0% |
LCAO initialization:               135.439     0.682   0.0% |
 LCAO eigensolver:                  33.912     0.002   0.0% |
  Calculate projections:             0.056     0.056   0.0% |
  DenseAtomicCorrection:             0.083     0.083   0.0% |
  Distribute overlap matrix:         0.013     0.013   0.0% |
  Orbital Layouts:                   0.361     0.361   0.0% |
  Potential matrix:                 33.297    33.297   0.7% |
  Sum over cells:                    0.099     0.099   0.0% |
 LCAO to grid:                      98.548    98.548   1.9% ||
 Set positions (LCAO WFS):           2.297     0.345   0.0% |
  Basic WFS set positions:           0.001     0.001   0.0% |
  Basis functions set positions:     0.000     0.000   0.0% |
  P tci:                             1.059     1.059   0.0% |
  ST tci:                            0.660     0.660   0.0% |
  mktci:                             0.232     0.232   0.0% |
PWDescriptor:                        0.025     0.025   0.0% |
SCF-cycle:                        2263.727    11.047   0.2% |
 Davidson:                        1865.604   609.539  11.9% |----|
  Apply H:                         130.582   126.229   2.5% ||
   HMM T:                            4.353     4.353   0.1% |
  Subspace diag:                   274.563     0.157   0.0% |
   calc_h_matrix:                  177.700    49.406   1.0% |
    Apply H:                       128.294   124.242   2.4% ||
     HMM T:                          4.052     4.052   0.1% |
   diagonalize:                      6.123     6.123   0.1% |
   rotate_psi:                      90.583    90.583   1.8% ||
  calc. matrices:                  583.495   330.207   6.4% |--|
   Apply H:                        253.288   245.642   4.8% |-|
    HMM T:                           7.645     7.645   0.1% |
  diagonalize:                      83.417    83.417   1.6% ||
  rotate_psi:                      184.007   184.007   3.6% ||
 Density:                           74.278     0.001   0.0% |
  Atomic density matrices:           1.348     1.348   0.0% |
  Mix:                              12.189    12.189   0.2% |
  Multipole moments:                 0.029     0.029   0.0% |
  Pseudo density:                   60.711    60.710   1.2% |
   Symmetrize density:               0.001     0.001   0.0% |
 Forces:                           287.443   287.443   5.6% |-|
 Hamiltonian:                       20.952     0.114   0.0% |
  Atomic:                            2.859     2.859   0.1% |
   XC Correction:                    0.000     0.000   0.0% |
  Calculate atomic Hamiltonians:     9.067     9.067   0.2% |
  Communicate:                       0.080     0.080   0.0% |
  Poisson:                           0.079     0.079   0.0% |
  XC 3D grid:                        8.752     8.752   0.2% |
 Orthonormalize:                     4.402     0.004   0.0% |
  calc_s_matrix:                     0.522     0.522   0.0% |
  inverse-cholesky:                  0.054     0.054   0.0% |
  projections:                       2.889     2.889   0.1% |
  rotate_psi_s:                      0.934     0.934   0.0% |
Set symmetry:                        0.000     0.000   0.0% |
Other:                            2720.427  2720.427  53.1% |--------------------|
-----------------------------------------------------------
Total:                                      5120.070 100.0%

Memory usage: 12.98 GiB
Date: Mon Mar 22 21:53:16 2021
