
  ___ ___ ___ _ _ _  
 |   |   |_  | | | | 
 | | | | | . | | | | 
 |__ |  _|___|_____|  20.10.1b1
 |___|_|             

User:   madkru@g006.nifl.fysik.dtu.dk
Date:   Tue Mar 23 21:10:16 2021
Arch:   x86_64
Pid:    12017
Python: 3.7.4
gpaw:   /home/niflheim/madkru/venv_folder/gpaw/gpaw (d0d1ca1c71)
_gpaw:  /home/niflheim/madkru/venv_folder/gpaw/build/lib.linux-x86_64-sandybridge-3.7/
        _gpaw.cpython-37m-x86_64-linux-gnu.so (4fd39e8b1e)
ase:    /home/niflheim/madkru/venv_folder/ase/ase (version 3.21.0b1-7e6c206a91)
numpy:  /home/niflheim/madkru/venv_folder/lib/python3.7/site-packages/numpy (version 1.19.4)
scipy:  /home/niflheim/madkru/venv_folder/lib/python3.7/site-packages/scipy (version 1.5.4)
libxc:  4.3.4
units:  Angstrom and eV
cores: 64
OMP_NUM_THREADS: 1

Input parameters:
  convergence: {bands: occupied,
                density: 0.0001,
                eigenstates: 4e-08,
                energy: 0.0005,
                forces: 1e-06}
  kpts: [6 6 4]
  mode: {ecut: 600.0,
         gammacentered: False,
         name: pw}
  occupations: {fixmagmom: False,
                name: fermi-dirac,
                width: 0.001}
  setups: {Mn: :d,3.0}
  symmetry: {point_group: False,
             time_reversal: False}

System changes: positions, numbers, cell, pbc, initial_charges, initial_magmoms 

Initialize ...

O-setup:
  name: Oxygen
  id: 9b9d51c344dea68c822856295a461509
  Z: 8.0
  valence: 6
  core: 2
  charge: 0.0
  file: /home/modules/software/GPAW-setups/0.9.20000/O.LDA.gz
  compensation charges: gauss, rc=0.21, lmax=2
  cutoffs: 1.17(filt), 0.83(core),
  valence states:
                energy  radius
    2s(2.00)   -23.752   0.688
    2p(4.00)    -9.195   0.598
    *s           3.459   0.688
    *p          18.016   0.598
    *d           0.000   0.619

  Using partial waves for O as LCAO basis

Mn-setup:
  name: Manganese
  id: 0d715a8018be061a6e9ea6f2d364ac92
  Z: 25.0
  valence: 15
  core: 10
  charge: 0.0
  Hubbard U: 3.000000 eV (l=2, scale=True)
  file: /home/modules/software/GPAW-setups/0.9.20000/Mn.LDA.gz
  compensation charges: gauss, rc=0.38, lmax=2
  cutoffs: 2.14(filt), 0.86(core),
  valence states:
                energy  radius
    3s(2.00)   -85.387   1.275
    4s(2.00)    -5.282   1.275
    3p(6.00)   -54.493   1.281
    4p(0.00)    -1.471   1.281
    3d(5.00)    -7.009   1.138
    *d          20.203   1.138

  Using partial waves for Mn as LCAO basis

P-setup:
  name: Phosphorus
  id: a5561c299094968922a179ab894d2e2d
  Z: 15.0
  valence: 5
  core: 10
  charge: 0.0
  file: /home/modules/software/GPAW-setups/0.9.20000/P.LDA.gz
  compensation charges: gauss, rc=0.30, lmax=2
  cutoffs: 1.69(filt), 1.81(core),
  valence states:
                energy  radius
    3s(2.00)   -14.015   0.953
    3p(3.00)    -5.596   0.953
    *s          13.197   0.953
    *p          21.615   0.953
    *d           0.000   0.953

  Using partial waves for P as LCAO basis

Li-setup:
  name: Lithium
  id: b73562207f97a71b6967473b66fe8b65
  Z: 3.0
  valence: 1
  core: 2
  charge: 0.0
  file: /home/modules/software/GPAW-setups/0.9.20000/Li.LDA.gz
  compensation charges: gauss, rc=0.33, lmax=2
  cutoffs: 1.91(filt), 2.55(core),
  valence states:
                energy  radius
    2s(1.00)    -2.874   1.058
    2p(0.00)    -1.126   1.058
    *s          24.338   1.058

  Using partial waves for Li as LCAO basis

Reference energy: -196157.275402

Spin-polarized calculation.
Magnetic moment: 0.000000

Convergence criteria:
  Maximum total energy change: 0.0005 eV / electron
  Maximum integral of absolute density change: 0.0001 electrons
  Maximum integral of absolute eigenstate change: 4e-08 eV^2
  Maximum change in atomic force: 1e-06 eV / Ang
  Maximum number of iterations: 333

Symmetries present (total): 1

  ( 1  0  0)
  ( 0  1  0)
  ( 0  0  1)

144 k-points: 6 x 6 x 4 Monkhorst-Pack grid
144 k-points in the irreducible part of the Brillouin zone
       k-points in crystal coordinates                weights
   0:    -0.41666667   -0.41666667   -0.37500000          1/144
   1:    -0.41666667   -0.41666667   -0.12500000          1/144
   2:    -0.41666667   -0.41666667    0.12500000          1/144
   3:    -0.41666667   -0.41666667    0.37500000          1/144
   4:    -0.41666667   -0.25000000   -0.37500000          1/144
   5:    -0.41666667   -0.25000000   -0.12500000          1/144
   6:    -0.41666667   -0.25000000    0.12500000          1/144
   7:    -0.41666667   -0.25000000    0.37500000          1/144
   8:    -0.41666667   -0.08333333   -0.37500000          1/144
   9:    -0.41666667   -0.08333333   -0.12500000          1/144
          ...
 143:     0.41666667    0.41666667    0.37500000          1/144

Wave functions: Plane wave expansion
  Cutoff energy: 600.000 eV
  Number of coefficients (min, max): 10068, 10125
  Pulay-stress correction: 0.000000 eV/Ang^3 (de/decut=0.000000)
  Using FFTW library
  ScaLapack parameters: grid=1x1, blocksize=None
  Wavefunction extrapolation:
    Improved wavefunction reuse through dual PAW basis 

  Fermi-Dirac: width=0.0010 eV

Eigensolver
   Davidson(niter=2, smin=None, normalize=True) 

Densities:
  Coarse grid: 60*35*27 grid
  Fine grid: 120*70*54 grid
  Total Charge: 0.000000 

Density mixing:
  Method: difference
  Backend: pulay
  Linear mixing parameter: 0.05
  Mixing with 5 old densities
  Damping of long wave oscillations: 50 

Hamiltonian:
  XC and Coulomb potentials evaluated on a 120*70*54 grid
  Using the LDA Exchange-Correlation functional
 

Memory estimate:
  Process memory now: 12272.61 MiB
  Calculator: 354.82 MiB
    Density: 10.06 MiB
      Arrays: 3.79 MiB
      Localized functions: 4.71 MiB
      Mixer: 1.56 MiB
    Hamiltonian: 2.95 MiB
      Arrays: 2.82 MiB
      XC: 0.00 MiB
      Poisson: 0.00 MiB
      vbar: 0.14 MiB
    Wavefunctions: 341.80 MiB
      Arrays psit_nG: 311.46 MiB
      Eigensolver: 19.99 MiB
      Projections: 2.71 MiB
      Projectors: 4.87 MiB
      PW-descriptor: 2.77 MiB

Total number of cores used: 64
Parallelization over k-points: 16
Domain decomposition: 2 x 2 x 1

Number of atoms: 28
Number of atomic orbitals: 148
Number of bands in calculation: 112
Number of valence electrons: 180
Bands to converge: occupied

... initialized

Initializing position-dependent things.

Density initialized from atomic densities
Creating initial wave functions:
  112 bands from LCAO basis set

     .-------------------------.  
    /|         OP              |  
   / |O            O        O  |  
  /  |       O            O  P |  
 *   |O    Mn      O           |  
 |   |          OLi          O |  
 |   P--O--------------Mn------.  
 |  /          Li    O  Mn  O /   
 | /LiO           PO         /    
 |/       Mn                /     
 *Li-----------------------*      

Positions:
   0 O     -1.330281   -2.539252   -1.168500    ( 0.0000,  0.0000,  0.0000)
   1 O     -3.152392    2.974909    1.200956    ( 0.0000,  0.0000,  0.0000)
   2 O      2.077234    0.510133    1.506966    ( 0.0000,  0.0000,  0.0000)
   3 O      3.899724   -0.074476   -0.862491    ( 0.0000,  0.0000,  0.0000)
   4 O      2.077424    2.974966    1.507072    ( 0.0000,  0.0000,  0.0000)
   5 O      3.899535   -2.539195   -0.862384    ( 0.0000,  0.0000,  0.0000)
   6 O     -1.330092   -0.074418   -1.168395    ( 0.0000,  0.0000,  0.0000)
   7 O     -3.152581    0.510191    1.201063    ( 0.0000,  0.0000,  0.0000)
   8 O     -4.389675   -1.306969   -0.813152    ( 0.0000,  0.0000,  0.0000)
   9 O     -0.093301    1.742683    1.556268    ( 0.0000,  0.0000,  0.0000)
  10 O      5.136817    1.742683    1.151723    ( 0.0000,  0.0000,  0.0000)
  11 O      0.840444   -1.306969   -1.217697    ( 0.0000,  0.0000,  0.0000)
  12 Mn    -2.557192   -1.297258    0.273595    ( 0.0000,  0.0000,  1.0000)
  13 Mn    -1.925535    1.742972   -2.096623    ( 0.0000,  0.0000, -1.0000)
  14 Mn     3.304335    1.742972    0.064976    ( 0.0000,  0.0000, -1.0000)
  15 Mn     2.672678   -1.307258    2.435195    ( 0.0000,  0.0000,  1.0000)
  16 P     -0.597175   -1.306854   -1.801474    ( 0.0000,  0.0000,  0.0000)
  17 P     -3.885565    1.742568    0.568028    ( 0.0000,  0.0000,  0.0000)
  18 P      1.344318    1.742568    2.140045    ( 0.0000,  0.0000,  0.0000)
  19 P      4.632708   -1.306854   -0.229456    ( 0.0000,  0.0000,  0.0000)
  20 O     -0.636957   -1.306861    1.403074    ( 0.0000,  0.0000,  0.0000)
  21 O     -3.845824    1.742575   -0.967462    ( 0.0000,  0.0000,  0.0000)
  22 O      1.384100    1.742576   -1.064503    ( 0.0000,  0.0000,  0.0000)
  23 O      4.592967   -1.306861    1.306033    ( 0.0000,  0.0000,  0.0000)
  24 Li    -4.856429   -2.832143   -2.200714    ( 0.0000,  0.0000,  0.0000)
  25 Li     0.373571   -2.832143    0.169286    ( 0.0000,  0.0000,  0.0000)
  26 Li    -4.856429    0.217857   -2.200714    ( 0.0000,  0.0000,  0.0000)
  27 Li     0.373571    0.217857    0.169286    ( 0.0000,  0.0000,  0.0000)

Unit cell:
           periodic     x           y           z      points  spacing
  1. axis:    yes   10.460000    0.000000    0.000000    60     0.1743
  2. axis:    yes    0.000000    6.100000    0.000000    35     0.1743
  3. axis:    yes    0.000000    0.000000    4.740000    27     0.1756

  Lengths:  10.460000   6.100000   4.740000
  Angles:   90.000000  90.000000  90.000000

Effective grid spacing dv^(1/3) = 0.1747

                     log10-error:           total        iterations:
           time      wfs    density  force  energy       poisson  magmom
iter:   1  21:11:47                       -220.688423             +0.0000
iter:   2  21:12:09  -0.64  -0.92         -235.503608             +0.0000
iter:   3  21:12:30  -0.40  -0.96         -226.168702             -0.0000
iter:   4  21:12:52  -1.41  -1.29         -225.888115             +0.0000
iter:   5  21:13:13  -1.19  -1.38         -227.588972             +0.0000
iter:   6  21:13:34  -1.39  -1.51         -225.828981             +0.0000
iter:   7  21:13:56  -2.57  -2.06         -225.898955             +0.0000
iter:   8  21:14:17  -2.23  -2.01         -225.641944             -0.0000
iter:   9  21:14:39  -2.68  -2.09         -225.546585             +0.0000
iter:  10  21:15:00  -3.55  -2.95         -225.545818             +0.0000
iter:  11  21:15:21  -3.95  -3.00         -225.547378             +0.0000
iter:  12  21:15:43  -4.29  -3.22         -225.547551             +0.0000
iter:  13  21:16:04  -5.38  -3.36         -225.547444             -0.0000
iter:  14  21:16:26  -5.19  -3.44         -225.547297             -0.0000
iter:  15  21:16:47  -5.37  -3.60         -225.547215             -0.0000
iter:  16  21:17:08  -6.32  -3.68         -225.547199             +0.0000
iter:  17  21:17:30  -6.25  -3.75         -225.547218             -0.0000
iter:  18  21:17:51  -6.75  -3.81         -225.547219             -0.0000
iter:  19  21:18:13  -5.81  -3.83         -225.547183             -0.0000
iter:  20  21:18:34  -6.97  -4.41         -225.547179             -0.0000
iter:  21  21:19:01  -7.72  -4.72         -225.547176             -0.0000
iter:  22  21:19:22  -7.31  -4.85         -225.547175             -0.0000
iter:  23  21:19:49  -7.93  -4.75    -3.05-225.547174             -0.0000
iter:  24  21:20:16  -8.72  -4.99    -3.36-225.547174             +0.0000
iter:  25  21:20:42  -7.63  -5.02    -2.60-225.547175             +0.0000
iter:  26  21:21:09  -8.22  -5.02    -2.92-225.547174             +0.0000
iter:  27  21:21:36  -8.31  -5.16    -3.29-225.547174             +0.0000
iter:  28  21:22:03  -7.54  -5.11    -2.70-225.547175             +0.0000
iter:  29  21:22:30  -7.96  -4.93    -2.82-225.547174             +0.0000
iter:  30  21:22:56  -8.92  -5.42    -3.51-225.547174             +0.0000
iter:  31  21:23:23  -9.34  -5.51    -3.75-225.547174             +0.0000
iter:  32  21:23:50 -10.12  -5.61    -3.48-225.547174             +0.0000
iter:  33  21:24:16  -9.62  -5.70    -3.83-225.547174             -0.0000
iter:  34  21:24:43 -10.11  -5.78    -4.12-225.547174             +0.0000
iter:  35  21:25:10 -10.18  -5.85    -4.09-225.547174             +0.0000
iter:  36  21:25:37 -10.03  -6.02    -3.98-225.547174             +0.0000
iter:  37  21:26:04 -10.69  -6.11    -4.77-225.547174             +0.0000
iter:  38  21:26:30 -10.49  -6.19    -4.34-225.547174             +0.0000
iter:  39  21:26:57 -11.16  -6.25    -4.56-225.547174             +0.0000
iter:  40  21:27:24 -11.49  -6.32    -4.22-225.547174             +0.0000
iter:  41  21:27:50 -10.93  -6.48    -4.71-225.547174             +0.0000
iter:  42  21:28:17 -11.84  -6.67    -5.02-225.547174             +0.0000
iter:  43  21:28:44 -11.34  -6.74    -4.49-225.547174             +0.0000
iter:  44  21:29:11 -11.99  -7.02    -5.68-225.547174             +0.0000
iter:  45  21:29:37 -11.84  -7.07    -5.05-225.547174             -0.0000
iter:  46  21:30:04 -12.75  -7.11    -5.42-225.547174             +0.0000
iter:  47  21:30:31 -12.74  -7.18    -5.28-225.547174             +0.0000
iter:  48  21:30:58 -12.66  -7.22    -5.26-225.547174             +0.0000
iter:  49  21:31:25 -12.28  -7.29    -5.30-225.547174             +0.0000
iter:  50  21:31:51 -13.15  -7.43    -5.60-225.547174             +0.0000
iter:  51  21:32:18 -12.78  -7.50    -5.68-225.547174             +0.0000
iter:  52  21:32:45 -13.45  -7.62    -5.38-225.547174             +0.0000
iter:  53  21:33:11 -14.66  -7.73    -6.10-225.547174             +0.0000

Converged after 53 iterations.

Dipole moment: (13.160104, 1.740714, -5.512656) |e|*Ang

Total magnetic moment: (0.000000, 0.000000, 0.000000)
Local magnetic moments:
   0 O  ( 0.000000,  0.000000,  0.000830)
   1 O  ( 0.000000,  0.000000, -0.001364)
   2 O  ( 0.000000,  0.000000, -0.001059)
   3 O  ( 0.000000,  0.000000,  0.001034)
   4 O  ( 0.000000,  0.000000, -0.001065)
   5 O  ( 0.000000,  0.000000,  0.001063)
   6 O  ( 0.000000,  0.000000,  0.001292)
   7 O  ( 0.000000,  0.000000, -0.000730)
   8 O  ( 0.000000,  0.000000,  0.019780)
   9 O  ( 0.000000,  0.000000, -0.019776)
  10 O  ( 0.000000,  0.000000, -0.019778)
  11 O  ( 0.000000,  0.000000,  0.019776)
  12 Mn ( 0.000000,  0.000000,  4.601495)
  13 Mn ( 0.000000,  0.000000, -4.601589)
  14 Mn ( 0.000000,  0.000000, -4.601524)
  15 Mn ( 0.000000,  0.000000,  4.601592)
  16 P  ( 0.000000,  0.000000,  0.001300)
  17 P  ( 0.000000,  0.000000, -0.001291)
  18 P  ( 0.000000,  0.000000, -0.001300)
  19 P  ( 0.000000,  0.000000,  0.001293)
  20 O  ( 0.000000,  0.000000,  0.018074)
  21 O  ( 0.000000,  0.000000, -0.018067)
  22 O  ( 0.000000,  0.000000, -0.018072)
  23 O  ( 0.000000,  0.000000,  0.018068)
  24 Li ( 0.000000,  0.000000, -0.000002)
  25 Li ( 0.000000,  0.000000,  0.000004)
  26 Li ( 0.000000,  0.000000,  0.000002)
  27 Li ( 0.000000,  0.000000, -0.000004)

Energy contributions relative to reference atoms: (reference = -196157.275402)

Kinetic:       +242.946669
Potential:     -215.442387
External:        +0.000000
XC:            -254.966744
Entropy (-ST):   -0.000000
Local:           +1.915288
--------------------------
Free energy:   -225.547174
Extrapolated:  -225.547174

Spin contamination: 9.747494 electrons
Showing only first 2 kpts
                      Up                     Down
 Kpt  Band  Eigenvalues  Occupancy  Eigenvalues  Occupancy
  0    88      3.92284    0.00694      3.92287    0.00694
  0    89      3.97210    0.00694      3.97170    0.00694
  0    90      8.66734    0.00000      8.66741    0.00000
  0    91      8.68676    0.00000      8.68686    0.00000

  1    88      3.91980    0.00694      3.91935    0.00694
  1    89      3.97562    0.00694      3.97545    0.00694
  1    90      8.51299    0.00000      8.51304    0.00000
  1    91      8.52961    0.00000      8.52967    0.00000


Fermi level: 5.31836

Gap: 3.778 eV
Transition (v -> c):
  (s=0, k=73, n=89, [0.08, -0.42, -0.12]) -> (s=1, k=62, n=90, [-0.08, 0.08, 0.12])
Writing to born-0.01-12y+.gpw (mode='all')

Timing:                              incl.     excl.
-----------------------------------------------------------
Hamiltonian:                         0.247     0.002   0.0% |
 Atomic:                             0.057     0.057   0.0% |
  XC Correction:                     0.000     0.000   0.0% |
 Calculate atomic Hamiltonians:      0.092     0.092   0.0% |
 Communicate:                        0.002     0.002   0.0% |
 Initialize Hamiltonian:             0.000     0.000   0.0% |
 Poisson:                            0.001     0.001   0.0% |
 XC 3D grid:                         0.093     0.093   0.0% |
LCAO initialization:                64.244     0.678   0.0% |
 LCAO eigensolver:                  17.533     0.002   0.0% |
  Calculate projections:             0.029     0.029   0.0% |
  DenseAtomicCorrection:             0.042     0.042   0.0% |
  Distribute overlap matrix:         0.111     0.111   0.0% |
  Orbital Layouts:                   0.473     0.473   0.0% |
  Potential matrix:                 16.776    16.776   0.5% |
  Sum over cells:                    0.099     0.099   0.0% |
 LCAO to grid:                      44.735    44.735   1.4% ||
 Set positions (LCAO WFS):           1.297     0.180   0.0% |
  Basic WFS set positions:           0.001     0.001   0.0% |
  Basis functions set positions:     0.000     0.000   0.0% |
  P tci:                             0.516     0.516   0.0% |
  ST tci:                            0.360     0.360   0.0% |
  mktci:                             0.239     0.239   0.0% |
PWDescriptor:                        0.025     0.025   0.0% |
SCF-cycle:                        1309.694     3.121   0.1% |
 Davidson:                        1076.990   336.510  10.6% |---|
  Apply H:                          72.828    70.743   2.2% ||
   HMM T:                            2.085     2.085   0.1% |
  Subspace diag:                   156.077     0.157   0.0% |
   calc_h_matrix:                   99.480    26.437   0.8% |
    Apply H:                        73.044    70.983   2.2% ||
     HMM T:                          2.060     2.060   0.1% |
   diagonalize:                      7.714     7.714   0.2% |
   rotate_psi:                      48.726    48.726   1.5% ||
  calc. matrices:                  318.038   177.782   5.6% |-|
   Apply H:                        140.255   136.471   4.3% |-|
    HMM T:                           3.784     3.784   0.1% |
  diagonalize:                      88.257    88.257   2.8% ||
  rotate_psi:                      105.280   105.280   3.3% ||
 Density:                           42.793     0.001   0.0% |
  Atomic density matrices:           0.903     0.903   0.0% |
  Mix:                               6.767     6.767   0.2% |
  Multipole moments:                 0.020     0.020   0.0% |
  Pseudo density:                   35.101    35.100   1.1% |
   Symmetrize density:               0.001     0.001   0.0% |
 Forces:                           171.336   171.336   5.4% |-|
 Hamiltonian:                       13.164     0.116   0.0% |
  Atomic:                            3.138     3.138   0.1% |
   XC Correction:                    0.000     0.000   0.0% |
  Calculate atomic Hamiltonians:     4.913     4.913   0.2% |
  Communicate:                       0.105     0.105   0.0% |
  Poisson:                           0.043     0.043   0.0% |
  XC 3D grid:                        4.849     4.849   0.2% |
 Orthonormalize:                     2.290     0.003   0.0% |
  calc_s_matrix:                     0.264     0.264   0.0% |
  inverse-cholesky:                  0.077     0.077   0.0% |
  projections:                       1.472     1.472   0.0% |
  rotate_psi_s:                      0.473     0.473   0.0% |
Set symmetry:                        0.000     0.000   0.0% |
Other:                            1788.715  1788.715  56.6% |----------------------|
-----------------------------------------------------------
Total:                                      3162.926 100.0%

Memory usage: 11.99 GiB
Date: Tue Mar 23 22:02:59 2021
