
  ___ ___ ___ _ _ _  
 |   |   |_  | | | | 
 | | | | | . | | | | 
 |__ |  _|___|_____|  20.10.1b1
 |___|_|             

User:   madkru@g031.nifl.fysik.dtu.dk
Date:   Mon Mar 22 05:35:34 2021
Arch:   x86_64
Pid:    47913
Python: 3.7.4
gpaw:   /home/niflheim/madkru/venv_folder/gpaw/gpaw (d0d1ca1c71)
_gpaw:  /home/niflheim/madkru/venv_folder/gpaw/build/lib.linux-x86_64-sandybridge-3.7/
        _gpaw.cpython-37m-x86_64-linux-gnu.so (4fd39e8b1e)
ase:    /home/niflheim/madkru/venv_folder/ase/ase (version 3.21.0b1-7e6c206a91)
numpy:  /home/niflheim/madkru/venv_folder/lib/python3.7/site-packages/numpy (version 1.19.4)
scipy:  /home/niflheim/madkru/venv_folder/lib/python3.7/site-packages/scipy (version 1.5.4)
libxc:  4.3.4
units:  Angstrom and eV
cores: 32
OMP_NUM_THREADS: 1

Input parameters:
  convergence: {bands: occupied,
                density: 0.0001,
                eigenstates: 4e-08,
                energy: 0.0005,
                forces: 1e-06}
  kpts: [6 6 4]
  mode: {ecut: 600.0,
         gammacentered: False,
         name: pw}
  occupations: {fixmagmom: False,
                name: fermi-dirac,
                width: 0.001}
  setups: {Mn: :d,3.0}
  symmetry: {point_group: False,
             time_reversal: False}

System changes: positions, numbers, cell, pbc, initial_charges, initial_magmoms 

Initialize ...

O-setup:
  name: Oxygen
  id: 9b9d51c344dea68c822856295a461509
  Z: 8.0
  valence: 6
  core: 2
  charge: 0.0
  file: /home/modules/software/GPAW-setups/0.9.20000/O.LDA.gz
  compensation charges: gauss, rc=0.21, lmax=2
  cutoffs: 1.17(filt), 0.83(core),
  valence states:
                energy  radius
    2s(2.00)   -23.752   0.688
    2p(4.00)    -9.195   0.598
    *s           3.459   0.688
    *p          18.016   0.598
    *d           0.000   0.619

  Using partial waves for O as LCAO basis

Mn-setup:
  name: Manganese
  id: 0d715a8018be061a6e9ea6f2d364ac92
  Z: 25.0
  valence: 15
  core: 10
  charge: 0.0
  Hubbard U: 3.000000 eV (l=2, scale=True)
  file: /home/modules/software/GPAW-setups/0.9.20000/Mn.LDA.gz
  compensation charges: gauss, rc=0.38, lmax=2
  cutoffs: 2.14(filt), 0.86(core),
  valence states:
                energy  radius
    3s(2.00)   -85.387   1.275
    4s(2.00)    -5.282   1.275
    3p(6.00)   -54.493   1.281
    4p(0.00)    -1.471   1.281
    3d(5.00)    -7.009   1.138
    *d          20.203   1.138

  Using partial waves for Mn as LCAO basis

P-setup:
  name: Phosphorus
  id: a5561c299094968922a179ab894d2e2d
  Z: 15.0
  valence: 5
  core: 10
  charge: 0.0
  file: /home/modules/software/GPAW-setups/0.9.20000/P.LDA.gz
  compensation charges: gauss, rc=0.30, lmax=2
  cutoffs: 1.69(filt), 1.81(core),
  valence states:
                energy  radius
    3s(2.00)   -14.015   0.953
    3p(3.00)    -5.596   0.953
    *s          13.197   0.953
    *p          21.615   0.953
    *d           0.000   0.953

  Using partial waves for P as LCAO basis

Li-setup:
  name: Lithium
  id: b73562207f97a71b6967473b66fe8b65
  Z: 3.0
  valence: 1
  core: 2
  charge: 0.0
  file: /home/modules/software/GPAW-setups/0.9.20000/Li.LDA.gz
  compensation charges: gauss, rc=0.33, lmax=2
  cutoffs: 1.91(filt), 2.55(core),
  valence states:
                energy  radius
    2s(1.00)    -2.874   1.058
    2p(0.00)    -1.126   1.058
    *s          24.338   1.058

  Using partial waves for Li as LCAO basis

Reference energy: -196157.275402

Spin-polarized calculation.
Magnetic moment: 0.000000

Convergence criteria:
  Maximum total energy change: 0.0005 eV / electron
  Maximum integral of absolute density change: 0.0001 electrons
  Maximum integral of absolute eigenstate change: 4e-08 eV^2
  Maximum change in atomic force: 1e-06 eV / Ang
  Maximum number of iterations: 333

Symmetries present (total): 1

  ( 1  0  0)
  ( 0  1  0)
  ( 0  0  1)

144 k-points: 6 x 6 x 4 Monkhorst-Pack grid
144 k-points in the irreducible part of the Brillouin zone
       k-points in crystal coordinates                weights
   0:    -0.41666667   -0.41666667   -0.37500000          1/144
   1:    -0.41666667   -0.41666667   -0.12500000          1/144
   2:    -0.41666667   -0.41666667    0.12500000          1/144
   3:    -0.41666667   -0.41666667    0.37500000          1/144
   4:    -0.41666667   -0.25000000   -0.37500000          1/144
   5:    -0.41666667   -0.25000000   -0.12500000          1/144
   6:    -0.41666667   -0.25000000    0.12500000          1/144
   7:    -0.41666667   -0.25000000    0.37500000          1/144
   8:    -0.41666667   -0.08333333   -0.37500000          1/144
   9:    -0.41666667   -0.08333333   -0.12500000          1/144
          ...
 143:     0.41666667    0.41666667    0.37500000          1/144

Wave functions: Plane wave expansion
  Cutoff energy: 600.000 eV
  Number of coefficients (min, max): 10068, 10125
  Pulay-stress correction: 0.000000 eV/Ang^3 (de/decut=0.000000)
  Using FFTW library
  ScaLapack parameters: grid=1x1, blocksize=None
  Wavefunction extrapolation:
    Improved wavefunction reuse through dual PAW basis 

  Fermi-Dirac: width=0.0010 eV

Eigensolver
   Davidson(niter=2, smin=None, normalize=True) 

Densities:
  Coarse grid: 60*35*27 grid
  Fine grid: 120*70*54 grid
  Total Charge: 0.000000 

Density mixing:
  Method: difference
  Backend: pulay
  Linear mixing parameter: 0.05
  Mixing with 5 old densities
  Damping of long wave oscillations: 50 

Hamiltonian:
  XC and Coulomb potentials evaluated on a 120*70*54 grid
  Using the LDA Exchange-Correlation functional
 

Memory estimate:
  Process memory now: 12919.95 MiB
  Calculator: 375.55 MiB
    Density: 20.02 MiB
      Arrays: 7.57 MiB
      Localized functions: 9.42 MiB
      Mixer: 3.03 MiB
    Hamiltonian: 5.90 MiB
      Arrays: 5.62 MiB
      XC: 0.00 MiB
      Poisson: 0.00 MiB
      vbar: 0.27 MiB
    Wavefunctions: 349.64 MiB
      Arrays psit_nG: 311.46 MiB
      Eigensolver: 19.99 MiB
      Projections: 5.41 MiB
      Projectors: 9.73 MiB
      PW-descriptor: 3.03 MiB

Total number of cores used: 32
Parallelization over k-points: 16
Domain decomposition: 2 x 1 x 1

Number of atoms: 28
Number of atomic orbitals: 148
Number of bands in calculation: 112
Number of valence electrons: 180
Bands to converge: occupied

... initialized

Initializing position-dependent things.

Density initialized from atomic densities
Creating initial wave functions:
  112 bands from LCAO basis set

     .-------------------------.  
    /|         OP              |  
   / |O            O        O  |  
  /  |       O            O  P |  
 *   |O    Mn      O           |  
 |   |          OLi          O |  
 |   P--O--------------Mn------.  
 |  /          Li    O  Mn  O /   
 | /LiO           PO         /    
 |/       Mn                /     
 *Li-----------------------*      

Positions:
   0 O     -1.330281   -2.539252   -1.168500    ( 0.0000,  0.0000,  0.0000)
   1 O     -3.152392    2.974909    1.200956    ( 0.0000,  0.0000,  0.0000)
   2 O      2.077234    0.510133    1.506966    ( 0.0000,  0.0000,  0.0000)
   3 O      3.899724   -0.074476   -0.862491    ( 0.0000,  0.0000,  0.0000)
   4 O      2.077424    2.974966    1.507072    ( 0.0000,  0.0000,  0.0000)
   5 O      3.899535   -2.529195   -0.862384    ( 0.0000,  0.0000,  0.0000)
   6 O     -1.330092   -0.074418   -1.168395    ( 0.0000,  0.0000,  0.0000)
   7 O     -3.152581    0.510191    1.201063    ( 0.0000,  0.0000,  0.0000)
   8 O     -4.389675   -1.306969   -0.813152    ( 0.0000,  0.0000,  0.0000)
   9 O     -0.093301    1.742683    1.556268    ( 0.0000,  0.0000,  0.0000)
  10 O      5.136817    1.742683    1.151723    ( 0.0000,  0.0000,  0.0000)
  11 O      0.840444   -1.306969   -1.217697    ( 0.0000,  0.0000,  0.0000)
  12 Mn    -2.557192   -1.307258    0.273595    ( 0.0000,  0.0000,  1.0000)
  13 Mn    -1.925535    1.742972   -2.096623    ( 0.0000,  0.0000, -1.0000)
  14 Mn     3.304335    1.742972    0.064976    ( 0.0000,  0.0000, -1.0000)
  15 Mn     2.672678   -1.307258    2.435195    ( 0.0000,  0.0000,  1.0000)
  16 P     -0.597175   -1.306854   -1.801474    ( 0.0000,  0.0000,  0.0000)
  17 P     -3.885565    1.742568    0.568028    ( 0.0000,  0.0000,  0.0000)
  18 P      1.344318    1.742568    2.140045    ( 0.0000,  0.0000,  0.0000)
  19 P      4.632708   -1.306854   -0.229456    ( 0.0000,  0.0000,  0.0000)
  20 O     -0.636957   -1.306861    1.403074    ( 0.0000,  0.0000,  0.0000)
  21 O     -3.845824    1.742575   -0.967462    ( 0.0000,  0.0000,  0.0000)
  22 O      1.384100    1.742576   -1.064503    ( 0.0000,  0.0000,  0.0000)
  23 O      4.592967   -1.306861    1.306033    ( 0.0000,  0.0000,  0.0000)
  24 Li    -4.856429   -2.832143   -2.200714    ( 0.0000,  0.0000,  0.0000)
  25 Li     0.373571   -2.832143    0.169286    ( 0.0000,  0.0000,  0.0000)
  26 Li    -4.856429    0.217857   -2.200714    ( 0.0000,  0.0000,  0.0000)
  27 Li     0.373571    0.217857    0.169286    ( 0.0000,  0.0000,  0.0000)

Unit cell:
           periodic     x           y           z      points  spacing
  1. axis:    yes   10.460000    0.000000    0.000000    60     0.1743
  2. axis:    yes    0.000000    6.100000    0.000000    35     0.1743
  3. axis:    yes    0.000000    0.000000    4.740000    27     0.1756

  Lengths:  10.460000   6.100000   4.740000
  Angles:   90.000000  90.000000  90.000000

Effective grid spacing dv^(1/3) = 0.1747

                     log10-error:           total        iterations:
           time      wfs    density  force  energy       poisson  magmom
iter:   1  05:38:36                       -220.690019             +0.0000
iter:   2  05:39:15  -0.64  -0.92         -235.514583             +0.0000
iter:   3  05:39:55  -0.40  -0.96         -226.168983             -0.0000
iter:   4  05:40:34  -1.41  -1.29         -225.886729             +0.0000
iter:   5  05:41:13  -1.19  -1.38         -227.587029             +0.0000
iter:   6  05:41:53  -1.39  -1.51         -225.828454             +0.0000
iter:   7  05:42:32  -2.56  -2.06         -225.897563             +0.0000
iter:   8  05:43:11  -2.24  -2.01         -225.643214             -0.0000
iter:   9  05:43:51  -2.67  -2.08         -225.545345             +0.0000
iter:  10  05:44:30  -3.54  -2.94         -225.544260             +0.0000
iter:  11  05:45:10  -3.95  -3.00         -225.546298             +0.0000
iter:  12  05:45:49  -4.30  -3.22         -225.546454             +0.0000
iter:  13  05:46:29  -5.35  -3.36         -225.546351             -0.0000
iter:  14  05:47:08  -5.18  -3.44         -225.546225             -0.0000
iter:  15  05:47:48  -5.33  -3.59         -225.546123             -0.0000
iter:  16  05:48:27  -6.33  -3.70         -225.546110             +0.0000
iter:  17  05:49:06  -6.32  -3.77         -225.546128             -0.0000
iter:  18  05:49:46  -6.71  -3.82         -225.546128             -0.0000
iter:  19  05:50:25  -5.90  -3.84         -225.546094             -0.0000
iter:  20  05:51:05  -7.08  -4.37         -225.546089             -0.0000
iter:  21  05:51:55  -7.76  -4.47         -225.546088             -0.0000
iter:  22  05:52:34  -7.28  -4.52         -225.546090             +0.0000
iter:  23  05:53:24  -7.63  -4.54    -2.74-225.546088             -0.0000
iter:  24  05:54:14  -7.59  -4.61    -2.59-225.546088             -0.0000
iter:  25  05:54:54  -7.07  -4.65         -225.546090             -0.0000
iter:  26  05:55:33  -7.31  -4.57         -225.546088             -0.0000
iter:  27  05:56:23  -8.46  -4.82    -2.54-225.546088             -0.0000
iter:  28  05:57:13  -7.41  -4.83    -2.92-225.546089             -0.0000
iter:  29  05:58:03  -8.09  -4.94    -2.99-225.546088             -0.0000
iter:  30  05:58:53  -8.97  -5.28    -3.67-225.546088             -0.0000
iter:  31  05:59:43  -8.30  -5.33    -3.31-225.546088             -0.0000
iter:  32  06:00:34  -9.31  -5.79    -3.96-225.546088             -0.0000
iter:  33  06:01:24  -9.89  -6.10    -3.88-225.546088             -0.0000
iter:  34  06:02:14 -11.04  -6.04    -4.63-225.546088             -0.0000
iter:  35  06:03:04 -10.16  -6.12    -3.96-225.546088             -0.0000
iter:  36  06:03:54 -10.03  -6.40    -4.04-225.546088             -0.0000
iter:  37  06:04:44 -10.88  -6.37    -4.46-225.546088             -0.0000
iter:  38  06:05:34 -11.69  -6.61    -4.35-225.546088             -0.0000
iter:  39  06:06:24 -11.68  -6.72    -4.63-225.546088             -0.0000
iter:  40  06:07:14 -11.44  -6.77    -4.54-225.546088             -0.0000
iter:  41  06:08:04 -11.54  -6.91    -4.67-225.546088             -0.0000
iter:  42  06:08:54 -12.70  -7.20    -5.80-225.546088             -0.0000
iter:  43  06:09:44 -12.50  -7.23    -5.59-225.546088             -0.0000
iter:  44  06:10:34 -13.11  -7.41    -5.40-225.546088             -0.0000
iter:  45  06:11:24 -13.66  -7.51    -5.52-225.546088             -0.0000
iter:  46  06:12:14 -13.18  -7.54    -5.44-225.546088             -0.0000
iter:  47  06:13:04 -13.62  -7.61    -5.73-225.546088             -0.0000
iter:  48  06:13:54 -14.35  -7.71    -6.11-225.546088             -0.0000

Converged after 48 iterations.

Dipole moment: (13.158469, 1.710065, -5.516144) |e|*Ang

Total magnetic moment: (0.000000, 0.000000, -0.000000)
Local magnetic moments:
   0 O  ( 0.000000,  0.000000,  0.001059)
   1 O  ( 0.000000,  0.000000, -0.001059)
   2 O  ( 0.000000,  0.000000, -0.001190)
   3 O  ( 0.000000,  0.000000,  0.000983)
   4 O  ( 0.000000,  0.000000, -0.001018)
   5 O  ( 0.000000,  0.000000,  0.001286)
   6 O  ( 0.000000,  0.000000,  0.001053)
   7 O  ( 0.000000,  0.000000, -0.001046)
   8 O  ( 0.000000,  0.000000,  0.019919)
   9 O  ( 0.000000,  0.000000, -0.019763)
  10 O  ( 0.000000,  0.000000, -0.019746)
  11 O  ( 0.000000,  0.000000,  0.019769)
  12 Mn ( 0.000000,  0.000000,  4.601559)
  13 Mn ( 0.000000,  0.000000, -4.601586)
  14 Mn ( 0.000000,  0.000000, -4.602307)
  15 Mn ( 0.000000,  0.000000,  4.601536)
  16 P  ( 0.000000,  0.000000,  0.001305)
  17 P  ( 0.000000,  0.000000, -0.001282)
  18 P  ( 0.000000,  0.000000, -0.001288)
  19 P  ( 0.000000,  0.000000,  0.001516)
  20 O  ( 0.000000,  0.000000,  0.018057)
  21 O  ( 0.000000,  0.000000, -0.018070)
  22 O  ( 0.000000,  0.000000, -0.018022)
  23 O  ( 0.000000,  0.000000,  0.018149)
  24 Li ( 0.000000,  0.000000,  0.000015)
  25 Li ( 0.000000,  0.000000,  0.000000)
  26 Li ( 0.000000,  0.000000,  0.000001)
  27 Li ( 0.000000,  0.000000,  0.000001)

Energy contributions relative to reference atoms: (reference = -196157.275402)

Kinetic:       +243.471766
Potential:     -215.848866
External:        +0.000000
XC:            -255.083247
Entropy (-ST):   -0.000000
Local:           +1.914259
--------------------------
Free energy:   -225.546088
Extrapolated:  -225.546088

Spin contamination: 9.747956 electrons
Showing only first 2 kpts
                      Up                     Down
 Kpt  Band  Eigenvalues  Occupancy  Eigenvalues  Occupancy
  0    88      3.92640    0.00694      3.91618    0.00694
  0    89      3.97521    0.00694      3.96584    0.00694
  0    90      8.65906    0.00000      8.67048    0.00000
  0    91      8.68408    0.00000      8.69077    0.00000

  1    88      3.92273    0.00694      3.91281    0.00694
  1    89      3.97906    0.00694      3.96931    0.00694
  1    90      8.50468    0.00000      8.51650    0.00000
  1    91      8.52670    0.00000      8.53537    0.00000


Fermi level: 5.31865

Gap: 3.775 eV
Transition (v -> c):
  (s=0, k=73, n=89, [0.08, -0.42, -0.12]) -> (s=0, k=57, n=90, [-0.08, -0.08, -0.12])
Writing to born-0.01-5y+.gpw (mode='all')

Timing:                              incl.     excl.
-----------------------------------------------------------
Hamiltonian:                         0.455     0.003   0.0% |
 Atomic:                             0.100     0.100   0.0% |
  XC Correction:                     0.000     0.000   0.0% |
 Calculate atomic Hamiltonians:      0.185     0.185   0.0% |
 Communicate:                        0.001     0.001   0.0% |
 Initialize Hamiltonian:             0.000     0.000   0.0% |
 Poisson:                            0.002     0.002   0.0% |
 XC 3D grid:                         0.165     0.165   0.0% |
LCAO initialization:               132.896     0.678   0.0% |
 LCAO eigensolver:                  33.709     0.002   0.0% |
  Calculate projections:             0.057     0.057   0.0% |
  DenseAtomicCorrection:             0.083     0.083   0.0% |
  Distribute overlap matrix:         0.074     0.074   0.0% |
  Orbital Layouts:                   0.361     0.361   0.0% |
  Potential matrix:                 33.030    33.030   0.6% |
  Sum over cells:                    0.102     0.102   0.0% |
 LCAO to grid:                      96.207    96.207   1.9% ||
 Set positions (LCAO WFS):           2.301     0.343   0.0% |
  Basic WFS set positions:           0.001     0.001   0.0% |
  Basis functions set positions:     0.000     0.000   0.0% |
  P tci:                             1.056     1.056   0.0% |
  ST tci:                            0.659     0.659   0.0% |
  mktci:                             0.241     0.241   0.0% |
PWDescriptor:                        0.025     0.025   0.0% |
SCF-cycle:                        2165.186    10.141   0.2% |
 Davidson:                        1793.615   584.696  11.4% |----|
  Apply H:                         125.091   120.619   2.4% ||
   HMM T:                            4.472     4.472   0.1% |
  Subspace diag:                   264.910     0.153   0.0% |
   calc_h_matrix:                  171.620    47.565   0.9% |
    Apply H:                       124.054   119.711   2.3% ||
     HMM T:                          4.343     4.343   0.1% |
   diagonalize:                      5.875     5.875   0.1% |
   rotate_psi:                      87.262    87.262   1.7% ||
  calc. matrices:                  561.505   317.674   6.2% |-|
   Apply H:                        243.831   235.621   4.6% |-|
    HMM T:                           8.210     8.210   0.2% |
  diagonalize:                      80.259    80.259   1.6% ||
  rotate_psi:                      177.155   177.155   3.5% ||
 Density:                           71.172     0.001   0.0% |
  Atomic density matrices:           1.298     1.298   0.0% |
  Mix:                              11.493    11.493   0.2% |
  Multipole moments:                 0.028     0.028   0.0% |
  Pseudo density:                   58.351    58.350   1.1% |
   Symmetrize density:               0.001     0.001   0.0% |
 Forces:                           265.719   265.719   5.2% |-|
 Hamiltonian:                       20.134     0.123   0.0% |
  Atomic:                            2.883     2.883   0.1% |
   XC Correction:                    0.000     0.000   0.0% |
  Calculate atomic Hamiltonians:     8.657     8.657   0.2% |
  Communicate:                       0.055     0.055   0.0% |
  Poisson:                           0.073     0.073   0.0% |
  XC 3D grid:                        8.344     8.344   0.2% |
 Orthonormalize:                     4.404     0.004   0.0% |
  calc_s_matrix:                     0.522     0.522   0.0% |
  inverse-cholesky:                  0.054     0.054   0.0% |
  projections:                       2.891     2.891   0.1% |
  rotate_psi_s:                      0.933     0.933   0.0% |
Set symmetry:                        0.000     0.000   0.0% |
Other:                            2813.322  2813.322  55.0% |---------------------|
-----------------------------------------------------------
Total:                                      5111.884 100.0%

Memory usage: 12.62 GiB
Date: Mon Mar 22 07:00:46 2021
