
  ___ ___ ___ _ _ _  
 |   |   |_  | | | | 
 | | | | | . | | | | 
 |__ |  _|___|_____|  20.10.1b1
 |___|_|             

User:   madkru@g031.nifl.fysik.dtu.dk
Date:   Mon Mar 22 11:03:39 2021
Arch:   x86_64
Pid:    47913
Python: 3.7.4
gpaw:   /home/niflheim/madkru/venv_folder/gpaw/gpaw (d0d1ca1c71)
_gpaw:  /home/niflheim/madkru/venv_folder/gpaw/build/lib.linux-x86_64-sandybridge-3.7/
        _gpaw.cpython-37m-x86_64-linux-gnu.so (4fd39e8b1e)
ase:    /home/niflheim/madkru/venv_folder/ase/ase (version 3.21.0b1-7e6c206a91)
numpy:  /home/niflheim/madkru/venv_folder/lib/python3.7/site-packages/numpy (version 1.19.4)
scipy:  /home/niflheim/madkru/venv_folder/lib/python3.7/site-packages/scipy (version 1.5.4)
libxc:  4.3.4
units:  Angstrom and eV
cores: 32
OMP_NUM_THREADS: 1

Input parameters:
  convergence: {bands: occupied,
                density: 0.0001,
                eigenstates: 4e-08,
                energy: 0.0005,
                forces: 1e-06}
  kpts: [6 6 4]
  mode: {ecut: 600.0,
         gammacentered: False,
         name: pw}
  occupations: {fixmagmom: False,
                name: fermi-dirac,
                width: 0.001}
  setups: {Mn: :d,3.0}
  symmetry: {point_group: False,
             time_reversal: False}

System changes: positions, numbers, cell, pbc, initial_charges, initial_magmoms 

Initialize ...

O-setup:
  name: Oxygen
  id: 9b9d51c344dea68c822856295a461509
  Z: 8.0
  valence: 6
  core: 2
  charge: 0.0
  file: /home/modules/software/GPAW-setups/0.9.20000/O.LDA.gz
  compensation charges: gauss, rc=0.21, lmax=2
  cutoffs: 1.17(filt), 0.83(core),
  valence states:
                energy  radius
    2s(2.00)   -23.752   0.688
    2p(4.00)    -9.195   0.598
    *s           3.459   0.688
    *p          18.016   0.598
    *d           0.000   0.619

  Using partial waves for O as LCAO basis

Mn-setup:
  name: Manganese
  id: 0d715a8018be061a6e9ea6f2d364ac92
  Z: 25.0
  valence: 15
  core: 10
  charge: 0.0
  Hubbard U: 3.000000 eV (l=2, scale=True)
  file: /home/modules/software/GPAW-setups/0.9.20000/Mn.LDA.gz
  compensation charges: gauss, rc=0.38, lmax=2
  cutoffs: 2.14(filt), 0.86(core),
  valence states:
                energy  radius
    3s(2.00)   -85.387   1.275
    4s(2.00)    -5.282   1.275
    3p(6.00)   -54.493   1.281
    4p(0.00)    -1.471   1.281
    3d(5.00)    -7.009   1.138
    *d          20.203   1.138

  Using partial waves for Mn as LCAO basis

P-setup:
  name: Phosphorus
  id: a5561c299094968922a179ab894d2e2d
  Z: 15.0
  valence: 5
  core: 10
  charge: 0.0
  file: /home/modules/software/GPAW-setups/0.9.20000/P.LDA.gz
  compensation charges: gauss, rc=0.30, lmax=2
  cutoffs: 1.69(filt), 1.81(core),
  valence states:
                energy  radius
    3s(2.00)   -14.015   0.953
    3p(3.00)    -5.596   0.953
    *s          13.197   0.953
    *p          21.615   0.953
    *d           0.000   0.953

  Using partial waves for P as LCAO basis

Li-setup:
  name: Lithium
  id: b73562207f97a71b6967473b66fe8b65
  Z: 3.0
  valence: 1
  core: 2
  charge: 0.0
  file: /home/modules/software/GPAW-setups/0.9.20000/Li.LDA.gz
  compensation charges: gauss, rc=0.33, lmax=2
  cutoffs: 1.91(filt), 2.55(core),
  valence states:
                energy  radius
    2s(1.00)    -2.874   1.058
    2p(0.00)    -1.126   1.058
    *s          24.338   1.058

  Using partial waves for Li as LCAO basis

Reference energy: -196157.275402

Spin-polarized calculation.
Magnetic moment: 0.000000

Convergence criteria:
  Maximum total energy change: 0.0005 eV / electron
  Maximum integral of absolute density change: 0.0001 electrons
  Maximum integral of absolute eigenstate change: 4e-08 eV^2
  Maximum change in atomic force: 1e-06 eV / Ang
  Maximum number of iterations: 333

Symmetries present (total): 1

  ( 1  0  0)
  ( 0  1  0)
  ( 0  0  1)

144 k-points: 6 x 6 x 4 Monkhorst-Pack grid
144 k-points in the irreducible part of the Brillouin zone
       k-points in crystal coordinates                weights
   0:    -0.41666667   -0.41666667   -0.37500000          1/144
   1:    -0.41666667   -0.41666667   -0.12500000          1/144
   2:    -0.41666667   -0.41666667    0.12500000          1/144
   3:    -0.41666667   -0.41666667    0.37500000          1/144
   4:    -0.41666667   -0.25000000   -0.37500000          1/144
   5:    -0.41666667   -0.25000000   -0.12500000          1/144
   6:    -0.41666667   -0.25000000    0.12500000          1/144
   7:    -0.41666667   -0.25000000    0.37500000          1/144
   8:    -0.41666667   -0.08333333   -0.37500000          1/144
   9:    -0.41666667   -0.08333333   -0.12500000          1/144
          ...
 143:     0.41666667    0.41666667    0.37500000          1/144

Wave functions: Plane wave expansion
  Cutoff energy: 600.000 eV
  Number of coefficients (min, max): 10068, 10125
  Pulay-stress correction: 0.000000 eV/Ang^3 (de/decut=0.000000)
  Using FFTW library
  ScaLapack parameters: grid=1x1, blocksize=None
  Wavefunction extrapolation:
    Improved wavefunction reuse through dual PAW basis 

  Fermi-Dirac: width=0.0010 eV

Eigensolver
   Davidson(niter=2, smin=None, normalize=True) 

Densities:
  Coarse grid: 60*35*27 grid
  Fine grid: 120*70*54 grid
  Total Charge: 0.000000 

Density mixing:
  Method: difference
  Backend: pulay
  Linear mixing parameter: 0.05
  Mixing with 5 old densities
  Damping of long wave oscillations: 50 

Hamiltonian:
  XC and Coulomb potentials evaluated on a 120*70*54 grid
  Using the LDA Exchange-Correlation functional
 

Memory estimate:
  Process memory now: 13027.02 MiB
  Calculator: 375.55 MiB
    Density: 20.02 MiB
      Arrays: 7.57 MiB
      Localized functions: 9.42 MiB
      Mixer: 3.03 MiB
    Hamiltonian: 5.90 MiB
      Arrays: 5.62 MiB
      XC: 0.00 MiB
      Poisson: 0.00 MiB
      vbar: 0.27 MiB
    Wavefunctions: 349.64 MiB
      Arrays psit_nG: 311.46 MiB
      Eigensolver: 19.99 MiB
      Projections: 5.41 MiB
      Projectors: 9.73 MiB
      PW-descriptor: 3.03 MiB

Total number of cores used: 32
Parallelization over k-points: 16
Domain decomposition: 2 x 1 x 1

Number of atoms: 28
Number of atomic orbitals: 148
Number of bands in calculation: 112
Number of valence electrons: 180
Bands to converge: occupied

... initialized

Initializing position-dependent things.

Density initialized from atomic densities
Creating initial wave functions:
  112 bands from LCAO basis set

     .-------------------------.  
    /|         OP              |  
   / |O            O        O  |  
  /  |       O            O  P |  
 *   |O    Mn      O           |  
 |   |          OLi          O |  
 |   P--O--------------Mn------.  
 |  /          Li    O  Mn  O /   
 | /LiO           PO         /    
 |/       Mn                /     
 *Li-----------------------*      

Positions:
   0 O     -1.330281   -2.539252   -1.168500    ( 0.0000,  0.0000,  0.0000)
   1 O     -3.152392    2.974909    1.200956    ( 0.0000,  0.0000,  0.0000)
   2 O      2.077234    0.510133    1.506966    ( 0.0000,  0.0000,  0.0000)
   3 O      3.899724   -0.074476   -0.862491    ( 0.0000,  0.0000,  0.0000)
   4 O      2.077424    2.974966    1.507072    ( 0.0000,  0.0000,  0.0000)
   5 O      3.899535   -2.539195   -0.862384    ( 0.0000,  0.0000,  0.0000)
   6 O     -1.330092   -0.074418   -1.178395    ( 0.0000,  0.0000,  0.0000)
   7 O     -3.152581    0.510191    1.201063    ( 0.0000,  0.0000,  0.0000)
   8 O     -4.389675   -1.306969   -0.813152    ( 0.0000,  0.0000,  0.0000)
   9 O     -0.093301    1.742683    1.556268    ( 0.0000,  0.0000,  0.0000)
  10 O      5.136817    1.742683    1.151723    ( 0.0000,  0.0000,  0.0000)
  11 O      0.840444   -1.306969   -1.217697    ( 0.0000,  0.0000,  0.0000)
  12 Mn    -2.557192   -1.307258    0.273595    ( 0.0000,  0.0000,  1.0000)
  13 Mn    -1.925535    1.742972   -2.096623    ( 0.0000,  0.0000, -1.0000)
  14 Mn     3.304335    1.742972    0.064976    ( 0.0000,  0.0000, -1.0000)
  15 Mn     2.672678   -1.307258    2.435195    ( 0.0000,  0.0000,  1.0000)
  16 P     -0.597175   -1.306854   -1.801474    ( 0.0000,  0.0000,  0.0000)
  17 P     -3.885565    1.742568    0.568028    ( 0.0000,  0.0000,  0.0000)
  18 P      1.344318    1.742568    2.140045    ( 0.0000,  0.0000,  0.0000)
  19 P      4.632708   -1.306854   -0.229456    ( 0.0000,  0.0000,  0.0000)
  20 O     -0.636957   -1.306861    1.403074    ( 0.0000,  0.0000,  0.0000)
  21 O     -3.845824    1.742575   -0.967462    ( 0.0000,  0.0000,  0.0000)
  22 O      1.384100    1.742576   -1.064503    ( 0.0000,  0.0000,  0.0000)
  23 O      4.592967   -1.306861    1.306033    ( 0.0000,  0.0000,  0.0000)
  24 Li    -4.856429   -2.832143   -2.200714    ( 0.0000,  0.0000,  0.0000)
  25 Li     0.373571   -2.832143    0.169286    ( 0.0000,  0.0000,  0.0000)
  26 Li    -4.856429    0.217857   -2.200714    ( 0.0000,  0.0000,  0.0000)
  27 Li     0.373571    0.217857    0.169286    ( 0.0000,  0.0000,  0.0000)

Unit cell:
           periodic     x           y           z      points  spacing
  1. axis:    yes   10.460000    0.000000    0.000000    60     0.1743
  2. axis:    yes    0.000000    6.100000    0.000000    35     0.1743
  3. axis:    yes    0.000000    0.000000    4.740000    27     0.1756

  Lengths:  10.460000   6.100000   4.740000
  Angles:   90.000000  90.000000  90.000000

Effective grid spacing dv^(1/3) = 0.1747

                     log10-error:           total        iterations:
           time      wfs    density  force  energy       poisson  magmom
iter:   1  11:06:41                       -220.687626             +0.0000
iter:   2  11:07:20  -0.64  -0.92         -235.505807             +0.0000
iter:   3  11:07:59  -0.40  -0.96         -226.169160             -0.0000
iter:   4  11:08:39  -1.41  -1.29         -225.887824             +0.0000
iter:   5  11:09:18  -1.19  -1.38         -227.587650             +0.0000
iter:   6  11:09:58  -1.39  -1.51         -225.828936             +0.0000
iter:   7  11:10:37  -2.57  -2.06         -225.898464             +0.0000
iter:   8  11:11:16  -2.23  -2.01         -225.642901             -0.0000
iter:   9  11:11:56  -2.68  -2.08         -225.546386             +0.0000
iter:  10  11:12:35  -3.54  -2.94         -225.545517             +0.0000
iter:  11  11:13:14  -3.95  -3.00         -225.547243             +0.0000
iter:  12  11:13:54  -4.30  -3.22         -225.547410             +0.0000
iter:  13  11:14:33  -5.37  -3.36         -225.547304             -0.0000
iter:  14  11:15:13  -5.19  -3.44         -225.547164             -0.0000
iter:  15  11:15:52  -5.36  -3.60         -225.547074             -0.0000
iter:  16  11:16:32  -6.33  -3.69         -225.547060             +0.0000
iter:  17  11:17:11  -6.27  -3.76         -225.547079             -0.0000
iter:  18  11:17:51  -6.72  -3.82         -225.547079             -0.0000
iter:  19  11:18:30  -5.83  -3.83         -225.547044             -0.0000
iter:  20  11:19:09  -7.04  -4.40         -225.547040             -0.0000
iter:  21  11:19:59  -7.92  -4.62         -225.547038             -0.0000
iter:  22  11:20:39  -7.18  -4.68         -225.547037             +0.0000
iter:  23  11:21:29  -7.62  -4.70    -2.80-225.547037             +0.0000
iter:  24  11:22:19  -8.45  -4.86    -3.17-225.547037             +0.0000
iter:  25  11:23:09  -7.65  -4.88    -2.42-225.547037             +0.0000
iter:  26  11:23:59  -7.94  -4.88    -2.77-225.547037             +0.0000
iter:  27  11:24:49  -8.70  -5.29    -3.53-225.547037             +0.0000
iter:  28  11:25:39  -8.95  -5.28    -3.33-225.547037             +0.0000
iter:  29  11:26:29  -8.45  -5.38    -3.10-225.547037             +0.0000
iter:  30  11:27:19  -9.72  -5.80    -4.58-225.547037             +0.0000
iter:  31  11:28:09  -8.94  -5.82    -3.71-225.547037             -0.0000
iter:  32  11:28:59  -9.88  -5.93    -3.79-225.547037             +0.0000
iter:  33  11:29:49 -10.07  -6.28    -4.47-225.547037             +0.0000
iter:  34  11:30:39 -10.06  -6.34    -3.91-225.547037             +0.0000
iter:  35  11:31:29 -11.10  -6.54    -4.56-225.547037             +0.0000
iter:  36  11:32:19 -10.44  -6.62    -4.20-225.547037             +0.0000
iter:  37  11:33:09 -10.66  -6.62    -4.17-225.547037             +0.0000
iter:  38  11:33:59 -11.89  -7.08    -4.84-225.547037             +0.0000
iter:  39  11:34:49 -11.98  -7.28    -4.96-225.547037             +0.0000
iter:  40  11:35:38 -13.17  -7.69    -5.48-225.547037             +0.0000
iter:  41  11:36:28 -13.86  -7.74    -5.80-225.547037             +0.0000
iter:  42  11:37:18 -13.80  -7.77    -5.95-225.547037             +0.0000
iter:  43  11:38:08 -13.96  -7.81    -5.57-225.547037             +0.0000
iter:  44  11:38:58 -14.70  -7.97    -6.15-225.547037             +0.0000

Converged after 44 iterations.

Dipole moment: (13.160591, 1.712707, -5.513862) |e|*Ang

Total magnetic moment: (0.000000, 0.000000, 0.000000)
Local magnetic moments:
   0 O  ( 0.000000,  0.000000,  0.001039)
   1 O  ( 0.000000,  0.000000, -0.000968)
   2 O  ( 0.000000,  0.000000, -0.001065)
   3 O  ( 0.000000,  0.000000,  0.001042)
   4 O  ( 0.000000,  0.000000, -0.001076)
   5 O  ( 0.000000,  0.000000,  0.001047)
   6 O  ( 0.000000,  0.000000,  0.000866)
   7 O  ( 0.000000,  0.000000, -0.001098)
   8 O  ( 0.000000,  0.000000,  0.019766)
   9 O  ( 0.000000,  0.000000, -0.019817)
  10 O  ( 0.000000,  0.000000, -0.019776)
  11 O  ( 0.000000,  0.000000,  0.019717)
  12 Mn ( 0.000000,  0.000000,  4.601817)
  13 Mn ( 0.000000,  0.000000, -4.601319)
  14 Mn ( 0.000000,  0.000000, -4.601527)
  15 Mn ( 0.000000,  0.000000,  4.601594)
  16 P  ( 0.000000,  0.000000,  0.001172)
  17 P  ( 0.000000,  0.000000, -0.001299)
  18 P  ( 0.000000,  0.000000, -0.001304)
  19 P  ( 0.000000,  0.000000,  0.001286)
  20 O  ( 0.000000,  0.000000,  0.018076)
  21 O  ( 0.000000,  0.000000, -0.018079)
  22 O  ( 0.000000,  0.000000, -0.018077)
  23 O  ( 0.000000,  0.000000,  0.018066)
  24 Li ( 0.000000,  0.000000, -0.000000)
  25 Li ( 0.000000,  0.000000,  0.000000)
  26 Li ( 0.000000,  0.000000,  0.000001)
  27 Li ( 0.000000,  0.000000, -0.000006)

Energy contributions relative to reference atoms: (reference = -196157.275402)

Kinetic:       +243.192384
Potential:     -215.629942
External:        +0.000000
XC:            -255.023950
Entropy (-ST):   -0.000000
Local:           +1.914470
--------------------------
Free energy:   -225.547037
Extrapolated:  -225.547037

Spin contamination: 9.747554 electrons
Showing only first 2 kpts
                      Up                     Down
 Kpt  Band  Eigenvalues  Occupancy  Eigenvalues  Occupancy
  0    88      3.92095    0.00694      3.92434    0.00694
  0    89      3.96952    0.00694      3.97302    0.00694
  0    90      8.66754    0.00000      8.66391    0.00000
  0    91      8.68637    0.00000      8.68572    0.00000

  1    88      3.91744    0.00694      3.92063    0.00694
  1    89      3.97272    0.00694      3.97675    0.00694
  1    90      8.51281    0.00000      8.51098    0.00000
  1    91      8.52887    0.00000      8.52922    0.00000


Fermi level: 5.31843

Gap: 3.778 eV
Transition (v -> c):
  (s=1, k=94, n=89, [0.08, 0.42, 0.12]) -> (s=0, k=62, n=90, [-0.08, 0.08, 0.12])
Writing to born-0.01-6z-.gpw (mode='all')

Timing:                              incl.     excl.
-----------------------------------------------------------
Hamiltonian:                         0.445     0.003   0.0% |
 Atomic:                             0.099     0.099   0.0% |
  XC Correction:                     0.000     0.000   0.0% |
 Calculate atomic Hamiltonians:      0.176     0.176   0.0% |
 Communicate:                        0.001     0.001   0.0% |
 Initialize Hamiltonian:             0.000     0.000   0.0% |
 Poisson:                            0.002     0.002   0.0% |
 XC 3D grid:                         0.164     0.164   0.0% |
LCAO initialization:               135.337     0.679   0.0% |
 LCAO eigensolver:                  34.057     0.003   0.0% |
  Calculate projections:             0.057     0.057   0.0% |
  DenseAtomicCorrection:             0.082     0.082   0.0% |
  Distribute overlap matrix:         0.385     0.385   0.0% |
  Orbital Layouts:                   0.363     0.363   0.0% |
  Potential matrix:                 33.080    33.080   0.7% |
  Sum over cells:                    0.087     0.087   0.0% |
 LCAO to grid:                      98.330    98.330   2.0% ||
 Set positions (LCAO WFS):           2.271     0.345   0.0% |
  Basic WFS set positions:           0.001     0.001   0.0% |
  Basis functions set positions:     0.000     0.000   0.0% |
  P tci:                             1.057     1.057   0.0% |
  ST tci:                            0.663     0.663   0.0% |
  mktci:                             0.205     0.205   0.0% |
PWDescriptor:                        0.025     0.025   0.0% |
SCF-cycle:                        1981.799     8.786   0.2% |
 Davidson:                        1641.129   536.024  10.9% |---|
  Apply H:                         114.164   110.583   2.3% ||
   HMM T:                            3.581     3.581   0.1% |
  Subspace diag:                   241.559     0.139   0.0% |
   calc_h_matrix:                  156.392    43.470   0.9% |
    Apply H:                       112.923   109.435   2.2% ||
     HMM T:                          3.487     3.487   0.1% |
   diagonalize:                      5.359     5.359   0.1% |
   rotate_psi:                      79.668    79.668   1.6% ||
  calc. matrices:                  514.122   290.740   5.9% |-|
   Apply H:                        223.382   216.745   4.4% |-|
    HMM T:                           6.636     6.636   0.1% |
  diagonalize:                      73.286    73.286   1.5% ||
  rotate_psi:                      161.974   161.974   3.3% ||
 Density:                           64.648     0.001   0.0% |
  Atomic density matrices:           1.102     1.102   0.0% |
  Mix:                              10.495    10.495   0.2% |
  Multipole moments:                 0.025     0.025   0.0% |
  Pseudo density:                   53.025    53.023   1.1% |
   Symmetrize density:               0.001     0.001   0.0% |
 Forces:                           244.383   244.383   5.0% |-|
 Hamiltonian:                       18.433     0.109   0.0% |
  Atomic:                            2.515     2.515   0.1% |
   XC Correction:                    0.000     0.000   0.0% |
  Calculate atomic Hamiltonians:     8.008     8.008   0.2% |
  Communicate:                       0.067     0.067   0.0% |
  Poisson:                           0.073     0.073   0.0% |
  XC 3D grid:                        7.661     7.661   0.2% |
 Orthonormalize:                     4.420     0.004   0.0% |
  calc_s_matrix:                     0.525     0.525   0.0% |
  inverse-cholesky:                  0.054     0.054   0.0% |
  projections:                       2.905     2.905   0.1% |
  rotate_psi_s:                      0.932     0.932   0.0% |
Set symmetry:                        0.000     0.000   0.0% |
Other:                            2790.979  2790.979  56.9% |----------------------|
-----------------------------------------------------------
Total:                                      4908.586 100.0%

Memory usage: 12.72 GiB
Date: Mon Mar 22 12:25:28 2021
