
  ___ ___ ___ _ _ _  
 |   |   |_  | | | | 
 | | | | | . | | | | 
 |__ |  _|___|_____|  20.10.1b1
 |___|_|             

User:   madkru@g031.nifl.fysik.dtu.dk
Date:   Sun Mar 21 14:18:45 2021
Arch:   x86_64
Pid:    47913
Python: 3.7.4
gpaw:   /home/niflheim/madkru/venv_folder/gpaw/gpaw (d0d1ca1c71)
_gpaw:  /home/niflheim/madkru/venv_folder/gpaw/build/lib.linux-x86_64-sandybridge-3.7/
        _gpaw.cpython-37m-x86_64-linux-gnu.so (4fd39e8b1e)
ase:    /home/niflheim/madkru/venv_folder/ase/ase (version 3.21.0b1-7e6c206a91)
numpy:  /home/niflheim/madkru/venv_folder/lib/python3.7/site-packages/numpy (version 1.19.4)
scipy:  /home/niflheim/madkru/venv_folder/lib/python3.7/site-packages/scipy (version 1.5.4)
libxc:  4.3.4
units:  Angstrom and eV
cores: 32
OMP_NUM_THREADS: 1

Input parameters:
  convergence: {bands: occupied,
                density: 0.0001,
                eigenstates: 4e-08,
                energy: 0.0005,
                forces: 1e-06}
  kpts: [6 6 4]
  mode: {ecut: 600.0,
         gammacentered: False,
         name: pw}
  occupations: {fixmagmom: False,
                name: fermi-dirac,
                width: 0.001}
  setups: {Mn: :d,3.0}
  symmetry: {point_group: False,
             time_reversal: False}

System changes: positions, numbers, cell, pbc, initial_charges, initial_magmoms 

Initialize ...

O-setup:
  name: Oxygen
  id: 9b9d51c344dea68c822856295a461509
  Z: 8.0
  valence: 6
  core: 2
  charge: 0.0
  file: /home/modules/software/GPAW-setups/0.9.20000/O.LDA.gz
  compensation charges: gauss, rc=0.21, lmax=2
  cutoffs: 1.17(filt), 0.83(core),
  valence states:
                energy  radius
    2s(2.00)   -23.752   0.688
    2p(4.00)    -9.195   0.598
    *s           3.459   0.688
    *p          18.016   0.598
    *d           0.000   0.619

  Using partial waves for O as LCAO basis

Mn-setup:
  name: Manganese
  id: 0d715a8018be061a6e9ea6f2d364ac92
  Z: 25.0
  valence: 15
  core: 10
  charge: 0.0
  Hubbard U: 3.000000 eV (l=2, scale=True)
  file: /home/modules/software/GPAW-setups/0.9.20000/Mn.LDA.gz
  compensation charges: gauss, rc=0.38, lmax=2
  cutoffs: 2.14(filt), 0.86(core),
  valence states:
                energy  radius
    3s(2.00)   -85.387   1.275
    4s(2.00)    -5.282   1.275
    3p(6.00)   -54.493   1.281
    4p(0.00)    -1.471   1.281
    3d(5.00)    -7.009   1.138
    *d          20.203   1.138

  Using partial waves for Mn as LCAO basis

P-setup:
  name: Phosphorus
  id: a5561c299094968922a179ab894d2e2d
  Z: 15.0
  valence: 5
  core: 10
  charge: 0.0
  file: /home/modules/software/GPAW-setups/0.9.20000/P.LDA.gz
  compensation charges: gauss, rc=0.30, lmax=2
  cutoffs: 1.69(filt), 1.81(core),
  valence states:
                energy  radius
    3s(2.00)   -14.015   0.953
    3p(3.00)    -5.596   0.953
    *s          13.197   0.953
    *p          21.615   0.953
    *d           0.000   0.953

  Using partial waves for P as LCAO basis

Li-setup:
  name: Lithium
  id: b73562207f97a71b6967473b66fe8b65
  Z: 3.0
  valence: 1
  core: 2
  charge: 0.0
  file: /home/modules/software/GPAW-setups/0.9.20000/Li.LDA.gz
  compensation charges: gauss, rc=0.33, lmax=2
  cutoffs: 1.91(filt), 2.55(core),
  valence states:
                energy  radius
    2s(1.00)    -2.874   1.058
    2p(0.00)    -1.126   1.058
    *s          24.338   1.058

  Using partial waves for Li as LCAO basis

Reference energy: -196157.275402

Spin-polarized calculation.
Magnetic moment: 0.000000

Convergence criteria:
  Maximum total energy change: 0.0005 eV / electron
  Maximum integral of absolute density change: 0.0001 electrons
  Maximum integral of absolute eigenstate change: 4e-08 eV^2
  Maximum change in atomic force: 1e-06 eV / Ang
  Maximum number of iterations: 333

Symmetries present (total): 1

  ( 1  0  0)
  ( 0  1  0)
  ( 0  0  1)

144 k-points: 6 x 6 x 4 Monkhorst-Pack grid
144 k-points in the irreducible part of the Brillouin zone
       k-points in crystal coordinates                weights
   0:    -0.41666667   -0.41666667   -0.37500000          1/144
   1:    -0.41666667   -0.41666667   -0.12500000          1/144
   2:    -0.41666667   -0.41666667    0.12500000          1/144
   3:    -0.41666667   -0.41666667    0.37500000          1/144
   4:    -0.41666667   -0.25000000   -0.37500000          1/144
   5:    -0.41666667   -0.25000000   -0.12500000          1/144
   6:    -0.41666667   -0.25000000    0.12500000          1/144
   7:    -0.41666667   -0.25000000    0.37500000          1/144
   8:    -0.41666667   -0.08333333   -0.37500000          1/144
   9:    -0.41666667   -0.08333333   -0.12500000          1/144
          ...
 143:     0.41666667    0.41666667    0.37500000          1/144

Wave functions: Plane wave expansion
  Cutoff energy: 600.000 eV
  Number of coefficients (min, max): 10068, 10125
  Pulay-stress correction: 0.000000 eV/Ang^3 (de/decut=0.000000)
  Using FFTW library
  ScaLapack parameters: grid=1x1, blocksize=None
  Wavefunction extrapolation:
    Improved wavefunction reuse through dual PAW basis 

  Fermi-Dirac: width=0.0010 eV

Eigensolver
   Davidson(niter=2, smin=None, normalize=True) 

Densities:
  Coarse grid: 60*35*27 grid
  Fine grid: 120*70*54 grid
  Total Charge: 0.000000 

Density mixing:
  Method: difference
  Backend: pulay
  Linear mixing parameter: 0.05
  Mixing with 5 old densities
  Damping of long wave oscillations: 50 

Hamiltonian:
  XC and Coulomb potentials evaluated on a 120*70*54 grid
  Using the LDA Exchange-Correlation functional
 

Memory estimate:
  Process memory now: 12482.20 MiB
  Calculator: 375.55 MiB
    Density: 20.02 MiB
      Arrays: 7.57 MiB
      Localized functions: 9.42 MiB
      Mixer: 3.03 MiB
    Hamiltonian: 5.90 MiB
      Arrays: 5.62 MiB
      XC: 0.00 MiB
      Poisson: 0.00 MiB
      vbar: 0.27 MiB
    Wavefunctions: 349.64 MiB
      Arrays psit_nG: 311.46 MiB
      Eigensolver: 19.99 MiB
      Projections: 5.41 MiB
      Projectors: 9.73 MiB
      PW-descriptor: 3.03 MiB

Total number of cores used: 32
Parallelization over k-points: 16
Domain decomposition: 2 x 1 x 1

Number of atoms: 28
Number of atomic orbitals: 148
Number of bands in calculation: 112
Number of valence electrons: 180
Bands to converge: occupied

... initialized

Initializing position-dependent things.

Density initialized from atomic densities
Creating initial wave functions:
  112 bands from LCAO basis set

     .-------------------------.  
    /|         OP              |  
   / |O            O        O  |  
  /  |       O            O  P |  
 *   |O    Mn      O           |  
 |   |          OLi          O |  
 |   P--O--------------Mn------.  
 |  /          Li    O  Mn  O /   
 | /Li O          PO         /    
 |/       Mn                /     
 *Li-----------------------*      

Positions:
   0 O     -1.330281   -2.539252   -1.168500    ( 0.0000,  0.0000,  0.0000)
   1 O     -3.152392    2.974909    1.200956    ( 0.0000,  0.0000,  0.0000)
   2 O      2.087234    0.510133    1.506966    ( 0.0000,  0.0000,  0.0000)
   3 O      3.899724   -0.074476   -0.862491    ( 0.0000,  0.0000,  0.0000)
   4 O      2.077424    2.974966    1.507072    ( 0.0000,  0.0000,  0.0000)
   5 O      3.899535   -2.539195   -0.862384    ( 0.0000,  0.0000,  0.0000)
   6 O     -1.330092   -0.074418   -1.168395    ( 0.0000,  0.0000,  0.0000)
   7 O     -3.152581    0.510191    1.201063    ( 0.0000,  0.0000,  0.0000)
   8 O     -4.389675   -1.306969   -0.813152    ( 0.0000,  0.0000,  0.0000)
   9 O     -0.093301    1.742683    1.556268    ( 0.0000,  0.0000,  0.0000)
  10 O      5.136817    1.742683    1.151723    ( 0.0000,  0.0000,  0.0000)
  11 O      0.840444   -1.306969   -1.217697    ( 0.0000,  0.0000,  0.0000)
  12 Mn    -2.557192   -1.307258    0.273595    ( 0.0000,  0.0000,  1.0000)
  13 Mn    -1.925535    1.742972   -2.096623    ( 0.0000,  0.0000, -1.0000)
  14 Mn     3.304335    1.742972    0.064976    ( 0.0000,  0.0000, -1.0000)
  15 Mn     2.672678   -1.307258    2.435195    ( 0.0000,  0.0000,  1.0000)
  16 P     -0.597175   -1.306854   -1.801474    ( 0.0000,  0.0000,  0.0000)
  17 P     -3.885565    1.742568    0.568028    ( 0.0000,  0.0000,  0.0000)
  18 P      1.344318    1.742568    2.140045    ( 0.0000,  0.0000,  0.0000)
  19 P      4.632708   -1.306854   -0.229456    ( 0.0000,  0.0000,  0.0000)
  20 O     -0.636957   -1.306861    1.403074    ( 0.0000,  0.0000,  0.0000)
  21 O     -3.845824    1.742575   -0.967462    ( 0.0000,  0.0000,  0.0000)
  22 O      1.384100    1.742576   -1.064503    ( 0.0000,  0.0000,  0.0000)
  23 O      4.592967   -1.306861    1.306033    ( 0.0000,  0.0000,  0.0000)
  24 Li    -4.856429   -2.832143   -2.200714    ( 0.0000,  0.0000,  0.0000)
  25 Li     0.373571   -2.832143    0.169286    ( 0.0000,  0.0000,  0.0000)
  26 Li    -4.856429    0.217857   -2.200714    ( 0.0000,  0.0000,  0.0000)
  27 Li     0.373571    0.217857    0.169286    ( 0.0000,  0.0000,  0.0000)

Unit cell:
           periodic     x           y           z      points  spacing
  1. axis:    yes   10.460000    0.000000    0.000000    60     0.1743
  2. axis:    yes    0.000000    6.100000    0.000000    35     0.1743
  3. axis:    yes    0.000000    0.000000    4.740000    27     0.1756

  Lengths:  10.460000   6.100000   4.740000
  Angles:   90.000000  90.000000  90.000000

Effective grid spacing dv^(1/3) = 0.1747

                     log10-error:           total        iterations:
           time      wfs    density  force  energy       poisson  magmom
iter:   1  14:21:44                       -220.682188             +0.0000
iter:   2  14:22:24  -0.64  -0.92         -235.490033             +0.0000
iter:   3  14:23:03  -0.40  -0.96         -226.167177             -0.0000
iter:   4  14:23:42  -1.41  -1.29         -225.887832             +0.0000
iter:   5  14:24:22  -1.19  -1.38         -227.587594             +0.0000
iter:   6  14:25:01  -1.40  -1.51         -225.828260             +0.0000
iter:   7  14:25:40  -2.57  -2.06         -225.898701             +0.0000
iter:   8  14:26:20  -2.23  -2.01         -225.639967             -0.0000
iter:   9  14:26:59  -2.68  -2.09         -225.546429             +0.0000
iter:  10  14:27:39  -3.56  -2.95         -225.545839             +0.0000
iter:  11  14:28:18  -3.95  -3.00         -225.547096             +0.0000
iter:  12  14:28:58  -4.29  -3.22         -225.547291             +0.0000
iter:  13  14:29:37  -5.38  -3.36         -225.547178             -0.0000
iter:  14  14:30:17  -5.20  -3.44         -225.547014             -0.0000
iter:  15  14:30:56  -5.39  -3.60         -225.546939             -0.0000
iter:  16  14:31:36  -6.30  -3.67         -225.546924             +0.0000
iter:  17  14:32:15  -6.19  -3.74         -225.546943             -0.0000
iter:  18  14:32:55  -6.76  -3.81         -225.546944             -0.0000
iter:  19  14:33:34  -5.85  -3.82         -225.546905             -0.0000
iter:  20  14:34:13  -6.83  -4.32         -225.546905             -0.0000
iter:  21  14:34:53  -6.62  -4.55         -225.546898             -0.0000
iter:  22  14:35:43  -7.45  -4.64         -225.546897             +0.0000
iter:  23  14:36:33  -8.21  -5.03    -2.77-225.546897             -0.0000
iter:  24  14:37:23  -8.67  -5.32    -3.65-225.546898             -0.0000
iter:  25  14:38:13  -9.02  -5.40    -3.04-225.546898             -0.0000
iter:  26  14:39:03  -9.57  -5.64    -3.55-225.546898             -0.0000
iter:  27  14:39:52  -9.18  -5.70    -3.41-225.546898             -0.0000
iter:  28  14:40:42  -9.93  -5.79    -4.05-225.546898             -0.0000
iter:  29  14:41:32  -9.62  -5.84    -3.70-225.546898             -0.0000
iter:  30  14:42:22 -10.13  -6.23    -4.21-225.546898             -0.0000
iter:  31  14:43:12 -11.05  -6.28    -4.26-225.546898             -0.0000
iter:  32  14:44:02 -11.03  -6.36    -4.78-225.546898             -0.0000
iter:  33  14:44:52 -10.86  -6.45    -4.14-225.546898             -0.0000
iter:  34  14:45:42 -10.43  -6.49    -4.22-225.546898             -0.0000
iter:  35  14:46:32 -11.64  -6.51    -4.90-225.546898             -0.0000
iter:  36  14:47:22 -10.59  -6.58    -4.41-225.546898             -0.0000
iter:  37  14:48:12 -11.61  -6.70    -4.25-225.546898             -0.0000
iter:  38  14:49:02 -12.61  -7.05    -5.42-225.546898             -0.0000
iter:  39  14:49:52 -12.29  -7.07    -4.61-225.546898             -0.0000
iter:  40  14:50:42 -12.99  -7.22    -4.94-225.546898             -0.0000
iter:  41  14:51:32 -12.59  -7.39    -5.23-225.546898             -0.0000
iter:  42  14:52:22 -12.71  -7.42    -5.40-225.546898             -0.0000
iter:  43  14:53:12 -12.78  -7.41    -4.96-225.546898             -0.0000
iter:  44  14:54:02 -14.21  -7.75    -6.61-225.546898             -0.0000

Converged after 44 iterations.

Dipole moment: (13.158892, 1.711603, -5.512873) |e|*Ang

Total magnetic moment: (0.000000, 0.000000, -0.000000)
Local magnetic moments:
   0 O  ( 0.000000,  0.000000,  0.001058)
   1 O  ( 0.000000,  0.000000, -0.001065)
   2 O  ( 0.000000,  0.000000, -0.001096)
   3 O  ( 0.000000,  0.000000,  0.001057)
   4 O  ( 0.000000,  0.000000, -0.001090)
   5 O  ( 0.000000,  0.000000,  0.001092)
   6 O  ( 0.000000,  0.000000,  0.001047)
   7 O  ( 0.000000,  0.000000, -0.001058)
   8 O  ( 0.000000,  0.000000,  0.019812)
   9 O  ( 0.000000,  0.000000, -0.019699)
  10 O  ( 0.000000,  0.000000, -0.019793)
  11 O  ( 0.000000,  0.000000,  0.019760)
  12 Mn ( 0.000000,  0.000000,  4.601524)
  13 Mn ( 0.000000,  0.000000, -4.601586)
  14 Mn ( 0.000000,  0.000000, -4.601213)
  15 Mn ( 0.000000,  0.000000,  4.601193)
  16 P  ( 0.000000,  0.000000,  0.001307)
  17 P  ( 0.000000,  0.000000, -0.001300)
  18 P  ( 0.000000,  0.000000, -0.001324)
  19 P  ( 0.000000,  0.000000,  0.001286)
  20 O  ( 0.000000,  0.000000,  0.018057)
  21 O  ( 0.000000,  0.000000, -0.018094)
  22 O  ( 0.000000,  0.000000, -0.018061)
  23 O  ( 0.000000,  0.000000,  0.018105)
  24 Li ( 0.000000,  0.000000, -0.000000)
  25 Li ( 0.000000,  0.000000,  0.000002)
  26 Li ( 0.000000,  0.000000, -0.000000)
  27 Li ( 0.000000,  0.000000, -0.000003)

Energy contributions relative to reference atoms: (reference = -196157.275402)

Kinetic:       +242.684248
Potential:     -215.242845
External:        +0.000000
XC:            -254.903925
Entropy (-ST):   -0.000000
Local:           +1.915624
--------------------------
Free energy:   -225.546898
Extrapolated:  -225.546898

Spin contamination: 9.747081 electrons
Showing only first 2 kpts
                      Up                     Down
 Kpt  Band  Eigenvalues  Occupancy  Eigenvalues  Occupancy
  0    88      3.92591    0.00694      3.92258    0.00694
  0    89      3.97536    0.00694      3.97349    0.00694
  0    90      8.67086    0.00000      8.66760    0.00000
  0    91      8.68699    0.00000      8.69254    0.00000

  1    88      3.92253    0.00694      3.91895    0.00694
  1    89      3.97911    0.00694      3.97738    0.00694
  1    90      8.51606    0.00000      8.51341    0.00000
  1    91      8.53404    0.00000      8.53502    0.00000


Fermi level: 5.31884

Gap: 3.775 eV
Transition (v -> c):
  (s=0, k=93, n=89, [0.08, 0.42, -0.12]) -> (s=1, k=82, n=90, [0.08, -0.08, 0.12])
Writing to born-0.01-2x+.gpw (mode='all')

Timing:                              incl.     excl.
-----------------------------------------------------------
Hamiltonian:                         0.415     0.002   0.0% |
 Atomic:                             0.057     0.057   0.0% |
  XC Correction:                     0.000     0.000   0.0% |
 Calculate atomic Hamiltonians:      0.178     0.178   0.0% |
 Communicate:                        0.002     0.002   0.0% |
 Initialize Hamiltonian:             0.000     0.000   0.0% |
 Poisson:                            0.002     0.002   0.0% |
 XC 3D grid:                         0.173     0.173   0.0% |
LCAO initialization:               134.304     0.678   0.0% |
 LCAO eigensolver:                  33.994     0.002   0.0% |
  Calculate projections:             0.057     0.057   0.0% |
  DenseAtomicCorrection:             0.082     0.082   0.0% |
  Distribute overlap matrix:         0.006     0.006   0.0% |
  Orbital Layouts:                   0.362     0.362   0.0% |
  Potential matrix:                 33.384    33.384   0.7% |
  Sum over cells:                    0.100     0.100   0.0% |
 LCAO to grid:                      97.371    97.371   2.0% ||
 Set positions (LCAO WFS):           2.261     0.344   0.0% |
  Basic WFS set positions:           0.001     0.001   0.0% |
  Basis functions set positions:     0.000     0.000   0.0% |
  P tci:                             1.050     1.050   0.0% |
  ST tci:                            0.659     0.659   0.0% |
  mktci:                             0.205     0.205   0.0% |
PWDescriptor:                        0.025     0.025   0.0% |
SCF-cycle:                        1980.418     2.480   0.1% |
 Davidson:                        1646.087   534.577  11.0% |---|
  Apply H:                         115.855   112.349   2.3% ||
   HMM T:                            3.506     3.506   0.1% |
  Subspace diag:                   243.664     0.140   0.0% |
   calc_h_matrix:                  158.266    43.540   0.9% |
    Apply H:                       114.726   111.300   2.3% ||
     HMM T:                          3.426     3.426   0.1% |
   diagonalize:                      5.394     5.394   0.1% |
   rotate_psi:                      79.864    79.864   1.6% ||
  calc. matrices:                  516.053   290.899   6.0% |-|
   Apply H:                        225.154   218.771   4.5% |-|
    HMM T:                           6.383     6.383   0.1% |
  diagonalize:                      73.522    73.522   1.5% ||
  rotate_psi:                      162.417   162.417   3.3% ||
 Density:                           64.545     0.001   0.0% |
  Atomic density matrices:           1.136     1.136   0.0% |
  Mix:                              10.521    10.521   0.2% |
  Multipole moments:                 0.026     0.026   0.0% |
  Pseudo density:                   52.862    52.860   1.1% |
   Symmetrize density:               0.001     0.001   0.0% |
 Forces:                           244.581   244.581   5.0% |-|
 Hamiltonian:                       18.322     0.109   0.0% |
  Atomic:                            2.584     2.584   0.1% |
   XC Correction:                    0.000     0.000   0.0% |
  Calculate atomic Hamiltonians:     7.900     7.900   0.2% |
  Communicate:                       0.058     0.058   0.0% |
  Poisson:                           0.074     0.074   0.0% |
  XC 3D grid:                        7.597     7.597   0.2% |
 Orthonormalize:                     4.404     0.004   0.0% |
  calc_s_matrix:                     0.522     0.522   0.0% |
  inverse-cholesky:                  0.054     0.054   0.0% |
  projections:                       2.891     2.891   0.1% |
  rotate_psi_s:                      0.933     0.933   0.0% |
Set symmetry:                        0.000     0.000   0.0% |
Other:                            2742.521  2742.521  56.5% |----------------------|
-----------------------------------------------------------
Total:                                      4857.683 100.0%

Memory usage: 12.22 GiB
Date: Sun Mar 21 15:39:42 2021
