
  ___ ___ ___ _ _ _  
 |   |   |_  | | | | 
 | | | | | . | | | | 
 |__ |  _|___|_____|  20.10.1b1
 |___|_|             

User:   madkru@g006.nifl.fysik.dtu.dk
Date:   Wed Mar 24 16:43:12 2021
Arch:   x86_64
Pid:    12017
Python: 3.7.4
gpaw:   /home/niflheim/madkru/venv_folder/gpaw/gpaw (d224efde0f)
_gpaw:  /home/niflheim/madkru/venv_folder/gpaw/build/lib.linux-x86_64-sandybridge-3.7/
        _gpaw.cpython-37m-x86_64-linux-gnu.so (4fd39e8b1e)
ase:    /home/niflheim/madkru/venv_folder/ase/ase (version 3.21.0b1-4d5a73cb29)
numpy:  /home/niflheim/madkru/venv_folder/lib/python3.7/site-packages/numpy (version 1.19.4)
scipy:  /home/niflheim/madkru/venv_folder/lib/python3.7/site-packages/scipy (version 1.5.4)
libxc:  4.3.4
units:  Angstrom and eV
cores: 64
OMP_NUM_THREADS: 1

Input parameters:
  convergence: {bands: occupied,
                density: 0.0001,
                eigenstates: 4e-08,
                energy: 0.0005,
                forces: 1e-06}
  kpts: [6 6 4]
  mode: {ecut: 600.0,
         gammacentered: False,
         name: pw}
  occupations: {fixmagmom: False,
                name: fermi-dirac,
                width: 0.001}
  setups: {Mn: :d,3.0}
  symmetry: {point_group: False,
             time_reversal: False}

System changes: positions, numbers, cell, pbc, initial_charges, initial_magmoms 

Initialize ...

O-setup:
  name: Oxygen
  id: 9b9d51c344dea68c822856295a461509
  Z: 8.0
  valence: 6
  core: 2
  charge: 0.0
  file: /home/modules/software/GPAW-setups/0.9.20000/O.LDA.gz
  compensation charges: gauss, rc=0.21, lmax=2
  cutoffs: 1.17(filt), 0.83(core),
  valence states:
                energy  radius
    2s(2.00)   -23.752   0.688
    2p(4.00)    -9.195   0.598
    *s           3.459   0.688
    *p          18.016   0.598
    *d           0.000   0.619

  Using partial waves for O as LCAO basis

Mn-setup:
  name: Manganese
  id: 0d715a8018be061a6e9ea6f2d364ac92
  Z: 25.0
  valence: 15
  core: 10
  charge: 0.0
  Hubbard U: 3.000000 eV (l=2, scale=True)
  file: /home/modules/software/GPAW-setups/0.9.20000/Mn.LDA.gz
  compensation charges: gauss, rc=0.38, lmax=2
  cutoffs: 2.14(filt), 0.86(core),
  valence states:
                energy  radius
    3s(2.00)   -85.387   1.275
    4s(2.00)    -5.282   1.275
    3p(6.00)   -54.493   1.281
    4p(0.00)    -1.471   1.281
    3d(5.00)    -7.009   1.138
    *d          20.203   1.138

  Using partial waves for Mn as LCAO basis

P-setup:
  name: Phosphorus
  id: a5561c299094968922a179ab894d2e2d
  Z: 15.0
  valence: 5
  core: 10
  charge: 0.0
  file: /home/modules/software/GPAW-setups/0.9.20000/P.LDA.gz
  compensation charges: gauss, rc=0.30, lmax=2
  cutoffs: 1.69(filt), 1.81(core),
  valence states:
                energy  radius
    3s(2.00)   -14.015   0.953
    3p(3.00)    -5.596   0.953
    *s          13.197   0.953
    *p          21.615   0.953
    *d           0.000   0.953

  Using partial waves for P as LCAO basis

Li-setup:
  name: Lithium
  id: b73562207f97a71b6967473b66fe8b65
  Z: 3.0
  valence: 1
  core: 2
  charge: 0.0
  file: /home/modules/software/GPAW-setups/0.9.20000/Li.LDA.gz
  compensation charges: gauss, rc=0.33, lmax=2
  cutoffs: 1.91(filt), 2.55(core),
  valence states:
                energy  radius
    2s(1.00)    -2.874   1.058
    2p(0.00)    -1.126   1.058
    *s          24.338   1.058

  Using partial waves for Li as LCAO basis

Reference energy: -196157.275402

Spin-polarized calculation.
Magnetic moment: 0.000000

Convergence criteria:
  Maximum total energy change: 0.0005 eV / electron
  Maximum integral of absolute density change: 0.0001 electrons
  Maximum integral of absolute eigenstate change: 4e-08 eV^2
  Maximum change in atomic force: 1e-06 eV / Ang
  Maximum number of iterations: 333

Symmetries present (total): 1

  ( 1  0  0)
  ( 0  1  0)
  ( 0  0  1)

144 k-points: 6 x 6 x 4 Monkhorst-Pack grid
144 k-points in the irreducible part of the Brillouin zone
       k-points in crystal coordinates                weights
   0:    -0.41666667   -0.41666667   -0.37500000          1/144
   1:    -0.41666667   -0.41666667   -0.12500000          1/144
   2:    -0.41666667   -0.41666667    0.12500000          1/144
   3:    -0.41666667   -0.41666667    0.37500000          1/144
   4:    -0.41666667   -0.25000000   -0.37500000          1/144
   5:    -0.41666667   -0.25000000   -0.12500000          1/144
   6:    -0.41666667   -0.25000000    0.12500000          1/144
   7:    -0.41666667   -0.25000000    0.37500000          1/144
   8:    -0.41666667   -0.08333333   -0.37500000          1/144
   9:    -0.41666667   -0.08333333   -0.12500000          1/144
          ...
 143:     0.41666667    0.41666667    0.37500000          1/144

Wave functions: Plane wave expansion
  Cutoff energy: 600.000 eV
  Number of coefficients (min, max): 10068, 10125
  Pulay-stress correction: 0.000000 eV/Ang^3 (de/decut=0.000000)
  Using FFTW library
  ScaLapack parameters: grid=1x1, blocksize=None
  Wavefunction extrapolation:
    Improved wavefunction reuse through dual PAW basis 

  Fermi-Dirac: width=0.0010 eV

Eigensolver
   Davidson(niter=2, smin=None, normalize=True) 

Densities:
  Coarse grid: 60*35*27 grid
  Fine grid: 120*70*54 grid
  Total Charge: 0.000000 

Density mixing:
  Method: difference
  Backend: pulay
  Linear mixing parameter: 0.05
  Mixing with 5 old densities
  Damping of long wave oscillations: 50 

Hamiltonian:
  XC and Coulomb potentials evaluated on a 120*70*54 grid
  Using the LDA Exchange-Correlation functional
 

Memory estimate:
  Process memory now: 13111.18 MiB
  Calculator: 354.82 MiB
    Density: 10.06 MiB
      Arrays: 3.79 MiB
      Localized functions: 4.71 MiB
      Mixer: 1.56 MiB
    Hamiltonian: 2.95 MiB
      Arrays: 2.82 MiB
      XC: 0.00 MiB
      Poisson: 0.00 MiB
      vbar: 0.14 MiB
    Wavefunctions: 341.80 MiB
      Arrays psit_nG: 311.46 MiB
      Eigensolver: 19.99 MiB
      Projections: 2.71 MiB
      Projectors: 4.87 MiB
      PW-descriptor: 2.77 MiB

Total number of cores used: 64
Parallelization over k-points: 16
Domain decomposition: 2 x 2 x 1

Number of atoms: 28
Number of atomic orbitals: 148
Number of bands in calculation: 112
Number of valence electrons: 180
Bands to converge: occupied

... initialized

Initializing position-dependent things.

Density initialized from atomic densities
Creating initial wave functions:
  112 bands from LCAO basis set

     .-------------------------.  
    /|         OP              |  
   / |O            O        O  |  
  /  |       O            O  P |  
 *   |O    Mn      O           |  
 |   |          OLi          O |  
 |   P--O--------------Mn------.  
 |  /          Li    O  Mn  O /   
 | /LiO           PO         /    
 |/       Mn                /     
 *Li-----------------------*      

Positions:
   0 O     -1.330281   -2.539252   -1.168500    ( 0.0000,  0.0000,  0.0000)
   1 O     -3.152392    2.974909    1.200956    ( 0.0000,  0.0000,  0.0000)
   2 O      2.077234    0.510133    1.506966    ( 0.0000,  0.0000,  0.0000)
   3 O      3.899724   -0.074476   -0.862491    ( 0.0000,  0.0000,  0.0000)
   4 O      2.077424    2.974966    1.507072    ( 0.0000,  0.0000,  0.0000)
   5 O      3.899535   -2.539195   -0.862384    ( 0.0000,  0.0000,  0.0000)
   6 O     -1.330092   -0.074418   -1.168395    ( 0.0000,  0.0000,  0.0000)
   7 O     -3.152581    0.510191    1.201063    ( 0.0000,  0.0000,  0.0000)
   8 O     -4.389675   -1.306969   -0.813152    ( 0.0000,  0.0000,  0.0000)
   9 O     -0.093301    1.742683    1.556268    ( 0.0000,  0.0000,  0.0000)
  10 O      5.136817    1.742683    1.151723    ( 0.0000,  0.0000,  0.0000)
  11 O      0.840444   -1.306969   -1.217697    ( 0.0000,  0.0000,  0.0000)
  12 Mn    -2.557192   -1.307258    0.273595    ( 0.0000,  0.0000,  1.0000)
  13 Mn    -1.925535    1.742972   -2.096623    ( 0.0000,  0.0000, -1.0000)
  14 Mn     3.304335    1.742972    0.064976    ( 0.0000,  0.0000, -1.0000)
  15 Mn     2.672678   -1.307258    2.435195    ( 0.0000,  0.0000,  1.0000)
  16 P     -0.597175   -1.306854   -1.801474    ( 0.0000,  0.0000,  0.0000)
  17 P     -3.885565    1.742568    0.568028    ( 0.0000,  0.0000,  0.0000)
  18 P      1.344318    1.742568    2.140045    ( 0.0000,  0.0000,  0.0000)
  19 P      4.622708   -1.306854   -0.229456    ( 0.0000,  0.0000,  0.0000)
  20 O     -0.636957   -1.306861    1.403074    ( 0.0000,  0.0000,  0.0000)
  21 O     -3.845824    1.742575   -0.967462    ( 0.0000,  0.0000,  0.0000)
  22 O      1.384100    1.742576   -1.064503    ( 0.0000,  0.0000,  0.0000)
  23 O      4.592967   -1.306861    1.306033    ( 0.0000,  0.0000,  0.0000)
  24 Li    -4.856429   -2.832143   -2.200714    ( 0.0000,  0.0000,  0.0000)
  25 Li     0.373571   -2.832143    0.169286    ( 0.0000,  0.0000,  0.0000)
  26 Li    -4.856429    0.217857   -2.200714    ( 0.0000,  0.0000,  0.0000)
  27 Li     0.373571    0.217857    0.169286    ( 0.0000,  0.0000,  0.0000)

Unit cell:
           periodic     x           y           z      points  spacing
  1. axis:    yes   10.460000    0.000000    0.000000    60     0.1743
  2. axis:    yes    0.000000    6.100000    0.000000    35     0.1743
  3. axis:    yes    0.000000    0.000000    4.740000    27     0.1756

  Lengths:  10.460000   6.100000   4.740000
  Angles:   90.000000  90.000000  90.000000

Effective grid spacing dv^(1/3) = 0.1747

                     log10-error:           total        iterations:
           time      wfs    density  force  energy       poisson  magmom
iter:   1  16:44:46                       -220.692586             +0.0000
iter:   2  16:45:08  -0.64  -0.92         -235.507108             +0.0000
iter:   3  16:45:29  -0.40  -0.96         -226.167376             -0.0000
iter:   4  16:45:50  -1.41  -1.29         -225.886086             +0.0000
iter:   5  16:46:12  -1.19  -1.38         -227.582860             +0.0000
iter:   6  16:46:33  -1.39  -1.51         -225.827370             +0.0000
iter:   7  16:46:55  -2.55  -2.06         -225.892265             +0.0000
iter:   8  16:47:16  -2.24  -2.00         -225.660815             -0.0000
iter:   9  16:47:37  -2.63  -2.05         -225.543513             +0.0000
iter:  10  16:47:59  -3.49  -2.91         -225.541683             +0.0000
iter:  11  16:48:20  -3.96  -3.00         -225.544849             +0.0000
iter:  12  16:48:41  -4.29  -3.20         -225.544942             +0.0000
iter:  13  16:49:03  -5.39  -3.36         -225.544867             -0.0000
iter:  14  16:49:24  -5.17  -3.43         -225.544779             +0.0000
iter:  15  16:49:46  -5.31  -3.58         -225.544669             -0.0000
iter:  16  16:50:07  -6.31  -3.71         -225.544633             +0.0000
iter:  17  16:50:28  -6.16  -3.79         -225.544665             -0.0000
iter:  18  16:50:50  -6.73  -3.84         -225.544662             -0.0000
iter:  19  16:51:11  -5.84  -3.86         -225.544630             -0.0000
iter:  20  16:51:33  -6.82  -4.40         -225.544632             -0.0000
iter:  21  16:51:54  -6.92  -4.64         -225.544622             -0.0000
iter:  22  16:52:21  -7.64  -4.87         -225.544623             -0.0000
iter:  23  16:52:47  -8.17  -5.01    -2.87-225.544623             +0.0000
iter:  24  16:53:14  -8.93  -5.26    -3.65-225.544623             -0.0000
iter:  25  16:53:41  -8.48  -5.33    -2.86-225.544623             -0.0000
iter:  26  16:54:08  -8.89  -5.47    -3.51-225.544623             -0.0000
iter:  27  16:54:34  -9.28  -5.54    -3.59-225.544623             -0.0000
iter:  28  16:55:01  -8.83  -5.62    -3.10-225.544623             -0.0000
iter:  29  16:55:28  -9.19  -5.56    -3.33-225.544623             -0.0000
iter:  30  16:55:54 -10.21  -5.82    -3.94-225.544623             -0.0000
iter:  31  16:56:21  -9.68  -5.86    -4.06-225.544623             -0.0000
iter:  32  16:56:48 -10.77  -5.98    -4.38-225.544623             -0.0000
iter:  33  16:57:15 -10.02  -6.01    -3.46-225.544623             -0.0000
iter:  34  16:57:41 -10.66  -6.32    -4.26-225.544623             -0.0000
iter:  35  16:58:08 -11.45  -6.42    -4.50-225.544623             -0.0000
iter:  36  16:58:35 -10.79  -6.47    -4.26-225.544623             -0.0000
iter:  37  16:59:01 -11.06  -6.72    -4.20-225.544623             -0.0000
iter:  38  16:59:28 -11.61  -6.62    -4.29-225.544623             -0.0000
iter:  39  16:59:55 -11.38  -6.95    -4.71-225.544623             -0.0000
iter:  40  17:00:21 -11.95  -6.88    -4.65-225.544623             -0.0000
iter:  41  17:00:48 -12.15  -7.03    -5.15-225.544623             -0.0000
iter:  42  17:01:15 -12.75  -7.12    -5.11-225.544623             -0.0000
iter:  43  17:01:42 -12.69  -7.18    -5.43-225.544623             -0.0000
iter:  44  17:02:08 -12.74  -7.34    -5.01-225.544623             -0.0000
iter:  45  17:02:35 -13.83  -7.82    -5.75-225.544623             -0.0000
iter:  46  17:03:02 -14.20  -7.80    -5.67-225.544623             -0.0000
iter:  47  17:03:29 -14.21  -7.94    -6.13-225.544623             -0.0000

Converged after 47 iterations.

Dipole moment: (13.148783, 1.705564, -5.512844) |e|*Ang

Total magnetic moment: (0.000000, 0.000000, -0.000000)
Local magnetic moments:
   0 O  ( 0.000000,  0.000000,  0.001020)
   1 O  ( 0.000000,  0.000000, -0.001109)
   2 O  ( 0.000000,  0.000000, -0.001037)
   3 O  ( 0.000000,  0.000000,  0.001175)
   4 O  ( 0.000000,  0.000000, -0.001045)
   5 O  ( 0.000000,  0.000000,  0.001183)
   6 O  ( 0.000000,  0.000000,  0.001012)
   7 O  ( 0.000000,  0.000000, -0.001101)
   8 O  ( 0.000000,  0.000000,  0.019927)
   9 O  ( 0.000000,  0.000000, -0.019715)
  10 O  ( 0.000000,  0.000000, -0.019859)
  11 O  ( 0.000000,  0.000000,  0.019824)
  12 Mn ( 0.000000,  0.000000,  4.601429)
  13 Mn ( 0.000000,  0.000000, -4.601596)
  14 Mn ( 0.000000,  0.000000, -4.601632)
  15 Mn ( 0.000000,  0.000000,  4.601456)
  16 P  ( 0.000000,  0.000000,  0.001295)
  17 P  ( 0.000000,  0.000000, -0.001273)
  18 P  ( 0.000000,  0.000000, -0.001302)
  19 P  ( 0.000000,  0.000000,  0.001189)
  20 O  ( 0.000000,  0.000000,  0.017997)
  21 O  ( 0.000000,  0.000000, -0.018082)
  22 O  ( 0.000000,  0.000000, -0.018082)
  23 O  ( 0.000000,  0.000000,  0.018200)
  24 Li ( 0.000000,  0.000000,  0.000010)
  25 Li ( 0.000000,  0.000000, -0.000000)
  26 Li ( 0.000000,  0.000000,  0.000011)
  27 Li ( 0.000000,  0.000000, -0.000000)

Energy contributions relative to reference atoms: (reference = -196157.275402)

Kinetic:       +242.933906
Potential:     -215.427096
External:        +0.000000
XC:            -254.966727
Entropy (-ST):   -0.000000
Local:           +1.915294
--------------------------
Free energy:   -225.544623
Extrapolated:  -225.544623

Spin contamination: 9.747615 electrons
Showing only first 2 kpts
                      Up                     Down
 Kpt  Band  Eigenvalues  Occupancy  Eigenvalues  Occupancy
  0    88      3.92374    0.00694      3.91426    0.00694
  0    89      3.98484    0.00694      3.96840    0.00694
  0    90      8.65369    0.00000      8.65919    0.00000
  0    91      8.69057    0.00000      8.68782    0.00000

  1    88      3.91992    0.00694      3.91109    0.00694
  1    89      3.98851    0.00694      3.97191    0.00694
  1    90      8.49891    0.00000      8.49988    0.00000
  1    91      8.53340    0.00000      8.53583    0.00000


Fermi level: 5.31863

Gap: 3.766 eV
Transition (v -> c):
  (s=0, k=74, n=89, [0.08, -0.42, 0.12]) -> (s=1, k=85, n=90, [0.08, 0.08, -0.12])
Writing to born-0.01-19x-.gpw (mode='all')

Timing:                              incl.     excl.
-----------------------------------------------------------
Hamiltonian:                         0.247     0.002   0.0% |
 Atomic:                             0.057     0.057   0.0% |
  XC Correction:                     0.000     0.000   0.0% |
 Calculate atomic Hamiltonians:      0.094     0.094   0.0% |
 Communicate:                        0.001     0.001   0.0% |
 Initialize Hamiltonian:             0.000     0.000   0.0% |
 Poisson:                            0.001     0.001   0.0% |
 XC 3D grid:                         0.092     0.092   0.0% |
LCAO initialization:                66.575     0.679   0.0% |
 LCAO eigensolver:                  17.401     0.002   0.0% |
  Calculate projections:             0.029     0.029   0.0% |
  DenseAtomicCorrection:             0.043     0.043   0.0% |
  Distribute overlap matrix:         0.016     0.016   0.0% |
  Orbital Layouts:                   0.472     0.472   0.0% |
  Potential matrix:                 16.738    16.738   0.5% |
  Sum over cells:                    0.101     0.101   0.0% |
 LCAO to grid:                      47.197    47.197   1.5% ||
 Set positions (LCAO WFS):           1.297     0.177   0.0% |
  Basic WFS set positions:           0.001     0.001   0.0% |
  Basis functions set positions:     0.000     0.000   0.0% |
  P tci:                             0.518     0.518   0.0% |
  ST tci:                            0.359     0.359   0.0% |
  mktci:                             0.241     0.241   0.0% |
PWDescriptor:                        0.025     0.025   0.0% |
SCF-cycle:                        1148.607     3.879   0.1% |
 Davidson:                         954.091   298.533   9.2% |---|
  Apply H:                          64.372    62.513   1.9% ||
   HMM T:                            1.858     1.858   0.1% |
  Subspace diag:                   137.789     0.142   0.0% |
   calc_h_matrix:                   87.654    23.453   0.7% |
    Apply H:                        64.201    62.364   1.9% ||
     HMM T:                          1.837     1.837   0.1% |
   diagonalize:                      6.771     6.771   0.2% |
   rotate_psi:                      43.222    43.222   1.3% ||
  calc. matrices:                  281.931   157.788   4.9% |-|
   Apply H:                        124.143   120.886   3.7% ||
    HMM T:                           3.257     3.257   0.1% |
  diagonalize:                      78.127    78.127   2.4% ||
  rotate_psi:                       93.340    93.340   2.9% ||
 Density:                           37.955     0.001   0.0% |
  Atomic density matrices:           0.825     0.825   0.0% |
  Mix:                               5.999     5.999   0.2% |
  Multipole moments:                 0.018     0.018   0.0% |
  Pseudo density:                   31.111    31.110   1.0% |
   Symmetrize density:               0.001     0.001   0.0% |
 Forces:                           138.839   138.839   4.3% |-|
 Hamiltonian:                       11.550     0.102   0.0% |
  Atomic:                            2.672     2.672   0.1% |
   XC Correction:                    0.000     0.000   0.0% |
  Calculate atomic Hamiltonians:     4.374     4.374   0.1% |
  Communicate:                       0.074     0.074   0.0% |
  Poisson:                           0.036     0.036   0.0% |
  XC 3D grid:                        4.292     4.292   0.1% |
 Orthonormalize:                     2.293     0.003   0.0% |
  calc_s_matrix:                     0.264     0.264   0.0% |
  inverse-cholesky:                  0.078     0.078   0.0% |
  projections:                       1.473     1.473   0.0% |
  rotate_psi_s:                      0.474     0.474   0.0% |
Set symmetry:                        0.000     0.000   0.0% |
Other:                            2023.253  2023.253  62.5% |------------------------|
-----------------------------------------------------------
Total:                                      3238.707 100.0%

Memory usage: 12.81 GiB
Date: Wed Mar 24 17:37:11 2021
