
  ___ ___ ___ _ _ _  
 |   |   |_  | | | | 
 | | | | | . | | | | 
 |__ |  _|___|_____|  20.10.1b1
 |___|_|             

User:   madkru@g006.nifl.fysik.dtu.dk
Date:   Thu Mar 25 00:06:51 2021
Arch:   x86_64
Pid:    12017
Python: 3.7.4
gpaw:   /home/niflheim/madkru/venv_folder/gpaw/gpaw (d224efde0f)
_gpaw:  /home/niflheim/madkru/venv_folder/gpaw/build/lib.linux-x86_64-sandybridge-3.7/
        _gpaw.cpython-37m-x86_64-linux-gnu.so (4fd39e8b1e)
ase:    /home/niflheim/madkru/venv_folder/ase/ase (version 3.21.0b1-4d5a73cb29)
numpy:  /home/niflheim/madkru/venv_folder/lib/python3.7/site-packages/numpy (version 1.19.4)
scipy:  /home/niflheim/madkru/venv_folder/lib/python3.7/site-packages/scipy (version 1.5.4)
libxc:  4.3.4
units:  Angstrom and eV
cores: 64
OMP_NUM_THREADS: 1

Input parameters:
  convergence: {bands: occupied,
                density: 0.0001,
                eigenstates: 4e-08,
                energy: 0.0005,
                forces: 1e-06}
  kpts: [6 6 4]
  mode: {ecut: 600.0,
         gammacentered: False,
         name: pw}
  occupations: {fixmagmom: False,
                name: fermi-dirac,
                width: 0.001}
  setups: {Mn: :d,3.0}
  symmetry: {point_group: False,
             time_reversal: False}

System changes: positions, numbers, cell, pbc, initial_charges, initial_magmoms 

Initialize ...

O-setup:
  name: Oxygen
  id: 9b9d51c344dea68c822856295a461509
  Z: 8.0
  valence: 6
  core: 2
  charge: 0.0
  file: /home/modules/software/GPAW-setups/0.9.20000/O.LDA.gz
  compensation charges: gauss, rc=0.21, lmax=2
  cutoffs: 1.17(filt), 0.83(core),
  valence states:
                energy  radius
    2s(2.00)   -23.752   0.688
    2p(4.00)    -9.195   0.598
    *s           3.459   0.688
    *p          18.016   0.598
    *d           0.000   0.619

  Using partial waves for O as LCAO basis

Mn-setup:
  name: Manganese
  id: 0d715a8018be061a6e9ea6f2d364ac92
  Z: 25.0
  valence: 15
  core: 10
  charge: 0.0
  Hubbard U: 3.000000 eV (l=2, scale=True)
  file: /home/modules/software/GPAW-setups/0.9.20000/Mn.LDA.gz
  compensation charges: gauss, rc=0.38, lmax=2
  cutoffs: 2.14(filt), 0.86(core),
  valence states:
                energy  radius
    3s(2.00)   -85.387   1.275
    4s(2.00)    -5.282   1.275
    3p(6.00)   -54.493   1.281
    4p(0.00)    -1.471   1.281
    3d(5.00)    -7.009   1.138
    *d          20.203   1.138

  Using partial waves for Mn as LCAO basis

P-setup:
  name: Phosphorus
  id: a5561c299094968922a179ab894d2e2d
  Z: 15.0
  valence: 5
  core: 10
  charge: 0.0
  file: /home/modules/software/GPAW-setups/0.9.20000/P.LDA.gz
  compensation charges: gauss, rc=0.30, lmax=2
  cutoffs: 1.69(filt), 1.81(core),
  valence states:
                energy  radius
    3s(2.00)   -14.015   0.953
    3p(3.00)    -5.596   0.953
    *s          13.197   0.953
    *p          21.615   0.953
    *d           0.000   0.953

  Using partial waves for P as LCAO basis

Li-setup:
  name: Lithium
  id: b73562207f97a71b6967473b66fe8b65
  Z: 3.0
  valence: 1
  core: 2
  charge: 0.0
  file: /home/modules/software/GPAW-setups/0.9.20000/Li.LDA.gz
  compensation charges: gauss, rc=0.33, lmax=2
  cutoffs: 1.91(filt), 2.55(core),
  valence states:
                energy  radius
    2s(1.00)    -2.874   1.058
    2p(0.00)    -1.126   1.058
    *s          24.338   1.058

  Using partial waves for Li as LCAO basis

Reference energy: -196157.275402

Spin-polarized calculation.
Magnetic moment: 0.000000

Convergence criteria:
  Maximum total energy change: 0.0005 eV / electron
  Maximum integral of absolute density change: 0.0001 electrons
  Maximum integral of absolute eigenstate change: 4e-08 eV^2
  Maximum change in atomic force: 1e-06 eV / Ang
  Maximum number of iterations: 333

Symmetries present (total): 1

  ( 1  0  0)
  ( 0  1  0)
  ( 0  0  1)

144 k-points: 6 x 6 x 4 Monkhorst-Pack grid
144 k-points in the irreducible part of the Brillouin zone
       k-points in crystal coordinates                weights
   0:    -0.41666667   -0.41666667   -0.37500000          1/144
   1:    -0.41666667   -0.41666667   -0.12500000          1/144
   2:    -0.41666667   -0.41666667    0.12500000          1/144
   3:    -0.41666667   -0.41666667    0.37500000          1/144
   4:    -0.41666667   -0.25000000   -0.37500000          1/144
   5:    -0.41666667   -0.25000000   -0.12500000          1/144
   6:    -0.41666667   -0.25000000    0.12500000          1/144
   7:    -0.41666667   -0.25000000    0.37500000          1/144
   8:    -0.41666667   -0.08333333   -0.37500000          1/144
   9:    -0.41666667   -0.08333333   -0.12500000          1/144
          ...
 143:     0.41666667    0.41666667    0.37500000          1/144

Wave functions: Plane wave expansion
  Cutoff energy: 600.000 eV
  Number of coefficients (min, max): 10068, 10125
  Pulay-stress correction: 0.000000 eV/Ang^3 (de/decut=0.000000)
  Using FFTW library
  ScaLapack parameters: grid=1x1, blocksize=None
  Wavefunction extrapolation:
    Improved wavefunction reuse through dual PAW basis 

  Fermi-Dirac: width=0.0010 eV

Eigensolver
   Davidson(niter=2, smin=None, normalize=True) 

Densities:
  Coarse grid: 60*35*27 grid
  Fine grid: 120*70*54 grid
  Total Charge: 0.000000 

Density mixing:
  Method: difference
  Backend: pulay
  Linear mixing parameter: 0.05
  Mixing with 5 old densities
  Damping of long wave oscillations: 50 

Hamiltonian:
  XC and Coulomb potentials evaluated on a 120*70*54 grid
  Using the LDA Exchange-Correlation functional
 

Memory estimate:
  Process memory now: 13417.64 MiB
  Calculator: 354.82 MiB
    Density: 10.06 MiB
      Arrays: 3.79 MiB
      Localized functions: 4.71 MiB
      Mixer: 1.56 MiB
    Hamiltonian: 2.95 MiB
      Arrays: 2.82 MiB
      XC: 0.00 MiB
      Poisson: 0.00 MiB
      vbar: 0.14 MiB
    Wavefunctions: 341.80 MiB
      Arrays psit_nG: 311.46 MiB
      Eigensolver: 19.99 MiB
      Projections: 2.71 MiB
      Projectors: 4.87 MiB
      PW-descriptor: 2.77 MiB

Total number of cores used: 64
Parallelization over k-points: 16
Domain decomposition: 2 x 2 x 1

Number of atoms: 28
Number of atomic orbitals: 148
Number of bands in calculation: 112
Number of valence electrons: 180
Bands to converge: occupied

... initialized

Initializing position-dependent things.

Density initialized from atomic densities
Creating initial wave functions:
  112 bands from LCAO basis set

     .-------------------------.  
    /|         OP              |  
   / |O            O        O  |  
  /  |       O            O  P |  
 *   |O    Mn      O           |  
 |   |          OLi          O |  
 |   P--O--------------Mn------.  
 |  /          Li    O  Mn  O /   
 | /LiO           PO         /    
 |/       Mn                /     
 *Li-----------------------*      

Positions:
   0 O     -1.330281   -2.539252   -1.168500    ( 0.0000,  0.0000,  0.0000)
   1 O     -3.152392    2.974909    1.200956    ( 0.0000,  0.0000,  0.0000)
   2 O      2.077234    0.510133    1.506966    ( 0.0000,  0.0000,  0.0000)
   3 O      3.899724   -0.074476   -0.862491    ( 0.0000,  0.0000,  0.0000)
   4 O      2.077424    2.974966    1.507072    ( 0.0000,  0.0000,  0.0000)
   5 O      3.899535   -2.539195   -0.862384    ( 0.0000,  0.0000,  0.0000)
   6 O     -1.330092   -0.074418   -1.168395    ( 0.0000,  0.0000,  0.0000)
   7 O     -3.152581    0.510191    1.201063    ( 0.0000,  0.0000,  0.0000)
   8 O     -4.389675   -1.306969   -0.813152    ( 0.0000,  0.0000,  0.0000)
   9 O     -0.093301    1.742683    1.556268    ( 0.0000,  0.0000,  0.0000)
  10 O      5.136817    1.742683    1.151723    ( 0.0000,  0.0000,  0.0000)
  11 O      0.840444   -1.306969   -1.217697    ( 0.0000,  0.0000,  0.0000)
  12 Mn    -2.557192   -1.307258    0.273595    ( 0.0000,  0.0000,  1.0000)
  13 Mn    -1.925535    1.742972   -2.096623    ( 0.0000,  0.0000, -1.0000)
  14 Mn     3.304335    1.742972    0.064976    ( 0.0000,  0.0000, -1.0000)
  15 Mn     2.672678   -1.307258    2.435195    ( 0.0000,  0.0000,  1.0000)
  16 P     -0.597175   -1.306854   -1.801474    ( 0.0000,  0.0000,  0.0000)
  17 P     -3.885565    1.742568    0.568028    ( 0.0000,  0.0000,  0.0000)
  18 P      1.344318    1.742568    2.140045    ( 0.0000,  0.0000,  0.0000)
  19 P      4.632708   -1.306854   -0.229456    ( 0.0000,  0.0000,  0.0000)
  20 O     -0.636957   -1.306861    1.403074    ( 0.0000,  0.0000,  0.0000)
  21 O     -3.845824    1.752575   -0.967462    ( 0.0000,  0.0000,  0.0000)
  22 O      1.384100    1.742576   -1.064503    ( 0.0000,  0.0000,  0.0000)
  23 O      4.592967   -1.306861    1.306033    ( 0.0000,  0.0000,  0.0000)
  24 Li    -4.856429   -2.832143   -2.200714    ( 0.0000,  0.0000,  0.0000)
  25 Li     0.373571   -2.832143    0.169286    ( 0.0000,  0.0000,  0.0000)
  26 Li    -4.856429    0.217857   -2.200714    ( 0.0000,  0.0000,  0.0000)
  27 Li     0.373571    0.217857    0.169286    ( 0.0000,  0.0000,  0.0000)

Unit cell:
           periodic     x           y           z      points  spacing
  1. axis:    yes   10.460000    0.000000    0.000000    60     0.1743
  2. axis:    yes    0.000000    6.100000    0.000000    35     0.1743
  3. axis:    yes    0.000000    0.000000    4.740000    27     0.1756

  Lengths:  10.460000   6.100000   4.740000
  Angles:   90.000000  90.000000  90.000000

Effective grid spacing dv^(1/3) = 0.1747

                     log10-error:           total        iterations:
           time      wfs    density  force  energy       poisson  magmom
iter:   1  00:08:24                       -220.688417             +0.0000
iter:   2  00:08:46  -0.64  -0.92         -235.503864             +0.0000
iter:   3  00:09:07  -0.40  -0.96         -226.168803             -0.0000
iter:   4  00:09:29  -1.41  -1.29         -225.888222             +0.0000
iter:   5  00:09:50  -1.19  -1.38         -227.589072             +0.0000
iter:   6  00:10:11  -1.39  -1.51         -225.829078             +0.0000
iter:   7  00:10:33  -2.57  -2.06         -225.899065             +0.0000
iter:   8  00:10:54  -2.23  -2.01         -225.641989             -0.0000
iter:   9  00:11:16  -2.68  -2.09         -225.546698             +0.0000
iter:  10  00:11:37  -3.55  -2.95         -225.545918             +0.0000
iter:  11  00:11:59  -3.95  -3.00         -225.547490             +0.0000
iter:  12  00:12:20  -4.29  -3.22         -225.547667             +0.0000
iter:  13  00:12:42  -5.37  -3.36         -225.547558             -0.0000
iter:  14  00:13:03  -5.18  -3.44         -225.547410             -0.0000
iter:  15  00:13:24  -5.36  -3.60         -225.547324             -0.0000
iter:  16  00:13:46  -6.31  -3.68         -225.547309             +0.0000
iter:  17  00:14:07  -6.27  -3.76         -225.547328             -0.0000
iter:  18  00:14:29  -6.76  -3.81         -225.547329             -0.0000
iter:  19  00:14:50  -5.82  -3.83         -225.547293             -0.0000
iter:  20  00:15:12  -7.02  -4.42         -225.547290             -0.0000
iter:  21  00:15:38  -7.84  -4.68         -225.547288             -0.0000
iter:  22  00:16:00  -7.20  -4.78         -225.547286             -0.0000
iter:  23  00:16:27  -7.86  -4.77    -3.01-225.547285             -0.0000
iter:  24  00:16:53  -8.56  -4.92    -3.02-225.547286             -0.0000
iter:  25  00:17:20  -7.40  -4.94    -2.54-225.547286             -0.0000
iter:  26  00:17:47  -8.01  -4.93    -2.80-225.547285             -0.0000
iter:  27  00:18:14  -7.82  -5.05    -3.16-225.547286             -0.0000
iter:  28  00:18:41  -8.04  -5.01    -2.84-225.547285             -0.0000
iter:  29  00:19:07  -8.15  -5.22    -2.89-225.547286             -0.0000
iter:  30  00:19:34  -9.57  -5.58    -3.70-225.547285             -0.0000
iter:  31  00:20:01  -9.30  -5.65    -3.77-225.547285             -0.0000
iter:  32  00:20:28  -9.68  -5.76    -3.68-225.547285             -0.0000
iter:  33  00:20:54  -8.75  -5.80    -3.24-225.547285             -0.0000
iter:  34  00:21:21  -9.72  -5.77    -3.70-225.547285             -0.0000
iter:  35  00:21:48  -9.98  -6.10    -3.78-225.547285             -0.0000
iter:  36  00:22:15 -10.16  -6.18    -4.18-225.547285             -0.0000
iter:  37  00:22:42 -10.41  -6.40    -4.17-225.547285             -0.0000
iter:  38  00:23:09 -10.04  -6.31    -4.00-225.547285             -0.0000
iter:  39  00:23:35 -11.49  -7.11    -5.46-225.547285             -0.0000
iter:  40  00:24:02 -12.57  -7.15    -5.44-225.547285             -0.0000
iter:  41  00:24:29 -12.31  -7.18    -5.21-225.547285             -0.0000
iter:  42  00:24:56 -12.10  -7.27    -4.93-225.547285             -0.0000
iter:  43  00:25:23 -13.12  -7.33    -5.45-225.547285             -0.0000
iter:  44  00:25:49 -13.53  -7.42    -6.08-225.547285             -0.0000

Converged after 44 iterations.

Dipole moment: (13.160103, 1.710399, -5.512633) |e|*Ang

Total magnetic moment: (0.000000, 0.000000, -0.000000)
Local magnetic moments:
   0 O  ( 0.000000,  0.000000,  0.001048)
   1 O  ( 0.000000,  0.000000, -0.001083)
   2 O  ( 0.000000,  0.000000, -0.001058)
   3 O  ( 0.000000,  0.000000,  0.001040)
   4 O  ( 0.000000,  0.000000, -0.001066)
   5 O  ( 0.000000,  0.000000,  0.001057)
   6 O  ( 0.000000,  0.000000,  0.001075)
   7 O  ( 0.000000,  0.000000, -0.001015)
   8 O  ( 0.000000,  0.000000,  0.019779)
   9 O  ( 0.000000,  0.000000, -0.019776)
  10 O  ( 0.000000,  0.000000, -0.019778)
  11 O  ( 0.000000,  0.000000,  0.019776)
  12 Mn ( 0.000000,  0.000000,  4.601525)
  13 Mn ( 0.000000,  0.000000, -4.601590)
  14 Mn ( 0.000000,  0.000000, -4.601524)
  15 Mn ( 0.000000,  0.000000,  4.601592)
  16 P  ( 0.000000,  0.000000,  0.001300)
  17 P  ( 0.000000,  0.000000, -0.001293)
  18 P  ( 0.000000,  0.000000, -0.001300)
  19 P  ( 0.000000,  0.000000,  0.001293)
  20 O  ( 0.000000,  0.000000,  0.018072)
  21 O  ( 0.000000,  0.000000, -0.018068)
  22 O  ( 0.000000,  0.000000, -0.018072)
  23 O  ( 0.000000,  0.000000,  0.018068)
  24 Li ( 0.000000,  0.000000, -0.000003)
  25 Li ( 0.000000,  0.000000,  0.000000)
  26 Li ( 0.000000,  0.000000,  0.000004)
  27 Li ( 0.000000,  0.000000, -0.000000)

Energy contributions relative to reference atoms: (reference = -196157.275402)

Kinetic:       +242.940144
Potential:     -215.436978
External:        +0.000000
XC:            -254.965771
Entropy (-ST):   -0.000000
Local:           +1.915321
--------------------------
Free energy:   -225.547285
Extrapolated:  -225.547285

Spin contamination: 9.747498 electrons
Showing only first 2 kpts
                      Up                     Down
 Kpt  Band  Eigenvalues  Occupancy  Eigenvalues  Occupancy
  0    88      3.92290    0.00694      3.92272    0.00694
  0    89      3.97158    0.00694      3.97160    0.00694
  0    90      8.66737    0.00000      8.66736    0.00000
  0    91      8.68676    0.00000      8.68681    0.00000

  1    88      3.91936    0.00694      3.91913    0.00694
  1    89      3.97540    0.00694      3.97537    0.00694
  1    90      8.51303    0.00000      8.51308    0.00000
  1    91      8.52958    0.00000      8.52967    0.00000


Fermi level: 5.31838

Gap: 3.778 eV
Transition (v -> c):
  (s=1, k=50, n=89, [-0.08, -0.42, 0.12]) -> (s=1, k=57, n=90, [-0.08, -0.08, -0.12])
Writing to born-0.01-21y+.gpw (mode='all')

Timing:                              incl.     excl.
-----------------------------------------------------------
Hamiltonian:                         0.249     0.002   0.0% |
 Atomic:                             0.057     0.057   0.0% |
  XC Correction:                     0.000     0.000   0.0% |
 Calculate atomic Hamiltonians:      0.095     0.095   0.0% |
 Communicate:                        0.002     0.002   0.0% |
 Initialize Hamiltonian:             0.000     0.000   0.0% |
 Poisson:                            0.001     0.001   0.0% |
 XC 3D grid:                         0.092     0.092   0.0% |
LCAO initialization:                69.200     0.686   0.0% |
 LCAO eigensolver:                  17.653     0.002   0.0% |
  Calculate projections:             0.029     0.029   0.0% |
  DenseAtomicCorrection:             0.042     0.042   0.0% |
  Distribute overlap matrix:         0.138     0.138   0.0% |
  Orbital Layouts:                   0.472     0.472   0.0% |
  Potential matrix:                 16.873    16.873   0.5% |
  Sum over cells:                    0.096     0.096   0.0% |
 LCAO to grid:                      49.565    49.565   1.6% ||
 Set positions (LCAO WFS):           1.295     0.179   0.0% |
  Basic WFS set positions:           0.001     0.001   0.0% |
  Basis functions set positions:     0.000     0.000   0.0% |
  P tci:                             0.520     0.520   0.0% |
  ST tci:                            0.357     0.357   0.0% |
  mktci:                             0.237     0.237   0.0% |
PWDescriptor:                        0.025     0.025   0.0% |
SCF-cycle:                        1067.789     0.321   0.0% |
 Davidson:                         895.326   279.049   8.9% |---|
  Apply H:                          60.538    58.806   1.9% ||
   HMM T:                            1.733     1.733   0.1% |
  Subspace diag:                   129.436     0.132   0.0% |
   calc_h_matrix:                   82.541    21.944   0.7% |
    Apply H:                        60.597    58.876   1.9% ||
     HMM T:                          1.721     1.721   0.1% |
   diagonalize:                      6.351     6.351   0.2% |
   rotate_psi:                      40.411    40.411   1.3% ||
  calc. matrices:                  265.505   147.827   4.7% |-|
   Apply H:                        117.678   114.543   3.7% ||
    HMM T:                           3.135     3.135   0.1% |
  diagonalize:                      73.301    73.301   2.3% ||
  rotate_psi:                       87.497    87.497   2.8% ||
 Density:                           35.258     0.001   0.0% |
  Atomic density matrices:           0.755     0.755   0.0% |
  Mix:                               5.576     5.576   0.2% |
  Multipole moments:                 0.016     0.016   0.0% |
  Pseudo density:                   28.910    28.909   0.9% |
   Symmetrize density:               0.001     0.001   0.0% |
 Forces:                           123.804   123.804   4.0% |-|
 Hamiltonian:                       10.795     0.094   0.0% |
  Atomic:                            2.498     2.497   0.1% |
   XC Correction:                    0.000     0.000   0.0% |
  Calculate atomic Hamiltonians:     4.077     4.077   0.1% |
  Communicate:                       0.073     0.073   0.0% |
  Poisson:                           0.034     0.034   0.0% |
  XC 3D grid:                        4.018     4.018   0.1% |
 Orthonormalize:                     2.285     0.003   0.0% |
  calc_s_matrix:                     0.264     0.264   0.0% |
  inverse-cholesky:                  0.077     0.077   0.0% |
  projections:                       1.470     1.470   0.0% |
  rotate_psi_s:                      0.472     0.472   0.0% |
Set symmetry:                        0.000     0.000   0.0% |
Other:                            1990.657  1990.657  63.6% |------------------------|
-----------------------------------------------------------
Total:                                      3127.921 100.0%

Memory usage: 13.11 GiB
Date: Thu Mar 25 00:58:59 2021
