
  ___ ___ ___ _ _ _  
 |   |   |_  | | | | 
 | | | | | . | | | | 
 |__ |  _|___|_____|  20.10.1b1
 |___|_|             

User:   madkru@g006.nifl.fysik.dtu.dk
Date:   Thu Mar 25 04:39:11 2021
Arch:   x86_64
Pid:    12017
Python: 3.7.4
gpaw:   /home/niflheim/madkru/venv_folder/gpaw/gpaw (d224efde0f)
_gpaw:  /home/niflheim/madkru/venv_folder/gpaw/build/lib.linux-x86_64-sandybridge-3.7/
        _gpaw.cpython-37m-x86_64-linux-gnu.so (4fd39e8b1e)
ase:    /home/niflheim/madkru/venv_folder/ase/ase (version 3.21.0b1-4d5a73cb29)
numpy:  /home/niflheim/madkru/venv_folder/lib/python3.7/site-packages/numpy (version 1.19.4)
scipy:  /home/niflheim/madkru/venv_folder/lib/python3.7/site-packages/scipy (version 1.5.4)
libxc:  4.3.4
units:  Angstrom and eV
cores: 64
OMP_NUM_THREADS: 1

Input parameters:
  convergence: {bands: occupied,
                density: 0.0001,
                eigenstates: 4e-08,
                energy: 0.0005,
                forces: 1e-06}
  kpts: [6 6 4]
  mode: {ecut: 600.0,
         gammacentered: False,
         name: pw}
  occupations: {fixmagmom: False,
                name: fermi-dirac,
                width: 0.001}
  setups: {Mn: :d,3.0}
  symmetry: {point_group: False,
             time_reversal: False}

System changes: positions, numbers, cell, pbc, initial_charges, initial_magmoms 

Initialize ...

O-setup:
  name: Oxygen
  id: 9b9d51c344dea68c822856295a461509
  Z: 8.0
  valence: 6
  core: 2
  charge: 0.0
  file: /home/modules/software/GPAW-setups/0.9.20000/O.LDA.gz
  compensation charges: gauss, rc=0.21, lmax=2
  cutoffs: 1.17(filt), 0.83(core),
  valence states:
                energy  radius
    2s(2.00)   -23.752   0.688
    2p(4.00)    -9.195   0.598
    *s           3.459   0.688
    *p          18.016   0.598
    *d           0.000   0.619

  Using partial waves for O as LCAO basis

Mn-setup:
  name: Manganese
  id: 0d715a8018be061a6e9ea6f2d364ac92
  Z: 25.0
  valence: 15
  core: 10
  charge: 0.0
  Hubbard U: 3.000000 eV (l=2, scale=True)
  file: /home/modules/software/GPAW-setups/0.9.20000/Mn.LDA.gz
  compensation charges: gauss, rc=0.38, lmax=2
  cutoffs: 2.14(filt), 0.86(core),
  valence states:
                energy  radius
    3s(2.00)   -85.387   1.275
    4s(2.00)    -5.282   1.275
    3p(6.00)   -54.493   1.281
    4p(0.00)    -1.471   1.281
    3d(5.00)    -7.009   1.138
    *d          20.203   1.138

  Using partial waves for Mn as LCAO basis

P-setup:
  name: Phosphorus
  id: a5561c299094968922a179ab894d2e2d
  Z: 15.0
  valence: 5
  core: 10
  charge: 0.0
  file: /home/modules/software/GPAW-setups/0.9.20000/P.LDA.gz
  compensation charges: gauss, rc=0.30, lmax=2
  cutoffs: 1.69(filt), 1.81(core),
  valence states:
                energy  radius
    3s(2.00)   -14.015   0.953
    3p(3.00)    -5.596   0.953
    *s          13.197   0.953
    *p          21.615   0.953
    *d           0.000   0.953

  Using partial waves for P as LCAO basis

Li-setup:
  name: Lithium
  id: b73562207f97a71b6967473b66fe8b65
  Z: 3.0
  valence: 1
  core: 2
  charge: 0.0
  file: /home/modules/software/GPAW-setups/0.9.20000/Li.LDA.gz
  compensation charges: gauss, rc=0.33, lmax=2
  cutoffs: 1.91(filt), 2.55(core),
  valence states:
                energy  radius
    2s(1.00)    -2.874   1.058
    2p(0.00)    -1.126   1.058
    *s          24.338   1.058

  Using partial waves for Li as LCAO basis

Reference energy: -196157.275402

Spin-polarized calculation.
Magnetic moment: 0.000000

Convergence criteria:
  Maximum total energy change: 0.0005 eV / electron
  Maximum integral of absolute density change: 0.0001 electrons
  Maximum integral of absolute eigenstate change: 4e-08 eV^2
  Maximum change in atomic force: 1e-06 eV / Ang
  Maximum number of iterations: 333

Symmetries present (total): 1

  ( 1  0  0)
  ( 0  1  0)
  ( 0  0  1)

144 k-points: 6 x 6 x 4 Monkhorst-Pack grid
144 k-points in the irreducible part of the Brillouin zone
       k-points in crystal coordinates                weights
   0:    -0.41666667   -0.41666667   -0.37500000          1/144
   1:    -0.41666667   -0.41666667   -0.12500000          1/144
   2:    -0.41666667   -0.41666667    0.12500000          1/144
   3:    -0.41666667   -0.41666667    0.37500000          1/144
   4:    -0.41666667   -0.25000000   -0.37500000          1/144
   5:    -0.41666667   -0.25000000   -0.12500000          1/144
   6:    -0.41666667   -0.25000000    0.12500000          1/144
   7:    -0.41666667   -0.25000000    0.37500000          1/144
   8:    -0.41666667   -0.08333333   -0.37500000          1/144
   9:    -0.41666667   -0.08333333   -0.12500000          1/144
          ...
 143:     0.41666667    0.41666667    0.37500000          1/144

Wave functions: Plane wave expansion
  Cutoff energy: 600.000 eV
  Number of coefficients (min, max): 10068, 10125
  Pulay-stress correction: 0.000000 eV/Ang^3 (de/decut=0.000000)
  Using FFTW library
  ScaLapack parameters: grid=1x1, blocksize=None
  Wavefunction extrapolation:
    Improved wavefunction reuse through dual PAW basis 

  Fermi-Dirac: width=0.0010 eV

Eigensolver
   Davidson(niter=2, smin=None, normalize=True) 

Densities:
  Coarse grid: 60*35*27 grid
  Fine grid: 120*70*54 grid
  Total Charge: 0.000000 

Density mixing:
  Method: difference
  Backend: pulay
  Linear mixing parameter: 0.05
  Mixing with 5 old densities
  Damping of long wave oscillations: 50 

Hamiltonian:
  XC and Coulomb potentials evaluated on a 120*70*54 grid
  Using the LDA Exchange-Correlation functional
 

Memory estimate:
  Process memory now: 13594.01 MiB
  Calculator: 354.82 MiB
    Density: 10.06 MiB
      Arrays: 3.79 MiB
      Localized functions: 4.71 MiB
      Mixer: 1.56 MiB
    Hamiltonian: 2.95 MiB
      Arrays: 2.82 MiB
      XC: 0.00 MiB
      Poisson: 0.00 MiB
      vbar: 0.14 MiB
    Wavefunctions: 341.80 MiB
      Arrays psit_nG: 311.46 MiB
      Eigensolver: 19.99 MiB
      Projections: 2.71 MiB
      Projectors: 4.87 MiB
      PW-descriptor: 2.77 MiB

Total number of cores used: 64
Parallelization over k-points: 16
Domain decomposition: 2 x 2 x 1

Number of atoms: 28
Number of atomic orbitals: 148
Number of bands in calculation: 112
Number of valence electrons: 180
Bands to converge: occupied

... initialized

Initializing position-dependent things.

Density initialized from atomic densities
Creating initial wave functions:
  112 bands from LCAO basis set

     .-------------------------.  
    /|         OP              |  
   / |O            O        O  |  
  /  |       O            O  P |  
 *   |O    Mn      O           |  
 |   |          OLi          O |  
 |   P--O--------------Mn------.  
 |  /          Li    O  Mn  O /   
 | /LiO           PO         /    
 |/       Mn                /     
 *Li-----------------------*      

Positions:
   0 O     -1.330281   -2.539252   -1.168500    ( 0.0000,  0.0000,  0.0000)
   1 O     -3.152392    2.974909    1.200956    ( 0.0000,  0.0000,  0.0000)
   2 O      2.077234    0.510133    1.506966    ( 0.0000,  0.0000,  0.0000)
   3 O      3.899724   -0.074476   -0.862491    ( 0.0000,  0.0000,  0.0000)
   4 O      2.077424    2.974966    1.507072    ( 0.0000,  0.0000,  0.0000)
   5 O      3.899535   -2.539195   -0.862384    ( 0.0000,  0.0000,  0.0000)
   6 O     -1.330092   -0.074418   -1.168395    ( 0.0000,  0.0000,  0.0000)
   7 O     -3.152581    0.510191    1.201063    ( 0.0000,  0.0000,  0.0000)
   8 O     -4.389675   -1.306969   -0.813152    ( 0.0000,  0.0000,  0.0000)
   9 O     -0.093301    1.742683    1.556268    ( 0.0000,  0.0000,  0.0000)
  10 O      5.136817    1.742683    1.151723    ( 0.0000,  0.0000,  0.0000)
  11 O      0.840444   -1.306969   -1.217697    ( 0.0000,  0.0000,  0.0000)
  12 Mn    -2.557192   -1.307258    0.273595    ( 0.0000,  0.0000,  1.0000)
  13 Mn    -1.925535    1.742972   -2.096623    ( 0.0000,  0.0000, -1.0000)
  14 Mn     3.304335    1.742972    0.064976    ( 0.0000,  0.0000, -1.0000)
  15 Mn     2.672678   -1.307258    2.435195    ( 0.0000,  0.0000,  1.0000)
  16 P     -0.597175   -1.306854   -1.801474    ( 0.0000,  0.0000,  0.0000)
  17 P     -3.885565    1.742568    0.568028    ( 0.0000,  0.0000,  0.0000)
  18 P      1.344318    1.742568    2.140045    ( 0.0000,  0.0000,  0.0000)
  19 P      4.632708   -1.306854   -0.229456    ( 0.0000,  0.0000,  0.0000)
  20 O     -0.636957   -1.306861    1.403074    ( 0.0000,  0.0000,  0.0000)
  21 O     -3.845824    1.742575   -0.967462    ( 0.0000,  0.0000,  0.0000)
  22 O      1.384100    1.742576   -1.064503    ( 0.0000,  0.0000,  0.0000)
  23 O      4.582967   -1.306861    1.306033    ( 0.0000,  0.0000,  0.0000)
  24 Li    -4.856429   -2.832143   -2.200714    ( 0.0000,  0.0000,  0.0000)
  25 Li     0.373571   -2.832143    0.169286    ( 0.0000,  0.0000,  0.0000)
  26 Li    -4.856429    0.217857   -2.200714    ( 0.0000,  0.0000,  0.0000)
  27 Li     0.373571    0.217857    0.169286    ( 0.0000,  0.0000,  0.0000)

Unit cell:
           periodic     x           y           z      points  spacing
  1. axis:    yes   10.460000    0.000000    0.000000    60     0.1743
  2. axis:    yes    0.000000    6.100000    0.000000    35     0.1743
  3. axis:    yes    0.000000    0.000000    4.740000    27     0.1756

  Lengths:  10.460000   6.100000   4.740000
  Angles:   90.000000  90.000000  90.000000

Effective grid spacing dv^(1/3) = 0.1747

                     log10-error:           total        iterations:
           time      wfs    density  force  energy       poisson  magmom
iter:   1  04:40:44                       -220.684832             +0.0000
iter:   2  04:41:05  -0.64  -0.92         -235.497632             +0.0000
iter:   3  04:41:27  -0.40  -0.96         -226.168229             -0.0000
iter:   4  04:41:48  -1.41  -1.29         -225.887966             +0.0000
iter:   5  04:42:09  -1.19  -1.38         -227.589288             +0.0000
iter:   6  04:42:31  -1.39  -1.51         -225.828707             +0.0000
iter:   7  04:42:52  -2.57  -2.06         -225.899067             +0.0000
iter:   8  04:43:14  -2.23  -2.01         -225.640139             -0.0000
iter:   9  04:43:35  -2.68  -2.09         -225.546700             +0.0000
iter:  10  04:43:57  -3.56  -2.95         -225.546027             +0.0000
iter:  11  04:44:18  -3.95  -3.00         -225.547400             +0.0000
iter:  12  04:44:40  -4.29  -3.22         -225.547590             +0.0000
iter:  13  04:45:01  -5.37  -3.36         -225.547477             -0.0000
iter:  14  04:45:22  -5.19  -3.44         -225.547318             -0.0000
iter:  15  04:45:44  -5.37  -3.60         -225.547235             -0.0000
iter:  16  04:46:05  -6.29  -3.68         -225.547224             +0.0000
iter:  17  04:46:27  -6.23  -3.75         -225.547242             -0.0000
iter:  18  04:46:48  -6.78  -3.81         -225.547243             -0.0000
iter:  19  04:47:10  -5.82  -3.83         -225.547207             -0.0000
iter:  20  04:47:31  -6.86  -4.40         -225.547206             -0.0000
iter:  21  04:47:52  -6.91  -4.67         -225.547198             -0.0000
iter:  22  04:48:19  -7.62  -4.83         -225.547199             +0.0000
iter:  23  04:48:46  -8.34  -5.03    -2.83-225.547199             -0.0000
iter:  24  04:49:13  -9.04  -5.37    -3.63-225.547199             -0.0000
iter:  25  04:49:40  -8.91  -5.44    -2.92-225.547199             -0.0000
iter:  26  04:50:06  -9.31  -5.57    -3.64-225.547199             -0.0000
iter:  27  04:50:33  -9.57  -5.61    -3.44-225.547199             -0.0000
iter:  28  04:51:00  -9.65  -5.68    -3.41-225.547199             -0.0000
iter:  29  04:51:27  -9.68  -5.74    -3.59-225.547199             -0.0000
iter:  30  04:51:53 -10.83  -5.84    -4.41-225.547199             -0.0000
iter:  31  04:52:20  -9.37  -5.88    -4.01-225.547199             -0.0000
iter:  32  04:52:47 -10.73  -6.14    -4.49-225.547199             -0.0000
iter:  33  04:53:14 -10.31  -6.18    -3.81-225.547199             -0.0000
iter:  34  04:53:40 -11.32  -6.38    -4.56-225.547199             -0.0000
iter:  35  04:54:07 -10.50  -6.58    -4.43-225.547199             -0.0000
iter:  36  04:54:34 -10.40  -6.47    -4.25-225.547199             -0.0000
iter:  37  04:55:01 -11.39  -6.74    -4.65-225.547199             -0.0000
iter:  38  04:55:27 -11.75  -6.93    -4.55-225.547199             -0.0000
iter:  39  04:55:54 -11.92  -7.02    -4.85-225.547199             -0.0000
iter:  40  04:56:21 -12.53  -7.17    -4.89-225.547199             -0.0000
iter:  41  04:56:48 -13.34  -7.39    -5.06-225.547199             +0.0000
iter:  42  04:57:14 -14.13  -7.53    -5.95-225.547199             -0.0000
iter:  43  04:57:41 -14.17  -7.58    -5.58-225.547199             -0.0000
iter:  44  04:58:08 -13.68  -7.66    -5.17-225.547199             -0.0000
iter:  45  04:58:35 -14.03  -7.88    -5.71-225.547199             -0.0000
iter:  46  04:59:01 -14.85  -8.07    -6.32-225.547199             -0.0000

Converged after 46 iterations.

Dipole moment: (13.164527, 1.717343, -5.513039) |e|*Ang

Total magnetic moment: (0.000000, 0.000000, -0.000000)
Local magnetic moments:
   0 O  ( 0.000000,  0.000000,  0.001075)
   1 O  ( 0.000000,  0.000000, -0.001022)
   2 O  ( 0.000000,  0.000000, -0.001006)
   3 O  ( 0.000000,  0.000000,  0.001049)
   4 O  ( 0.000000,  0.000000, -0.001014)
   5 O  ( 0.000000,  0.000000,  0.001057)
   6 O  ( 0.000000,  0.000000,  0.001067)
   7 O  ( 0.000000,  0.000000, -0.001014)
   8 O  ( 0.000000,  0.000000,  0.019805)
   9 O  ( 0.000000,  0.000000, -0.019798)
  10 O  ( 0.000000,  0.000000, -0.019737)
  11 O  ( 0.000000,  0.000000,  0.019676)
  12 Mn ( 0.000000,  0.000000,  4.601474)
  13 Mn ( 0.000000,  0.000000, -4.601587)
  14 Mn ( 0.000000,  0.000000, -4.601529)
  15 Mn ( 0.000000,  0.000000,  4.601265)
  16 P  ( 0.000000,  0.000000,  0.001302)
  17 P  ( 0.000000,  0.000000, -0.001296)
  18 P  ( 0.000000,  0.000000, -0.001277)
  19 P  ( 0.000000,  0.000000,  0.001444)
  20 O  ( 0.000000,  0.000000,  0.018091)
  21 O  ( 0.000000,  0.000000, -0.018061)
  22 O  ( 0.000000,  0.000000, -0.018078)
  23 O  ( 0.000000,  0.000000,  0.018135)
  24 Li ( 0.000000,  0.000000,  0.000002)
  25 Li ( 0.000000,  0.000000,  0.000000)
  26 Li ( 0.000000,  0.000000,  0.000002)
  27 Li ( 0.000000,  0.000000,  0.000000)

Energy contributions relative to reference atoms: (reference = -196157.275402)

Kinetic:       +243.008475
Potential:     -215.492726
External:        +0.000000
XC:            -254.977795
Entropy (-ST):   -0.000000
Local:           +1.914848
--------------------------
Free energy:   -225.547199
Extrapolated:  -225.547199

Spin contamination: 9.747402 electrons
Showing only first 2 kpts
                      Up                     Down
 Kpt  Band  Eigenvalues  Occupancy  Eigenvalues  Occupancy
  0    88      3.92607    0.00694      3.92387    0.00694
  0    89      3.97853    0.00694      3.97296    0.00694
  0    90      8.66961    0.00000      8.66551    0.00000
  0    91      8.68640    0.00000      8.69887    0.00000

  1    88      3.92334    0.00694      3.92028    0.00694
  1    89      3.98319    0.00694      3.97669    0.00694
  1    90      8.51496    0.00000      8.51053    0.00000
  1    91      8.52990    0.00000      8.54036    0.00000


Fermi level: 5.32069

Gap: 3.774 eV
Transition (v -> c):
  (s=0, k=73, n=89, [0.08, -0.42, -0.12]) -> (s=1, k=86, n=90, [0.08, 0.08, 0.12])
Writing to born-0.01-23x-.gpw (mode='all')

Timing:                              incl.     excl.
-----------------------------------------------------------
Hamiltonian:                         0.250     0.002   0.0% |
 Atomic:                             0.057     0.057   0.0% |
  XC Correction:                     0.000     0.000   0.0% |
 Calculate atomic Hamiltonians:      0.096     0.096   0.0% |
 Communicate:                        0.002     0.002   0.0% |
 Initialize Hamiltonian:             0.000     0.000   0.0% |
 Poisson:                            0.001     0.001   0.0% |
 XC 3D grid:                         0.092     0.092   0.0% |
LCAO initialization:                66.876     0.681   0.0% |
 LCAO eigensolver:                  17.436     0.002   0.0% |
  Calculate projections:             0.029     0.029   0.0% |
  DenseAtomicCorrection:             0.042     0.042   0.0% |
  Distribute overlap matrix:         0.009     0.009   0.0% |
  Orbital Layouts:                   0.471     0.471   0.0% |
  Potential matrix:                 16.793    16.793   0.6% |
  Sum over cells:                    0.090     0.090   0.0% |
 LCAO to grid:                      47.462    47.462   1.6% ||
 Set positions (LCAO WFS):           1.297     0.178   0.0% |
  Basic WFS set positions:           0.001     0.001   0.0% |
  Basis functions set positions:     0.000     0.000   0.0% |
  P tci:                             0.522     0.522   0.0% |
  ST tci:                            0.357     0.357   0.0% |
  mktci:                             0.238     0.238   0.0% |
PWDescriptor:                        0.025     0.025   0.0% |
SCF-cycle:                        1121.928     1.772   0.1% |
 Davidson:                         935.678   292.057  10.1% |---|
  Apply H:                          63.319    61.425   2.1% ||
   HMM T:                            1.894     1.894   0.1% |
  Subspace diag:                   135.360     0.137   0.0% |
   calc_h_matrix:                   86.213    22.955   0.8% |
    Apply H:                        63.258    61.419   2.1% ||
     HMM T:                          1.839     1.839   0.1% |
   diagonalize:                      6.644     6.644   0.2% |
   rotate_psi:                      42.365    42.365   1.5% ||
  calc. matrices:                  276.570   154.401   5.3% |-|
   Apply H:                        122.168   118.763   4.1% |-|
    HMM T:                           3.405     3.405   0.1% |
  diagonalize:                      76.856    76.856   2.7% ||
  rotate_psi:                       91.516    91.516   3.2% ||
 Density:                           37.521     0.001   0.0% |
  Atomic density matrices:           0.791     0.791   0.0% |
  Mix:                               5.814     5.814   0.2% |
  Multipole moments:                 0.018     0.018   0.0% |
  Pseudo density:                   30.898    30.897   1.1% |
   Symmetrize density:               0.001     0.001   0.0% |
 Forces:                           133.372   133.372   4.6% |-|
 Hamiltonian:                       11.294     0.099   0.0% |
  Atomic:                            2.602     2.602   0.1% |
   XC Correction:                    0.000     0.000   0.0% |
  Calculate atomic Hamiltonians:     4.296     4.296   0.1% |
  Communicate:                       0.056     0.056   0.0% |
  Poisson:                           0.036     0.036   0.0% |
  XC 3D grid:                        4.206     4.206   0.1% |
 Orthonormalize:                     2.291     0.003   0.0% |
  calc_s_matrix:                     0.265     0.265   0.0% |
  inverse-cholesky:                  0.077     0.077   0.0% |
  projections:                       1.470     1.470   0.1% |
  rotate_psi_s:                      0.475     0.475   0.0% |
Set symmetry:                        0.000     0.000   0.0% |
Other:                            1699.805  1699.805  58.8% |-----------------------|
-----------------------------------------------------------
Total:                                      2888.884 100.0%

Memory usage: 13.29 GiB
Date: Thu Mar 25 05:27:20 2021
