
  ___ ___ ___ _ _ _  
 |   |   |_  | | | | 
 | | | | | . | | | | 
 |__ |  _|___|_____|  20.10.1b1
 |___|_|             

User:   madkru@g006.nifl.fysik.dtu.dk
Date:   Wed Mar 24 00:13:46 2021
Arch:   x86_64
Pid:    12017
Python: 3.7.4
gpaw:   /home/niflheim/madkru/venv_folder/gpaw/gpaw (d0d1ca1c71)
_gpaw:  /home/niflheim/madkru/venv_folder/gpaw/build/lib.linux-x86_64-sandybridge-3.7/
        _gpaw.cpython-37m-x86_64-linux-gnu.so (4fd39e8b1e)
ase:    /home/niflheim/madkru/venv_folder/ase/ase (version 3.21.0b1-7e6c206a91)
numpy:  /home/niflheim/madkru/venv_folder/lib/python3.7/site-packages/numpy (version 1.19.4)
scipy:  /home/niflheim/madkru/venv_folder/lib/python3.7/site-packages/scipy (version 1.5.4)
libxc:  4.3.4
units:  Angstrom and eV
cores: 64
OMP_NUM_THREADS: 1

Input parameters:
  convergence: {bands: occupied,
                density: 0.0001,
                eigenstates: 4e-08,
                energy: 0.0005,
                forces: 1e-06}
  kpts: [6 6 4]
  mode: {ecut: 600.0,
         gammacentered: False,
         name: pw}
  occupations: {fixmagmom: False,
                name: fermi-dirac,
                width: 0.001}
  setups: {Mn: :d,3.0}
  symmetry: {point_group: False,
             time_reversal: False}

System changes: positions, numbers, cell, pbc, initial_charges, initial_magmoms 

Initialize ...

O-setup:
  name: Oxygen
  id: 9b9d51c344dea68c822856295a461509
  Z: 8.0
  valence: 6
  core: 2
  charge: 0.0
  file: /home/modules/software/GPAW-setups/0.9.20000/O.LDA.gz
  compensation charges: gauss, rc=0.21, lmax=2
  cutoffs: 1.17(filt), 0.83(core),
  valence states:
                energy  radius
    2s(2.00)   -23.752   0.688
    2p(4.00)    -9.195   0.598
    *s           3.459   0.688
    *p          18.016   0.598
    *d           0.000   0.619

  Using partial waves for O as LCAO basis

Mn-setup:
  name: Manganese
  id: 0d715a8018be061a6e9ea6f2d364ac92
  Z: 25.0
  valence: 15
  core: 10
  charge: 0.0
  Hubbard U: 3.000000 eV (l=2, scale=True)
  file: /home/modules/software/GPAW-setups/0.9.20000/Mn.LDA.gz
  compensation charges: gauss, rc=0.38, lmax=2
  cutoffs: 2.14(filt), 0.86(core),
  valence states:
                energy  radius
    3s(2.00)   -85.387   1.275
    4s(2.00)    -5.282   1.275
    3p(6.00)   -54.493   1.281
    4p(0.00)    -1.471   1.281
    3d(5.00)    -7.009   1.138
    *d          20.203   1.138

  Using partial waves for Mn as LCAO basis

P-setup:
  name: Phosphorus
  id: a5561c299094968922a179ab894d2e2d
  Z: 15.0
  valence: 5
  core: 10
  charge: 0.0
  file: /home/modules/software/GPAW-setups/0.9.20000/P.LDA.gz
  compensation charges: gauss, rc=0.30, lmax=2
  cutoffs: 1.69(filt), 1.81(core),
  valence states:
                energy  radius
    3s(2.00)   -14.015   0.953
    3p(3.00)    -5.596   0.953
    *s          13.197   0.953
    *p          21.615   0.953
    *d           0.000   0.953

  Using partial waves for P as LCAO basis

Li-setup:
  name: Lithium
  id: b73562207f97a71b6967473b66fe8b65
  Z: 3.0
  valence: 1
  core: 2
  charge: 0.0
  file: /home/modules/software/GPAW-setups/0.9.20000/Li.LDA.gz
  compensation charges: gauss, rc=0.33, lmax=2
  cutoffs: 1.91(filt), 2.55(core),
  valence states:
                energy  radius
    2s(1.00)    -2.874   1.058
    2p(0.00)    -1.126   1.058
    *s          24.338   1.058

  Using partial waves for Li as LCAO basis

Reference energy: -196157.275402

Spin-polarized calculation.
Magnetic moment: 0.000000

Convergence criteria:
  Maximum total energy change: 0.0005 eV / electron
  Maximum integral of absolute density change: 0.0001 electrons
  Maximum integral of absolute eigenstate change: 4e-08 eV^2
  Maximum change in atomic force: 1e-06 eV / Ang
  Maximum number of iterations: 333

Symmetries present (total): 1

  ( 1  0  0)
  ( 0  1  0)
  ( 0  0  1)

144 k-points: 6 x 6 x 4 Monkhorst-Pack grid
144 k-points in the irreducible part of the Brillouin zone
       k-points in crystal coordinates                weights
   0:    -0.41666667   -0.41666667   -0.37500000          1/144
   1:    -0.41666667   -0.41666667   -0.12500000          1/144
   2:    -0.41666667   -0.41666667    0.12500000          1/144
   3:    -0.41666667   -0.41666667    0.37500000          1/144
   4:    -0.41666667   -0.25000000   -0.37500000          1/144
   5:    -0.41666667   -0.25000000   -0.12500000          1/144
   6:    -0.41666667   -0.25000000    0.12500000          1/144
   7:    -0.41666667   -0.25000000    0.37500000          1/144
   8:    -0.41666667   -0.08333333   -0.37500000          1/144
   9:    -0.41666667   -0.08333333   -0.12500000          1/144
          ...
 143:     0.41666667    0.41666667    0.37500000          1/144

Wave functions: Plane wave expansion
  Cutoff energy: 600.000 eV
  Number of coefficients (min, max): 10068, 10125
  Pulay-stress correction: 0.000000 eV/Ang^3 (de/decut=0.000000)
  Using FFTW library
  ScaLapack parameters: grid=1x1, blocksize=None
  Wavefunction extrapolation:
    Improved wavefunction reuse through dual PAW basis 

  Fermi-Dirac: width=0.0010 eV

Eigensolver
   Davidson(niter=2, smin=None, normalize=True) 

Densities:
  Coarse grid: 60*35*27 grid
  Fine grid: 120*70*54 grid
  Total Charge: 0.000000 

Density mixing:
  Method: difference
  Backend: pulay
  Linear mixing parameter: 0.05
  Mixing with 5 old densities
  Damping of long wave oscillations: 50 

Hamiltonian:
  XC and Coulomb potentials evaluated on a 120*70*54 grid
  Using the LDA Exchange-Correlation functional
 

Memory estimate:
  Process memory now: 12404.51 MiB
  Calculator: 354.82 MiB
    Density: 10.06 MiB
      Arrays: 3.79 MiB
      Localized functions: 4.71 MiB
      Mixer: 1.56 MiB
    Hamiltonian: 2.95 MiB
      Arrays: 2.82 MiB
      XC: 0.00 MiB
      Poisson: 0.00 MiB
      vbar: 0.14 MiB
    Wavefunctions: 341.80 MiB
      Arrays psit_nG: 311.46 MiB
      Eigensolver: 19.99 MiB
      Projections: 2.71 MiB
      Projectors: 4.87 MiB
      PW-descriptor: 2.77 MiB

Total number of cores used: 64
Parallelization over k-points: 16
Domain decomposition: 2 x 2 x 1

Number of atoms: 28
Number of atomic orbitals: 148
Number of bands in calculation: 112
Number of valence electrons: 180
Bands to converge: occupied

... initialized

Initializing position-dependent things.

Density initialized from atomic densities
Creating initial wave functions:
  112 bands from LCAO basis set

     .-------------------------.  
    /|         OP              |  
   / |O            O        O  |  
  /  |       O            O  P |  
 *   |O    Mn      O           |  
 |   |          OLi          O |  
 |   P--O--------------Mn------.  
 |  /          Li    O  Mn  O /   
 | /LiO           PO         /    
 |/       Mn                /     
 *Li-----------------------*      

Positions:
   0 O     -1.330281   -2.539252   -1.168500    ( 0.0000,  0.0000,  0.0000)
   1 O     -3.152392    2.974909    1.200956    ( 0.0000,  0.0000,  0.0000)
   2 O      2.077234    0.510133    1.506966    ( 0.0000,  0.0000,  0.0000)
   3 O      3.899724   -0.074476   -0.862491    ( 0.0000,  0.0000,  0.0000)
   4 O      2.077424    2.974966    1.507072    ( 0.0000,  0.0000,  0.0000)
   5 O      3.899535   -2.539195   -0.862384    ( 0.0000,  0.0000,  0.0000)
   6 O     -1.330092   -0.074418   -1.168395    ( 0.0000,  0.0000,  0.0000)
   7 O     -3.152581    0.510191    1.201063    ( 0.0000,  0.0000,  0.0000)
   8 O     -4.389675   -1.306969   -0.813152    ( 0.0000,  0.0000,  0.0000)
   9 O     -0.093301    1.742683    1.556268    ( 0.0000,  0.0000,  0.0000)
  10 O      5.136817    1.742683    1.151723    ( 0.0000,  0.0000,  0.0000)
  11 O      0.840444   -1.306969   -1.217697    ( 0.0000,  0.0000,  0.0000)
  12 Mn    -2.557192   -1.307258    0.273595    ( 0.0000,  0.0000,  1.0000)
  13 Mn    -1.925535    1.752972   -2.096623    ( 0.0000,  0.0000, -1.0000)
  14 Mn     3.304335    1.742972    0.064976    ( 0.0000,  0.0000, -1.0000)
  15 Mn     2.672678   -1.307258    2.435195    ( 0.0000,  0.0000,  1.0000)
  16 P     -0.597175   -1.306854   -1.801474    ( 0.0000,  0.0000,  0.0000)
  17 P     -3.885565    1.742568    0.568028    ( 0.0000,  0.0000,  0.0000)
  18 P      1.344318    1.742568    2.140045    ( 0.0000,  0.0000,  0.0000)
  19 P      4.632708   -1.306854   -0.229456    ( 0.0000,  0.0000,  0.0000)
  20 O     -0.636957   -1.306861    1.403074    ( 0.0000,  0.0000,  0.0000)
  21 O     -3.845824    1.742575   -0.967462    ( 0.0000,  0.0000,  0.0000)
  22 O      1.384100    1.742576   -1.064503    ( 0.0000,  0.0000,  0.0000)
  23 O      4.592967   -1.306861    1.306033    ( 0.0000,  0.0000,  0.0000)
  24 Li    -4.856429   -2.832143   -2.200714    ( 0.0000,  0.0000,  0.0000)
  25 Li     0.373571   -2.832143    0.169286    ( 0.0000,  0.0000,  0.0000)
  26 Li    -4.856429    0.217857   -2.200714    ( 0.0000,  0.0000,  0.0000)
  27 Li     0.373571    0.217857    0.169286    ( 0.0000,  0.0000,  0.0000)

Unit cell:
           periodic     x           y           z      points  spacing
  1. axis:    yes   10.460000    0.000000    0.000000    60     0.1743
  2. axis:    yes    0.000000    6.100000    0.000000    35     0.1743
  3. axis:    yes    0.000000    0.000000    4.740000    27     0.1756

  Lengths:  10.460000   6.100000   4.740000
  Angles:   90.000000  90.000000  90.000000

Effective grid spacing dv^(1/3) = 0.1747

                     log10-error:           total        iterations:
           time      wfs    density  force  energy       poisson  magmom
iter:   1  00:15:19                       -220.688439             +0.0000
iter:   2  00:15:40  -0.64  -0.92         -235.503626             +0.0000
iter:   3  00:16:02  -0.40  -0.96         -226.168699             -0.0000
iter:   4  00:16:23  -1.41  -1.29         -225.888117             +0.0000
iter:   5  00:16:45  -1.19  -1.38         -227.588979             +0.0000
iter:   6  00:17:06  -1.39  -1.51         -225.828981             +0.0000
iter:   7  00:17:27  -2.57  -2.06         -225.898947             +0.0000
iter:   8  00:17:49  -2.23  -2.01         -225.641968             -0.0000
iter:   9  00:18:10  -2.68  -2.09         -225.546585             +0.0000
iter:  10  00:18:31  -3.55  -2.95         -225.545813             +0.0000
iter:  11  00:18:53  -3.95  -3.00         -225.547379             +0.0000
iter:  12  00:19:14  -4.29  -3.22         -225.547551             +0.0000
iter:  13  00:19:36  -5.38  -3.36         -225.547445             -0.0000
iter:  14  00:19:57  -5.19  -3.44         -225.547298             -0.0000
iter:  15  00:20:18  -5.37  -3.60         -225.547216             -0.0000
iter:  16  00:20:40  -6.32  -3.68         -225.547199             +0.0000
iter:  17  00:21:01  -6.25  -3.75         -225.547218             -0.0000
iter:  18  00:21:23  -6.75  -3.81         -225.547219             -0.0000
iter:  19  00:21:44  -5.81  -3.83         -225.547183             -0.0000
iter:  20  00:22:05  -6.97  -4.41         -225.547180             -0.0000
iter:  21  00:22:32  -7.74  -4.72         -225.547177             +0.0000
iter:  22  00:22:53  -7.29  -4.85         -225.547176             +0.0000
iter:  23  00:23:20  -7.91  -4.75    -3.04-225.547175             +0.0000
iter:  24  00:23:47  -8.68  -4.99    -3.34-225.547175             +0.0000
iter:  25  00:24:14  -7.60  -5.02    -2.58-225.547175             +0.0000
iter:  26  00:24:40  -8.19  -5.01    -2.89-225.547175             +0.0000
iter:  27  00:25:07  -8.32  -5.16    -3.32-225.547175             -0.0000
iter:  28  00:25:34  -7.50  -5.12    -2.71-225.547175             -0.0000
iter:  29  00:26:01  -7.96  -4.95    -2.83-225.547175             -0.0000
iter:  30  00:26:27  -8.96  -5.43    -3.48-225.547175             -0.0000
iter:  31  00:26:54  -9.22  -5.48    -3.61-225.547175             -0.0000
iter:  32  00:27:21  -9.46  -5.60    -3.27-225.547175             -0.0000
iter:  33  00:27:48  -8.94  -5.72    -3.53-225.547175             -0.0000
iter:  34  00:28:14 -10.40  -6.12    -4.29-225.547175             -0.0000
iter:  35  00:28:41 -10.48  -6.20    -4.34-225.547175             -0.0000
iter:  36  00:29:08 -10.23  -6.24    -4.07-225.547175             -0.0000
iter:  37  00:29:35 -10.57  -6.34    -4.43-225.547175             -0.0000
iter:  38  00:30:01 -11.31  -6.41    -4.55-225.547175             -0.0000
iter:  39  00:30:28 -11.40  -6.52    -4.38-225.547175             -0.0000
iter:  40  00:30:55 -11.06  -6.64    -4.71-225.547175             -0.0000
iter:  41  00:31:22 -11.97  -6.80    -5.07-225.547175             -0.0000
iter:  42  00:31:48 -12.22  -6.83    -4.93-225.547175             -0.0000
iter:  43  00:32:15 -12.12  -6.86    -5.12-225.547175             -0.0000
iter:  44  00:32:42 -12.12  -6.99    -4.94-225.547175             -0.0000
iter:  45  00:33:09 -12.78  -7.11    -5.45-225.547175             -0.0000
iter:  46  00:33:35 -13.04  -7.18    -5.67-225.547175             -0.0000
iter:  47  00:34:02 -12.69  -7.25    -4.96-225.547175             -0.0000
iter:  48  00:34:29 -13.13  -7.37    -5.52-225.547175             -0.0000
iter:  49  00:34:56 -13.23  -7.46    -5.50-225.547175             -0.0000
iter:  50  00:35:22 -13.96  -7.50    -5.63-225.547175             -0.0000
iter:  51  00:35:49 -13.30  -7.58    -5.53-225.547175             -0.0000
iter:  52  00:36:16 -14.51  -7.86    -6.09-225.547175             -0.0000

Converged after 52 iterations.

Dipole moment: (13.160116, 1.728082, -5.512647) |e|*Ang

Total magnetic moment: (0.000000, 0.000000, -0.000000)
Local magnetic moments:
   0 O  ( 0.000000,  0.000000,  0.000751)
   1 O  ( 0.000000,  0.000000, -0.001287)
   2 O  ( 0.000000,  0.000000, -0.001069)
   3 O  ( 0.000000,  0.000000,  0.001043)
   4 O  ( 0.000000,  0.000000, -0.001056)
   5 O  ( 0.000000,  0.000000,  0.001053)
   6 O  ( 0.000000,  0.000000,  0.001369)
   7 O  ( 0.000000,  0.000000, -0.000809)
   8 O  ( 0.000000,  0.000000,  0.019779)
   9 O  ( 0.000000,  0.000000, -0.019777)
  10 O  ( 0.000000,  0.000000, -0.019779)
  11 O  ( 0.000000,  0.000000,  0.019776)
  12 Mn ( 0.000000,  0.000000,  4.601523)
  13 Mn ( 0.000000,  0.000000, -4.601561)
  14 Mn ( 0.000000,  0.000000, -4.601524)
  15 Mn ( 0.000000,  0.000000,  4.601592)
  16 P  ( 0.000000,  0.000000,  0.001297)
  17 P  ( 0.000000,  0.000000, -0.001294)
  18 P  ( 0.000000,  0.000000, -0.001299)
  19 P  ( 0.000000,  0.000000,  0.001293)
  20 O  ( 0.000000,  0.000000,  0.018071)
  21 O  ( 0.000000,  0.000000, -0.018069)
  22 O  ( 0.000000,  0.000000, -0.018072)
  23 O  ( 0.000000,  0.000000,  0.018068)
  24 Li ( 0.000000,  0.000000,  0.000004)
  25 Li ( 0.000000,  0.000000, -0.000002)
  26 Li ( 0.000000,  0.000000, -0.000004)
  27 Li ( 0.000000,  0.000000,  0.000002)

Energy contributions relative to reference atoms: (reference = -196157.275402)

Kinetic:       +242.946410
Potential:     -215.442159
External:        +0.000000
XC:            -254.966707
Entropy (-ST):   -0.000000
Local:           +1.915281
--------------------------
Free energy:   -225.547175
Extrapolated:  -225.547175

Spin contamination: 9.747492 electrons
Showing only first 2 kpts
                      Up                     Down
 Kpt  Band  Eigenvalues  Occupancy  Eigenvalues  Occupancy
  0    88      3.92299    0.00694      3.92360    0.00694
  0    89      3.97156    0.00694      3.97143    0.00694
  0    90      8.66741    0.00000      8.66731    0.00000
  0    91      8.68690    0.00000      8.68679    0.00000

  1    88      3.91942    0.00694      3.91969    0.00694
  1    89      3.97538    0.00694      3.97566    0.00694
  1    90      8.51304    0.00000      8.51308    0.00000
  1    91      8.52961    0.00000      8.52957    0.00000


Fermi level: 5.31835

Gap: 3.778 eV
Transition (v -> c):
  (s=1, k=70, n=89, [-0.08, 0.42, 0.12]) -> (s=0, k=86, n=90, [0.08, 0.08, 0.12])
Writing to born-0.01-13y+.gpw (mode='all')

Timing:                              incl.     excl.
-----------------------------------------------------------
Hamiltonian:                         0.248     0.002   0.0% |
 Atomic:                             0.057     0.057   0.0% |
  XC Correction:                     0.000     0.000   0.0% |
 Calculate atomic Hamiltonians:      0.094     0.094   0.0% |
 Communicate:                        0.001     0.001   0.0% |
 Initialize Hamiltonian:             0.000     0.000   0.0% |
 Poisson:                            0.001     0.001   0.0% |
 XC 3D grid:                         0.093     0.093   0.0% |
LCAO initialization:                65.322     0.679   0.0% |
 LCAO eigensolver:                  17.501     0.002   0.0% |
  Calculate projections:             0.029     0.029   0.0% |
  DenseAtomicCorrection:             0.042     0.042   0.0% |
  Distribute overlap matrix:         0.009     0.009   0.0% |
  Orbital Layouts:                   0.473     0.473   0.0% |
  Potential matrix:                 16.845    16.845   0.5% |
  Sum over cells:                    0.101     0.101   0.0% |
 LCAO to grid:                      45.849    45.849   1.4% ||
 Set positions (LCAO WFS):           1.294     0.177   0.0% |
  Basic WFS set positions:           0.001     0.001   0.0% |
  Basis functions set positions:     0.000     0.000   0.0% |
  P tci:                             0.517     0.517   0.0% |
  ST tci:                            0.359     0.359   0.0% |
  mktci:                             0.239     0.239   0.0% |
PWDescriptor:                        0.025     0.025   0.0% |
SCF-cycle:                        1283.123     3.932   0.1% |
 Davidson:                        1056.482   330.084  10.3% |---|
  Apply H:                          71.358    69.245   2.2% ||
   HMM T:                            2.113     2.113   0.1% |
  Subspace diag:                   153.074     0.153   0.0% |
   calc_h_matrix:                   97.675    25.933   0.8% |
    Apply H:                        71.741    69.632   2.2% ||
     HMM T:                          2.109     2.109   0.1% |
   diagonalize:                      7.515     7.515   0.2% |
   rotate_psi:                      47.732    47.732   1.5% ||
  calc. matrices:                  312.336   174.392   5.5% |-|
   Apply H:                        137.944   134.115   4.2% |-|
    HMM T:                           3.829     3.829   0.1% |
  diagonalize:                      86.406    86.406   2.7% ||
  rotate_psi:                      103.223   103.223   3.2% ||
 Density:                           41.827     0.001   0.0% |
  Atomic density matrices:           0.887     0.887   0.0% |
  Mix:                               6.651     6.651   0.2% |
  Multipole moments:                 0.019     0.019   0.0% |
  Pseudo density:                   34.269    34.268   1.1% |
   Symmetrize density:               0.001     0.001   0.0% |
 Forces:                           165.718   165.718   5.2% |-|
 Hamiltonian:                       12.872     0.113   0.0% |
  Atomic:                            3.018     3.017   0.1% |
   XC Correction:                    0.000     0.000   0.0% |
  Calculate atomic Hamiltonians:     4.850     4.850   0.2% |
  Communicate:                       0.077     0.077   0.0% |
  Poisson:                           0.041     0.041   0.0% |
  XC 3D grid:                        4.773     4.773   0.1% |
 Orthonormalize:                     2.291     0.003   0.0% |
  calc_s_matrix:                     0.265     0.265   0.0% |
  inverse-cholesky:                  0.077     0.077   0.0% |
  projections:                       1.472     1.472   0.0% |
  rotate_psi_s:                      0.473     0.473   0.0% |
Set symmetry:                        0.000     0.000   0.0% |
Other:                            1851.058  1851.058  57.8% |----------------------|
-----------------------------------------------------------
Total:                                      3199.777 100.0%

Memory usage: 12.12 GiB
Date: Wed Mar 24 01:07:06 2021
