
  ___ ___ ___ _ _ _  
 |   |   |_  | | | | 
 | | | | | . | | | | 
 |__ |  _|___|_____|  20.10.1b1
 |___|_|             

User:   madkru@g031.nifl.fysik.dtu.dk
Date:   Sun Mar 21 09:43:17 2021
Arch:   x86_64
Pid:    47913
Python: 3.7.4
gpaw:   /home/niflheim/madkru/venv_folder/gpaw/gpaw (d0d1ca1c71)
_gpaw:  /home/niflheim/madkru/venv_folder/gpaw/build/lib.linux-x86_64-sandybridge-3.7/
        _gpaw.cpython-37m-x86_64-linux-gnu.so (4fd39e8b1e)
ase:    /home/niflheim/madkru/venv_folder/ase/ase (version 3.21.0b1-7e6c206a91)
numpy:  /home/niflheim/madkru/venv_folder/lib/python3.7/site-packages/numpy (version 1.19.4)
scipy:  /home/niflheim/madkru/venv_folder/lib/python3.7/site-packages/scipy (version 1.5.4)
libxc:  4.3.4
units:  Angstrom and eV
cores: 32
OMP_NUM_THREADS: 1

Input parameters:
  convergence: {bands: occupied,
                density: 0.0001,
                eigenstates: 4e-08,
                energy: 0.0005,
                forces: 1e-06}
  kpts: [6 6 4]
  mode: {ecut: 600.0,
         gammacentered: False,
         name: pw}
  occupations: {fixmagmom: False,
                name: fermi-dirac,
                width: 0.001}
  setups: {Mn: :d,3.0}
  symmetry: {point_group: False,
             time_reversal: False}

System changes: positions, numbers, cell, pbc, initial_charges, initial_magmoms 

Initialize ...

O-setup:
  name: Oxygen
  id: 9b9d51c344dea68c822856295a461509
  Z: 8.0
  valence: 6
  core: 2
  charge: 0.0
  file: /home/modules/software/GPAW-setups/0.9.20000/O.LDA.gz
  compensation charges: gauss, rc=0.21, lmax=2
  cutoffs: 1.17(filt), 0.83(core),
  valence states:
                energy  radius
    2s(2.00)   -23.752   0.688
    2p(4.00)    -9.195   0.598
    *s           3.459   0.688
    *p          18.016   0.598
    *d           0.000   0.619

  Using partial waves for O as LCAO basis

Mn-setup:
  name: Manganese
  id: 0d715a8018be061a6e9ea6f2d364ac92
  Z: 25.0
  valence: 15
  core: 10
  charge: 0.0
  Hubbard U: 3.000000 eV (l=2, scale=True)
  file: /home/modules/software/GPAW-setups/0.9.20000/Mn.LDA.gz
  compensation charges: gauss, rc=0.38, lmax=2
  cutoffs: 2.14(filt), 0.86(core),
  valence states:
                energy  radius
    3s(2.00)   -85.387   1.275
    4s(2.00)    -5.282   1.275
    3p(6.00)   -54.493   1.281
    4p(0.00)    -1.471   1.281
    3d(5.00)    -7.009   1.138
    *d          20.203   1.138

  Using partial waves for Mn as LCAO basis

P-setup:
  name: Phosphorus
  id: a5561c299094968922a179ab894d2e2d
  Z: 15.0
  valence: 5
  core: 10
  charge: 0.0
  file: /home/modules/software/GPAW-setups/0.9.20000/P.LDA.gz
  compensation charges: gauss, rc=0.30, lmax=2
  cutoffs: 1.69(filt), 1.81(core),
  valence states:
                energy  radius
    3s(2.00)   -14.015   0.953
    3p(3.00)    -5.596   0.953
    *s          13.197   0.953
    *p          21.615   0.953
    *d           0.000   0.953

  Using partial waves for P as LCAO basis

Li-setup:
  name: Lithium
  id: b73562207f97a71b6967473b66fe8b65
  Z: 3.0
  valence: 1
  core: 2
  charge: 0.0
  file: /home/modules/software/GPAW-setups/0.9.20000/Li.LDA.gz
  compensation charges: gauss, rc=0.33, lmax=2
  cutoffs: 1.91(filt), 2.55(core),
  valence states:
                energy  radius
    2s(1.00)    -2.874   1.058
    2p(0.00)    -1.126   1.058
    *s          24.338   1.058

  Using partial waves for Li as LCAO basis

Reference energy: -196157.275402

Spin-polarized calculation.
Magnetic moment: 0.000000

Convergence criteria:
  Maximum total energy change: 0.0005 eV / electron
  Maximum integral of absolute density change: 0.0001 electrons
  Maximum integral of absolute eigenstate change: 4e-08 eV^2
  Maximum change in atomic force: 1e-06 eV / Ang
  Maximum number of iterations: 333

Symmetries present (total): 1

  ( 1  0  0)
  ( 0  1  0)
  ( 0  0  1)

144 k-points: 6 x 6 x 4 Monkhorst-Pack grid
144 k-points in the irreducible part of the Brillouin zone
       k-points in crystal coordinates                weights
   0:    -0.41666667   -0.41666667   -0.37500000          1/144
   1:    -0.41666667   -0.41666667   -0.12500000          1/144
   2:    -0.41666667   -0.41666667    0.12500000          1/144
   3:    -0.41666667   -0.41666667    0.37500000          1/144
   4:    -0.41666667   -0.25000000   -0.37500000          1/144
   5:    -0.41666667   -0.25000000   -0.12500000          1/144
   6:    -0.41666667   -0.25000000    0.12500000          1/144
   7:    -0.41666667   -0.25000000    0.37500000          1/144
   8:    -0.41666667   -0.08333333   -0.37500000          1/144
   9:    -0.41666667   -0.08333333   -0.12500000          1/144
          ...
 143:     0.41666667    0.41666667    0.37500000          1/144

Wave functions: Plane wave expansion
  Cutoff energy: 600.000 eV
  Number of coefficients (min, max): 10068, 10125
  Pulay-stress correction: 0.000000 eV/Ang^3 (de/decut=0.000000)
  Using FFTW library
  ScaLapack parameters: grid=1x1, blocksize=None
  Wavefunction extrapolation:
    Improved wavefunction reuse through dual PAW basis 

  Fermi-Dirac: width=0.0010 eV

Eigensolver
   Davidson(niter=2, smin=None, normalize=True) 

Densities:
  Coarse grid: 60*35*27 grid
  Fine grid: 120*70*54 grid
  Total Charge: 0.000000 

Density mixing:
  Method: difference
  Backend: pulay
  Linear mixing parameter: 0.05
  Mixing with 5 old densities
  Damping of long wave oscillations: 50 

Hamiltonian:
  XC and Coulomb potentials evaluated on a 120*70*54 grid
  Using the LDA Exchange-Correlation functional
 

Memory estimate:
  Process memory now: 12287.55 MiB
  Calculator: 375.55 MiB
    Density: 20.02 MiB
      Arrays: 7.57 MiB
      Localized functions: 9.42 MiB
      Mixer: 3.03 MiB
    Hamiltonian: 5.90 MiB
      Arrays: 5.62 MiB
      XC: 0.00 MiB
      Poisson: 0.00 MiB
      vbar: 0.27 MiB
    Wavefunctions: 349.64 MiB
      Arrays psit_nG: 311.46 MiB
      Eigensolver: 19.99 MiB
      Projections: 5.41 MiB
      Projectors: 9.73 MiB
      PW-descriptor: 3.03 MiB

Total number of cores used: 32
Parallelization over k-points: 16
Domain decomposition: 2 x 1 x 1

Number of atoms: 28
Number of atomic orbitals: 148
Number of bands in calculation: 112
Number of valence electrons: 180
Bands to converge: occupied

... initialized

Initializing position-dependent things.

Density initialized from atomic densities
Creating initial wave functions:
  112 bands from LCAO basis set

     .-------------------------.  
    /|         OP              |  
   / |O            O        O  |  
  /  |       O            O  P |  
 *   |O    Mn      O           |  
 |   |          OLi          O |  
 |   P--O--------------Mn------.  
 |  /          Li    O  Mn  O /   
 | /LiO           PO         /    
 |/       Mn                /     
 *Li-----------------------*      

Positions:
   0 O     -1.330281   -2.539252   -1.168500    ( 0.0000,  0.0000,  0.0000)
   1 O     -3.142392    2.974909    1.200956    ( 0.0000,  0.0000,  0.0000)
   2 O      2.077234    0.510133    1.506966    ( 0.0000,  0.0000,  0.0000)
   3 O      3.899724   -0.074476   -0.862491    ( 0.0000,  0.0000,  0.0000)
   4 O      2.077424    2.974966    1.507072    ( 0.0000,  0.0000,  0.0000)
   5 O      3.899535   -2.539195   -0.862384    ( 0.0000,  0.0000,  0.0000)
   6 O     -1.330092   -0.074418   -1.168395    ( 0.0000,  0.0000,  0.0000)
   7 O     -3.152581    0.510191    1.201063    ( 0.0000,  0.0000,  0.0000)
   8 O     -4.389675   -1.306969   -0.813152    ( 0.0000,  0.0000,  0.0000)
   9 O     -0.093301    1.742683    1.556268    ( 0.0000,  0.0000,  0.0000)
  10 O      5.136817    1.742683    1.151723    ( 0.0000,  0.0000,  0.0000)
  11 O      0.840444   -1.306969   -1.217697    ( 0.0000,  0.0000,  0.0000)
  12 Mn    -2.557192   -1.307258    0.273595    ( 0.0000,  0.0000,  1.0000)
  13 Mn    -1.925535    1.742972   -2.096623    ( 0.0000,  0.0000, -1.0000)
  14 Mn     3.304335    1.742972    0.064976    ( 0.0000,  0.0000, -1.0000)
  15 Mn     2.672678   -1.307258    2.435195    ( 0.0000,  0.0000,  1.0000)
  16 P     -0.597175   -1.306854   -1.801474    ( 0.0000,  0.0000,  0.0000)
  17 P     -3.885565    1.742568    0.568028    ( 0.0000,  0.0000,  0.0000)
  18 P      1.344318    1.742568    2.140045    ( 0.0000,  0.0000,  0.0000)
  19 P      4.632708   -1.306854   -0.229456    ( 0.0000,  0.0000,  0.0000)
  20 O     -0.636957   -1.306861    1.403074    ( 0.0000,  0.0000,  0.0000)
  21 O     -3.845824    1.742575   -0.967462    ( 0.0000,  0.0000,  0.0000)
  22 O      1.384100    1.742576   -1.064503    ( 0.0000,  0.0000,  0.0000)
  23 O      4.592967   -1.306861    1.306033    ( 0.0000,  0.0000,  0.0000)
  24 Li    -4.856429   -2.832143   -2.200714    ( 0.0000,  0.0000,  0.0000)
  25 Li     0.373571   -2.832143    0.169286    ( 0.0000,  0.0000,  0.0000)
  26 Li    -4.856429    0.217857   -2.200714    ( 0.0000,  0.0000,  0.0000)
  27 Li     0.373571    0.217857    0.169286    ( 0.0000,  0.0000,  0.0000)

Unit cell:
           periodic     x           y           z      points  spacing
  1. axis:    yes   10.460000    0.000000    0.000000    60     0.1743
  2. axis:    yes    0.000000    6.100000    0.000000    35     0.1743
  3. axis:    yes    0.000000    0.000000    4.740000    27     0.1756

  Lengths:  10.460000   6.100000   4.740000
  Angles:   90.000000  90.000000  90.000000

Effective grid spacing dv^(1/3) = 0.1747

                     log10-error:           total        iterations:
           time      wfs    density  force  energy       poisson  magmom
iter:   1  09:46:14                       -220.682214             +0.0000
iter:   2  09:46:54  -0.64  -0.92         -235.490043             +0.0000
iter:   3  09:47:33  -0.40  -0.96         -226.167168             -0.0000
iter:   4  09:48:13  -1.41  -1.29         -225.887832             +0.0000
iter:   5  09:48:52  -1.19  -1.38         -227.587687             +0.0000
iter:   6  09:49:32  -1.40  -1.51         -225.828259             +0.0000
iter:   7  09:50:11  -2.57  -2.06         -225.898706             +0.0000
iter:   8  09:50:51  -2.23  -2.01         -225.639948             -0.0000
iter:   9  09:51:30  -2.68  -2.09         -225.546428             +0.0000
iter:  10  09:52:09  -3.56  -2.95         -225.545841             +0.0000
iter:  11  09:52:49  -3.95  -3.00         -225.547095             +0.0000
iter:  12  09:53:28  -4.29  -3.22         -225.547290             +0.0000
iter:  13  09:54:08  -5.38  -3.36         -225.547177             -0.0000
iter:  14  09:54:47  -5.20  -3.44         -225.547013             -0.0000
iter:  15  09:55:27  -5.39  -3.60         -225.546938             -0.0000
iter:  16  09:56:06  -6.30  -3.67         -225.546923             +0.0000
iter:  17  09:56:45  -6.19  -3.74         -225.546943             -0.0000
iter:  18  09:57:25  -6.76  -3.81         -225.546943             -0.0000
iter:  19  09:58:04  -5.85  -3.82         -225.546904             -0.0000
iter:  20  09:58:44  -6.83  -4.32         -225.546905             -0.0000
iter:  21  09:59:23  -6.61  -4.55         -225.546897             -0.0000
iter:  22  10:00:13  -7.44  -4.64         -225.546896             +0.0000
iter:  23  10:01:03  -8.21  -5.03    -2.77-225.546896             -0.0000
iter:  24  10:01:54  -8.67  -5.32    -3.65-225.546897             -0.0000
iter:  25  10:02:44  -9.02  -5.39    -3.03-225.546898             -0.0000
iter:  26  10:03:34  -9.56  -5.64    -3.55-225.546898             +0.0000
iter:  27  10:04:24  -9.18  -5.70    -3.41-225.546898             +0.0000
iter:  28  10:05:14  -9.93  -5.78    -4.06-225.546897             +0.0000
iter:  29  10:06:04  -9.61  -5.84    -3.69-225.546897             +0.0000
iter:  30  10:06:54 -10.12  -6.22    -4.18-225.546897             +0.0000
iter:  31  10:07:44 -11.04  -6.28    -4.24-225.546897             +0.0000
iter:  32  10:08:34 -10.86  -6.35    -4.58-225.546897             +0.0000
iter:  33  10:09:24 -10.89  -6.45    -4.28-225.546897             +0.0000
iter:  34  10:10:14 -10.56  -6.49    -4.10-225.546897             -0.0000
iter:  35  10:11:04 -10.64  -6.59    -4.39-225.546897             -0.0000
iter:  36  10:11:54 -12.06  -6.86    -4.60-225.546897             +0.0000
iter:  37  10:12:44 -13.03  -7.15    -5.39-225.546897             -0.0000
iter:  38  10:13:34 -12.67  -7.17    -5.48-225.546897             -0.0000
iter:  39  10:14:24 -13.06  -7.26    -5.17-225.546897             +0.0000
iter:  40  10:15:14 -12.60  -7.36    -4.87-225.546897             +0.0000
iter:  41  10:16:04 -13.58  -7.48    -5.41-225.546897             +0.0000
iter:  42  10:16:54 -14.23  -7.57    -5.91-225.546897             +0.0000
iter:  43  10:17:44 -13.39  -7.62    -5.32-225.546897             +0.0000
iter:  44  10:18:35 -13.23  -7.75    -5.64-225.546897             +0.0000
iter:  45  10:19:25 -13.92  -7.67    -5.71-225.546897             +0.0000
iter:  46  10:20:15 -13.42  -7.70    -5.37-225.546897             +0.0000
iter:  47  10:21:05 -13.84  -7.82    -6.25-225.546897             +0.0000

Converged after 47 iterations.

Dipole moment: (13.155191, 1.713144, -5.513605) |e|*Ang

Total magnetic moment: (0.000000, 0.000000, 0.000000)
Local magnetic moments:
   0 O  ( 0.000000,  0.000000,  0.001078)
   1 O  ( 0.000000,  0.000000, -0.001091)
   2 O  ( 0.000000,  0.000000, -0.001071)
   3 O  ( 0.000000,  0.000000,  0.001037)
   4 O  ( 0.000000,  0.000000, -0.001079)
   5 O  ( 0.000000,  0.000000,  0.001041)
   6 O  ( 0.000000,  0.000000,  0.001097)
   7 O  ( 0.000000,  0.000000, -0.001069)
   8 O  ( 0.000000,  0.000000,  0.019762)
   9 O  ( 0.000000,  0.000000, -0.019790)
  10 O  ( 0.000000,  0.000000, -0.019702)
  11 O  ( 0.000000,  0.000000,  0.019809)
  12 Mn ( 0.000000,  0.000000,  4.601126)
  13 Mn ( 0.000000,  0.000000, -4.601280)
  14 Mn ( 0.000000,  0.000000, -4.601519)
  15 Mn ( 0.000000,  0.000000,  4.601591)
  16 P  ( 0.000000,  0.000000,  0.001293)
  17 P  ( 0.000000,  0.000000, -0.001318)
  18 P  ( 0.000000,  0.000000, -0.001306)
  19 P  ( 0.000000,  0.000000,  0.001301)
  20 O  ( 0.000000,  0.000000,  0.018109)
  21 O  ( 0.000000,  0.000000, -0.018056)
  22 O  ( 0.000000,  0.000000, -0.018099)
  23 O  ( 0.000000,  0.000000,  0.018052)
  24 Li ( 0.000000,  0.000000, -0.000003)
  25 Li ( 0.000000,  0.000000, -0.000000)
  26 Li ( 0.000000,  0.000000,  0.000002)
  27 Li ( 0.000000,  0.000000, -0.000000)

Energy contributions relative to reference atoms: (reference = -196157.275402)

Kinetic:       +242.684169
Potential:     -215.242787
External:        +0.000000
XC:            -254.903910
Entropy (-ST):   -0.000000
Local:           +1.915631
--------------------------
Free energy:   -225.546897
Extrapolated:  -225.546897

Spin contamination: 9.747086 electrons
Showing only first 2 kpts
                      Up                     Down
 Kpt  Band  Eigenvalues  Occupancy  Eigenvalues  Occupancy
  0    88      3.92590    0.00694      3.92288    0.00694
  0    89      3.97543    0.00694      3.97314    0.00694
  0    90      8.66526    0.00000      8.67139    0.00000
  0    91      8.69405    0.00000      8.68769    0.00000

  1    88      3.92246    0.00694      3.91965    0.00694
  1    89      3.97922    0.00694      3.97663    0.00694
  1    90      8.51104    0.00000      8.51660    0.00000
  1    91      8.53944    0.00000      8.53150    0.00000


Fermi level: 5.31886

Gap: 3.775 eV
Transition (v -> c):
  (s=0, k=69, n=89, [-0.08, 0.42, -0.12]) -> (s=1, k=85, n=90, [0.08, 0.08, -0.12])
Writing to born-0.01-1x+.gpw (mode='all')

Timing:                              incl.     excl.
-----------------------------------------------------------
Hamiltonian:                         0.416     0.002   0.0% |
 Atomic:                             0.058     0.058   0.0% |
  XC Correction:                     0.000     0.000   0.0% |
 Calculate atomic Hamiltonians:      0.180     0.180   0.0% |
 Communicate:                        0.002     0.002   0.0% |
 Initialize Hamiltonian:             0.000     0.000   0.0% |
 Poisson:                            0.002     0.002   0.0% |
 XC 3D grid:                         0.171     0.171   0.0% |
LCAO initialization:               128.493     0.675   0.0% |
 LCAO eigensolver:                  33.706     0.002   0.0% |
  Calculate projections:             0.057     0.057   0.0% |
  DenseAtomicCorrection:             0.082     0.082   0.0% |
  Distribute overlap matrix:         0.033     0.033   0.0% |
  Orbital Layouts:                   0.362     0.362   0.0% |
  Potential matrix:                 33.075    33.075   0.6% |
  Sum over cells:                    0.095     0.095   0.0% |
 LCAO to grid:                      91.816    91.816   1.8% ||
 Set positions (LCAO WFS):           2.297     0.342   0.0% |
  Basic WFS set positions:           0.001     0.001   0.0% |
  Basis functions set positions:     0.000     0.000   0.0% |
  P tci:                             1.050     1.050   0.0% |
  ST tci:                            0.696     0.696   0.0% |
  mktci:                             0.206     0.206   0.0% |
PWDescriptor:                        0.025     0.025   0.0% |
SCF-cycle:                        2137.354    10.847   0.2% |
 Davidson:                        1755.309   572.614  11.1% |---|
  Apply H:                         122.825   118.858   2.3% ||
   HMM T:                            3.968     3.968   0.1% |
  Subspace diag:                   258.888     0.150   0.0% |
   calc_h_matrix:                  167.824    46.463   0.9% |
    Apply H:                       121.361   117.536   2.3% ||
     HMM T:                          3.825     3.825   0.1% |
   diagonalize:                      5.731     5.731   0.1% |
   rotate_psi:                      85.183    85.183   1.7% ||
  calc. matrices:                  549.619   310.346   6.0% |-|
   Apply H:                        239.272   232.078   4.5% |-|
    HMM T:                           7.195     7.195   0.1% |
  diagonalize:                      78.361    78.361   1.5% ||
  rotate_psi:                      173.003   173.003   3.4% ||
 Density:                           70.787     0.001   0.0% |
  Atomic density matrices:           1.307     1.307   0.0% |
  Mix:                              11.271    11.271   0.2% |
  Multipole moments:                 0.027     0.027   0.0% |
  Pseudo density:                   58.181    58.180   1.1% |
   Symmetrize density:               0.001     0.001   0.0% |
 Forces:                           276.313   276.313   5.4% |-|
 Hamiltonian:                       19.683     0.124   0.0% |
  Atomic:                            2.729     2.729   0.1% |
   XC Correction:                    0.000     0.000   0.0% |
  Calculate atomic Hamiltonians:     8.525     8.525   0.2% |
  Communicate:                       0.066     0.066   0.0% |
  Poisson:                           0.073     0.073   0.0% |
  XC 3D grid:                        8.166     8.166   0.2% |
 Orthonormalize:                     4.414     0.004   0.0% |
  calc_s_matrix:                     0.525     0.525   0.0% |
  inverse-cholesky:                  0.054     0.054   0.0% |
  projections:                       2.897     2.897   0.1% |
  rotate_psi_s:                      0.935     0.935   0.0% |
Set symmetry:                        0.000     0.000   0.0% |
Other:                            2873.716  2873.716  55.9% |---------------------|
-----------------------------------------------------------
Total:                                      5140.004 100.0%

Memory usage: 12.09 GiB
Date: Sun Mar 21 11:08:57 2021
