
  ___ ___ ___ _ _ _  
 |   |   |_  | | | | 
 | | | | | . | | | | 
 |__ |  _|___|_____|  20.10.1b1
 |___|_|             

User:   madkru@g006.nifl.fysik.dtu.dk
Date:   Thu Mar 25 06:04:30 2021
Arch:   x86_64
Pid:    12017
Python: 3.7.4
gpaw:   /home/niflheim/madkru/venv_folder/gpaw/gpaw (d224efde0f)
_gpaw:  /home/niflheim/madkru/venv_folder/gpaw/build/lib.linux-x86_64-sandybridge-3.7/
        _gpaw.cpython-37m-x86_64-linux-gnu.so (4fd39e8b1e)
ase:    /home/niflheim/madkru/venv_folder/ase/ase (version 3.21.0b1-4d5a73cb29)
numpy:  /home/niflheim/madkru/venv_folder/lib/python3.7/site-packages/numpy (version 1.19.4)
scipy:  /home/niflheim/madkru/venv_folder/lib/python3.7/site-packages/scipy (version 1.5.4)
libxc:  4.3.4
units:  Angstrom and eV
cores: 64
OMP_NUM_THREADS: 1

Input parameters:
  convergence: {bands: occupied,
                density: 0.0001,
                eigenstates: 4e-08,
                energy: 0.0005,
                forces: 1e-06}
  kpts: [6 6 4]
  mode: {ecut: 600.0,
         gammacentered: False,
         name: pw}
  occupations: {fixmagmom: False,
                name: fermi-dirac,
                width: 0.001}
  setups: {Mn: :d,3.0}
  symmetry: {point_group: False,
             time_reversal: False}

System changes: positions, numbers, cell, pbc, initial_charges, initial_magmoms 

Initialize ...

O-setup:
  name: Oxygen
  id: 9b9d51c344dea68c822856295a461509
  Z: 8.0
  valence: 6
  core: 2
  charge: 0.0
  file: /home/modules/software/GPAW-setups/0.9.20000/O.LDA.gz
  compensation charges: gauss, rc=0.21, lmax=2
  cutoffs: 1.17(filt), 0.83(core),
  valence states:
                energy  radius
    2s(2.00)   -23.752   0.688
    2p(4.00)    -9.195   0.598
    *s           3.459   0.688
    *p          18.016   0.598
    *d           0.000   0.619

  Using partial waves for O as LCAO basis

Mn-setup:
  name: Manganese
  id: 0d715a8018be061a6e9ea6f2d364ac92
  Z: 25.0
  valence: 15
  core: 10
  charge: 0.0
  Hubbard U: 3.000000 eV (l=2, scale=True)
  file: /home/modules/software/GPAW-setups/0.9.20000/Mn.LDA.gz
  compensation charges: gauss, rc=0.38, lmax=2
  cutoffs: 2.14(filt), 0.86(core),
  valence states:
                energy  radius
    3s(2.00)   -85.387   1.275
    4s(2.00)    -5.282   1.275
    3p(6.00)   -54.493   1.281
    4p(0.00)    -1.471   1.281
    3d(5.00)    -7.009   1.138
    *d          20.203   1.138

  Using partial waves for Mn as LCAO basis

P-setup:
  name: Phosphorus
  id: a5561c299094968922a179ab894d2e2d
  Z: 15.0
  valence: 5
  core: 10
  charge: 0.0
  file: /home/modules/software/GPAW-setups/0.9.20000/P.LDA.gz
  compensation charges: gauss, rc=0.30, lmax=2
  cutoffs: 1.69(filt), 1.81(core),
  valence states:
                energy  radius
    3s(2.00)   -14.015   0.953
    3p(3.00)    -5.596   0.953
    *s          13.197   0.953
    *p          21.615   0.953
    *d           0.000   0.953

  Using partial waves for P as LCAO basis

Li-setup:
  name: Lithium
  id: b73562207f97a71b6967473b66fe8b65
  Z: 3.0
  valence: 1
  core: 2
  charge: 0.0
  file: /home/modules/software/GPAW-setups/0.9.20000/Li.LDA.gz
  compensation charges: gauss, rc=0.33, lmax=2
  cutoffs: 1.91(filt), 2.55(core),
  valence states:
                energy  radius
    2s(1.00)    -2.874   1.058
    2p(0.00)    -1.126   1.058
    *s          24.338   1.058

  Using partial waves for Li as LCAO basis

Reference energy: -196157.275402

Spin-polarized calculation.
Magnetic moment: 0.000000

Convergence criteria:
  Maximum total energy change: 0.0005 eV / electron
  Maximum integral of absolute density change: 0.0001 electrons
  Maximum integral of absolute eigenstate change: 4e-08 eV^2
  Maximum change in atomic force: 1e-06 eV / Ang
  Maximum number of iterations: 333

Symmetries present (total): 1

  ( 1  0  0)
  ( 0  1  0)
  ( 0  0  1)

144 k-points: 6 x 6 x 4 Monkhorst-Pack grid
144 k-points in the irreducible part of the Brillouin zone
       k-points in crystal coordinates                weights
   0:    -0.41666667   -0.41666667   -0.37500000          1/144
   1:    -0.41666667   -0.41666667   -0.12500000          1/144
   2:    -0.41666667   -0.41666667    0.12500000          1/144
   3:    -0.41666667   -0.41666667    0.37500000          1/144
   4:    -0.41666667   -0.25000000   -0.37500000          1/144
   5:    -0.41666667   -0.25000000   -0.12500000          1/144
   6:    -0.41666667   -0.25000000    0.12500000          1/144
   7:    -0.41666667   -0.25000000    0.37500000          1/144
   8:    -0.41666667   -0.08333333   -0.37500000          1/144
   9:    -0.41666667   -0.08333333   -0.12500000          1/144
          ...
 143:     0.41666667    0.41666667    0.37500000          1/144

Wave functions: Plane wave expansion
  Cutoff energy: 600.000 eV
  Number of coefficients (min, max): 10068, 10125
  Pulay-stress correction: 0.000000 eV/Ang^3 (de/decut=0.000000)
  Using FFTW library
  ScaLapack parameters: grid=1x1, blocksize=None
  Wavefunction extrapolation:
    Improved wavefunction reuse through dual PAW basis 

  Fermi-Dirac: width=0.0010 eV

Eigensolver
   Davidson(niter=2, smin=None, normalize=True) 

Densities:
  Coarse grid: 60*35*27 grid
  Fine grid: 120*70*54 grid
  Total Charge: 0.000000 

Density mixing:
  Method: difference
  Backend: pulay
  Linear mixing parameter: 0.05
  Mixing with 5 old densities
  Damping of long wave oscillations: 50 

Hamiltonian:
  XC and Coulomb potentials evaluated on a 120*70*54 grid
  Using the LDA Exchange-Correlation functional
 

Memory estimate:
  Process memory now: 13647.36 MiB
  Calculator: 354.82 MiB
    Density: 10.06 MiB
      Arrays: 3.79 MiB
      Localized functions: 4.71 MiB
      Mixer: 1.56 MiB
    Hamiltonian: 2.95 MiB
      Arrays: 2.82 MiB
      XC: 0.00 MiB
      Poisson: 0.00 MiB
      vbar: 0.14 MiB
    Wavefunctions: 341.80 MiB
      Arrays psit_nG: 311.46 MiB
      Eigensolver: 19.99 MiB
      Projections: 2.71 MiB
      Projectors: 4.87 MiB
      PW-descriptor: 2.77 MiB

Total number of cores used: 64
Parallelization over k-points: 16
Domain decomposition: 2 x 2 x 1

Number of atoms: 28
Number of atomic orbitals: 148
Number of bands in calculation: 112
Number of valence electrons: 180
Bands to converge: occupied

... initialized

Initializing position-dependent things.

Density initialized from atomic densities
Creating initial wave functions:
  112 bands from LCAO basis set

     .-------------------------.  
    /|         OP              |  
   / |O            O        O  |  
  /  |       O            O  P |  
 *   |O    Mn      O           |  
 |   |          OLi          O |  
 |   P--O--------------Mn------.  
 |  /          Li    O  Mn  O /   
 | /LiO           PO         /    
 |/       Mn                /     
 *Li-----------------------*      

Positions:
   0 O     -1.330281   -2.539252   -1.168500    ( 0.0000,  0.0000,  0.0000)
   1 O     -3.152392    2.974909    1.200956    ( 0.0000,  0.0000,  0.0000)
   2 O      2.077234    0.510133    1.506966    ( 0.0000,  0.0000,  0.0000)
   3 O      3.899724   -0.074476   -0.862491    ( 0.0000,  0.0000,  0.0000)
   4 O      2.077424    2.974966    1.507072    ( 0.0000,  0.0000,  0.0000)
   5 O      3.899535   -2.539195   -0.862384    ( 0.0000,  0.0000,  0.0000)
   6 O     -1.330092   -0.074418   -1.168395    ( 0.0000,  0.0000,  0.0000)
   7 O     -3.152581    0.510191    1.201063    ( 0.0000,  0.0000,  0.0000)
   8 O     -4.389675   -1.306969   -0.813152    ( 0.0000,  0.0000,  0.0000)
   9 O     -0.093301    1.742683    1.556268    ( 0.0000,  0.0000,  0.0000)
  10 O      5.136817    1.742683    1.151723    ( 0.0000,  0.0000,  0.0000)
  11 O      0.840444   -1.306969   -1.217697    ( 0.0000,  0.0000,  0.0000)
  12 Mn    -2.557192   -1.307258    0.273595    ( 0.0000,  0.0000,  1.0000)
  13 Mn    -1.925535    1.742972   -2.096623    ( 0.0000,  0.0000, -1.0000)
  14 Mn     3.304335    1.742972    0.064976    ( 0.0000,  0.0000, -1.0000)
  15 Mn     2.672678   -1.307258    2.435195    ( 0.0000,  0.0000,  1.0000)
  16 P     -0.597175   -1.306854   -1.801474    ( 0.0000,  0.0000,  0.0000)
  17 P     -3.885565    1.742568    0.568028    ( 0.0000,  0.0000,  0.0000)
  18 P      1.344318    1.742568    2.140045    ( 0.0000,  0.0000,  0.0000)
  19 P      4.632708   -1.306854   -0.229456    ( 0.0000,  0.0000,  0.0000)
  20 O     -0.636957   -1.306861    1.403074    ( 0.0000,  0.0000,  0.0000)
  21 O     -3.845824    1.742575   -0.967462    ( 0.0000,  0.0000,  0.0000)
  22 O      1.384100    1.742576   -1.064503    ( 0.0000,  0.0000,  0.0000)
  23 O      4.592967   -1.296861    1.306033    ( 0.0000,  0.0000,  0.0000)
  24 Li    -4.856429   -2.832143   -2.200714    ( 0.0000,  0.0000,  0.0000)
  25 Li     0.373571   -2.832143    0.169286    ( 0.0000,  0.0000,  0.0000)
  26 Li    -4.856429    0.217857   -2.200714    ( 0.0000,  0.0000,  0.0000)
  27 Li     0.373571    0.217857    0.169286    ( 0.0000,  0.0000,  0.0000)

Unit cell:
           periodic     x           y           z      points  spacing
  1. axis:    yes   10.460000    0.000000    0.000000    60     0.1743
  2. axis:    yes    0.000000    6.100000    0.000000    35     0.1743
  3. axis:    yes    0.000000    0.000000    4.740000    27     0.1756

  Lengths:  10.460000   6.100000   4.740000
  Angles:   90.000000  90.000000  90.000000

Effective grid spacing dv^(1/3) = 0.1747

                     log10-error:           total        iterations:
           time      wfs    density  force  energy       poisson  magmom
iter:   1  06:06:05                       -220.688409             +0.0000
iter:   2  06:06:26  -0.64  -0.92         -235.503851             +0.0000
iter:   3  06:06:48  -0.40  -0.96         -226.168782             -0.0000
iter:   4  06:07:09  -1.41  -1.29         -225.888203             +0.0000
iter:   5  06:07:30  -1.19  -1.38         -227.589048             +0.0000
iter:   6  06:07:52  -1.39  -1.51         -225.829064             +0.0000
iter:   7  06:08:13  -2.57  -2.06         -225.899043             +0.0000
iter:   8  06:08:35  -2.23  -2.01         -225.641996             -0.0000
iter:   9  06:08:56  -2.68  -2.09         -225.546683             +0.0000
iter:  10  06:09:17  -3.55  -2.95         -225.545902             +0.0000
iter:  11  06:09:39  -3.95  -3.00         -225.547476             +0.0000
iter:  12  06:10:00  -4.29  -3.22         -225.547653             +0.0000
iter:  13  06:10:22  -5.37  -3.36         -225.547543             -0.0000
iter:  14  06:10:43  -5.18  -3.44         -225.547396             -0.0000
iter:  15  06:11:05  -5.36  -3.60         -225.547310             -0.0000
iter:  16  06:11:26  -6.31  -3.68         -225.547295             +0.0000
iter:  17  06:11:48  -6.27  -3.76         -225.547313             -0.0000
iter:  18  06:12:09  -6.76  -3.81         -225.547315             -0.0000
iter:  19  06:12:30  -5.82  -3.83         -225.547279             -0.0000
iter:  20  06:12:52  -7.02  -4.42         -225.547275             -0.0000
iter:  21  06:13:19  -7.85  -4.68         -225.547273             -0.0000
iter:  22  06:13:40  -7.19  -4.77         -225.547272             -0.0000
iter:  23  06:14:07  -7.85  -4.76    -3.01-225.547271             -0.0000
iter:  24  06:14:34  -8.56  -4.92    -3.02-225.547271             -0.0000
iter:  25  06:15:00  -7.40  -4.94    -2.53-225.547272             -0.0000
iter:  26  06:15:27  -8.00  -4.93    -2.80-225.547271             -0.0000
iter:  27  06:15:54  -7.83  -5.05    -3.17-225.547271             -0.0000
iter:  28  06:16:21  -8.03  -5.01    -2.83-225.547271             -0.0000
iter:  29  06:16:48  -8.14  -5.22    -2.89-225.547271             -0.0000
iter:  30  06:17:14  -9.60  -5.57    -3.73-225.547271             -0.0000
iter:  31  06:17:41  -9.24  -5.64    -3.74-225.547271             -0.0000
iter:  32  06:18:08  -9.60  -5.75    -3.64-225.547271             -0.0000
iter:  33  06:18:35  -8.65  -5.77    -3.21-225.547271             -0.0000
iter:  34  06:19:01  -9.56  -5.71    -3.64-225.547271             -0.0000
iter:  35  06:19:28  -9.89  -6.06    -3.78-225.547271             -0.0000
iter:  36  06:19:55 -10.26  -6.15    -4.31-225.547271             -0.0000
iter:  37  06:20:22 -10.30  -6.31    -4.13-225.547271             -0.0000
iter:  38  06:20:48  -9.92  -6.24    -3.98-225.547271             -0.0000
iter:  39  06:21:15 -11.38  -7.13    -5.38-225.547271             -0.0000
iter:  40  06:21:42 -12.40  -7.11    -5.26-225.547271             -0.0000
iter:  41  06:22:09 -12.07  -7.18    -5.01-225.547271             -0.0000
iter:  42  06:22:35 -11.99  -7.26    -4.98-225.547271             -0.0000
iter:  43  06:23:02 -13.26  -7.40    -5.61-225.547271             -0.0000
iter:  44  06:23:29 -13.70  -7.48    -5.78-225.547271             -0.0000
iter:  45  06:23:56 -12.75  -7.50    -5.26-225.547271             -0.0000
iter:  46  06:24:22 -13.55  -7.48    -5.48-225.547271             -0.0000
iter:  47  06:24:49 -13.67  -7.78    -5.67-225.547271             -0.0000
iter:  48  06:25:16 -14.62  -8.01    -6.40-225.547271             -0.0000

Converged after 48 iterations.

Dipole moment: (13.160101, 1.715903, -5.512644) |e|*Ang

Total magnetic moment: (0.000000, 0.000000, -0.000000)
Local magnetic moments:
   0 O  ( 0.000000,  0.000000,  0.001066)
   1 O  ( 0.000000,  0.000000, -0.001048)
   2 O  ( 0.000000,  0.000000, -0.001041)
   3 O  ( 0.000000,  0.000000,  0.001074)
   4 O  ( 0.000000,  0.000000, -0.001084)
   5 O  ( 0.000000,  0.000000,  0.001022)
   6 O  ( 0.000000,  0.000000,  0.001057)
   7 O  ( 0.000000,  0.000000, -0.001049)
   8 O  ( 0.000000,  0.000000,  0.019778)
   9 O  ( 0.000000,  0.000000, -0.019776)
  10 O  ( 0.000000,  0.000000, -0.019779)
  11 O  ( 0.000000,  0.000000,  0.019776)
  12 Mn ( 0.000000,  0.000000,  4.601525)
  13 Mn ( 0.000000,  0.000000, -4.601591)
  14 Mn ( 0.000000,  0.000000, -4.601524)
  15 Mn ( 0.000000,  0.000000,  4.601591)
  16 P  ( 0.000000,  0.000000,  0.001300)
  17 P  ( 0.000000,  0.000000, -0.001293)
  18 P  ( 0.000000,  0.000000, -0.001300)
  19 P  ( 0.000000,  0.000000,  0.001293)
  20 O  ( 0.000000,  0.000000,  0.018072)
  21 O  ( 0.000000,  0.000000, -0.018068)
  22 O  ( 0.000000,  0.000000, -0.018072)
  23 O  ( 0.000000,  0.000000,  0.018068)
  24 Li ( 0.000000,  0.000000, -0.000003)
  25 Li ( 0.000000,  0.000000,  0.000000)
  26 Li ( 0.000000,  0.000000,  0.000004)
  27 Li ( 0.000000,  0.000000, -0.000000)

Energy contributions relative to reference atoms: (reference = -196157.275402)

Kinetic:       +242.940054
Potential:     -215.436833
External:        +0.000000
XC:            -254.965769
Entropy (-ST):   -0.000000
Local:           +1.915276
--------------------------
Free energy:   -225.547271
Extrapolated:  -225.547271

Spin contamination: 9.747498 electrons
Showing only first 2 kpts
                      Up                     Down
 Kpt  Band  Eigenvalues  Occupancy  Eigenvalues  Occupancy
  0    88      3.92307    0.00694      3.92291    0.00694
  0    89      3.97160    0.00694      3.97165    0.00694
  0    90      8.66740    0.00000      8.66738    0.00000
  0    91      8.68681    0.00000      8.68680    0.00000

  1    88      3.91963    0.00694      3.91941    0.00694
  1    89      3.97547    0.00694      3.97547    0.00694
  1    90      8.51310    0.00000      8.51313    0.00000
  1    91      8.52957    0.00000      8.52962    0.00000


Fermi level: 5.31839

Gap: 3.778 eV
Transition (v -> c):
  (s=0, k=73, n=89, [0.08, -0.42, -0.12]) -> (s=0, k=82, n=90, [0.08, -0.08, 0.12])
Writing to born-0.01-23y+.gpw (mode='all')

Timing:                              incl.     excl.
-----------------------------------------------------------
Hamiltonian:                         0.248     0.002   0.0% |
 Atomic:                             0.058     0.058   0.0% |
  XC Correction:                     0.000     0.000   0.0% |
 Calculate atomic Hamiltonians:      0.095     0.095   0.0% |
 Communicate:                        0.001     0.001   0.0% |
 Initialize Hamiltonian:             0.000     0.000   0.0% |
 Poisson:                            0.001     0.001   0.0% |
 XC 3D grid:                         0.092     0.092   0.0% |
LCAO initialization:                69.732     0.678   0.0% |
 LCAO eigensolver:                  17.759     0.002   0.0% |
  Calculate projections:             0.029     0.029   0.0% |
  DenseAtomicCorrection:             0.042     0.042   0.0% |
  Distribute overlap matrix:         0.070     0.070   0.0% |
  Orbital Layouts:                   0.474     0.474   0.0% |
  Potential matrix:                 17.040    17.040   0.5% |
  Sum over cells:                    0.101     0.101   0.0% |
 LCAO to grid:                      50.010    50.010   1.6% ||
 Set positions (LCAO WFS):           1.286     0.189   0.0% |
  Basic WFS set positions:           0.001     0.001   0.0% |
  Basis functions set positions:     0.000     0.000   0.0% |
  P tci:                             0.526     0.526   0.0% |
  ST tci:                            0.361     0.361   0.0% |
  mktci:                             0.208     0.208   0.0% |
PWDescriptor:                        0.026     0.026   0.0% |
SCF-cycle:                        1174.464     0.805   0.0% |
 Davidson:                         976.042   304.738   9.6% |---|
  Apply H:                          66.037    64.110   2.0% ||
   HMM T:                            1.927     1.927   0.1% |
  Subspace diag:                   141.457     0.143   0.0% |
   calc_h_matrix:                   90.152    23.960   0.8% |
    Apply H:                        66.193    64.362   2.0% ||
     HMM T:                          1.831     1.831   0.1% |
   diagonalize:                      6.981     6.981   0.2% |
   rotate_psi:                      44.181    44.181   1.4% ||
  calc. matrices:                  288.345   161.082   5.1% |-|
   Apply H:                        127.263   123.791   3.9% |-|
    HMM T:                           3.472     3.472   0.1% |
  diagonalize:                      79.994    79.994   2.5% ||
  rotate_psi:                       95.472    95.472   3.0% ||
 Density:                           38.592     0.001   0.0% |
  Atomic density matrices:           0.851     0.851   0.0% |
  Mix:                               6.084     6.084   0.2% |
  Multipole moments:                 0.017     0.017   0.0% |
  Pseudo density:                   31.639    31.638   1.0% |
   Symmetrize density:               0.001     0.001   0.0% |
 Forces:                           144.864   144.864   4.5% |-|
 Hamiltonian:                       11.862     0.104   0.0% |
  Atomic:                            2.746     2.746   0.1% |
   XC Correction:                    0.000     0.000   0.0% |
  Calculate atomic Hamiltonians:     4.501     4.501   0.1% |
  Communicate:                       0.085     0.085   0.0% |
  Poisson:                           0.037     0.037   0.0% |
  XC 3D grid:                        4.388     4.388   0.1% |
 Orthonormalize:                     2.298     0.003   0.0% |
  calc_s_matrix:                     0.265     0.265   0.0% |
  inverse-cholesky:                  0.078     0.078   0.0% |
  projections:                       1.475     1.475   0.0% |
  rotate_psi_s:                      0.476     0.476   0.0% |
Set symmetry:                        0.000     0.000   0.0% |
Other:                            1940.601  1940.601  60.9% |-----------------------|
-----------------------------------------------------------
Total:                                      3185.071 100.0%

Memory usage: 13.36 GiB
Date: Thu Mar 25 06:57:35 2021
