
  ___ ___ ___ _ _ _  
 |   |   |_  | | | | 
 | | | | | . | | | | 
 |__ |  _|___|_____|  20.10.1b1
 |___|_|             

User:   madkru@g006.nifl.fysik.dtu.dk
Date:   Wed Mar 24 07:44:43 2021
Arch:   x86_64
Pid:    12017
Python: 3.7.4
gpaw:   /home/niflheim/madkru/venv_folder/gpaw/gpaw (d0d1ca1c71)
_gpaw:  /home/niflheim/madkru/venv_folder/gpaw/build/lib.linux-x86_64-sandybridge-3.7/
        _gpaw.cpython-37m-x86_64-linux-gnu.so (4fd39e8b1e)
ase:    /home/niflheim/madkru/venv_folder/ase/ase (version 3.21.0b1-7e6c206a91)
numpy:  /home/niflheim/madkru/venv_folder/lib/python3.7/site-packages/numpy (version 1.19.4)
scipy:  /home/niflheim/madkru/venv_folder/lib/python3.7/site-packages/scipy (version 1.5.4)
libxc:  4.3.4
units:  Angstrom and eV
cores: 64
OMP_NUM_THREADS: 1

Input parameters:
  convergence: {bands: occupied,
                density: 0.0001,
                eigenstates: 4e-08,
                energy: 0.0005,
                forces: 1e-06}
  kpts: [6 6 4]
  mode: {ecut: 600.0,
         gammacentered: False,
         name: pw}
  occupations: {fixmagmom: False,
                name: fermi-dirac,
                width: 0.001}
  setups: {Mn: :d,3.0}
  symmetry: {point_group: False,
             time_reversal: False}

System changes: positions, numbers, cell, pbc, initial_charges, initial_magmoms 

Initialize ...

O-setup:
  name: Oxygen
  id: 9b9d51c344dea68c822856295a461509
  Z: 8.0
  valence: 6
  core: 2
  charge: 0.0
  file: /home/modules/software/GPAW-setups/0.9.20000/O.LDA.gz
  compensation charges: gauss, rc=0.21, lmax=2
  cutoffs: 1.17(filt), 0.83(core),
  valence states:
                energy  radius
    2s(2.00)   -23.752   0.688
    2p(4.00)    -9.195   0.598
    *s           3.459   0.688
    *p          18.016   0.598
    *d           0.000   0.619

  Using partial waves for O as LCAO basis

Mn-setup:
  name: Manganese
  id: 0d715a8018be061a6e9ea6f2d364ac92
  Z: 25.0
  valence: 15
  core: 10
  charge: 0.0
  Hubbard U: 3.000000 eV (l=2, scale=True)
  file: /home/modules/software/GPAW-setups/0.9.20000/Mn.LDA.gz
  compensation charges: gauss, rc=0.38, lmax=2
  cutoffs: 2.14(filt), 0.86(core),
  valence states:
                energy  radius
    3s(2.00)   -85.387   1.275
    4s(2.00)    -5.282   1.275
    3p(6.00)   -54.493   1.281
    4p(0.00)    -1.471   1.281
    3d(5.00)    -7.009   1.138
    *d          20.203   1.138

  Using partial waves for Mn as LCAO basis

P-setup:
  name: Phosphorus
  id: a5561c299094968922a179ab894d2e2d
  Z: 15.0
  valence: 5
  core: 10
  charge: 0.0
  file: /home/modules/software/GPAW-setups/0.9.20000/P.LDA.gz
  compensation charges: gauss, rc=0.30, lmax=2
  cutoffs: 1.69(filt), 1.81(core),
  valence states:
                energy  radius
    3s(2.00)   -14.015   0.953
    3p(3.00)    -5.596   0.953
    *s          13.197   0.953
    *p          21.615   0.953
    *d           0.000   0.953

  Using partial waves for P as LCAO basis

Li-setup:
  name: Lithium
  id: b73562207f97a71b6967473b66fe8b65
  Z: 3.0
  valence: 1
  core: 2
  charge: 0.0
  file: /home/modules/software/GPAW-setups/0.9.20000/Li.LDA.gz
  compensation charges: gauss, rc=0.33, lmax=2
  cutoffs: 1.91(filt), 2.55(core),
  valence states:
                energy  radius
    2s(1.00)    -2.874   1.058
    2p(0.00)    -1.126   1.058
    *s          24.338   1.058

  Using partial waves for Li as LCAO basis

Reference energy: -196157.275402

Spin-polarized calculation.
Magnetic moment: 0.000000

Convergence criteria:
  Maximum total energy change: 0.0005 eV / electron
  Maximum integral of absolute density change: 0.0001 electrons
  Maximum integral of absolute eigenstate change: 4e-08 eV^2
  Maximum change in atomic force: 1e-06 eV / Ang
  Maximum number of iterations: 333

Symmetries present (total): 1

  ( 1  0  0)
  ( 0  1  0)
  ( 0  0  1)

144 k-points: 6 x 6 x 4 Monkhorst-Pack grid
144 k-points in the irreducible part of the Brillouin zone
       k-points in crystal coordinates                weights
   0:    -0.41666667   -0.41666667   -0.37500000          1/144
   1:    -0.41666667   -0.41666667   -0.12500000          1/144
   2:    -0.41666667   -0.41666667    0.12500000          1/144
   3:    -0.41666667   -0.41666667    0.37500000          1/144
   4:    -0.41666667   -0.25000000   -0.37500000          1/144
   5:    -0.41666667   -0.25000000   -0.12500000          1/144
   6:    -0.41666667   -0.25000000    0.12500000          1/144
   7:    -0.41666667   -0.25000000    0.37500000          1/144
   8:    -0.41666667   -0.08333333   -0.37500000          1/144
   9:    -0.41666667   -0.08333333   -0.12500000          1/144
          ...
 143:     0.41666667    0.41666667    0.37500000          1/144

Wave functions: Plane wave expansion
  Cutoff energy: 600.000 eV
  Number of coefficients (min, max): 10068, 10125
  Pulay-stress correction: 0.000000 eV/Ang^3 (de/decut=0.000000)
  Using FFTW library
  ScaLapack parameters: grid=1x1, blocksize=None
  Wavefunction extrapolation:
    Improved wavefunction reuse through dual PAW basis 

  Fermi-Dirac: width=0.0010 eV

Eigensolver
   Davidson(niter=2, smin=None, normalize=True) 

Densities:
  Coarse grid: 60*35*27 grid
  Fine grid: 120*70*54 grid
  Total Charge: 0.000000 

Density mixing:
  Method: difference
  Backend: pulay
  Linear mixing parameter: 0.05
  Mixing with 5 old densities
  Damping of long wave oscillations: 50 

Hamiltonian:
  XC and Coulomb potentials evaluated on a 120*70*54 grid
  Using the LDA Exchange-Correlation functional
 

Memory estimate:
  Process memory now: 12710.20 MiB
  Calculator: 354.82 MiB
    Density: 10.06 MiB
      Arrays: 3.79 MiB
      Localized functions: 4.71 MiB
      Mixer: 1.56 MiB
    Hamiltonian: 2.95 MiB
      Arrays: 2.82 MiB
      XC: 0.00 MiB
      Poisson: 0.00 MiB
      vbar: 0.14 MiB
    Wavefunctions: 341.80 MiB
      Arrays psit_nG: 311.46 MiB
      Eigensolver: 19.99 MiB
      Projections: 2.71 MiB
      Projectors: 4.87 MiB
      PW-descriptor: 2.77 MiB

Total number of cores used: 64
Parallelization over k-points: 16
Domain decomposition: 2 x 2 x 1

Number of atoms: 28
Number of atomic orbitals: 148
Number of bands in calculation: 112
Number of valence electrons: 180
Bands to converge: occupied

... initialized

Initializing position-dependent things.

Density initialized from atomic densities
Creating initial wave functions:
  112 bands from LCAO basis set

     .-------------------------.  
    /|         OP              |  
   / |O            O        O  |  
  /  |       O            O  P |  
 *   |O    Mn      O           |  
 |   |          OLi          O |  
 |   P--O--------------Mn------.  
 |  /          Li    O  Mn  O /   
 | /LiO           PO         /    
 |/       Mn                /     
 *Li-----------------------*      

Positions:
   0 O     -1.330281   -2.539252   -1.168500    ( 0.0000,  0.0000,  0.0000)
   1 O     -3.152392    2.974909    1.200956    ( 0.0000,  0.0000,  0.0000)
   2 O      2.077234    0.510133    1.506966    ( 0.0000,  0.0000,  0.0000)
   3 O      3.899724   -0.074476   -0.862491    ( 0.0000,  0.0000,  0.0000)
   4 O      2.077424    2.974966    1.507072    ( 0.0000,  0.0000,  0.0000)
   5 O      3.899535   -2.539195   -0.862384    ( 0.0000,  0.0000,  0.0000)
   6 O     -1.330092   -0.074418   -1.168395    ( 0.0000,  0.0000,  0.0000)
   7 O     -3.152581    0.510191    1.201063    ( 0.0000,  0.0000,  0.0000)
   8 O     -4.389675   -1.306969   -0.813152    ( 0.0000,  0.0000,  0.0000)
   9 O     -0.093301    1.742683    1.556268    ( 0.0000,  0.0000,  0.0000)
  10 O      5.136817    1.742683    1.151723    ( 0.0000,  0.0000,  0.0000)
  11 O      0.840444   -1.306969   -1.217697    ( 0.0000,  0.0000,  0.0000)
  12 Mn    -2.557192   -1.307258    0.273595    ( 0.0000,  0.0000,  1.0000)
  13 Mn    -1.925535    1.742972   -2.096623    ( 0.0000,  0.0000, -1.0000)
  14 Mn     3.304335    1.742972    0.064976    ( 0.0000,  0.0000, -1.0000)
  15 Mn     2.672678   -1.307258    2.435195    ( 0.0000,  0.0000,  1.0000)
  16 P     -0.607175   -1.306854   -1.801474    ( 0.0000,  0.0000,  0.0000)
  17 P     -3.885565    1.742568    0.568028    ( 0.0000,  0.0000,  0.0000)
  18 P      1.344318    1.742568    2.140045    ( 0.0000,  0.0000,  0.0000)
  19 P      4.632708   -1.306854   -0.229456    ( 0.0000,  0.0000,  0.0000)
  20 O     -0.636957   -1.306861    1.403074    ( 0.0000,  0.0000,  0.0000)
  21 O     -3.845824    1.742575   -0.967462    ( 0.0000,  0.0000,  0.0000)
  22 O      1.384100    1.742576   -1.064503    ( 0.0000,  0.0000,  0.0000)
  23 O      4.592967   -1.306861    1.306033    ( 0.0000,  0.0000,  0.0000)
  24 Li    -4.856429   -2.832143   -2.200714    ( 0.0000,  0.0000,  0.0000)
  25 Li     0.373571   -2.832143    0.169286    ( 0.0000,  0.0000,  0.0000)
  26 Li    -4.856429    0.217857   -2.200714    ( 0.0000,  0.0000,  0.0000)
  27 Li     0.373571    0.217857    0.169286    ( 0.0000,  0.0000,  0.0000)

Unit cell:
           periodic     x           y           z      points  spacing
  1. axis:    yes   10.460000    0.000000    0.000000    60     0.1743
  2. axis:    yes    0.000000    6.100000    0.000000    35     0.1743
  3. axis:    yes    0.000000    0.000000    4.740000    27     0.1756

  Lengths:  10.460000   6.100000   4.740000
  Angles:   90.000000  90.000000  90.000000

Effective grid spacing dv^(1/3) = 0.1747

                     log10-error:           total        iterations:
           time      wfs    density  force  energy       poisson  magmom
iter:   1  07:46:17                       -220.692611             +0.0000
iter:   2  07:46:38  -0.64  -0.92         -235.507126             +0.0000
iter:   3  07:47:00  -0.40  -0.96         -226.167378             -0.0000
iter:   4  07:47:21  -1.41  -1.29         -225.886088             +0.0000
iter:   5  07:47:43  -1.19  -1.38         -227.582945             +0.0000
iter:   6  07:48:04  -1.39  -1.51         -225.827371             +0.0000
iter:   7  07:48:26  -2.55  -2.06         -225.892257             +0.0000
iter:   8  07:48:47  -2.24  -2.00         -225.660860             -0.0000
iter:   9  07:49:08  -2.63  -2.05         -225.543514             +0.0000
iter:  10  07:49:30  -3.49  -2.91         -225.541675             +0.0000
iter:  11  07:49:51  -3.96  -3.00         -225.544851             +0.0000
iter:  12  07:50:13  -4.29  -3.20         -225.544944             +0.0000
iter:  13  07:50:34  -5.38  -3.36         -225.544869             -0.0000
iter:  14  07:50:55  -5.16  -3.43         -225.544781             +0.0000
iter:  15  07:51:17  -5.31  -3.58         -225.544670             -0.0000
iter:  16  07:51:38  -6.31  -3.71         -225.544634             +0.0000
iter:  17  07:52:00  -6.17  -3.79         -225.544666             -0.0000
iter:  18  07:52:21  -6.73  -3.84         -225.544663             -0.0000
iter:  19  07:52:42  -5.84  -3.86         -225.544632             -0.0000
iter:  20  07:53:04  -6.82  -4.40         -225.544633             -0.0000
iter:  21  07:53:25  -6.97  -4.65         -225.544624             -0.0000
iter:  22  07:53:52  -7.68  -4.89         -225.544624             +0.0000
iter:  23  07:54:19  -8.20  -4.99    -2.87-225.544624             +0.0000
iter:  24  07:54:45  -8.92  -5.23    -3.66-225.544624             +0.0000
iter:  25  07:55:12  -8.39  -5.29    -2.87-225.544624             +0.0000
iter:  26  07:55:39  -8.83  -5.42    -3.50-225.544624             +0.0000
iter:  27  07:56:06  -8.44  -5.47    -3.20-225.544624             +0.0000
iter:  28  07:56:33  -8.52  -5.45    -3.00-225.544624             +0.0000
iter:  29  07:56:59  -8.85  -5.42    -3.26-225.544624             +0.0000
iter:  30  07:57:26  -9.51  -6.10    -4.21-225.544624             -0.0000
iter:  31  07:57:53 -10.37  -6.07    -4.31-225.544624             -0.0000
iter:  32  07:58:20 -10.94  -6.19    -4.63-225.544624             +0.0000
iter:  33  07:58:46 -10.95  -6.39    -4.46-225.544624             +0.0000
iter:  34  07:59:13 -11.28  -6.66    -4.34-225.544624             +0.0000
iter:  35  07:59:40 -11.87  -6.75    -4.57-225.544624             +0.0000
iter:  36  08:00:07 -12.15  -6.85    -4.86-225.544624             +0.0000
iter:  37  08:00:33 -11.83  -6.93    -5.01-225.544624             +0.0000
iter:  38  08:01:00 -12.02  -7.07    -4.52-225.544624             +0.0000
iter:  39  08:01:27 -12.32  -7.01    -4.74-225.544624             +0.0000
iter:  40  08:01:54 -13.21  -7.40    -5.94-225.544624             +0.0000
iter:  41  08:02:20 -12.94  -7.46    -5.35-225.544624             +0.0000
iter:  42  08:02:47 -13.42  -7.62    -5.60-225.544624             +0.0000
iter:  43  08:03:14 -13.47  -7.72    -5.60-225.544624             +0.0000
iter:  44  08:03:41 -13.28  -7.71    -5.30-225.544624             +0.0000
iter:  45  08:04:08 -14.07  -7.89    -5.94-225.544624             +0.0000
iter:  46  08:04:34 -13.81  -8.01    -5.74-225.544624             +0.0000
iter:  47  08:05:01 -14.27  -8.05    -5.94-225.544624             +0.0000
iter:  48  08:05:28 -15.53  -8.44    -6.59-225.544624             +0.0000

Converged after 48 iterations.

Dipole moment: (12.998675, 1.705565, -5.513260) |e|*Ang

Total magnetic moment: (0.000000, 0.000000, 0.000000)
Local magnetic moments:
   0 O  ( 0.000000,  0.000000,  0.001197)
   1 O  ( 0.000000,  0.000000, -0.001032)
   2 O  ( 0.000000,  0.000000, -0.001114)
   3 O  ( 0.000000,  0.000000,  0.000999)
   4 O  ( 0.000000,  0.000000, -0.001122)
   5 O  ( 0.000000,  0.000000,  0.001007)
   6 O  ( 0.000000,  0.000000,  0.001189)
   7 O  ( 0.000000,  0.000000, -0.001024)
   8 O  ( 0.000000,  0.000000,  0.019827)
   9 O  ( 0.000000,  0.000000, -0.019856)
  10 O  ( 0.000000,  0.000000, -0.019718)
  11 O  ( 0.000000,  0.000000,  0.019924)
  12 Mn ( 0.000000,  0.000000,  4.601389)
  13 Mn ( 0.000000,  0.000000, -4.601698)
  14 Mn ( 0.000000,  0.000000, -4.601529)
  15 Mn ( 0.000000,  0.000000,  4.601496)
  16 P  ( 0.000000,  0.000000,  0.001195)
  17 P  ( 0.000000,  0.000000, -0.001296)
  18 P  ( 0.000000,  0.000000, -0.001279)
  19 P  ( 0.000000,  0.000000,  0.001289)
  20 O  ( 0.000000,  0.000000,  0.018204)
  21 O  ( 0.000000,  0.000000, -0.018077)
  22 O  ( 0.000000,  0.000000, -0.018086)
  23 O  ( 0.000000,  0.000000,  0.017993)
  24 Li ( 0.000000,  0.000000, -0.000000)
  25 Li ( 0.000000,  0.000000,  0.000010)
  26 Li ( 0.000000,  0.000000, -0.000000)
  27 Li ( 0.000000,  0.000000,  0.000011)

Energy contributions relative to reference atoms: (reference = -196157.275402)

Kinetic:       +242.933845
Potential:     -215.427038
External:        +0.000000
XC:            -254.966720
Entropy (-ST):   -0.000000
Local:           +1.915290
--------------------------
Free energy:   -225.544624
Extrapolated:  -225.544624

Spin contamination: 9.747612 electrons
Showing only first 2 kpts
                      Up                     Down
 Kpt  Band  Eigenvalues  Occupancy  Eigenvalues  Occupancy
  0    88      3.92492    0.00694      3.91400    0.00694
  0    89      3.98352    0.00694      3.96883    0.00694
  0    90      8.66133    0.00000      8.65110    0.00000
  0    91      8.67971    0.00000      8.70040    0.00000

  1    88      3.92130    0.00694      3.91077    0.00694
  1    89      3.98696    0.00694      3.97241    0.00694
  1    90      8.50444    0.00000      8.49387    0.00000
  1    91      8.52703    0.00000      8.54306    0.00000


Fermi level: 5.31861

Gap: 3.766 eV
Transition (v -> c):
  (s=0, k=70, n=89, [-0.08, 0.42, 0.12]) -> (s=1, k=57, n=90, [-0.08, -0.08, -0.12])
Writing to born-0.01-16x-.gpw (mode='all')

Timing:                              incl.     excl.
-----------------------------------------------------------
Hamiltonian:                         0.248     0.002   0.0% |
 Atomic:                             0.057     0.057   0.0% |
  XC Correction:                     0.000     0.000   0.0% |
 Calculate atomic Hamiltonians:      0.091     0.091   0.0% |
 Communicate:                        0.002     0.002   0.0% |
 Initialize Hamiltonian:             0.000     0.000   0.0% |
 Poisson:                            0.001     0.001   0.0% |
 XC 3D grid:                         0.095     0.095   0.0% |
LCAO initialization:                68.547     0.677   0.0% |
 LCAO eigensolver:                  17.557     0.002   0.0% |
  Calculate projections:             0.029     0.029   0.0% |
  DenseAtomicCorrection:             0.042     0.042   0.0% |
  Distribute overlap matrix:         0.064     0.064   0.0% |
  Orbital Layouts:                   0.473     0.473   0.0% |
  Potential matrix:                 16.858    16.858   0.5% |
  Sum over cells:                    0.089     0.089   0.0% |
 LCAO to grid:                      49.037    49.037   1.5% ||
 Set positions (LCAO WFS):           1.276     0.180   0.0% |
  Basic WFS set positions:           0.001     0.001   0.0% |
  Basis functions set positions:     0.000     0.000   0.0% |
  P tci:                             0.528     0.528   0.0% |
  ST tci:                            0.360     0.360   0.0% |
  mktci:                             0.207     0.207   0.0% |
PWDescriptor:                        0.025     0.025   0.0% |
SCF-cycle:                        1174.854     1.761   0.1% |
 Davidson:                         975.664   304.858   9.2% |---|
  Apply H:                          66.010    64.147   1.9% ||
   HMM T:                            1.862     1.862   0.1% |
  Subspace diag:                   141.351     0.144   0.0% |
   calc_h_matrix:                   90.202    23.921   0.7% |
    Apply H:                        66.281    64.460   1.9% ||
     HMM T:                          1.821     1.821   0.1% |
   diagonalize:                      6.930     6.930   0.2% |
   rotate_psi:                      44.075    44.075   1.3% ||
  calc. matrices:                  288.412   161.124   4.9% |-|
   Apply H:                        127.288   123.935   3.7% ||
    HMM T:                           3.354     3.354   0.1% |
  diagonalize:                      79.737    79.737   2.4% ||
  rotate_psi:                       95.296    95.296   2.9% ||
 Density:                           38.633     0.001   0.0% |
  Atomic density matrices:           0.835     0.835   0.0% |
  Mix:                               6.110     6.110   0.2% |
  Multipole moments:                 0.017     0.017   0.0% |
  Pseudo density:                   31.669    31.668   1.0% |
   Symmetrize density:               0.001     0.001   0.0% |
 Forces:                           144.708   144.708   4.4% |-|
 Hamiltonian:                       11.806     0.103   0.0% |
  Atomic:                            2.758     2.758   0.1% |
   XC Correction:                    0.000     0.000   0.0% |
  Calculate atomic Hamiltonians:     4.415     4.415   0.1% |
  Communicate:                       0.087     0.087   0.0% |
  Poisson:                           0.037     0.037   0.0% |
  XC 3D grid:                        4.406     4.406   0.1% |
 Orthonormalize:                     2.283     0.003   0.0% |
  calc_s_matrix:                     0.264     0.264   0.0% |
  inverse-cholesky:                  0.078     0.078   0.0% |
  projections:                       1.464     1.464   0.0% |
  rotate_psi_s:                      0.473     0.473   0.0% |
Set symmetry:                        0.000     0.000   0.0% |
Other:                            2065.592  2065.592  62.4% |------------------------|
-----------------------------------------------------------
Total:                                      3309.265 100.0%

Memory usage: 12.45 GiB
Date: Wed Mar 24 08:39:52 2021
