
  ___ ___ ___ _ _ _  
 |   |   |_  | | | | 
 | | | | | . | | | | 
 |__ |  _|___|_____|  20.10.1b1
 |___|_|             

User:   madkru@g031.nifl.fysik.dtu.dk
Date:   Mon Mar 22 18:00:57 2021
Arch:   x86_64
Pid:    47913
Python: 3.7.4
gpaw:   /home/niflheim/madkru/venv_folder/gpaw/gpaw (d0d1ca1c71)
_gpaw:  /home/niflheim/madkru/venv_folder/gpaw/build/lib.linux-x86_64-sandybridge-3.7/
        _gpaw.cpython-37m-x86_64-linux-gnu.so (4fd39e8b1e)
ase:    /home/niflheim/madkru/venv_folder/ase/ase (version 3.21.0b1-7e6c206a91)
numpy:  /home/niflheim/madkru/venv_folder/lib/python3.7/site-packages/numpy (version 1.19.4)
scipy:  /home/niflheim/madkru/venv_folder/lib/python3.7/site-packages/scipy (version 1.5.4)
libxc:  4.3.4
units:  Angstrom and eV
cores: 32
OMP_NUM_THREADS: 1

Input parameters:
  convergence: {bands: occupied,
                density: 0.0001,
                eigenstates: 4e-08,
                energy: 0.0005,
                forces: 1e-06}
  kpts: [6 6 4]
  mode: {ecut: 600.0,
         gammacentered: False,
         name: pw}
  occupations: {fixmagmom: False,
                name: fermi-dirac,
                width: 0.001}
  setups: {Mn: :d,3.0}
  symmetry: {point_group: False,
             time_reversal: False}

System changes: positions, numbers, cell, pbc, initial_charges, initial_magmoms 

Initialize ...

O-setup:
  name: Oxygen
  id: 9b9d51c344dea68c822856295a461509
  Z: 8.0
  valence: 6
  core: 2
  charge: 0.0
  file: /home/modules/software/GPAW-setups/0.9.20000/O.LDA.gz
  compensation charges: gauss, rc=0.21, lmax=2
  cutoffs: 1.17(filt), 0.83(core),
  valence states:
                energy  radius
    2s(2.00)   -23.752   0.688
    2p(4.00)    -9.195   0.598
    *s           3.459   0.688
    *p          18.016   0.598
    *d           0.000   0.619

  Using partial waves for O as LCAO basis

Mn-setup:
  name: Manganese
  id: 0d715a8018be061a6e9ea6f2d364ac92
  Z: 25.0
  valence: 15
  core: 10
  charge: 0.0
  Hubbard U: 3.000000 eV (l=2, scale=True)
  file: /home/modules/software/GPAW-setups/0.9.20000/Mn.LDA.gz
  compensation charges: gauss, rc=0.38, lmax=2
  cutoffs: 2.14(filt), 0.86(core),
  valence states:
                energy  radius
    3s(2.00)   -85.387   1.275
    4s(2.00)    -5.282   1.275
    3p(6.00)   -54.493   1.281
    4p(0.00)    -1.471   1.281
    3d(5.00)    -7.009   1.138
    *d          20.203   1.138

  Using partial waves for Mn as LCAO basis

P-setup:
  name: Phosphorus
  id: a5561c299094968922a179ab894d2e2d
  Z: 15.0
  valence: 5
  core: 10
  charge: 0.0
  file: /home/modules/software/GPAW-setups/0.9.20000/P.LDA.gz
  compensation charges: gauss, rc=0.30, lmax=2
  cutoffs: 1.69(filt), 1.81(core),
  valence states:
                energy  radius
    3s(2.00)   -14.015   0.953
    3p(3.00)    -5.596   0.953
    *s          13.197   0.953
    *p          21.615   0.953
    *d           0.000   0.953

  Using partial waves for P as LCAO basis

Li-setup:
  name: Lithium
  id: b73562207f97a71b6967473b66fe8b65
  Z: 3.0
  valence: 1
  core: 2
  charge: 0.0
  file: /home/modules/software/GPAW-setups/0.9.20000/Li.LDA.gz
  compensation charges: gauss, rc=0.33, lmax=2
  cutoffs: 1.91(filt), 2.55(core),
  valence states:
                energy  radius
    2s(1.00)    -2.874   1.058
    2p(0.00)    -1.126   1.058
    *s          24.338   1.058

  Using partial waves for Li as LCAO basis

Reference energy: -196157.275402

Spin-polarized calculation.
Magnetic moment: 0.000000

Convergence criteria:
  Maximum total energy change: 0.0005 eV / electron
  Maximum integral of absolute density change: 0.0001 electrons
  Maximum integral of absolute eigenstate change: 4e-08 eV^2
  Maximum change in atomic force: 1e-06 eV / Ang
  Maximum number of iterations: 333

Symmetries present (total): 1

  ( 1  0  0)
  ( 0  1  0)
  ( 0  0  1)

144 k-points: 6 x 6 x 4 Monkhorst-Pack grid
144 k-points in the irreducible part of the Brillouin zone
       k-points in crystal coordinates                weights
   0:    -0.41666667   -0.41666667   -0.37500000          1/144
   1:    -0.41666667   -0.41666667   -0.12500000          1/144
   2:    -0.41666667   -0.41666667    0.12500000          1/144
   3:    -0.41666667   -0.41666667    0.37500000          1/144
   4:    -0.41666667   -0.25000000   -0.37500000          1/144
   5:    -0.41666667   -0.25000000   -0.12500000          1/144
   6:    -0.41666667   -0.25000000    0.12500000          1/144
   7:    -0.41666667   -0.25000000    0.37500000          1/144
   8:    -0.41666667   -0.08333333   -0.37500000          1/144
   9:    -0.41666667   -0.08333333   -0.12500000          1/144
          ...
 143:     0.41666667    0.41666667    0.37500000          1/144

Wave functions: Plane wave expansion
  Cutoff energy: 600.000 eV
  Number of coefficients (min, max): 10068, 10125
  Pulay-stress correction: 0.000000 eV/Ang^3 (de/decut=0.000000)
  Using FFTW library
  ScaLapack parameters: grid=1x1, blocksize=None
  Wavefunction extrapolation:
    Improved wavefunction reuse through dual PAW basis 

  Fermi-Dirac: width=0.0010 eV

Eigensolver
   Davidson(niter=2, smin=None, normalize=True) 

Densities:
  Coarse grid: 60*35*27 grid
  Fine grid: 120*70*54 grid
  Total Charge: 0.000000 

Density mixing:
  Method: difference
  Backend: pulay
  Linear mixing parameter: 0.05
  Mixing with 5 old densities
  Damping of long wave oscillations: 50 

Hamiltonian:
  XC and Coulomb potentials evaluated on a 120*70*54 grid
  Using the LDA Exchange-Correlation functional
 

Memory estimate:
  Process memory now: 13216.90 MiB
  Calculator: 375.55 MiB
    Density: 20.02 MiB
      Arrays: 7.57 MiB
      Localized functions: 9.42 MiB
      Mixer: 3.03 MiB
    Hamiltonian: 5.90 MiB
      Arrays: 5.62 MiB
      XC: 0.00 MiB
      Poisson: 0.00 MiB
      vbar: 0.27 MiB
    Wavefunctions: 349.64 MiB
      Arrays psit_nG: 311.46 MiB
      Eigensolver: 19.99 MiB
      Projections: 5.41 MiB
      Projectors: 9.73 MiB
      PW-descriptor: 3.03 MiB

Total number of cores used: 32
Parallelization over k-points: 16
Domain decomposition: 2 x 1 x 1

Number of atoms: 28
Number of atomic orbitals: 148
Number of bands in calculation: 112
Number of valence electrons: 180
Bands to converge: occupied

... initialized

Initializing position-dependent things.

Density initialized from atomic densities
Creating initial wave functions:
  112 bands from LCAO basis set

     .-------------------------.  
    /|         OP              |  
   / |O            O        O  |  
  /  |       O            O  P |  
 *   |O    Mn      O           |  
 |   |          OLi          O |  
 |   P--O--------------Mn------.  
 |  /          Li    O  Mn  O /   
 | /LiO           PO         /    
 |/       Mn                /     
 *Li-----------------------*      

Positions:
   0 O     -1.330281   -2.539252   -1.168500    ( 0.0000,  0.0000,  0.0000)
   1 O     -3.152392    2.974909    1.200956    ( 0.0000,  0.0000,  0.0000)
   2 O      2.077234    0.510133    1.506966    ( 0.0000,  0.0000,  0.0000)
   3 O      3.899724   -0.074476   -0.862491    ( 0.0000,  0.0000,  0.0000)
   4 O      2.077424    2.974966    1.507072    ( 0.0000,  0.0000,  0.0000)
   5 O      3.899535   -2.539195   -0.862384    ( 0.0000,  0.0000,  0.0000)
   6 O     -1.330092   -0.074418   -1.168395    ( 0.0000,  0.0000,  0.0000)
   7 O     -3.152581    0.510191    1.201063    ( 0.0000,  0.0000,  0.0000)
   8 O     -4.379675   -1.306969   -0.813152    ( 0.0000,  0.0000,  0.0000)
   9 O     -0.093301    1.742683    1.556268    ( 0.0000,  0.0000,  0.0000)
  10 O      5.136817    1.742683    1.151723    ( 0.0000,  0.0000,  0.0000)
  11 O      0.840444   -1.306969   -1.217697    ( 0.0000,  0.0000,  0.0000)
  12 Mn    -2.557192   -1.307258    0.273595    ( 0.0000,  0.0000,  1.0000)
  13 Mn    -1.925535    1.742972   -2.096623    ( 0.0000,  0.0000, -1.0000)
  14 Mn     3.304335    1.742972    0.064976    ( 0.0000,  0.0000, -1.0000)
  15 Mn     2.672678   -1.307258    2.435195    ( 0.0000,  0.0000,  1.0000)
  16 P     -0.597175   -1.306854   -1.801474    ( 0.0000,  0.0000,  0.0000)
  17 P     -3.885565    1.742568    0.568028    ( 0.0000,  0.0000,  0.0000)
  18 P      1.344318    1.742568    2.140045    ( 0.0000,  0.0000,  0.0000)
  19 P      4.632708   -1.306854   -0.229456    ( 0.0000,  0.0000,  0.0000)
  20 O     -0.636957   -1.306861    1.403074    ( 0.0000,  0.0000,  0.0000)
  21 O     -3.845824    1.742575   -0.967462    ( 0.0000,  0.0000,  0.0000)
  22 O      1.384100    1.742576   -1.064503    ( 0.0000,  0.0000,  0.0000)
  23 O      4.592967   -1.306861    1.306033    ( 0.0000,  0.0000,  0.0000)
  24 Li    -4.856429   -2.832143   -2.200714    ( 0.0000,  0.0000,  0.0000)
  25 Li     0.373571   -2.832143    0.169286    ( 0.0000,  0.0000,  0.0000)
  26 Li    -4.856429    0.217857   -2.200714    ( 0.0000,  0.0000,  0.0000)
  27 Li     0.373571    0.217857    0.169286    ( 0.0000,  0.0000,  0.0000)

Unit cell:
           periodic     x           y           z      points  spacing
  1. axis:    yes   10.460000    0.000000    0.000000    60     0.1743
  2. axis:    yes    0.000000    6.100000    0.000000    35     0.1743
  3. axis:    yes    0.000000    0.000000    4.740000    27     0.1756

  Lengths:  10.460000   6.100000   4.740000
  Angles:   90.000000  90.000000  90.000000

Effective grid spacing dv^(1/3) = 0.1747

                     log10-error:           total        iterations:
           time      wfs    density  force  energy       poisson  magmom
iter:   1  18:04:00                       -220.678229             +0.0000
iter:   2  18:04:39  -0.64  -0.92         -235.488324             +0.0000
iter:   3  18:05:19  -0.40  -0.96         -226.166732             -0.0000
iter:   4  18:05:58  -1.42  -1.29         -225.887147             +0.0000
iter:   5  18:06:38  -1.19  -1.38         -227.581344             +0.0000
iter:   6  18:07:18  -1.39  -1.51         -225.827351             +0.0000
iter:   7  18:07:57  -2.56  -2.06         -225.894207             +0.0000
iter:   8  18:08:37  -2.24  -2.01         -225.651154             -0.0000
iter:   9  18:09:16  -2.65  -2.07         -225.544841             +0.0000
iter:  10  18:09:56  -3.52  -2.93         -225.543484             +0.0000
iter:  11  18:10:35  -3.95  -3.00         -225.545840             +0.0000
iter:  12  18:11:15  -4.29  -3.21         -225.546014             +0.0000
iter:  13  18:11:54  -5.32  -3.35         -225.545898             -0.0000
iter:  14  18:12:34  -5.11  -3.43         -225.545782             -0.0000
iter:  15  18:13:13  -5.24  -3.58         -225.545649             -0.0000
iter:  16  18:13:53  -6.25  -3.72         -225.545642             +0.0000
iter:  17  18:14:32  -6.45  -3.81         -225.545658             -0.0000
iter:  18  18:15:11  -6.70  -3.86         -225.545657             -0.0000
iter:  19  18:15:51  -5.99  -3.87         -225.545626             -0.0000
iter:  20  18:16:30  -7.24  -4.37         -225.545624             -0.0000
iter:  21  18:17:20  -7.44  -4.41         -225.545623             +0.0000
iter:  22  18:18:00  -7.06  -4.46         -225.545627             +0.0000
iter:  23  18:18:39  -7.37  -4.44         -225.545623             +0.0000
iter:  24  18:19:29  -7.85  -4.54    -2.28-225.545623             +0.0000
iter:  25  18:20:09  -7.19  -4.60         -225.545625             +0.0000
iter:  26  18:20:48  -7.24  -4.57         -225.545623             +0.0000
iter:  27  18:21:38  -8.49  -4.85    -2.43-225.545623             +0.0000
iter:  28  18:22:28  -7.47  -4.86    -2.96-225.545623             +0.0000
iter:  29  18:23:18  -8.53  -5.09    -3.16-225.545623             +0.0000
iter:  30  18:24:08  -9.28  -5.25    -3.45-225.545623             +0.0000
iter:  31  18:24:58  -9.42  -5.28    -3.22-225.545623             +0.0000
iter:  32  18:25:48  -8.83  -5.28    -3.37-225.545623             +0.0000
iter:  33  18:26:38  -9.27  -5.46    -3.69-225.545623             +0.0000
iter:  34  18:27:28  -9.59  -5.50    -3.87-225.545623             +0.0000
iter:  35  18:28:18  -9.29  -5.51    -3.21-225.545623             +0.0000
iter:  36  18:29:08 -10.20  -5.75    -3.87-225.545623             +0.0000
iter:  37  18:29:58 -10.23  -5.85    -4.11-225.545623             +0.0000
iter:  38  18:30:48 -10.49  -5.92    -3.85-225.545623             +0.0000
iter:  39  18:31:38 -10.70  -6.17    -4.84-225.545623             +0.0000
iter:  40  18:32:28 -10.87  -6.31    -4.72-225.545623             +0.0000
iter:  41  18:33:18 -11.21  -6.39    -4.19-225.545623             +0.0000
iter:  42  18:34:08 -11.84  -6.54    -4.64-225.545623             +0.0000
iter:  43  18:34:58 -10.99  -6.60    -4.27-225.545623             +0.0000
iter:  44  18:35:48 -11.69  -6.83    -4.79-225.545623             +0.0000
iter:  45  18:36:38 -12.61  -6.97    -5.27-225.545623             +0.0000
iter:  46  18:37:28 -12.83  -7.01    -5.27-225.545623             +0.0000
iter:  47  18:38:18 -13.22  -7.04    -5.16-225.545623             +0.0000
iter:  48  18:39:08 -13.04  -7.16    -5.21-225.545623             +0.0000
iter:  49  18:39:58 -13.80  -7.30    -5.78-225.545623             +0.0000
iter:  50  18:40:48 -12.32  -7.34    -4.78-225.545623             +0.0000
iter:  51  18:41:38 -13.04  -7.67    -5.67-225.545623             +0.0000
iter:  52  18:42:28 -13.66  -7.82    -5.75-225.545623             -0.0000
iter:  53  18:43:18 -14.10  -7.84    -6.00-225.545623             -0.0000
iter:  54  18:44:08 -14.91  -7.93    -6.15-225.545623             -0.0000

Converged after 54 iterations.

Dipole moment: (13.151664, 1.713586, -5.507920) |e|*Ang

Total magnetic moment: (0.000000, 0.000000, -0.000000)
Local magnetic moments:
   0 O  ( 0.000000,  0.000000,  0.001065)
   1 O  ( 0.000000,  0.000000, -0.001008)
   2 O  ( 0.000000,  0.000000, -0.001059)
   3 O  ( 0.000000,  0.000000,  0.001100)
   4 O  ( 0.000000,  0.000000, -0.001067)
   5 O  ( 0.000000,  0.000000,  0.001108)
   6 O  ( 0.000000,  0.000000,  0.001057)
   7 O  ( 0.000000,  0.000000, -0.001000)
   8 O  ( 0.000000,  0.000000,  0.020006)
   9 O  ( 0.000000,  0.000000, -0.019735)
  10 O  ( 0.000000,  0.000000, -0.019814)
  11 O  ( 0.000000,  0.000000,  0.019824)
  12 Mn ( 0.000000,  0.000000,  4.600730)
  13 Mn ( 0.000000,  0.000000, -4.601575)
  14 Mn ( 0.000000,  0.000000, -4.601525)
  15 Mn ( 0.000000,  0.000000,  4.601602)
  16 P  ( 0.000000,  0.000000,  0.001303)
  17 P  ( 0.000000,  0.000000, -0.001270)
  18 P  ( 0.000000,  0.000000, -0.001307)
  19 P  ( 0.000000,  0.000000,  0.001426)
  20 O  ( 0.000000,  0.000000,  0.017952)
  21 O  ( 0.000000,  0.000000, -0.018069)
  22 O  ( 0.000000,  0.000000, -0.018066)
  23 O  ( 0.000000,  0.000000,  0.018041)
  24 Li ( 0.000000,  0.000000,  0.000019)
  25 Li ( 0.000000,  0.000000,  0.000000)
  26 Li ( 0.000000,  0.000000,  0.000019)
  27 Li ( 0.000000,  0.000000,  0.000000)

Energy contributions relative to reference atoms: (reference = -196157.275402)

Kinetic:       +242.331657
Potential:     -214.963942
External:        +0.000000
XC:            -254.829805
Entropy (-ST):   -0.000000
Local:           +1.916468
--------------------------
Free energy:   -225.545623
Extrapolated:  -225.545623

Spin contamination: 9.747406 electrons
Showing only first 2 kpts
                      Up                     Down
 Kpt  Band  Eigenvalues  Occupancy  Eigenvalues  Occupancy
  0    88      3.92650    0.00694      3.92040    0.00694
  0    89      3.99043    0.00694      3.97131    0.00694
  0    90      8.66075    0.00000      8.66932    0.00000
  0    91      8.69147    0.00000      8.69067    0.00000

  1    88      3.92380    0.00694      3.91705    0.00694
  1    89      3.99480    0.00694      3.97495    0.00694
  1    90      8.50633    0.00000      8.51284    0.00000
  1    91      8.53405    0.00000      8.53763    0.00000


Fermi level: 5.32192

Gap: 3.763 eV
Transition (v -> c):
  (s=0, k=74, n=89, [0.08, -0.42, 0.12]) -> (s=0, k=86, n=90, [0.08, 0.08, 0.12])
Writing to born-0.01-8x+.gpw (mode='all')

Timing:                              incl.     excl.
-----------------------------------------------------------
Hamiltonian:                         0.423     0.002   0.0% |
 Atomic:                             0.057     0.057   0.0% |
  XC Correction:                     0.000     0.000   0.0% |
 Calculate atomic Hamiltonians:      0.186     0.186   0.0% |
 Communicate:                        0.002     0.002   0.0% |
 Initialize Hamiltonian:             0.000     0.000   0.0% |
 Poisson:                            0.001     0.001   0.0% |
 XC 3D grid:                         0.174     0.174   0.0% |
LCAO initialization:               138.333     0.676   0.0% |
 LCAO eigensolver:                  34.023     0.002   0.0% |
  Calculate projections:             0.056     0.056   0.0% |
  DenseAtomicCorrection:             0.082     0.082   0.0% |
  Distribute overlap matrix:         0.087     0.087   0.0% |
  Orbital Layouts:                   0.361     0.361   0.0% |
  Potential matrix:                 33.333    33.333   0.6% |
  Sum over cells:                    0.100     0.100   0.0% |
 LCAO to grid:                     101.364   101.364   1.9% ||
 Set positions (LCAO WFS):           2.269     0.346   0.0% |
  Basic WFS set positions:           0.001     0.001   0.0% |
  Basis functions set positions:     0.000     0.000   0.0% |
  P tci:                             1.051     1.051   0.0% |
  ST tci:                            0.662     0.662   0.0% |
  mktci:                             0.209     0.209   0.0% |
PWDescriptor:                        0.025     0.025   0.0% |
SCF-cycle:                        2450.479     4.745   0.1% |
 Davidson:                        2019.997   658.028  12.0% |----|
  Apply H:                         141.726   137.065   2.5% ||
   HMM T:                            4.660     4.660   0.1% |
  Subspace diag:                   298.682     0.174   0.0% |
   calc_h_matrix:                  193.845    53.398   1.0% |
    Apply H:                       140.447   135.931   2.5% ||
     HMM T:                          4.516     4.516   0.1% |
   diagonalize:                      6.600     6.600   0.1% |
   rotate_psi:                      98.064    98.064   1.8% ||
  calc. matrices:                  632.565   357.058   6.5% |--|
   Apply H:                        275.507   267.196   4.9% |-|
    HMM T:                           8.311     8.311   0.2% |
  diagonalize:                      89.723    89.723   1.6% ||
  rotate_psi:                      199.273   199.273   3.6% ||
 Density:                           79.935     0.001   0.0% |
  Atomic density matrices:           1.450     1.450   0.0% |
  Mix:                              13.038    13.038   0.2% |
  Multipole moments:                 0.031     0.031   0.0% |
  Pseudo density:                   65.414    65.413   1.2% |
   Symmetrize density:               0.002     0.002   0.0% |
 Forces:                           318.826   318.826   5.8% |-|
 Hamiltonian:                       22.564     0.139   0.0% |
  Atomic:                            3.112     3.111   0.1% |
   XC Correction:                    0.000     0.000   0.0% |
  Calculate atomic Hamiltonians:     9.744     9.744   0.2% |
  Communicate:                       0.079     0.079   0.0% |
  Poisson:                           0.096     0.096   0.0% |
  XC 3D grid:                        9.395     9.395   0.2% |
 Orthonormalize:                     4.412     0.004   0.0% |
  calc_s_matrix:                     0.523     0.523   0.0% |
  inverse-cholesky:                  0.055     0.055   0.0% |
  projections:                       2.898     2.898   0.1% |
  rotate_psi_s:                      0.932     0.932   0.0% |
Set symmetry:                        0.000     0.000   0.0% |
Other:                            2889.469  2889.469  52.7% |--------------------|
-----------------------------------------------------------
Total:                                      5478.728 100.0%

Memory usage: 12.94 GiB
Date: Mon Mar 22 19:32:16 2021
