
  ___ ___ ___ _ _ _  
 |   |   |_  | | | | 
 | | | | | . | | | | 
 |__ |  _|___|_____|  20.10.1b1
 |___|_|             

User:   madkru@g006.nifl.fysik.dtu.dk
Date:   Tue Mar 23 23:11:09 2021
Arch:   x86_64
Pid:    12017
Python: 3.7.4
gpaw:   /home/niflheim/madkru/venv_folder/gpaw/gpaw (d0d1ca1c71)
_gpaw:  /home/niflheim/madkru/venv_folder/gpaw/build/lib.linux-x86_64-sandybridge-3.7/
        _gpaw.cpython-37m-x86_64-linux-gnu.so (4fd39e8b1e)
ase:    /home/niflheim/madkru/venv_folder/ase/ase (version 3.21.0b1-7e6c206a91)
numpy:  /home/niflheim/madkru/venv_folder/lib/python3.7/site-packages/numpy (version 1.19.4)
scipy:  /home/niflheim/madkru/venv_folder/lib/python3.7/site-packages/scipy (version 1.5.4)
libxc:  4.3.4
units:  Angstrom and eV
cores: 64
OMP_NUM_THREADS: 1

Input parameters:
  convergence: {bands: occupied,
                density: 0.0001,
                eigenstates: 4e-08,
                energy: 0.0005,
                forces: 1e-06}
  kpts: [6 6 4]
  mode: {ecut: 600.0,
         gammacentered: False,
         name: pw}
  occupations: {fixmagmom: False,
                name: fermi-dirac,
                width: 0.001}
  setups: {Mn: :d,3.0}
  symmetry: {point_group: False,
             time_reversal: False}

System changes: positions, numbers, cell, pbc, initial_charges, initial_magmoms 

Initialize ...

O-setup:
  name: Oxygen
  id: 9b9d51c344dea68c822856295a461509
  Z: 8.0
  valence: 6
  core: 2
  charge: 0.0
  file: /home/modules/software/GPAW-setups/0.9.20000/O.LDA.gz
  compensation charges: gauss, rc=0.21, lmax=2
  cutoffs: 1.17(filt), 0.83(core),
  valence states:
                energy  radius
    2s(2.00)   -23.752   0.688
    2p(4.00)    -9.195   0.598
    *s           3.459   0.688
    *p          18.016   0.598
    *d           0.000   0.619

  Using partial waves for O as LCAO basis

Mn-setup:
  name: Manganese
  id: 0d715a8018be061a6e9ea6f2d364ac92
  Z: 25.0
  valence: 15
  core: 10
  charge: 0.0
  Hubbard U: 3.000000 eV (l=2, scale=True)
  file: /home/modules/software/GPAW-setups/0.9.20000/Mn.LDA.gz
  compensation charges: gauss, rc=0.38, lmax=2
  cutoffs: 2.14(filt), 0.86(core),
  valence states:
                energy  radius
    3s(2.00)   -85.387   1.275
    4s(2.00)    -5.282   1.275
    3p(6.00)   -54.493   1.281
    4p(0.00)    -1.471   1.281
    3d(5.00)    -7.009   1.138
    *d          20.203   1.138

  Using partial waves for Mn as LCAO basis

P-setup:
  name: Phosphorus
  id: a5561c299094968922a179ab894d2e2d
  Z: 15.0
  valence: 5
  core: 10
  charge: 0.0
  file: /home/modules/software/GPAW-setups/0.9.20000/P.LDA.gz
  compensation charges: gauss, rc=0.30, lmax=2
  cutoffs: 1.69(filt), 1.81(core),
  valence states:
                energy  radius
    3s(2.00)   -14.015   0.953
    3p(3.00)    -5.596   0.953
    *s          13.197   0.953
    *p          21.615   0.953
    *d           0.000   0.953

  Using partial waves for P as LCAO basis

Li-setup:
  name: Lithium
  id: b73562207f97a71b6967473b66fe8b65
  Z: 3.0
  valence: 1
  core: 2
  charge: 0.0
  file: /home/modules/software/GPAW-setups/0.9.20000/Li.LDA.gz
  compensation charges: gauss, rc=0.33, lmax=2
  cutoffs: 1.91(filt), 2.55(core),
  valence states:
                energy  radius
    2s(1.00)    -2.874   1.058
    2p(0.00)    -1.126   1.058
    *s          24.338   1.058

  Using partial waves for Li as LCAO basis

Reference energy: -196157.275402

Spin-polarized calculation.
Magnetic moment: 0.000000

Convergence criteria:
  Maximum total energy change: 0.0005 eV / electron
  Maximum integral of absolute density change: 0.0001 electrons
  Maximum integral of absolute eigenstate change: 4e-08 eV^2
  Maximum change in atomic force: 1e-06 eV / Ang
  Maximum number of iterations: 333

Symmetries present (total): 1

  ( 1  0  0)
  ( 0  1  0)
  ( 0  0  1)

144 k-points: 6 x 6 x 4 Monkhorst-Pack grid
144 k-points in the irreducible part of the Brillouin zone
       k-points in crystal coordinates                weights
   0:    -0.41666667   -0.41666667   -0.37500000          1/144
   1:    -0.41666667   -0.41666667   -0.12500000          1/144
   2:    -0.41666667   -0.41666667    0.12500000          1/144
   3:    -0.41666667   -0.41666667    0.37500000          1/144
   4:    -0.41666667   -0.25000000   -0.37500000          1/144
   5:    -0.41666667   -0.25000000   -0.12500000          1/144
   6:    -0.41666667   -0.25000000    0.12500000          1/144
   7:    -0.41666667   -0.25000000    0.37500000          1/144
   8:    -0.41666667   -0.08333333   -0.37500000          1/144
   9:    -0.41666667   -0.08333333   -0.12500000          1/144
          ...
 143:     0.41666667    0.41666667    0.37500000          1/144

Wave functions: Plane wave expansion
  Cutoff energy: 600.000 eV
  Number of coefficients (min, max): 10068, 10125
  Pulay-stress correction: 0.000000 eV/Ang^3 (de/decut=0.000000)
  Using FFTW library
  ScaLapack parameters: grid=1x1, blocksize=None
  Wavefunction extrapolation:
    Improved wavefunction reuse through dual PAW basis 

  Fermi-Dirac: width=0.0010 eV

Eigensolver
   Davidson(niter=2, smin=None, normalize=True) 

Densities:
  Coarse grid: 60*35*27 grid
  Fine grid: 120*70*54 grid
  Total Charge: 0.000000 

Density mixing:
  Method: difference
  Backend: pulay
  Linear mixing parameter: 0.05
  Mixing with 5 old densities
  Damping of long wave oscillations: 50 

Hamiltonian:
  XC and Coulomb potentials evaluated on a 120*70*54 grid
  Using the LDA Exchange-Correlation functional
 

Memory estimate:
  Process memory now: 12359.16 MiB
  Calculator: 354.82 MiB
    Density: 10.06 MiB
      Arrays: 3.79 MiB
      Localized functions: 4.71 MiB
      Mixer: 1.56 MiB
    Hamiltonian: 2.95 MiB
      Arrays: 2.82 MiB
      XC: 0.00 MiB
      Poisson: 0.00 MiB
      vbar: 0.14 MiB
    Wavefunctions: 341.80 MiB
      Arrays psit_nG: 311.46 MiB
      Eigensolver: 19.99 MiB
      Projections: 2.71 MiB
      Projectors: 4.87 MiB
      PW-descriptor: 2.77 MiB

Total number of cores used: 64
Parallelization over k-points: 16
Domain decomposition: 2 x 2 x 1

Number of atoms: 28
Number of atomic orbitals: 148
Number of bands in calculation: 112
Number of valence electrons: 180
Bands to converge: occupied

... initialized

Initializing position-dependent things.

Density initialized from atomic densities
Creating initial wave functions:
  112 bands from LCAO basis set

     .-------------------------.  
    /|         OP              |  
   / |O            O        O  |  
  /  |       O            O  P |  
 *   |O    Mn      O           |  
 |   |          OLi          O |  
 |   P--O--------------Mn------.  
 |  /          Li    O  Mn  O /   
 | /LiO           PO         /    
 |/       Mn                /     
 *Li-----------------------*      

Positions:
   0 O     -1.330281   -2.539252   -1.168500    ( 0.0000,  0.0000,  0.0000)
   1 O     -3.152392    2.974909    1.200956    ( 0.0000,  0.0000,  0.0000)
   2 O      2.077234    0.510133    1.506966    ( 0.0000,  0.0000,  0.0000)
   3 O      3.899724   -0.074476   -0.862491    ( 0.0000,  0.0000,  0.0000)
   4 O      2.077424    2.974966    1.507072    ( 0.0000,  0.0000,  0.0000)
   5 O      3.899535   -2.539195   -0.862384    ( 0.0000,  0.0000,  0.0000)
   6 O     -1.330092   -0.074418   -1.168395    ( 0.0000,  0.0000,  0.0000)
   7 O     -3.152581    0.510191    1.201063    ( 0.0000,  0.0000,  0.0000)
   8 O     -4.389675   -1.306969   -0.813152    ( 0.0000,  0.0000,  0.0000)
   9 O     -0.093301    1.742683    1.556268    ( 0.0000,  0.0000,  0.0000)
  10 O      5.136817    1.742683    1.151723    ( 0.0000,  0.0000,  0.0000)
  11 O      0.840444   -1.306969   -1.217697    ( 0.0000,  0.0000,  0.0000)
  12 Mn    -2.557192   -1.307258    0.273595    ( 0.0000,  0.0000,  1.0000)
  13 Mn    -1.915535    1.742972   -2.096623    ( 0.0000,  0.0000, -1.0000)
  14 Mn     3.304335    1.742972    0.064976    ( 0.0000,  0.0000, -1.0000)
  15 Mn     2.672678   -1.307258    2.435195    ( 0.0000,  0.0000,  1.0000)
  16 P     -0.597175   -1.306854   -1.801474    ( 0.0000,  0.0000,  0.0000)
  17 P     -3.885565    1.742568    0.568028    ( 0.0000,  0.0000,  0.0000)
  18 P      1.344318    1.742568    2.140045    ( 0.0000,  0.0000,  0.0000)
  19 P      4.632708   -1.306854   -0.229456    ( 0.0000,  0.0000,  0.0000)
  20 O     -0.636957   -1.306861    1.403074    ( 0.0000,  0.0000,  0.0000)
  21 O     -3.845824    1.742575   -0.967462    ( 0.0000,  0.0000,  0.0000)
  22 O      1.384100    1.742576   -1.064503    ( 0.0000,  0.0000,  0.0000)
  23 O      4.592967   -1.306861    1.306033    ( 0.0000,  0.0000,  0.0000)
  24 Li    -4.856429   -2.832143   -2.200714    ( 0.0000,  0.0000,  0.0000)
  25 Li     0.373571   -2.832143    0.169286    ( 0.0000,  0.0000,  0.0000)
  26 Li    -4.856429    0.217857   -2.200714    ( 0.0000,  0.0000,  0.0000)
  27 Li     0.373571    0.217857    0.169286    ( 0.0000,  0.0000,  0.0000)

Unit cell:
           periodic     x           y           z      points  spacing
  1. axis:    yes   10.460000    0.000000    0.000000    60     0.1743
  2. axis:    yes    0.000000    6.100000    0.000000    35     0.1743
  3. axis:    yes    0.000000    0.000000    4.740000    27     0.1756

  Lengths:  10.460000   6.100000   4.740000
  Angles:   90.000000  90.000000  90.000000

Effective grid spacing dv^(1/3) = 0.1747

                     log10-error:           total        iterations:
           time      wfs    density  force  energy       poisson  magmom
iter:   1  23:12:43                       -220.689444             +0.0000
iter:   2  23:13:05  -0.64  -0.92         -235.506675             +0.0000
iter:   3  23:13:26  -0.40  -0.96         -226.168836             -0.0000
iter:   4  23:13:47  -1.41  -1.29         -225.888160             +0.0000
iter:   5  23:14:09  -1.19  -1.38         -227.588559             +0.0000
iter:   6  23:14:30  -1.39  -1.51         -225.828789             +0.0000
iter:   7  23:14:52  -2.57  -2.06         -225.899367             +0.0000
iter:   8  23:15:13  -2.23  -2.01         -225.639711             -0.0000
iter:   9  23:15:34  -2.68  -2.09         -225.546514             +0.0000
iter:  10  23:15:56  -3.55  -2.95         -225.545820             +0.0000
iter:  11  23:16:17  -3.95  -3.00         -225.547279             +0.0000
iter:  12  23:16:39  -4.30  -3.22         -225.547449             +0.0000
iter:  13  23:17:00  -5.39  -3.36         -225.547344             -0.0000
iter:  14  23:17:22  -5.20  -3.44         -225.547196             -0.0000
iter:  15  23:17:43  -5.39  -3.60         -225.547119             -0.0000
iter:  16  23:18:04  -6.34  -3.68         -225.547101             +0.0000
iter:  17  23:18:26  -6.23  -3.75         -225.547121             -0.0000
iter:  18  23:18:47  -6.73  -3.81         -225.547122             -0.0000
iter:  19  23:19:09  -5.81  -3.83         -225.547085             -0.0000
iter:  20  23:19:30  -6.98  -4.40         -225.547081             -0.0000
iter:  21  23:19:57  -7.90  -4.71         -225.547079             -0.0000
iter:  22  23:20:18  -6.94  -4.80         -225.547077             +0.0000
iter:  23  23:20:45  -7.55  -4.77    -2.99-225.547076             +0.0000
iter:  24  23:21:12  -8.80  -4.99    -3.15-225.547077             +0.0000
iter:  25  23:21:39  -7.62  -5.01    -2.60-225.547077             +0.0000
iter:  26  23:22:06  -8.18  -5.02    -2.90-225.547076             +0.0000
iter:  27  23:22:32  -7.85  -5.14    -3.04-225.547077             +0.0000
iter:  28  23:22:59  -7.71  -4.97    -2.74-225.547077             +0.0000
iter:  29  23:23:26  -8.10  -5.15    -3.00-225.547077             +0.0000
iter:  30  23:23:53  -9.38  -5.73    -3.88-225.547077             +0.0000
iter:  31  23:24:19  -9.43  -5.78    -3.74-225.547076             +0.0000
iter:  32  23:24:46  -9.88  -5.89    -3.69-225.547076             +0.0000
iter:  33  23:25:13 -10.20  -5.88    -4.17-225.547076             +0.0000
iter:  34  23:25:40  -9.36  -5.95    -3.69-225.547076             +0.0000
iter:  35  23:26:07 -10.19  -6.03    -4.03-225.547076             +0.0000
iter:  36  23:26:33 -10.61  -6.17    -4.09-225.547076             +0.0000
iter:  37  23:27:00 -11.07  -6.33    -4.38-225.547076             +0.0000
iter:  38  23:27:27 -11.40  -6.45    -4.60-225.547076             +0.0000
iter:  39  23:27:54 -11.51  -6.51    -4.48-225.547076             +0.0000
iter:  40  23:28:20 -12.12  -6.49    -5.05-225.547076             +0.0000
iter:  41  23:28:47 -12.54  -6.57    -4.73-225.547076             +0.0000
iter:  42  23:29:14 -11.04  -6.64    -4.57-225.547076             -0.0000
iter:  43  23:29:41 -12.08  -6.82    -5.38-225.547076             +0.0000
iter:  44  23:30:08 -11.78  -6.87    -4.62-225.547076             +0.0000
iter:  45  23:30:34 -12.60  -6.97    -5.35-225.547076             +0.0000
iter:  46  23:31:01 -12.24  -7.03    -5.08-225.547076             +0.0000
iter:  47  23:31:28 -12.82  -7.11    -5.24-225.547076             +0.0000
iter:  48  23:31:55 -12.68  -7.16    -5.32-225.547076             +0.0000
iter:  49  23:32:21 -12.87  -7.25    -5.32-225.547076             +0.0000
iter:  50  23:32:48 -13.14  -7.29    -5.05-225.547076             +0.0000
iter:  51  23:33:15 -13.96  -7.67    -6.15-225.547076             +0.0000

Converged after 51 iterations.

Dipole moment: (13.172810, 1.715874, -5.512598) |e|*Ang

Total magnetic moment: (0.000000, 0.000000, 0.000000)
Local magnetic moments:
   0 O  ( 0.000000,  0.000000,  0.000913)
   1 O  ( 0.000000,  0.000000, -0.000787)
   2 O  ( 0.000000,  0.000000, -0.001073)
   3 O  ( 0.000000,  0.000000,  0.001060)
   4 O  ( 0.000000,  0.000000, -0.001081)
   5 O  ( 0.000000,  0.000000,  0.001068)
   6 O  ( 0.000000,  0.000000,  0.000905)
   7 O  ( 0.000000,  0.000000, -0.000779)
   8 O  ( 0.000000,  0.000000,  0.019798)
   9 O  ( 0.000000,  0.000000, -0.020077)
  10 O  ( 0.000000,  0.000000, -0.019816)
  11 O  ( 0.000000,  0.000000,  0.019762)
  12 Mn ( 0.000000,  0.000000,  4.601588)
  13 Mn ( 0.000000,  0.000000, -4.601373)
  14 Mn ( 0.000000,  0.000000, -4.601544)
  15 Mn ( 0.000000,  0.000000,  4.601587)
  16 P  ( 0.000000,  0.000000,  0.001259)
  17 P  ( 0.000000,  0.000000, -0.001165)
  18 P  ( 0.000000,  0.000000, -0.001395)
  19 P  ( 0.000000,  0.000000,  0.001296)
  20 O  ( 0.000000,  0.000000,  0.018037)
  21 O  ( 0.000000,  0.000000, -0.017810)
  22 O  ( 0.000000,  0.000000, -0.018060)
  23 O  ( 0.000000,  0.000000,  0.018086)
  24 Li ( 0.000000,  0.000000, -0.000003)
  25 Li ( 0.000000,  0.000000, -0.000008)
  26 Li ( 0.000000,  0.000000, -0.000003)
  27 Li ( 0.000000,  0.000000, -0.000008)

Energy contributions relative to reference atoms: (reference = -196157.275402)

Kinetic:       +242.945253
Potential:     -215.445995
External:        +0.000000
XC:            -254.961555
Entropy (-ST):   -0.000000
Local:           +1.915221
--------------------------
Free energy:   -225.547076
Extrapolated:  -225.547076

Spin contamination: 9.747710 electrons
Showing only first 2 kpts
                      Up                     Down
 Kpt  Band  Eigenvalues  Occupancy  Eigenvalues  Occupancy
  0    88      3.92330    0.00694      3.92572    0.00694
  0    89      3.97338    0.00694      3.97340    0.00694
  0    90      8.66682    0.00000      8.66913    0.00000
  0    91      8.68652    0.00000      8.68580    0.00000

  1    88      3.91988    0.00694      3.92185    0.00694
  1    89      3.97689    0.00694      3.97752    0.00694
  1    90      8.51138    0.00000      8.51440    0.00000
  1    91      8.52753    0.00000      8.52946    0.00000


Fermi level: 5.31932

Gap: 3.773 eV
Transition (v -> c):
  (s=1, k=73, n=89, [0.08, -0.42, -0.12]) -> (s=0, k=58, n=90, [-0.08, -0.08, 0.12])
Writing to born-0.01-13x+.gpw (mode='all')

Timing:                              incl.     excl.
-----------------------------------------------------------
Hamiltonian:                         0.247     0.002   0.0% |
 Atomic:                             0.057     0.057   0.0% |
  XC Correction:                     0.000     0.000   0.0% |
 Calculate atomic Hamiltonians:      0.092     0.092   0.0% |
 Communicate:                        0.002     0.002   0.0% |
 Initialize Hamiltonian:             0.000     0.000   0.0% |
 Poisson:                            0.001     0.001   0.0% |
 XC 3D grid:                         0.092     0.092   0.0% |
LCAO initialization:                67.003     0.676   0.0% |
 LCAO eigensolver:                  17.522     0.002   0.0% |
  Calculate projections:             0.029     0.029   0.0% |
  DenseAtomicCorrection:             0.042     0.042   0.0% |
  Distribute overlap matrix:         0.121     0.121   0.0% |
  Orbital Layouts:                   0.475     0.475   0.0% |
  Potential matrix:                 16.758    16.758   0.5% |
  Sum over cells:                    0.095     0.095   0.0% |
 LCAO to grid:                      47.515    47.515   1.4% ||
 Set positions (LCAO WFS):           1.291     0.177   0.0% |
  Basic WFS set positions:           0.001     0.001   0.0% |
  Basis functions set positions:     0.000     0.000   0.0% |
  P tci:                             0.517     0.517   0.0% |
  ST tci:                            0.359     0.359   0.0% |
  mktci:                             0.237     0.237   0.0% |
PWDescriptor:                        0.025     0.025   0.0% |
SCF-cycle:                        1257.969     3.549   0.1% |
 Davidson:                        1037.760   324.217   9.8% |---|
  Apply H:                          70.149    68.151   2.1% ||
   HMM T:                            1.998     1.998   0.1% |
  Subspace diag:                   149.919     0.155   0.0% |
   calc_h_matrix:                   95.622    25.415   0.8% |
    Apply H:                        70.207    68.235   2.1% ||
     HMM T:                          1.971     1.971   0.1% |
   diagonalize:                      7.361     7.361   0.2% |
   rotate_psi:                      46.782    46.782   1.4% ||
  calc. matrices:                  307.017   171.286   5.2% |-|
   Apply H:                        135.731   132.085   4.0% |-|
    HMM T:                           3.645     3.645   0.1% |
  diagonalize:                      85.172    85.172   2.6% ||
  rotate_psi:                      101.285   101.285   3.1% ||
 Density:                           41.081     0.001   0.0% |
  Atomic density matrices:           0.855     0.855   0.0% |
  Mix:                               6.485     6.485   0.2% |
  Multipole moments:                 0.018     0.018   0.0% |
  Pseudo density:                   33.721    33.720   1.0% |
   Symmetrize density:               0.001     0.001   0.0% |
 Forces:                           160.711   160.711   4.9% |-|
 Hamiltonian:                       12.584     0.112   0.0% |
  Atomic:                            2.924     2.924   0.1% |
   XC Correction:                    0.000     0.000   0.0% |
  Calculate atomic Hamiltonians:     4.750     4.750   0.1% |
  Communicate:                       0.063     0.063   0.0% |
  Poisson:                           0.041     0.041   0.0% |
  XC 3D grid:                        4.693     4.693   0.1% |
 Orthonormalize:                     2.284     0.003   0.0% |
  calc_s_matrix:                     0.264     0.264   0.0% |
  inverse-cholesky:                  0.077     0.077   0.0% |
  projections:                       1.466     1.466   0.0% |
  rotate_psi_s:                      0.473     0.473   0.0% |
Set symmetry:                        0.000     0.000   0.0% |
Other:                            1977.067  1977.067  59.9% |-----------------------|
-----------------------------------------------------------
Total:                                      3302.310 100.0%

Memory usage: 12.08 GiB
Date: Wed Mar 24 00:06:11 2021
