
  ___ ___ ___ _ _ _  
 |   |   |_  | | | | 
 | | | | | . | | | | 
 |__ |  _|___|_____|  20.10.1b1
 |___|_|             

User:   madkru@g006.nifl.fysik.dtu.dk
Date:   Thu Mar 25 03:39:39 2021
Arch:   x86_64
Pid:    12017
Python: 3.7.4
gpaw:   /home/niflheim/madkru/venv_folder/gpaw/gpaw (d224efde0f)
_gpaw:  /home/niflheim/madkru/venv_folder/gpaw/build/lib.linux-x86_64-sandybridge-3.7/
        _gpaw.cpython-37m-x86_64-linux-gnu.so (4fd39e8b1e)
ase:    /home/niflheim/madkru/venv_folder/ase/ase (version 3.21.0b1-4d5a73cb29)
numpy:  /home/niflheim/madkru/venv_folder/lib/python3.7/site-packages/numpy (version 1.19.4)
scipy:  /home/niflheim/madkru/venv_folder/lib/python3.7/site-packages/scipy (version 1.5.4)
libxc:  4.3.4
units:  Angstrom and eV
cores: 64
OMP_NUM_THREADS: 1

Input parameters:
  convergence: {bands: occupied,
                density: 0.0001,
                eigenstates: 4e-08,
                energy: 0.0005,
                forces: 1e-06}
  kpts: [6 6 4]
  mode: {ecut: 600.0,
         gammacentered: False,
         name: pw}
  occupations: {fixmagmom: False,
                name: fermi-dirac,
                width: 0.001}
  setups: {Mn: :d,3.0}
  symmetry: {point_group: False,
             time_reversal: False}

System changes: positions, numbers, cell, pbc, initial_charges, initial_magmoms 

Initialize ...

O-setup:
  name: Oxygen
  id: 9b9d51c344dea68c822856295a461509
  Z: 8.0
  valence: 6
  core: 2
  charge: 0.0
  file: /home/modules/software/GPAW-setups/0.9.20000/O.LDA.gz
  compensation charges: gauss, rc=0.21, lmax=2
  cutoffs: 1.17(filt), 0.83(core),
  valence states:
                energy  radius
    2s(2.00)   -23.752   0.688
    2p(4.00)    -9.195   0.598
    *s           3.459   0.688
    *p          18.016   0.598
    *d           0.000   0.619

  Using partial waves for O as LCAO basis

Mn-setup:
  name: Manganese
  id: 0d715a8018be061a6e9ea6f2d364ac92
  Z: 25.0
  valence: 15
  core: 10
  charge: 0.0
  Hubbard U: 3.000000 eV (l=2, scale=True)
  file: /home/modules/software/GPAW-setups/0.9.20000/Mn.LDA.gz
  compensation charges: gauss, rc=0.38, lmax=2
  cutoffs: 2.14(filt), 0.86(core),
  valence states:
                energy  radius
    3s(2.00)   -85.387   1.275
    4s(2.00)    -5.282   1.275
    3p(6.00)   -54.493   1.281
    4p(0.00)    -1.471   1.281
    3d(5.00)    -7.009   1.138
    *d          20.203   1.138

  Using partial waves for Mn as LCAO basis

P-setup:
  name: Phosphorus
  id: a5561c299094968922a179ab894d2e2d
  Z: 15.0
  valence: 5
  core: 10
  charge: 0.0
  file: /home/modules/software/GPAW-setups/0.9.20000/P.LDA.gz
  compensation charges: gauss, rc=0.30, lmax=2
  cutoffs: 1.69(filt), 1.81(core),
  valence states:
                energy  radius
    3s(2.00)   -14.015   0.953
    3p(3.00)    -5.596   0.953
    *s          13.197   0.953
    *p          21.615   0.953
    *d           0.000   0.953

  Using partial waves for P as LCAO basis

Li-setup:
  name: Lithium
  id: b73562207f97a71b6967473b66fe8b65
  Z: 3.0
  valence: 1
  core: 2
  charge: 0.0
  file: /home/modules/software/GPAW-setups/0.9.20000/Li.LDA.gz
  compensation charges: gauss, rc=0.33, lmax=2
  cutoffs: 1.91(filt), 2.55(core),
  valence states:
                energy  radius
    2s(1.00)    -2.874   1.058
    2p(0.00)    -1.126   1.058
    *s          24.338   1.058

  Using partial waves for Li as LCAO basis

Reference energy: -196157.275402

Spin-polarized calculation.
Magnetic moment: 0.000000

Convergence criteria:
  Maximum total energy change: 0.0005 eV / electron
  Maximum integral of absolute density change: 0.0001 electrons
  Maximum integral of absolute eigenstate change: 4e-08 eV^2
  Maximum change in atomic force: 1e-06 eV / Ang
  Maximum number of iterations: 333

Symmetries present (total): 1

  ( 1  0  0)
  ( 0  1  0)
  ( 0  0  1)

144 k-points: 6 x 6 x 4 Monkhorst-Pack grid
144 k-points in the irreducible part of the Brillouin zone
       k-points in crystal coordinates                weights
   0:    -0.41666667   -0.41666667   -0.37500000          1/144
   1:    -0.41666667   -0.41666667   -0.12500000          1/144
   2:    -0.41666667   -0.41666667    0.12500000          1/144
   3:    -0.41666667   -0.41666667    0.37500000          1/144
   4:    -0.41666667   -0.25000000   -0.37500000          1/144
   5:    -0.41666667   -0.25000000   -0.12500000          1/144
   6:    -0.41666667   -0.25000000    0.12500000          1/144
   7:    -0.41666667   -0.25000000    0.37500000          1/144
   8:    -0.41666667   -0.08333333   -0.37500000          1/144
   9:    -0.41666667   -0.08333333   -0.12500000          1/144
          ...
 143:     0.41666667    0.41666667    0.37500000          1/144

Wave functions: Plane wave expansion
  Cutoff energy: 600.000 eV
  Number of coefficients (min, max): 10068, 10125
  Pulay-stress correction: 0.000000 eV/Ang^3 (de/decut=0.000000)
  Using FFTW library
  ScaLapack parameters: grid=1x1, blocksize=None
  Wavefunction extrapolation:
    Improved wavefunction reuse through dual PAW basis 

  Fermi-Dirac: width=0.0010 eV

Eigensolver
   Davidson(niter=2, smin=None, normalize=True) 

Densities:
  Coarse grid: 60*35*27 grid
  Fine grid: 120*70*54 grid
  Total Charge: 0.000000 

Density mixing:
  Method: difference
  Backend: pulay
  Linear mixing parameter: 0.05
  Mixing with 5 old densities
  Damping of long wave oscillations: 50 

Hamiltonian:
  XC and Coulomb potentials evaluated on a 120*70*54 grid
  Using the LDA Exchange-Correlation functional
 

Memory estimate:
  Process memory now: 13553.01 MiB
  Calculator: 354.82 MiB
    Density: 10.06 MiB
      Arrays: 3.79 MiB
      Localized functions: 4.71 MiB
      Mixer: 1.56 MiB
    Hamiltonian: 2.95 MiB
      Arrays: 2.82 MiB
      XC: 0.00 MiB
      Poisson: 0.00 MiB
      vbar: 0.14 MiB
    Wavefunctions: 341.80 MiB
      Arrays psit_nG: 311.46 MiB
      Eigensolver: 19.99 MiB
      Projections: 2.71 MiB
      Projectors: 4.87 MiB
      PW-descriptor: 2.77 MiB

Total number of cores used: 64
Parallelization over k-points: 16
Domain decomposition: 2 x 2 x 1

Number of atoms: 28
Number of atomic orbitals: 148
Number of bands in calculation: 112
Number of valence electrons: 180
Bands to converge: occupied

... initialized

Initializing position-dependent things.

Density initialized from atomic densities
Creating initial wave functions:
  112 bands from LCAO basis set

     .-------------------------.  
    /|         OP              |  
   / |O            O        O  |  
  /  |       O            O  P |  
 *   |O    Mn      O           |  
 |   |          OLi          O |  
 |   P--O--------------Mn------.  
 |  /          Li    O  Mn  O /   
 | /LiO           PO         /    
 |/       Mn                /     
 *Li-----------------------*      

Positions:
   0 O     -1.330281   -2.539252   -1.168500    ( 0.0000,  0.0000,  0.0000)
   1 O     -3.152392    2.974909    1.200956    ( 0.0000,  0.0000,  0.0000)
   2 O      2.077234    0.510133    1.506966    ( 0.0000,  0.0000,  0.0000)
   3 O      3.899724   -0.074476   -0.862491    ( 0.0000,  0.0000,  0.0000)
   4 O      2.077424    2.974966    1.507072    ( 0.0000,  0.0000,  0.0000)
   5 O      3.899535   -2.539195   -0.862384    ( 0.0000,  0.0000,  0.0000)
   6 O     -1.330092   -0.074418   -1.168395    ( 0.0000,  0.0000,  0.0000)
   7 O     -3.152581    0.510191    1.201063    ( 0.0000,  0.0000,  0.0000)
   8 O     -4.389675   -1.306969   -0.813152    ( 0.0000,  0.0000,  0.0000)
   9 O     -0.093301    1.742683    1.556268    ( 0.0000,  0.0000,  0.0000)
  10 O      5.136817    1.742683    1.151723    ( 0.0000,  0.0000,  0.0000)
  11 O      0.840444   -1.306969   -1.217697    ( 0.0000,  0.0000,  0.0000)
  12 Mn    -2.557192   -1.307258    0.273595    ( 0.0000,  0.0000,  1.0000)
  13 Mn    -1.925535    1.742972   -2.096623    ( 0.0000,  0.0000, -1.0000)
  14 Mn     3.304335    1.742972    0.064976    ( 0.0000,  0.0000, -1.0000)
  15 Mn     2.672678   -1.307258    2.435195    ( 0.0000,  0.0000,  1.0000)
  16 P     -0.597175   -1.306854   -1.801474    ( 0.0000,  0.0000,  0.0000)
  17 P     -3.885565    1.742568    0.568028    ( 0.0000,  0.0000,  0.0000)
  18 P      1.344318    1.742568    2.140045    ( 0.0000,  0.0000,  0.0000)
  19 P      4.632708   -1.306854   -0.229456    ( 0.0000,  0.0000,  0.0000)
  20 O     -0.636957   -1.306861    1.403074    ( 0.0000,  0.0000,  0.0000)
  21 O     -3.845824    1.742575   -0.967462    ( 0.0000,  0.0000,  0.0000)
  22 O      1.384100    1.742576   -1.074503    ( 0.0000,  0.0000,  0.0000)
  23 O      4.592967   -1.306861    1.306033    ( 0.0000,  0.0000,  0.0000)
  24 Li    -4.856429   -2.832143   -2.200714    ( 0.0000,  0.0000,  0.0000)
  25 Li     0.373571   -2.832143    0.169286    ( 0.0000,  0.0000,  0.0000)
  26 Li    -4.856429    0.217857   -2.200714    ( 0.0000,  0.0000,  0.0000)
  27 Li     0.373571    0.217857    0.169286    ( 0.0000,  0.0000,  0.0000)

Unit cell:
           periodic     x           y           z      points  spacing
  1. axis:    yes   10.460000    0.000000    0.000000    60     0.1743
  2. axis:    yes    0.000000    6.100000    0.000000    35     0.1743
  3. axis:    yes    0.000000    0.000000    4.740000    27     0.1756

  Lengths:  10.460000   6.100000   4.740000
  Angles:   90.000000  90.000000  90.000000

Effective grid spacing dv^(1/3) = 0.1747

                     log10-error:           total        iterations:
           time      wfs    density  force  energy       poisson  magmom
iter:   1  03:41:13                       -220.686455             +0.0000
iter:   2  03:41:35  -0.64  -0.92         -235.506792             +0.0000
iter:   3  03:41:56  -0.40  -0.96         -226.167708             -0.0000
iter:   4  03:42:18  -1.41  -1.29         -225.885976             +0.0000
iter:   5  03:42:39  -1.19  -1.38         -227.588902             +0.0000
iter:   6  03:43:01  -1.40  -1.51         -225.826886             +0.0000
iter:   7  03:43:22  -2.58  -2.06         -225.899361             +0.0000
iter:   8  03:43:43  -2.22  -2.01         -225.632196             -0.0000
iter:   9  03:44:05  -2.70  -2.10         -225.545034             +0.0000
iter:  10  03:44:26  -3.58  -2.96         -225.544638             +0.0000
iter:  11  03:44:48  -3.96  -3.00         -225.545607             +0.0000
iter:  12  03:45:09  -4.28  -3.23         -225.545818             +0.0000
iter:  13  03:45:30  -5.37  -3.36         -225.545694             -0.0000
iter:  14  03:45:52  -5.20  -3.44         -225.545512             -0.0000
iter:  15  03:46:13  -5.37  -3.61         -225.545444             -0.0000
iter:  16  03:46:35  -6.20  -3.66         -225.545427             +0.0000
iter:  17  03:46:56  -6.22  -3.74         -225.545443             -0.0000
iter:  18  03:47:17  -6.80  -3.81         -225.545444             -0.0000
iter:  19  03:47:39  -5.91  -3.83         -225.545407             -0.0000
iter:  20  03:48:00  -6.81  -4.26         -225.545410             -0.0000
iter:  21  03:48:22  -6.20  -4.43         -225.545400             +0.0000
iter:  22  03:48:43  -6.64  -4.54         -225.545394             -0.0000
iter:  23  03:49:04  -7.19  -4.89         -225.545402             -0.0000
iter:  24  03:49:31  -8.76  -5.07         -225.545402             -0.0000
iter:  25  03:49:58  -8.01  -5.11    -3.27-225.545401             -0.0000
iter:  26  03:50:25  -8.47  -5.28    -3.02-225.545401             -0.0000
iter:  27  03:50:52  -9.75  -5.29    -3.72-225.545401             -0.0000
iter:  28  03:51:19  -8.46  -5.31    -3.63-225.545401             -0.0000
iter:  29  03:51:45  -9.32  -5.43    -3.38-225.545401             -0.0000
iter:  30  03:52:12  -8.82  -5.54    -3.51-225.545401             -0.0000
iter:  31  03:52:39  -9.90  -5.79    -4.29-225.545401             -0.0000
iter:  32  03:53:06  -9.94  -5.81    -4.16-225.545401             -0.0000
iter:  33  03:53:32 -10.29  -5.95    -4.39-225.545401             -0.0000
iter:  34  03:53:59 -10.70  -6.00    -3.96-225.545401             -0.0000
iter:  35  03:54:26 -11.37  -6.13    -4.55-225.545401             -0.0000
iter:  36  03:54:53 -10.01  -6.17    -4.01-225.545401             -0.0000
iter:  37  03:55:20 -11.21  -6.67    -4.47-225.545401             -0.0000
iter:  38  03:55:46 -11.40  -6.74    -4.83-225.545401             -0.0000
iter:  39  03:56:13 -11.16  -6.69    -4.48-225.545401             -0.0000
iter:  40  03:56:40 -11.71  -6.81    -4.93-225.545401             -0.0000
iter:  41  03:57:07 -11.32  -6.97    -4.87-225.545401             -0.0000
iter:  42  03:57:33 -12.34  -7.18    -5.15-225.545401             -0.0000
iter:  43  03:58:00 -13.10  -7.48    -5.66-225.545401             -0.0000
iter:  44  03:58:27 -13.99  -7.56    -5.62-225.545401             -0.0000
iter:  45  03:58:54 -13.73  -7.94    -5.85-225.545401             -0.0000
iter:  46  03:59:21 -14.32  -8.33    -6.23-225.545401             -0.0000

Converged after 46 iterations.

Dipole moment: (13.154400, 1.714289, -5.513018) |e|*Ang

Total magnetic moment: (0.000000, 0.000000, -0.000000)
Local magnetic moments:
   0 O  ( 0.000000,  0.000000,  0.001070)
   1 O  ( 0.000000,  0.000000, -0.001052)
   2 O  ( 0.000000,  0.000000, -0.001106)
   3 O  ( 0.000000,  0.000000,  0.001069)
   4 O  ( 0.000000,  0.000000, -0.001114)
   5 O  ( 0.000000,  0.000000,  0.001077)
   6 O  ( 0.000000,  0.000000,  0.001062)
   7 O  ( 0.000000,  0.000000, -0.001044)
   8 O  ( 0.000000,  0.000000,  0.019778)
   9 O  ( 0.000000,  0.000000, -0.019757)
  10 O  ( 0.000000,  0.000000, -0.019866)
  11 O  ( 0.000000,  0.000000,  0.019781)
  12 Mn ( 0.000000,  0.000000,  4.601532)
  13 Mn ( 0.000000,  0.000000, -4.601566)
  14 Mn ( 0.000000,  0.000000, -4.601808)
  15 Mn ( 0.000000,  0.000000,  4.601562)
  16 P  ( 0.000000,  0.000000,  0.001299)
  17 P  ( 0.000000,  0.000000, -0.001295)
  18 P  ( 0.000000,  0.000000, -0.001236)
  19 P  ( 0.000000,  0.000000,  0.001313)
  20 O  ( 0.000000,  0.000000,  0.018074)
  21 O  ( 0.000000,  0.000000, -0.018059)
  22 O  ( 0.000000,  0.000000, -0.017944)
  23 O  ( 0.000000,  0.000000,  0.018064)
  24 Li ( 0.000000,  0.000000,  0.000000)
  25 Li ( 0.000000,  0.000000,  0.000009)
  26 Li ( 0.000000,  0.000000,  0.000000)
  27 Li ( 0.000000,  0.000000,  0.000009)

Energy contributions relative to reference atoms: (reference = -196157.275402)

Kinetic:       +243.690065
Potential:     -216.026944
External:        +0.000000
XC:            -255.121967
Entropy (-ST):   -0.000000
Local:           +1.913446
--------------------------
Free energy:   -225.545401
Extrapolated:  -225.545401

Spin contamination: 9.747424 electrons
Showing only first 2 kpts
                      Up                     Down
 Kpt  Band  Eigenvalues  Occupancy  Eigenvalues  Occupancy
  0    88      3.92351    0.00694      3.91448    0.00694
  0    89      3.97211    0.00694      3.96646    0.00694
  0    90      8.66513    0.00000      8.66763    0.00000
  0    91      8.68643    0.00000      8.68831    0.00000

  1    88      3.92005    0.00694      3.91115    0.00694
  1    89      3.97603    0.00694      3.96993    0.00694
  1    90      8.51135    0.00000      8.51363    0.00000
  1    91      8.52965    0.00000      8.53094    0.00000


Fermi level: 5.31851

Gap: 3.780 eV
Transition (v -> c):
  (s=0, k=70, n=89, [-0.08, 0.42, 0.12]) -> (s=0, k=85, n=90, [0.08, 0.08, -0.12])
Writing to born-0.01-22z-.gpw (mode='all')

Timing:                              incl.     excl.
-----------------------------------------------------------
Hamiltonian:                         0.247     0.002   0.0% |
 Atomic:                             0.057     0.057   0.0% |
  XC Correction:                     0.000     0.000   0.0% |
 Calculate atomic Hamiltonians:      0.093     0.093   0.0% |
 Communicate:                        0.002     0.002   0.0% |
 Initialize Hamiltonian:             0.000     0.000   0.0% |
 Poisson:                            0.001     0.001   0.0% |
 XC 3D grid:                         0.092     0.092   0.0% |
LCAO initialization:                66.353     0.677   0.0% |
 LCAO eigensolver:                  17.580     0.002   0.0% |
  Calculate projections:             0.029     0.029   0.0% |
  DenseAtomicCorrection:             0.042     0.042   0.0% |
  Distribute overlap matrix:         0.009     0.009   0.0% |
  Orbital Layouts:                   0.473     0.473   0.0% |
  Potential matrix:                 16.925    16.925   0.6% |
  Sum over cells:                    0.100     0.100   0.0% |
 LCAO to grid:                      46.820    46.820   1.5% ||
 Set positions (LCAO WFS):           1.276     0.191   0.0% |
  Basic WFS set positions:           0.001     0.001   0.0% |
  Basis functions set positions:     0.000     0.000   0.0% |
  P tci:                             0.518     0.518   0.0% |
  ST tci:                            0.359     0.359   0.0% |
  mktci:                             0.206     0.206   0.0% |
PWDescriptor:                        0.025     0.025   0.0% |
SCF-cycle:                        1113.416     3.889   0.1% |
 Davidson:                         935.195   292.198   9.5% |---|
  Apply H:                          63.237    61.402   2.0% ||
   HMM T:                            1.834     1.834   0.1% |
  Subspace diag:                   135.331     0.138   0.0% |
   calc_h_matrix:                   86.133    22.960   0.7% |
    Apply H:                        63.173    61.405   2.0% ||
     HMM T:                          1.769     1.769   0.1% |
   diagonalize:                      6.661     6.661   0.2% |
   rotate_psi:                      42.399    42.399   1.4% ||
  calc. matrices:                  276.256   154.399   5.0% |-|
   Apply H:                        121.856   118.547   3.9% |-|
    HMM T:                           3.309     3.309   0.1% |
  diagonalize:                      76.645    76.645   2.5% ||
  rotate_psi:                       91.529    91.529   3.0% ||
 Density:                           37.232     0.001   0.0% |
  Atomic density matrices:           0.796     0.796   0.0% |
  Mix:                               5.805     5.805   0.2% |
  Multipole moments:                 0.017     0.017   0.0% |
  Pseudo density:                   30.614    30.613   1.0% |
   Symmetrize density:               0.001     0.001   0.0% |
 Forces:                           123.548   123.548   4.0% |-|
 Hamiltonian:                       11.263     0.098   0.0% |
  Atomic:                            2.613     2.613   0.1% |
   XC Correction:                    0.000     0.000   0.0% |
  Calculate atomic Hamiltonians:     4.239     4.239   0.1% |
  Communicate:                       0.087     0.087   0.0% |
  Poisson:                           0.035     0.035   0.0% |
  XC 3D grid:                        4.191     4.191   0.1% |
 Orthonormalize:                     2.288     0.003   0.0% |
  calc_s_matrix:                     0.265     0.265   0.0% |
  inverse-cholesky:                  0.077     0.077   0.0% |
  projections:                       1.469     1.469   0.0% |
  rotate_psi_s:                      0.473     0.473   0.0% |
Set symmetry:                        0.000     0.000   0.0% |
Other:                            1887.616  1887.616  61.5% |------------------------|
-----------------------------------------------------------
Total:                                      3067.656 100.0%

Memory usage: 13.24 GiB
Date: Thu Mar 25 04:30:47 2021
