
  ___ ___ ___ _ _ _  
 |   |   |_  | | | | 
 | | | | | . | | | | 
 |__ |  _|___|_____|  20.10.1b1
 |___|_|             

User:   madkru@g006.nifl.fysik.dtu.dk
Date:   Wed Mar 24 12:42:47 2021
Arch:   x86_64
Pid:    12017
Python: 3.7.4
gpaw:   /home/niflheim/madkru/venv_folder/gpaw/gpaw (d224efde0f)
_gpaw:  /home/niflheim/madkru/venv_folder/gpaw/build/lib.linux-x86_64-sandybridge-3.7/
        _gpaw.cpython-37m-x86_64-linux-gnu.so (4fd39e8b1e)
ase:    /home/niflheim/madkru/venv_folder/ase/ase (version 3.21.0b1-4d5a73cb29)
numpy:  /home/niflheim/madkru/venv_folder/lib/python3.7/site-packages/numpy (version 1.19.4)
scipy:  /home/niflheim/madkru/venv_folder/lib/python3.7/site-packages/scipy (version 1.5.4)
libxc:  4.3.4
units:  Angstrom and eV
cores: 64
OMP_NUM_THREADS: 1

Input parameters:
  convergence: {bands: occupied,
                density: 0.0001,
                eigenstates: 4e-08,
                energy: 0.0005,
                forces: 1e-06}
  kpts: [6 6 4]
  mode: {ecut: 600.0,
         gammacentered: False,
         name: pw}
  occupations: {fixmagmom: False,
                name: fermi-dirac,
                width: 0.001}
  setups: {Mn: :d,3.0}
  symmetry: {point_group: False,
             time_reversal: False}

System changes: positions, numbers, cell, pbc, initial_charges, initial_magmoms 

Initialize ...

O-setup:
  name: Oxygen
  id: 9b9d51c344dea68c822856295a461509
  Z: 8.0
  valence: 6
  core: 2
  charge: 0.0
  file: /home/modules/software/GPAW-setups/0.9.20000/O.LDA.gz
  compensation charges: gauss, rc=0.21, lmax=2
  cutoffs: 1.17(filt), 0.83(core),
  valence states:
                energy  radius
    2s(2.00)   -23.752   0.688
    2p(4.00)    -9.195   0.598
    *s           3.459   0.688
    *p          18.016   0.598
    *d           0.000   0.619

  Using partial waves for O as LCAO basis

Mn-setup:
  name: Manganese
  id: 0d715a8018be061a6e9ea6f2d364ac92
  Z: 25.0
  valence: 15
  core: 10
  charge: 0.0
  Hubbard U: 3.000000 eV (l=2, scale=True)
  file: /home/modules/software/GPAW-setups/0.9.20000/Mn.LDA.gz
  compensation charges: gauss, rc=0.38, lmax=2
  cutoffs: 2.14(filt), 0.86(core),
  valence states:
                energy  radius
    3s(2.00)   -85.387   1.275
    4s(2.00)    -5.282   1.275
    3p(6.00)   -54.493   1.281
    4p(0.00)    -1.471   1.281
    3d(5.00)    -7.009   1.138
    *d          20.203   1.138

  Using partial waves for Mn as LCAO basis

P-setup:
  name: Phosphorus
  id: a5561c299094968922a179ab894d2e2d
  Z: 15.0
  valence: 5
  core: 10
  charge: 0.0
  file: /home/modules/software/GPAW-setups/0.9.20000/P.LDA.gz
  compensation charges: gauss, rc=0.30, lmax=2
  cutoffs: 1.69(filt), 1.81(core),
  valence states:
                energy  radius
    3s(2.00)   -14.015   0.953
    3p(3.00)    -5.596   0.953
    *s          13.197   0.953
    *p          21.615   0.953
    *d           0.000   0.953

  Using partial waves for P as LCAO basis

Li-setup:
  name: Lithium
  id: b73562207f97a71b6967473b66fe8b65
  Z: 3.0
  valence: 1
  core: 2
  charge: 0.0
  file: /home/modules/software/GPAW-setups/0.9.20000/Li.LDA.gz
  compensation charges: gauss, rc=0.33, lmax=2
  cutoffs: 1.91(filt), 2.55(core),
  valence states:
                energy  radius
    2s(1.00)    -2.874   1.058
    2p(0.00)    -1.126   1.058
    *s          24.338   1.058

  Using partial waves for Li as LCAO basis

Reference energy: -196157.275402

Spin-polarized calculation.
Magnetic moment: 0.000000

Convergence criteria:
  Maximum total energy change: 0.0005 eV / electron
  Maximum integral of absolute density change: 0.0001 electrons
  Maximum integral of absolute eigenstate change: 4e-08 eV^2
  Maximum change in atomic force: 1e-06 eV / Ang
  Maximum number of iterations: 333

Symmetries present (total): 1

  ( 1  0  0)
  ( 0  1  0)
  ( 0  0  1)

144 k-points: 6 x 6 x 4 Monkhorst-Pack grid
144 k-points in the irreducible part of the Brillouin zone
       k-points in crystal coordinates                weights
   0:    -0.41666667   -0.41666667   -0.37500000          1/144
   1:    -0.41666667   -0.41666667   -0.12500000          1/144
   2:    -0.41666667   -0.41666667    0.12500000          1/144
   3:    -0.41666667   -0.41666667    0.37500000          1/144
   4:    -0.41666667   -0.25000000   -0.37500000          1/144
   5:    -0.41666667   -0.25000000   -0.12500000          1/144
   6:    -0.41666667   -0.25000000    0.12500000          1/144
   7:    -0.41666667   -0.25000000    0.37500000          1/144
   8:    -0.41666667   -0.08333333   -0.37500000          1/144
   9:    -0.41666667   -0.08333333   -0.12500000          1/144
          ...
 143:     0.41666667    0.41666667    0.37500000          1/144

Wave functions: Plane wave expansion
  Cutoff energy: 600.000 eV
  Number of coefficients (min, max): 10068, 10125
  Pulay-stress correction: 0.000000 eV/Ang^3 (de/decut=0.000000)
  Using FFTW library
  ScaLapack parameters: grid=1x1, blocksize=None
  Wavefunction extrapolation:
    Improved wavefunction reuse through dual PAW basis 

  Fermi-Dirac: width=0.0010 eV

Eigensolver
   Davidson(niter=2, smin=None, normalize=True) 

Densities:
  Coarse grid: 60*35*27 grid
  Fine grid: 120*70*54 grid
  Total Charge: 0.000000 

Density mixing:
  Method: difference
  Backend: pulay
  Linear mixing parameter: 0.05
  Mixing with 5 old densities
  Damping of long wave oscillations: 50 

Hamiltonian:
  XC and Coulomb potentials evaluated on a 120*70*54 grid
  Using the LDA Exchange-Correlation functional
 

Memory estimate:
  Process memory now: 12923.25 MiB
  Calculator: 354.82 MiB
    Density: 10.06 MiB
      Arrays: 3.79 MiB
      Localized functions: 4.71 MiB
      Mixer: 1.56 MiB
    Hamiltonian: 2.95 MiB
      Arrays: 2.82 MiB
      XC: 0.00 MiB
      Poisson: 0.00 MiB
      vbar: 0.14 MiB
    Wavefunctions: 341.80 MiB
      Arrays psit_nG: 311.46 MiB
      Eigensolver: 19.99 MiB
      Projections: 2.71 MiB
      Projectors: 4.87 MiB
      PW-descriptor: 2.77 MiB

Total number of cores used: 64
Parallelization over k-points: 16
Domain decomposition: 2 x 2 x 1

Number of atoms: 28
Number of atomic orbitals: 148
Number of bands in calculation: 112
Number of valence electrons: 180
Bands to converge: occupied

... initialized

Initializing position-dependent things.

Density initialized from atomic densities
Creating initial wave functions:
  112 bands from LCAO basis set

     .-------------------------.  
    /|         OP              |  
   / |O            O        O  |  
  /  |       O            O  P |  
 *   |O    Mn      O           |  
 |   |          OLi          O |  
 |   P--O--------------Mn------.  
 |  /          Li    O  Mn  O /   
 | /LiO           PO         /    
 |/       Mn                /     
 *Li-----------------------*      

Positions:
   0 O     -1.330281   -2.539252   -1.168500    ( 0.0000,  0.0000,  0.0000)
   1 O     -3.152392    2.974909    1.200956    ( 0.0000,  0.0000,  0.0000)
   2 O      2.077234    0.510133    1.506966    ( 0.0000,  0.0000,  0.0000)
   3 O      3.899724   -0.074476   -0.862491    ( 0.0000,  0.0000,  0.0000)
   4 O      2.077424    2.974966    1.507072    ( 0.0000,  0.0000,  0.0000)
   5 O      3.899535   -2.539195   -0.862384    ( 0.0000,  0.0000,  0.0000)
   6 O     -1.330092   -0.074418   -1.168395    ( 0.0000,  0.0000,  0.0000)
   7 O     -3.152581    0.510191    1.201063    ( 0.0000,  0.0000,  0.0000)
   8 O     -4.389675   -1.306969   -0.813152    ( 0.0000,  0.0000,  0.0000)
   9 O     -0.093301    1.742683    1.556268    ( 0.0000,  0.0000,  0.0000)
  10 O      5.136817    1.742683    1.151723    ( 0.0000,  0.0000,  0.0000)
  11 O      0.840444   -1.306969   -1.217697    ( 0.0000,  0.0000,  0.0000)
  12 Mn    -2.557192   -1.307258    0.273595    ( 0.0000,  0.0000,  1.0000)
  13 Mn    -1.925535    1.742972   -2.096623    ( 0.0000,  0.0000, -1.0000)
  14 Mn     3.304335    1.742972    0.064976    ( 0.0000,  0.0000, -1.0000)
  15 Mn     2.672678   -1.307258    2.435195    ( 0.0000,  0.0000,  1.0000)
  16 P     -0.597175   -1.306854   -1.801474    ( 0.0000,  0.0000,  0.0000)
  17 P     -3.885565    1.742568    0.558028    ( 0.0000,  0.0000,  0.0000)
  18 P      1.344318    1.742568    2.140045    ( 0.0000,  0.0000,  0.0000)
  19 P      4.632708   -1.306854   -0.229456    ( 0.0000,  0.0000,  0.0000)
  20 O     -0.636957   -1.306861    1.403074    ( 0.0000,  0.0000,  0.0000)
  21 O     -3.845824    1.742575   -0.967462    ( 0.0000,  0.0000,  0.0000)
  22 O      1.384100    1.742576   -1.064503    ( 0.0000,  0.0000,  0.0000)
  23 O      4.592967   -1.306861    1.306033    ( 0.0000,  0.0000,  0.0000)
  24 Li    -4.856429   -2.832143   -2.200714    ( 0.0000,  0.0000,  0.0000)
  25 Li     0.373571   -2.832143    0.169286    ( 0.0000,  0.0000,  0.0000)
  26 Li    -4.856429    0.217857   -2.200714    ( 0.0000,  0.0000,  0.0000)
  27 Li     0.373571    0.217857    0.169286    ( 0.0000,  0.0000,  0.0000)

Unit cell:
           periodic     x           y           z      points  spacing
  1. axis:    yes   10.460000    0.000000    0.000000    60     0.1743
  2. axis:    yes    0.000000    6.100000    0.000000    35     0.1743
  3. axis:    yes    0.000000    0.000000    4.740000    27     0.1756

  Lengths:  10.460000   6.100000   4.740000
  Angles:   90.000000  90.000000  90.000000

Effective grid spacing dv^(1/3) = 0.1747

                     log10-error:           total        iterations:
           time      wfs    density  force  energy       poisson  magmom
iter:   1  12:44:20                       -220.693413             +0.0000
iter:   2  12:44:41  -0.64  -0.92         -235.504863             +0.0000
iter:   3  12:45:03  -0.40  -0.96         -226.164625             -0.0000
iter:   4  12:45:24  -1.41  -1.29         -225.885489             +0.0000
iter:   5  12:45:46  -1.19  -1.38         -227.590275             +0.0000
iter:   6  12:46:07  -1.39  -1.51         -225.825247             +0.0000
iter:   7  12:46:29  -2.57  -2.06         -225.897774             +0.0000
iter:   8  12:46:50  -2.22  -2.01         -225.631561             -0.0000
iter:   9  12:47:11  -2.70  -2.10         -225.543996             +0.0000
iter:  10  12:47:33  -3.58  -2.95         -225.543475             +0.0000
iter:  11  12:47:54  -3.95  -3.01         -225.544454             +0.0000
iter:  12  12:48:16  -4.27  -3.22         -225.544695             +0.0000
iter:  13  12:48:37  -5.34  -3.36         -225.544551             -0.0000
iter:  14  12:48:58  -5.11  -3.44         -225.544362             -0.0000
iter:  15  12:49:20  -5.27  -3.60         -225.544277             -0.0000
iter:  16  12:49:41  -6.08  -3.68         -225.544261             +0.0000
iter:  17  12:50:03  -6.41  -3.78         -225.544274             -0.0000
iter:  18  12:50:24  -6.89  -3.83         -225.544278             -0.0000
iter:  19  12:50:46  -5.92  -3.85         -225.544242             +0.0000
iter:  20  12:51:07  -7.12  -4.51         -225.544242             -0.0000
iter:  21  12:51:34  -7.53  -4.65         -225.544238             -0.0000
iter:  22  12:52:01  -7.69  -4.75    -2.66-225.544238             +0.0000
iter:  23  12:52:27  -8.32  -4.78    -3.07-225.544238             +0.0000
iter:  24  12:52:54  -8.39  -4.83    -2.71-225.544238             +0.0000
iter:  25  12:53:16  -7.22  -4.88         -225.544239             +0.0000
iter:  26  12:53:42  -7.99  -4.85    -2.72-225.544238             +0.0000
iter:  27  12:54:09  -8.49  -4.97    -3.63-225.544238             +0.0000
iter:  28  12:54:36  -7.95  -5.01    -2.82-225.544238             +0.0000
iter:  29  12:55:03  -7.81  -5.10    -2.95-225.544238             +0.0000
iter:  30  12:55:29  -8.50  -5.28    -3.38-225.544238             +0.0000
iter:  31  12:55:56  -9.69  -5.45    -3.86-225.544238             +0.0000
iter:  32  12:56:23  -8.78  -5.52    -2.98-225.544238             +0.0000
iter:  33  12:56:50  -9.20  -5.75    -3.85-225.544238             +0.0000
iter:  34  12:57:16 -10.47  -5.96    -4.71-225.544238             +0.0000
iter:  35  12:57:43 -10.18  -5.98    -4.08-225.544238             +0.0000
iter:  36  12:58:10 -10.12  -6.12    -4.37-225.544238             +0.0000
iter:  37  12:58:37 -10.98  -6.23    -4.40-225.544238             +0.0000
iter:  38  12:59:03 -10.93  -6.26    -4.29-225.544238             +0.0000
iter:  39  12:59:30 -10.88  -6.32    -4.86-225.544238             +0.0000
iter:  40  12:59:57 -11.61  -6.39    -4.55-225.544238             +0.0000
iter:  41  13:00:24 -12.16  -6.46    -4.72-225.544238             +0.0000
iter:  42  13:00:50 -11.58  -6.52    -4.76-225.544238             +0.0000
iter:  43  13:01:17 -12.04  -6.56    -4.53-225.544238             +0.0000
iter:  44  13:01:44 -11.91  -6.62    -4.94-225.544238             +0.0000
iter:  45  13:02:11 -12.26  -6.66    -5.21-225.544238             +0.0000
iter:  46  13:02:37 -11.70  -6.70    -4.45-225.544238             +0.0000
iter:  47  13:03:04 -12.78  -7.09    -5.29-225.544238             +0.0000
iter:  48  13:03:31 -12.64  -7.14    -5.47-225.544238             +0.0000
iter:  49  13:03:58 -12.71  -7.22    -5.29-225.544238             +0.0000
iter:  50  13:04:24 -13.03  -7.29    -5.21-225.544238             +0.0000
iter:  51  13:04:51 -13.21  -7.34    -5.08-225.544238             +0.0000
iter:  52  13:05:18 -13.38  -7.51    -5.91-225.544238             +0.0000
iter:  53  13:05:45 -13.88  -7.71    -5.80-225.544238             +0.0000
iter:  54  13:06:12 -13.38  -7.81    -5.82-225.544238             +0.0000
iter:  55  13:06:38 -13.79  -8.13    -5.98-225.544238             +0.0000
iter:  56  13:07:05 -14.62  -8.24    -6.09-225.544238             +0.0000

Converged after 56 iterations.

Dipole moment: (13.160802, 1.709187, -5.588555) |e|*Ang

Total magnetic moment: (0.000000, 0.000000, 0.000000)
Local magnetic moments:
   0 O  ( 0.000000,  0.000000,  0.001074)
   1 O  ( 0.000000,  0.000000, -0.000939)
   2 O  ( 0.000000,  0.000000, -0.001059)
   3 O  ( 0.000000,  0.000000,  0.001022)
   4 O  ( 0.000000,  0.000000, -0.001067)
   5 O  ( 0.000000,  0.000000,  0.001030)
   6 O  ( 0.000000,  0.000000,  0.001066)
   7 O  ( 0.000000,  0.000000, -0.000931)
   8 O  ( 0.000000,  0.000000,  0.019786)
   9 O  ( 0.000000,  0.000000, -0.019839)
  10 O  ( 0.000000,  0.000000, -0.019927)
  11 O  ( 0.000000,  0.000000,  0.019776)
  12 Mn ( 0.000000,  0.000000,  4.601234)
  13 Mn ( 0.000000,  0.000000, -4.601657)
  14 Mn ( 0.000000,  0.000000, -4.601353)
  15 Mn ( 0.000000,  0.000000,  4.601594)
  16 P  ( 0.000000,  0.000000,  0.001311)
  17 P  ( 0.000000,  0.000000, -0.001388)
  18 P  ( 0.000000,  0.000000, -0.001301)
  19 P  ( 0.000000,  0.000000,  0.001295)
  20 O  ( 0.000000,  0.000000,  0.018094)
  21 O  ( 0.000000,  0.000000, -0.017865)
  22 O  ( 0.000000,  0.000000, -0.018043)
  23 O  ( 0.000000,  0.000000,  0.018069)
  24 Li ( 0.000000,  0.000000,  0.000002)
  25 Li ( 0.000000,  0.000000, -0.000000)
  26 Li ( 0.000000,  0.000000,  0.000002)
  27 Li ( 0.000000,  0.000000, -0.000000)

Energy contributions relative to reference atoms: (reference = -196157.275402)

Kinetic:       +242.944316
Potential:     -215.453504
External:        +0.000000
XC:            -254.950472
Entropy (-ST):   -0.000000
Local:           +1.915423
--------------------------
Free energy:   -225.544238
Extrapolated:  -225.544238

Spin contamination: 9.747364 electrons
Showing only first 2 kpts
                      Up                     Down
 Kpt  Band  Eigenvalues  Occupancy  Eigenvalues  Occupancy
  0    88      3.92857    0.00694      3.91990    0.00694
  0    89      3.97787    0.00694      3.97209    0.00694
  0    90      8.66841    0.00000      8.67260    0.00000
  0    91      8.68425    0.00000      8.68992    0.00000

  1    88      3.92532    0.00694      3.91628    0.00694
  1    89      3.98162    0.00694      3.97680    0.00694
  1    90      8.51242    0.00000      8.51757    0.00000
  1    91      8.52859    0.00000      8.53283    0.00000


Fermi level: 5.31889

Gap: 3.770 eV
Transition (v -> c):
  (s=0, k=73, n=89, [0.08, -0.42, -0.12]) -> (s=1, k=86, n=90, [0.08, 0.08, 0.12])
Writing to born-0.01-17z-.gpw (mode='all')

Timing:                              incl.     excl.
-----------------------------------------------------------
Hamiltonian:                         0.248     0.002   0.0% |
 Atomic:                             0.057     0.057   0.0% |
  XC Correction:                     0.000     0.000   0.0% |
 Calculate atomic Hamiltonians:      0.094     0.094   0.0% |
 Communicate:                        0.002     0.002   0.0% |
 Initialize Hamiltonian:             0.000     0.000   0.0% |
 Poisson:                            0.001     0.001   0.0% |
 XC 3D grid:                         0.093     0.093   0.0% |
LCAO initialization:                68.080     0.679   0.0% |
 LCAO eigensolver:                  17.611     0.002   0.0% |
  Calculate projections:             0.029     0.029   0.0% |
  DenseAtomicCorrection:             0.042     0.042   0.0% |
  Distribute overlap matrix:         0.142     0.142   0.0% |
  Orbital Layouts:                   0.474     0.474   0.0% |
  Potential matrix:                 16.821    16.821   0.5% |
  Sum over cells:                    0.101     0.101   0.0% |
 LCAO to grid:                      48.501    48.501   1.5% ||
 Set positions (LCAO WFS):           1.288     0.195   0.0% |
  Basic WFS set positions:           0.001     0.001   0.0% |
  Basis functions set positions:     0.000     0.000   0.0% |
  P tci:                             0.525     0.525   0.0% |
  ST tci:                            0.360     0.360   0.0% |
  mktci:                             0.207     0.207   0.0% |
PWDescriptor:                        0.025     0.025   0.0% |
SCF-cycle:                        1388.547     0.928   0.0% |
 Davidson:                        1138.352   355.751  10.9% |---|
  Apply H:                          77.070    74.840   2.3% ||
   HMM T:                            2.230     2.230   0.1% |
  Subspace diag:                   164.686     0.167   0.0% |
   calc_h_matrix:                  104.912    27.952   0.9% |
    Apply H:                        76.960    74.765   2.3% ||
     HMM T:                          2.195     2.195   0.1% |
   diagonalize:                      8.110     8.110   0.2% |
   rotate_psi:                      51.497    51.497   1.6% ||
  calc. matrices:                  336.662   188.034   5.8% |-|
   Apply H:                        148.628   144.543   4.4% |-|
    HMM T:                           4.085     4.085   0.1% |
  diagonalize:                      92.928    92.928   2.9% ||
  rotate_psi:                      111.255   111.255   3.4% ||
 Density:                           46.044     0.001   0.0% |
  Atomic density matrices:           1.008     1.008   0.0% |
  Mix:                               7.140     7.140   0.2% |
  Multipole moments:                 0.020     0.020   0.0% |
  Pseudo density:                   37.875    37.873   1.2% |
   Symmetrize density:               0.002     0.002   0.0% |
 Forces:                           187.112   187.112   5.7% |-|
 Hamiltonian:                       13.824     0.120   0.0% |
  Atomic:                            3.213     3.212   0.1% |
   XC Correction:                    0.000     0.000   0.0% |
  Calculate atomic Hamiltonians:     5.218     5.218   0.2% |
  Communicate:                       0.091     0.091   0.0% |
  Poisson:                           0.043     0.043   0.0% |
  XC 3D grid:                        5.140     5.140   0.2% |
 Orthonormalize:                     2.287     0.003   0.0% |
  calc_s_matrix:                     0.264     0.264   0.0% |
  inverse-cholesky:                  0.078     0.078   0.0% |
  projections:                       1.469     1.469   0.0% |
  rotate_psi_s:                      0.473     0.473   0.0% |
Set symmetry:                        0.000     0.000   0.0% |
Other:                            1802.841  1802.841  55.3% |---------------------|
-----------------------------------------------------------
Total:                                      3259.742 100.0%

Memory usage: 12.64 GiB
Date: Wed Mar 24 13:37:07 2021
