
  ___ ___ ___ _ _ _  
 |   |   |_  | | | | 
 | | | | | . | | | | 
 |__ |  _|___|_____|  20.10.1b1
 |___|_|             

User:   madkru@g031.nifl.fysik.dtu.dk
Date:   Mon Mar 22 07:08:20 2021
Arch:   x86_64
Pid:    47913
Python: 3.7.4
gpaw:   /home/niflheim/madkru/venv_folder/gpaw/gpaw (d0d1ca1c71)
_gpaw:  /home/niflheim/madkru/venv_folder/gpaw/build/lib.linux-x86_64-sandybridge-3.7/
        _gpaw.cpython-37m-x86_64-linux-gnu.so (4fd39e8b1e)
ase:    /home/niflheim/madkru/venv_folder/ase/ase (version 3.21.0b1-7e6c206a91)
numpy:  /home/niflheim/madkru/venv_folder/lib/python3.7/site-packages/numpy (version 1.19.4)
scipy:  /home/niflheim/madkru/venv_folder/lib/python3.7/site-packages/scipy (version 1.5.4)
libxc:  4.3.4
units:  Angstrom and eV
cores: 32
OMP_NUM_THREADS: 1

Input parameters:
  convergence: {bands: occupied,
                density: 0.0001,
                eigenstates: 4e-08,
                energy: 0.0005,
                forces: 1e-06}
  kpts: [6 6 4]
  mode: {ecut: 600.0,
         gammacentered: False,
         name: pw}
  occupations: {fixmagmom: False,
                name: fermi-dirac,
                width: 0.001}
  setups: {Mn: :d,3.0}
  symmetry: {point_group: False,
             time_reversal: False}

System changes: positions, numbers, cell, pbc, initial_charges, initial_magmoms 

Initialize ...

O-setup:
  name: Oxygen
  id: 9b9d51c344dea68c822856295a461509
  Z: 8.0
  valence: 6
  core: 2
  charge: 0.0
  file: /home/modules/software/GPAW-setups/0.9.20000/O.LDA.gz
  compensation charges: gauss, rc=0.21, lmax=2
  cutoffs: 1.17(filt), 0.83(core),
  valence states:
                energy  radius
    2s(2.00)   -23.752   0.688
    2p(4.00)    -9.195   0.598
    *s           3.459   0.688
    *p          18.016   0.598
    *d           0.000   0.619

  Using partial waves for O as LCAO basis

Mn-setup:
  name: Manganese
  id: 0d715a8018be061a6e9ea6f2d364ac92
  Z: 25.0
  valence: 15
  core: 10
  charge: 0.0
  Hubbard U: 3.000000 eV (l=2, scale=True)
  file: /home/modules/software/GPAW-setups/0.9.20000/Mn.LDA.gz
  compensation charges: gauss, rc=0.38, lmax=2
  cutoffs: 2.14(filt), 0.86(core),
  valence states:
                energy  radius
    3s(2.00)   -85.387   1.275
    4s(2.00)    -5.282   1.275
    3p(6.00)   -54.493   1.281
    4p(0.00)    -1.471   1.281
    3d(5.00)    -7.009   1.138
    *d          20.203   1.138

  Using partial waves for Mn as LCAO basis

P-setup:
  name: Phosphorus
  id: a5561c299094968922a179ab894d2e2d
  Z: 15.0
  valence: 5
  core: 10
  charge: 0.0
  file: /home/modules/software/GPAW-setups/0.9.20000/P.LDA.gz
  compensation charges: gauss, rc=0.30, lmax=2
  cutoffs: 1.69(filt), 1.81(core),
  valence states:
                energy  radius
    3s(2.00)   -14.015   0.953
    3p(3.00)    -5.596   0.953
    *s          13.197   0.953
    *p          21.615   0.953
    *d           0.000   0.953

  Using partial waves for P as LCAO basis

Li-setup:
  name: Lithium
  id: b73562207f97a71b6967473b66fe8b65
  Z: 3.0
  valence: 1
  core: 2
  charge: 0.0
  file: /home/modules/software/GPAW-setups/0.9.20000/Li.LDA.gz
  compensation charges: gauss, rc=0.33, lmax=2
  cutoffs: 1.91(filt), 2.55(core),
  valence states:
                energy  radius
    2s(1.00)    -2.874   1.058
    2p(0.00)    -1.126   1.058
    *s          24.338   1.058

  Using partial waves for Li as LCAO basis

Reference energy: -196157.275402

Spin-polarized calculation.
Magnetic moment: 0.000000

Convergence criteria:
  Maximum total energy change: 0.0005 eV / electron
  Maximum integral of absolute density change: 0.0001 electrons
  Maximum integral of absolute eigenstate change: 4e-08 eV^2
  Maximum change in atomic force: 1e-06 eV / Ang
  Maximum number of iterations: 333

Symmetries present (total): 1

  ( 1  0  0)
  ( 0  1  0)
  ( 0  0  1)

144 k-points: 6 x 6 x 4 Monkhorst-Pack grid
144 k-points in the irreducible part of the Brillouin zone
       k-points in crystal coordinates                weights
   0:    -0.41666667   -0.41666667   -0.37500000          1/144
   1:    -0.41666667   -0.41666667   -0.12500000          1/144
   2:    -0.41666667   -0.41666667    0.12500000          1/144
   3:    -0.41666667   -0.41666667    0.37500000          1/144
   4:    -0.41666667   -0.25000000   -0.37500000          1/144
   5:    -0.41666667   -0.25000000   -0.12500000          1/144
   6:    -0.41666667   -0.25000000    0.12500000          1/144
   7:    -0.41666667   -0.25000000    0.37500000          1/144
   8:    -0.41666667   -0.08333333   -0.37500000          1/144
   9:    -0.41666667   -0.08333333   -0.12500000          1/144
          ...
 143:     0.41666667    0.41666667    0.37500000          1/144

Wave functions: Plane wave expansion
  Cutoff energy: 600.000 eV
  Number of coefficients (min, max): 10068, 10125
  Pulay-stress correction: 0.000000 eV/Ang^3 (de/decut=0.000000)
  Using FFTW library
  ScaLapack parameters: grid=1x1, blocksize=None
  Wavefunction extrapolation:
    Improved wavefunction reuse through dual PAW basis 

  Fermi-Dirac: width=0.0010 eV

Eigensolver
   Davidson(niter=2, smin=None, normalize=True) 

Densities:
  Coarse grid: 60*35*27 grid
  Fine grid: 120*70*54 grid
  Total Charge: 0.000000 

Density mixing:
  Method: difference
  Backend: pulay
  Linear mixing parameter: 0.05
  Mixing with 5 old densities
  Damping of long wave oscillations: 50 

Hamiltonian:
  XC and Coulomb potentials evaluated on a 120*70*54 grid
  Using the LDA Exchange-Correlation functional
 

Memory estimate:
  Process memory now: 12988.04 MiB
  Calculator: 375.55 MiB
    Density: 20.02 MiB
      Arrays: 7.57 MiB
      Localized functions: 9.42 MiB
      Mixer: 3.03 MiB
    Hamiltonian: 5.90 MiB
      Arrays: 5.62 MiB
      XC: 0.00 MiB
      Poisson: 0.00 MiB
      vbar: 0.27 MiB
    Wavefunctions: 349.64 MiB
      Arrays psit_nG: 311.46 MiB
      Eigensolver: 19.99 MiB
      Projections: 5.41 MiB
      Projectors: 9.73 MiB
      PW-descriptor: 3.03 MiB

Total number of cores used: 32
Parallelization over k-points: 16
Domain decomposition: 2 x 1 x 1

Number of atoms: 28
Number of atomic orbitals: 148
Number of bands in calculation: 112
Number of valence electrons: 180
Bands to converge: occupied

... initialized

Initializing position-dependent things.

Density initialized from atomic densities
Creating initial wave functions:
  112 bands from LCAO basis set

     .-------------------------.  
    /|         OP              |  
   / |O            O        O  |  
  /  |       O            O  P |  
 *   |O    Mn      O           |  
 |   |          OLi          O |  
 |   P--O--------------Mn------.  
 |  /          Li    O  Mn  O /   
 | /LiO           PO         /    
 |/       Mn                /     
 *Li-----------------------*      

Positions:
   0 O     -1.330281   -2.539252   -1.168500    ( 0.0000,  0.0000,  0.0000)
   1 O     -3.152392    2.974909    1.200956    ( 0.0000,  0.0000,  0.0000)
   2 O      2.077234    0.510133    1.506966    ( 0.0000,  0.0000,  0.0000)
   3 O      3.899724   -0.074476   -0.862491    ( 0.0000,  0.0000,  0.0000)
   4 O      2.077424    2.974966    1.507072    ( 0.0000,  0.0000,  0.0000)
   5 O      3.899535   -2.539195   -0.852384    ( 0.0000,  0.0000,  0.0000)
   6 O     -1.330092   -0.074418   -1.168395    ( 0.0000,  0.0000,  0.0000)
   7 O     -3.152581    0.510191    1.201063    ( 0.0000,  0.0000,  0.0000)
   8 O     -4.389675   -1.306969   -0.813152    ( 0.0000,  0.0000,  0.0000)
   9 O     -0.093301    1.742683    1.556268    ( 0.0000,  0.0000,  0.0000)
  10 O      5.136817    1.742683    1.151723    ( 0.0000,  0.0000,  0.0000)
  11 O      0.840444   -1.306969   -1.217697    ( 0.0000,  0.0000,  0.0000)
  12 Mn    -2.557192   -1.307258    0.273595    ( 0.0000,  0.0000,  1.0000)
  13 Mn    -1.925535    1.742972   -2.096623    ( 0.0000,  0.0000, -1.0000)
  14 Mn     3.304335    1.742972    0.064976    ( 0.0000,  0.0000, -1.0000)
  15 Mn     2.672678   -1.307258    2.435195    ( 0.0000,  0.0000,  1.0000)
  16 P     -0.597175   -1.306854   -1.801474    ( 0.0000,  0.0000,  0.0000)
  17 P     -3.885565    1.742568    0.568028    ( 0.0000,  0.0000,  0.0000)
  18 P      1.344318    1.742568    2.140045    ( 0.0000,  0.0000,  0.0000)
  19 P      4.632708   -1.306854   -0.229456    ( 0.0000,  0.0000,  0.0000)
  20 O     -0.636957   -1.306861    1.403074    ( 0.0000,  0.0000,  0.0000)
  21 O     -3.845824    1.742575   -0.967462    ( 0.0000,  0.0000,  0.0000)
  22 O      1.384100    1.742576   -1.064503    ( 0.0000,  0.0000,  0.0000)
  23 O      4.592967   -1.306861    1.306033    ( 0.0000,  0.0000,  0.0000)
  24 Li    -4.856429   -2.832143   -2.200714    ( 0.0000,  0.0000,  0.0000)
  25 Li     0.373571   -2.832143    0.169286    ( 0.0000,  0.0000,  0.0000)
  26 Li    -4.856429    0.217857   -2.200714    ( 0.0000,  0.0000,  0.0000)
  27 Li     0.373571    0.217857    0.169286    ( 0.0000,  0.0000,  0.0000)

Unit cell:
           periodic     x           y           z      points  spacing
  1. axis:    yes   10.460000    0.000000    0.000000    60     0.1743
  2. axis:    yes    0.000000    6.100000    0.000000    35     0.1743
  3. axis:    yes    0.000000    0.000000    4.740000    27     0.1756

  Lengths:  10.460000   6.100000   4.740000
  Angles:   90.000000  90.000000  90.000000

Effective grid spacing dv^(1/3) = 0.1747

                     log10-error:           total        iterations:
           time      wfs    density  force  energy       poisson  magmom
iter:   1  07:11:20                       -220.687677             +0.0000
iter:   2  07:11:59  -0.64  -0.92         -235.505855             +0.0000
iter:   3  07:12:39  -0.40  -0.96         -226.169150             -0.0000
iter:   4  07:13:18  -1.41  -1.29         -225.887805             +0.0000
iter:   5  07:13:58  -1.19  -1.38         -227.587633             +0.0000
iter:   6  07:14:37  -1.39  -1.51         -225.828889             +0.0000
iter:   7  07:15:17  -2.57  -2.06         -225.898402             +0.0000
iter:   8  07:15:56  -2.23  -2.01         -225.642910             -0.0000
iter:   9  07:16:35  -2.68  -2.08         -225.546337             +0.0000
iter:  10  07:17:15  -3.54  -2.94         -225.545467             +0.0000
iter:  11  07:17:54  -3.95  -3.00         -225.547196             +0.0000
iter:  12  07:18:34  -4.30  -3.22         -225.547364             +0.0000
iter:  13  07:19:13  -5.37  -3.36         -225.547258             -0.0000
iter:  14  07:19:53  -5.19  -3.44         -225.547117             -0.0000
iter:  15  07:20:32  -5.36  -3.60         -225.547027             -0.0000
iter:  16  07:21:12  -6.33  -3.69         -225.547013             +0.0000
iter:  17  07:21:51  -6.27  -3.76         -225.547032             -0.0000
iter:  18  07:22:31  -6.72  -3.82         -225.547033             -0.0000
iter:  19  07:23:10  -5.83  -3.83         -225.546997             -0.0000
iter:  20  07:23:49  -7.04  -4.40         -225.546993             -0.0000
iter:  21  07:24:39  -7.92  -4.61         -225.546992             -0.0000
iter:  22  07:25:19  -7.19  -4.68         -225.546990             +0.0000
iter:  23  07:26:09  -7.62  -4.70    -2.79-225.546990             +0.0000
iter:  24  07:26:59  -8.45  -4.85    -3.17-225.546990             +0.0000
iter:  25  07:27:49  -7.66  -4.88    -2.42-225.546990             +0.0000
iter:  26  07:28:39  -7.93  -4.88    -2.76-225.546990             +0.0000
iter:  27  07:29:29  -8.72  -5.30    -3.54-225.546990             +0.0000
iter:  28  07:30:19  -8.97  -5.29    -3.34-225.546990             +0.0000
iter:  29  07:31:09  -8.49  -5.38    -3.11-225.546990             +0.0000
iter:  30  07:31:59  -9.76  -5.83    -4.62-225.546990             +0.0000
iter:  31  07:32:49  -8.97  -5.85    -3.72-225.546990             +0.0000
iter:  32  07:33:40  -9.83  -5.91    -3.77-225.546990             +0.0000
iter:  33  07:34:30 -10.11  -6.31    -4.47-225.546990             +0.0000
iter:  34  07:35:20 -10.17  -6.40    -3.99-225.546990             +0.0000
iter:  35  07:36:10 -11.30  -6.57    -4.59-225.546990             +0.0000
iter:  36  07:37:00 -10.79  -6.67    -4.17-225.546990             +0.0000
iter:  37  07:37:50 -10.68  -6.72    -4.18-225.546990             +0.0000
iter:  38  07:38:40 -11.89  -7.14    -4.89-225.546990             +0.0000
iter:  39  07:39:30 -12.96  -7.68    -5.77-225.546990             +0.0000
iter:  40  07:40:21 -13.48  -7.67    -5.46-225.546990             +0.0000
iter:  41  07:41:11 -13.36  -7.81    -5.71-225.546990             +0.0000
iter:  42  07:42:01 -13.04  -7.81    -5.34-225.546990             +0.0000
iter:  43  07:42:51 -13.55  -7.82    -5.67-225.546990             +0.0000
iter:  44  07:43:41 -14.30  -7.95    -6.07-225.546990             +0.0000

Converged after 44 iterations.

Dipole moment: (13.159282, 1.714620, -5.487429) |e|*Ang

Total magnetic moment: (0.000000, 0.000000, 0.000000)
Local magnetic moments:
   0 O  ( 0.000000,  0.000000,  0.001063)
   1 O  ( 0.000000,  0.000000, -0.001060)
   2 O  ( 0.000000,  0.000000, -0.000973)
   3 O  ( 0.000000,  0.000000,  0.001018)
   4 O  ( 0.000000,  0.000000, -0.001119)
   5 O  ( 0.000000,  0.000000,  0.000860)
   6 O  ( 0.000000,  0.000000,  0.001052)
   7 O  ( 0.000000,  0.000000, -0.001055)
   8 O  ( 0.000000,  0.000000,  0.019719)
   9 O  ( 0.000000,  0.000000, -0.019773)
  10 O  ( 0.000000,  0.000000, -0.019820)
  11 O  ( 0.000000,  0.000000,  0.019763)
  12 Mn ( 0.000000,  0.000000,  4.601527)
  13 Mn ( 0.000000,  0.000000, -4.601593)
  14 Mn ( 0.000000,  0.000000, -4.601252)
  15 Mn ( 0.000000,  0.000000,  4.601884)
  16 P  ( 0.000000,  0.000000,  0.001292)
  17 P  ( 0.000000,  0.000000, -0.001298)
  18 P  ( 0.000000,  0.000000, -0.001305)
  19 P  ( 0.000000,  0.000000,  0.001165)
  20 O  ( 0.000000,  0.000000,  0.018070)
  21 O  ( 0.000000,  0.000000, -0.018073)
  22 O  ( 0.000000,  0.000000, -0.018083)
  23 O  ( 0.000000,  0.000000,  0.018072)
  24 Li ( 0.000000,  0.000000, -0.000006)
  25 Li ( 0.000000,  0.000000,  0.000001)
  26 Li ( 0.000000,  0.000000,  0.000000)
  27 Li ( 0.000000,  0.000000, -0.000000)

Energy contributions relative to reference atoms: (reference = -196157.275402)

Kinetic:       +243.191886
Potential:     -215.629703
External:        +0.000000
XC:            -255.023839
Entropy (-ST):   -0.000000
Local:           +1.914666
--------------------------
Free energy:   -225.546990
Extrapolated:  -225.546990

Spin contamination: 9.747564 electrons
Showing only first 2 kpts
                      Up                     Down
 Kpt  Band  Eigenvalues  Occupancy  Eigenvalues  Occupancy
  0    88      3.92032    0.00694      3.92419    0.00694
  0    89      3.97019    0.00694      3.97314    0.00694
  0    90      8.66697    0.00000      8.66540    0.00000
  0    91      8.68685    0.00000      8.68366    0.00000

  1    88      3.91654    0.00694      3.92066    0.00694
  1    89      3.97357    0.00694      3.97673    0.00694
  1    90      8.51198    0.00000      8.51250    0.00000
  1    91      8.52950    0.00000      8.52744    0.00000


Fermi level: 5.31844

Gap: 3.777 eV
Transition (v -> c):
  (s=1, k=73, n=89, [0.08, -0.42, -0.12]) -> (s=0, k=57, n=90, [-0.08, -0.08, -0.12])
Writing to born-0.01-5z+.gpw (mode='all')

Timing:                              incl.     excl.
-----------------------------------------------------------
Hamiltonian:                         0.454     0.003   0.0% |
 Atomic:                             0.110     0.110   0.0% |
  XC Correction:                     0.000     0.000   0.0% |
 Calculate atomic Hamiltonians:      0.174     0.174   0.0% |
 Communicate:                        0.001     0.001   0.0% |
 Initialize Hamiltonian:             0.000     0.000   0.0% |
 Poisson:                            0.002     0.002   0.0% |
 XC 3D grid:                         0.164     0.164   0.0% |
LCAO initialization:               134.055     0.678   0.0% |
 LCAO eigensolver:                  34.410     0.003   0.0% |
  Calculate projections:             0.057     0.057   0.0% |
  DenseAtomicCorrection:             0.083     0.083   0.0% |
  Distribute overlap matrix:         0.494     0.494   0.0% |
  Orbital Layouts:                   0.360     0.360   0.0% |
  Potential matrix:                 33.313    33.313   0.7% |
  Sum over cells:                    0.100     0.100   0.0% |
 LCAO to grid:                      96.676    96.676   1.9% ||
 Set positions (LCAO WFS):           2.291     0.343   0.0% |
  Basic WFS set positions:           0.001     0.001   0.0% |
  Basis functions set positions:     0.000     0.000   0.0% |
  P tci:                             1.053     1.053   0.0% |
  ST tci:                            0.655     0.655   0.0% |
  mktci:                             0.238     0.238   0.0% |
PWDescriptor:                        0.025     0.025   0.0% |
SCF-cycle:                        1984.446    16.785   0.3% |
 Davidson:                        1634.245   537.082  10.7% |---|
  Apply H:                         111.025   107.878   2.2% ||
   HMM T:                            3.147     3.147   0.1% |
  Subspace diag:                   238.748     0.143   0.0% |
   calc_h_matrix:                  153.830    43.208   0.9% |
    Apply H:                       110.622   107.500   2.1% ||
     HMM T:                          3.123     3.123   0.1% |
   diagonalize:                      5.310     5.310   0.1% |
   rotate_psi:                      79.465    79.465   1.6% ||
  calc. matrices:                  512.466   290.775   5.8% |-|
   Apply H:                        221.691   215.449   4.3% |-|
    HMM T:                           6.242     6.242   0.1% |
  diagonalize:                      72.988    72.988   1.5% ||
  rotate_psi:                      161.937   161.937   3.2% ||
 Density:                           65.659     0.001   0.0% |
  Atomic density matrices:           1.210     1.210   0.0% |
  Mix:                              10.557    10.557   0.2% |
  Multipole moments:                 0.026     0.026   0.0% |
  Pseudo density:                   53.865    53.864   1.1% |
   Symmetrize density:               0.001     0.001   0.0% |
 Forces:                           244.941   244.941   4.9% |-|
 Hamiltonian:                       18.397     0.108   0.0% |
  Atomic:                            2.553     2.552   0.1% |
   XC Correction:                    0.000     0.000   0.0% |
  Calculate atomic Hamiltonians:     7.952     7.952   0.2% |
  Communicate:                       0.060     0.060   0.0% |
  Poisson:                           0.067     0.067   0.0% |
  XC 3D grid:                        7.656     7.656   0.2% |
 Orthonormalize:                     4.419     0.004   0.0% |
  calc_s_matrix:                     0.523     0.523   0.0% |
  inverse-cholesky:                  0.054     0.054   0.0% |
  projections:                       2.899     2.899   0.1% |
  rotate_psi_s:                      0.939     0.939   0.0% |
Set symmetry:                        0.000     0.000   0.0% |
Other:                            2897.960  2897.960  57.8% |----------------------|
-----------------------------------------------------------
Total:                                      5016.939 100.0%

Memory usage: 12.68 GiB
Date: Mon Mar 22 08:31:57 2021
