
  ___ ___ ___ _ _ _  
 |   |   |_  | | | | 
 | | | | | . | | | | 
 |__ |  _|___|_____|  20.10.1b1
 |___|_|             

User:   madkru@g006.nifl.fysik.dtu.dk
Date:   Wed Mar 24 16:12:22 2021
Arch:   x86_64
Pid:    12017
Python: 3.7.4
gpaw:   /home/niflheim/madkru/venv_folder/gpaw/gpaw (d224efde0f)
_gpaw:  /home/niflheim/madkru/venv_folder/gpaw/build/lib.linux-x86_64-sandybridge-3.7/
        _gpaw.cpython-37m-x86_64-linux-gnu.so (4fd39e8b1e)
ase:    /home/niflheim/madkru/venv_folder/ase/ase (version 3.21.0b1-4d5a73cb29)
numpy:  /home/niflheim/madkru/venv_folder/lib/python3.7/site-packages/numpy (version 1.19.4)
scipy:  /home/niflheim/madkru/venv_folder/lib/python3.7/site-packages/scipy (version 1.5.4)
libxc:  4.3.4
units:  Angstrom and eV
cores: 64
OMP_NUM_THREADS: 1

Input parameters:
  convergence: {bands: occupied,
                density: 0.0001,
                eigenstates: 4e-08,
                energy: 0.0005,
                forces: 1e-06}
  kpts: [6 6 4]
  mode: {ecut: 600.0,
         gammacentered: False,
         name: pw}
  occupations: {fixmagmom: False,
                name: fermi-dirac,
                width: 0.001}
  setups: {Mn: :d,3.0}
  symmetry: {point_group: False,
             time_reversal: False}

System changes: positions, numbers, cell, pbc, initial_charges, initial_magmoms 

Initialize ...

O-setup:
  name: Oxygen
  id: 9b9d51c344dea68c822856295a461509
  Z: 8.0
  valence: 6
  core: 2
  charge: 0.0
  file: /home/modules/software/GPAW-setups/0.9.20000/O.LDA.gz
  compensation charges: gauss, rc=0.21, lmax=2
  cutoffs: 1.17(filt), 0.83(core),
  valence states:
                energy  radius
    2s(2.00)   -23.752   0.688
    2p(4.00)    -9.195   0.598
    *s           3.459   0.688
    *p          18.016   0.598
    *d           0.000   0.619

  Using partial waves for O as LCAO basis

Mn-setup:
  name: Manganese
  id: 0d715a8018be061a6e9ea6f2d364ac92
  Z: 25.0
  valence: 15
  core: 10
  charge: 0.0
  Hubbard U: 3.000000 eV (l=2, scale=True)
  file: /home/modules/software/GPAW-setups/0.9.20000/Mn.LDA.gz
  compensation charges: gauss, rc=0.38, lmax=2
  cutoffs: 2.14(filt), 0.86(core),
  valence states:
                energy  radius
    3s(2.00)   -85.387   1.275
    4s(2.00)    -5.282   1.275
    3p(6.00)   -54.493   1.281
    4p(0.00)    -1.471   1.281
    3d(5.00)    -7.009   1.138
    *d          20.203   1.138

  Using partial waves for Mn as LCAO basis

P-setup:
  name: Phosphorus
  id: a5561c299094968922a179ab894d2e2d
  Z: 15.0
  valence: 5
  core: 10
  charge: 0.0
  file: /home/modules/software/GPAW-setups/0.9.20000/P.LDA.gz
  compensation charges: gauss, rc=0.30, lmax=2
  cutoffs: 1.69(filt), 1.81(core),
  valence states:
                energy  radius
    3s(2.00)   -14.015   0.953
    3p(3.00)    -5.596   0.953
    *s          13.197   0.953
    *p          21.615   0.953
    *d           0.000   0.953

  Using partial waves for P as LCAO basis

Li-setup:
  name: Lithium
  id: b73562207f97a71b6967473b66fe8b65
  Z: 3.0
  valence: 1
  core: 2
  charge: 0.0
  file: /home/modules/software/GPAW-setups/0.9.20000/Li.LDA.gz
  compensation charges: gauss, rc=0.33, lmax=2
  cutoffs: 1.91(filt), 2.55(core),
  valence states:
                energy  radius
    2s(1.00)    -2.874   1.058
    2p(0.00)    -1.126   1.058
    *s          24.338   1.058

  Using partial waves for Li as LCAO basis

Reference energy: -196157.275402

Spin-polarized calculation.
Magnetic moment: 0.000000

Convergence criteria:
  Maximum total energy change: 0.0005 eV / electron
  Maximum integral of absolute density change: 0.0001 electrons
  Maximum integral of absolute eigenstate change: 4e-08 eV^2
  Maximum change in atomic force: 1e-06 eV / Ang
  Maximum number of iterations: 333

Symmetries present (total): 1

  ( 1  0  0)
  ( 0  1  0)
  ( 0  0  1)

144 k-points: 6 x 6 x 4 Monkhorst-Pack grid
144 k-points in the irreducible part of the Brillouin zone
       k-points in crystal coordinates                weights
   0:    -0.41666667   -0.41666667   -0.37500000          1/144
   1:    -0.41666667   -0.41666667   -0.12500000          1/144
   2:    -0.41666667   -0.41666667    0.12500000          1/144
   3:    -0.41666667   -0.41666667    0.37500000          1/144
   4:    -0.41666667   -0.25000000   -0.37500000          1/144
   5:    -0.41666667   -0.25000000   -0.12500000          1/144
   6:    -0.41666667   -0.25000000    0.12500000          1/144
   7:    -0.41666667   -0.25000000    0.37500000          1/144
   8:    -0.41666667   -0.08333333   -0.37500000          1/144
   9:    -0.41666667   -0.08333333   -0.12500000          1/144
          ...
 143:     0.41666667    0.41666667    0.37500000          1/144

Wave functions: Plane wave expansion
  Cutoff energy: 600.000 eV
  Number of coefficients (min, max): 10068, 10125
  Pulay-stress correction: 0.000000 eV/Ang^3 (de/decut=0.000000)
  Using FFTW library
  ScaLapack parameters: grid=1x1, blocksize=None
  Wavefunction extrapolation:
    Improved wavefunction reuse through dual PAW basis 

  Fermi-Dirac: width=0.0010 eV

Eigensolver
   Davidson(niter=2, smin=None, normalize=True) 

Densities:
  Coarse grid: 60*35*27 grid
  Fine grid: 120*70*54 grid
  Total Charge: 0.000000 

Density mixing:
  Method: difference
  Backend: pulay
  Linear mixing parameter: 0.05
  Mixing with 5 old densities
  Damping of long wave oscillations: 50 

Hamiltonian:
  XC and Coulomb potentials evaluated on a 120*70*54 grid
  Using the LDA Exchange-Correlation functional
 

Memory estimate:
  Process memory now: 13072.84 MiB
  Calculator: 354.82 MiB
    Density: 10.06 MiB
      Arrays: 3.79 MiB
      Localized functions: 4.71 MiB
      Mixer: 1.56 MiB
    Hamiltonian: 2.95 MiB
      Arrays: 2.82 MiB
      XC: 0.00 MiB
      Poisson: 0.00 MiB
      vbar: 0.14 MiB
    Wavefunctions: 341.80 MiB
      Arrays psit_nG: 311.46 MiB
      Eigensolver: 19.99 MiB
      Projections: 2.71 MiB
      Projectors: 4.87 MiB
      PW-descriptor: 2.77 MiB

Total number of cores used: 64
Parallelization over k-points: 16
Domain decomposition: 2 x 2 x 1

Number of atoms: 28
Number of atomic orbitals: 148
Number of bands in calculation: 112
Number of valence electrons: 180
Bands to converge: occupied

... initialized

Initializing position-dependent things.

Density initialized from atomic densities
Creating initial wave functions:
  112 bands from LCAO basis set

     .-------------------------.  
    /|         OP              |  
   / |O            O        O  |  
  /  |       O            O  P |  
 *   |O    Mn      O           |  
 |   |          OLi          O |  
 |   P--O--------------Mn------.  
 |  /          Li    O  Mn  O /   
 | /LiO           PO         /    
 |/       Mn                /     
 *Li-----------------------*      

Positions:
   0 O     -1.330281   -2.539252   -1.168500    ( 0.0000,  0.0000,  0.0000)
   1 O     -3.152392    2.974909    1.200956    ( 0.0000,  0.0000,  0.0000)
   2 O      2.077234    0.510133    1.506966    ( 0.0000,  0.0000,  0.0000)
   3 O      3.899724   -0.074476   -0.862491    ( 0.0000,  0.0000,  0.0000)
   4 O      2.077424    2.974966    1.507072    ( 0.0000,  0.0000,  0.0000)
   5 O      3.899535   -2.539195   -0.862384    ( 0.0000,  0.0000,  0.0000)
   6 O     -1.330092   -0.074418   -1.168395    ( 0.0000,  0.0000,  0.0000)
   7 O     -3.152581    0.510191    1.201063    ( 0.0000,  0.0000,  0.0000)
   8 O     -4.389675   -1.306969   -0.813152    ( 0.0000,  0.0000,  0.0000)
   9 O     -0.093301    1.742683    1.556268    ( 0.0000,  0.0000,  0.0000)
  10 O      5.136817    1.742683    1.151723    ( 0.0000,  0.0000,  0.0000)
  11 O      0.840444   -1.306969   -1.217697    ( 0.0000,  0.0000,  0.0000)
  12 Mn    -2.557192   -1.307258    0.273595    ( 0.0000,  0.0000,  1.0000)
  13 Mn    -1.925535    1.742972   -2.096623    ( 0.0000,  0.0000, -1.0000)
  14 Mn     3.304335    1.742972    0.064976    ( 0.0000,  0.0000, -1.0000)
  15 Mn     2.672678   -1.307258    2.435195    ( 0.0000,  0.0000,  1.0000)
  16 P     -0.597175   -1.306854   -1.801474    ( 0.0000,  0.0000,  0.0000)
  17 P     -3.885565    1.742568    0.568028    ( 0.0000,  0.0000,  0.0000)
  18 P      1.344318    1.742568    2.150045    ( 0.0000,  0.0000,  0.0000)
  19 P      4.632708   -1.306854   -0.229456    ( 0.0000,  0.0000,  0.0000)
  20 O     -0.636957   -1.306861    1.403074    ( 0.0000,  0.0000,  0.0000)
  21 O     -3.845824    1.742575   -0.967462    ( 0.0000,  0.0000,  0.0000)
  22 O      1.384100    1.742576   -1.064503    ( 0.0000,  0.0000,  0.0000)
  23 O      4.592967   -1.306861    1.306033    ( 0.0000,  0.0000,  0.0000)
  24 Li    -4.856429   -2.832143   -2.200714    ( 0.0000,  0.0000,  0.0000)
  25 Li     0.373571   -2.832143    0.169286    ( 0.0000,  0.0000,  0.0000)
  26 Li    -4.856429    0.217857   -2.200714    ( 0.0000,  0.0000,  0.0000)
  27 Li     0.373571    0.217857    0.169286    ( 0.0000,  0.0000,  0.0000)

Unit cell:
           periodic     x           y           z      points  spacing
  1. axis:    yes   10.460000    0.000000    0.000000    60     0.1743
  2. axis:    yes    0.000000    6.100000    0.000000    35     0.1743
  3. axis:    yes    0.000000    0.000000    4.740000    27     0.1756

  Lengths:  10.460000   6.100000   4.740000
  Angles:   90.000000  90.000000  90.000000

Effective grid spacing dv^(1/3) = 0.1747

                     log10-error:           total        iterations:
           time      wfs    density  force  energy       poisson  magmom
iter:   1  16:13:58                       -220.693418             +0.0000
iter:   2  16:14:19  -0.64  -0.92         -235.504872             +0.0000
iter:   3  16:14:41  -0.40  -0.96         -226.164630             -0.0000
iter:   4  16:15:02  -1.41  -1.29         -225.885493             +0.0000
iter:   5  16:15:24  -1.19  -1.38         -227.590417             +0.0000
iter:   6  16:15:45  -1.39  -1.51         -225.825243             +0.0000
iter:   7  16:16:07  -2.57  -2.06         -225.897757             +0.0000
iter:   8  16:16:28  -2.22  -2.01         -225.631584             -0.0000
iter:   9  16:16:50  -2.70  -2.10         -225.543998             +0.0000
iter:  10  16:17:11  -3.58  -2.95         -225.543471             +0.0000
iter:  11  16:17:33  -3.95  -3.01         -225.544457             +0.0000
iter:  12  16:17:54  -4.27  -3.22         -225.544698             +0.0000
iter:  13  16:18:16  -5.34  -3.36         -225.544555             -0.0000
iter:  14  16:18:38  -5.11  -3.44         -225.544365             -0.0000
iter:  15  16:18:59  -5.27  -3.60         -225.544279             -0.0000
iter:  16  16:19:21  -6.08  -3.68         -225.544264             +0.0000
iter:  17  16:19:42  -6.41  -3.78         -225.544277             -0.0000
iter:  18  16:20:04  -6.89  -3.83         -225.544281             -0.0000
iter:  19  16:20:25  -5.92  -3.85         -225.544245             -0.0000
iter:  20  16:20:47  -7.12  -4.51         -225.544245             -0.0000
iter:  21  16:21:14  -7.53  -4.65         -225.544241             -0.0000
iter:  22  16:21:41  -7.69  -4.75    -2.67-225.544241             -0.0000
iter:  23  16:22:08  -8.32  -4.78    -3.07-225.544241             -0.0000
iter:  24  16:22:35  -8.41  -4.83    -2.71-225.544241             -0.0000
iter:  25  16:22:56  -7.23  -4.88         -225.544242             -0.0000
iter:  26  16:23:23  -8.00  -4.85    -2.72-225.544241             -0.0000
iter:  27  16:23:50  -8.50  -4.97    -3.65-225.544241             -0.0000
iter:  28  16:24:17  -7.97  -5.01    -2.83-225.544241             -0.0000
iter:  29  16:24:44  -7.82  -5.11    -2.95-225.544241             -0.0000
iter:  30  16:25:11  -8.48  -5.28    -3.45-225.544241             -0.0000
iter:  31  16:25:38  -9.64  -5.46    -3.82-225.544241             -0.0000
iter:  32  16:26:05  -8.77  -5.54    -3.01-225.544241             -0.0000
iter:  33  16:26:31  -9.21  -5.75    -3.91-225.544241             -0.0000
iter:  34  16:26:58 -10.44  -5.92    -4.65-225.544241             -0.0000
iter:  35  16:27:25 -10.19  -5.94    -4.03-225.544241             -0.0000
iter:  36  16:27:52 -10.14  -6.09    -4.42-225.544241             -0.0000
iter:  37  16:28:19 -11.04  -6.18    -4.39-225.544241             -0.0000
iter:  38  16:28:46 -11.13  -6.22    -4.34-225.544241             -0.0000
iter:  39  16:29:13 -11.14  -6.26    -4.95-225.544241             -0.0000
iter:  40  16:29:40 -11.28  -6.31    -4.38-225.544241             -0.0000
iter:  41  16:30:06 -11.62  -6.39    -4.78-225.544241             -0.0000
iter:  42  16:30:33 -11.70  -6.43    -4.67-225.544241             -0.0000
iter:  43  16:31:00 -11.56  -6.47    -4.15-225.544241             -0.0000
iter:  44  16:31:27 -11.52  -6.63    -4.87-225.544241             -0.0000
iter:  45  16:31:54 -12.77  -6.67    -5.48-225.544241             -0.0000
iter:  46  16:32:21 -11.73  -6.73    -4.88-225.544241             -0.0000
iter:  47  16:32:48 -12.74  -7.02    -5.95-225.544241             -0.0000
iter:  48  16:33:14 -11.70  -7.05    -4.77-225.544241             -0.0000
iter:  49  16:33:41 -12.66  -7.32    -5.34-225.544241             -0.0000
iter:  50  16:34:08 -12.98  -7.80    -6.17-225.544241             -0.0000

Converged after 50 iterations.

Dipole moment: (13.144356, 1.709186, -5.492167) |e|*Ang

Total magnetic moment: (0.000000, 0.000000, -0.000000)
Local magnetic moments:
   0 O  ( 0.000000,  0.000000,  0.001043)
   1 O  ( 0.000000,  0.000000, -0.001054)
   2 O  ( 0.000000,  0.000000, -0.000944)
   3 O  ( 0.000000,  0.000000,  0.001053)
   4 O  ( 0.000000,  0.000000, -0.000952)
   5 O  ( 0.000000,  0.000000,  0.001060)
   6 O  ( 0.000000,  0.000000,  0.001035)
   7 O  ( 0.000000,  0.000000, -0.001046)
   8 O  ( 0.000000,  0.000000,  0.019778)
   9 O  ( 0.000000,  0.000000, -0.019925)
  10 O  ( 0.000000,  0.000000, -0.019842)
  11 O  ( 0.000000,  0.000000,  0.019784)
  12 Mn ( 0.000000,  0.000000,  4.601527)
  13 Mn ( 0.000000,  0.000000, -4.601420)
  14 Mn ( 0.000000,  0.000000, -4.601590)
  15 Mn ( 0.000000,  0.000000,  4.601301)
  16 P  ( 0.000000,  0.000000,  0.001301)
  17 P  ( 0.000000,  0.000000, -0.001295)
  18 P  ( 0.000000,  0.000000, -0.001394)
  19 P  ( 0.000000,  0.000000,  0.001305)
  20 O  ( 0.000000,  0.000000,  0.018074)
  21 O  ( 0.000000,  0.000000, -0.018039)
  22 O  ( 0.000000,  0.000000, -0.017869)
  23 O  ( 0.000000,  0.000000,  0.018090)
  24 Li ( 0.000000,  0.000000, -0.000000)
  25 Li ( 0.000000,  0.000000,  0.000002)
  26 Li ( 0.000000,  0.000000, -0.000000)
  27 Li ( 0.000000,  0.000000,  0.000002)

Energy contributions relative to reference atoms: (reference = -196157.275402)

Kinetic:       +242.944450
Potential:     -215.453637
External:        +0.000000
XC:            -254.950480
Entropy (-ST):   -0.000000
Local:           +1.915426
--------------------------
Free energy:   -225.544241
Extrapolated:  -225.544241

Spin contamination: 9.747368 electrons
Showing only first 2 kpts
                      Up                     Down
 Kpt  Band  Eigenvalues  Occupancy  Eigenvalues  Occupancy
  0    88      3.92861    0.00694      3.91907    0.00694
  0    89      3.97779    0.00694      3.97269    0.00694
  0    90      8.66434    0.00000      8.67041    0.00000
  0    91      8.68901    0.00000      8.69284    0.00000

  1    88      3.92516    0.00694      3.91611    0.00694
  1    89      3.98172    0.00694      3.97680    0.00694
  1    90      8.51029    0.00000      8.51578    0.00000
  1    91      8.53085    0.00000      8.53481    0.00000


Fermi level: 5.31888

Gap: 3.770 eV
Transition (v -> c):
  (s=0, k=69, n=89, [-0.08, 0.42, -0.12]) -> (s=1, k=57, n=90, [-0.08, -0.08, -0.12])
Writing to born-0.01-18z+.gpw (mode='all')

Timing:                              incl.     excl.
-----------------------------------------------------------
Hamiltonian:                         0.248     0.002   0.0% |
 Atomic:                             0.057     0.057   0.0% |
  XC Correction:                     0.000     0.000   0.0% |
 Calculate atomic Hamiltonians:      0.093     0.093   0.0% |
 Communicate:                        0.001     0.001   0.0% |
 Initialize Hamiltonian:             0.000     0.000   0.0% |
 Poisson:                            0.001     0.001   0.0% |
 XC 3D grid:                         0.093     0.093   0.0% |
LCAO initialization:                68.826     0.678   0.0% |
 LCAO eigensolver:                  17.544     0.002   0.0% |
  Calculate projections:             0.029     0.029   0.0% |
  DenseAtomicCorrection:             0.042     0.042   0.0% |
  Distribute overlap matrix:         0.009     0.009   0.0% |
  Orbital Layouts:                   0.473     0.473   0.0% |
  Potential matrix:                 16.900    16.900   0.5% |
  Sum over cells:                    0.089     0.089   0.0% |
 LCAO to grid:                      49.306    49.306   1.6% ||
 Set positions (LCAO WFS):           1.297     0.214   0.0% |
  Basic WFS set positions:           0.001     0.001   0.0% |
  Basis functions set positions:     0.000     0.000   0.0% |
  P tci:                             0.516     0.516   0.0% |
  ST tci:                            0.359     0.359   0.0% |
  mktci:                             0.207     0.207   0.0% |
PWDescriptor:                        0.026     0.026   0.0% |
SCF-cycle:                        1235.449     2.485   0.1% |
 Davidson:                        1022.479   317.086  10.0% |---|
  Apply H:                          69.673    67.689   2.1% ||
   HMM T:                            1.984     1.984   0.1% |
  Subspace diag:                   148.189     0.148   0.0% |
   calc_h_matrix:                   94.945    24.891   0.8% |
    Apply H:                        70.053    68.081   2.2% ||
     HMM T:                          1.972     1.972   0.1% |
   diagonalize:                      7.219     7.219   0.2% |
   rotate_psi:                      45.878    45.878   1.5% ||
  calc. matrices:                  304.472   168.375   5.3% |-|
   Apply H:                        136.097   132.372   4.2% |-|
    HMM T:                           3.725     3.725   0.1% |
  diagonalize:                      83.451    83.451   2.6% ||
  rotate_psi:                       99.607    99.607   3.2% ||
 Density:                           40.807     0.001   0.0% |
  Atomic density matrices:           0.844     0.844   0.0% |
  Mix:                               6.376     6.376   0.2% |
  Multipole moments:                 0.018     0.018   0.0% |
  Pseudo density:                   33.567    33.566   1.1% |
   Symmetrize density:               0.001     0.001   0.0% |
 Forces:                           155.107   155.107   4.9% |-|
 Hamiltonian:                       12.282     0.107   0.0% |
  Atomic:                            2.843     2.842   0.1% |
   XC Correction:                    0.000     0.000   0.0% |
  Calculate atomic Hamiltonians:     4.642     4.642   0.1% |
  Communicate:                       0.086     0.086   0.0% |
  Poisson:                           0.039     0.039   0.0% |
  XC 3D grid:                        4.566     4.566   0.1% |
 Orthonormalize:                     2.289     0.003   0.0% |
  calc_s_matrix:                     0.265     0.265   0.0% |
  inverse-cholesky:                  0.078     0.078   0.0% |
  projections:                       1.467     1.467   0.0% |
  rotate_psi_s:                      0.476     0.476   0.0% |
Set symmetry:                        0.000     0.000   0.0% |
Other:                            1856.717  1856.717  58.7% |----------------------|
-----------------------------------------------------------
Total:                                      3161.265 100.0%

Memory usage: 12.80 GiB
Date: Wed Mar 24 17:05:04 2021
