
  ___ ___ ___ _ _ _  
 |   |   |_  | | | | 
 | | | | | . | | | | 
 |__ |  _|___|_____|  20.10.1b1
 |___|_|             

User:   madkru@g031.nifl.fysik.dtu.dk
Date:   Mon Mar 22 00:14:17 2021
Arch:   x86_64
Pid:    47913
Python: 3.7.4
gpaw:   /home/niflheim/madkru/venv_folder/gpaw/gpaw (d0d1ca1c71)
_gpaw:  /home/niflheim/madkru/venv_folder/gpaw/build/lib.linux-x86_64-sandybridge-3.7/
        _gpaw.cpython-37m-x86_64-linux-gnu.so (4fd39e8b1e)
ase:    /home/niflheim/madkru/venv_folder/ase/ase (version 3.21.0b1-7e6c206a91)
numpy:  /home/niflheim/madkru/venv_folder/lib/python3.7/site-packages/numpy (version 1.19.4)
scipy:  /home/niflheim/madkru/venv_folder/lib/python3.7/site-packages/scipy (version 1.5.4)
libxc:  4.3.4
units:  Angstrom and eV
cores: 32
OMP_NUM_THREADS: 1

Input parameters:
  convergence: {bands: occupied,
                density: 0.0001,
                eigenstates: 4e-08,
                energy: 0.0005,
                forces: 1e-06}
  kpts: [6 6 4]
  mode: {ecut: 600.0,
         gammacentered: False,
         name: pw}
  occupations: {fixmagmom: False,
                name: fermi-dirac,
                width: 0.001}
  setups: {Mn: :d,3.0}
  symmetry: {point_group: False,
             time_reversal: False}

System changes: positions, numbers, cell, pbc, initial_charges, initial_magmoms 

Initialize ...

O-setup:
  name: Oxygen
  id: 9b9d51c344dea68c822856295a461509
  Z: 8.0
  valence: 6
  core: 2
  charge: 0.0
  file: /home/modules/software/GPAW-setups/0.9.20000/O.LDA.gz
  compensation charges: gauss, rc=0.21, lmax=2
  cutoffs: 1.17(filt), 0.83(core),
  valence states:
                energy  radius
    2s(2.00)   -23.752   0.688
    2p(4.00)    -9.195   0.598
    *s           3.459   0.688
    *p          18.016   0.598
    *d           0.000   0.619

  Using partial waves for O as LCAO basis

Mn-setup:
  name: Manganese
  id: 0d715a8018be061a6e9ea6f2d364ac92
  Z: 25.0
  valence: 15
  core: 10
  charge: 0.0
  Hubbard U: 3.000000 eV (l=2, scale=True)
  file: /home/modules/software/GPAW-setups/0.9.20000/Mn.LDA.gz
  compensation charges: gauss, rc=0.38, lmax=2
  cutoffs: 2.14(filt), 0.86(core),
  valence states:
                energy  radius
    3s(2.00)   -85.387   1.275
    4s(2.00)    -5.282   1.275
    3p(6.00)   -54.493   1.281
    4p(0.00)    -1.471   1.281
    3d(5.00)    -7.009   1.138
    *d          20.203   1.138

  Using partial waves for Mn as LCAO basis

P-setup:
  name: Phosphorus
  id: a5561c299094968922a179ab894d2e2d
  Z: 15.0
  valence: 5
  core: 10
  charge: 0.0
  file: /home/modules/software/GPAW-setups/0.9.20000/P.LDA.gz
  compensation charges: gauss, rc=0.30, lmax=2
  cutoffs: 1.69(filt), 1.81(core),
  valence states:
                energy  radius
    3s(2.00)   -14.015   0.953
    3p(3.00)    -5.596   0.953
    *s          13.197   0.953
    *p          21.615   0.953
    *d           0.000   0.953

  Using partial waves for P as LCAO basis

Li-setup:
  name: Lithium
  id: b73562207f97a71b6967473b66fe8b65
  Z: 3.0
  valence: 1
  core: 2
  charge: 0.0
  file: /home/modules/software/GPAW-setups/0.9.20000/Li.LDA.gz
  compensation charges: gauss, rc=0.33, lmax=2
  cutoffs: 1.91(filt), 2.55(core),
  valence states:
                energy  radius
    2s(1.00)    -2.874   1.058
    2p(0.00)    -1.126   1.058
    *s          24.338   1.058

  Using partial waves for Li as LCAO basis

Reference energy: -196157.275402

Spin-polarized calculation.
Magnetic moment: 0.000000

Convergence criteria:
  Maximum total energy change: 0.0005 eV / electron
  Maximum integral of absolute density change: 0.0001 electrons
  Maximum integral of absolute eigenstate change: 4e-08 eV^2
  Maximum change in atomic force: 1e-06 eV / Ang
  Maximum number of iterations: 333

Symmetries present (total): 1

  ( 1  0  0)
  ( 0  1  0)
  ( 0  0  1)

144 k-points: 6 x 6 x 4 Monkhorst-Pack grid
144 k-points in the irreducible part of the Brillouin zone
       k-points in crystal coordinates                weights
   0:    -0.41666667   -0.41666667   -0.37500000          1/144
   1:    -0.41666667   -0.41666667   -0.12500000          1/144
   2:    -0.41666667   -0.41666667    0.12500000          1/144
   3:    -0.41666667   -0.41666667    0.37500000          1/144
   4:    -0.41666667   -0.25000000   -0.37500000          1/144
   5:    -0.41666667   -0.25000000   -0.12500000          1/144
   6:    -0.41666667   -0.25000000    0.12500000          1/144
   7:    -0.41666667   -0.25000000    0.37500000          1/144
   8:    -0.41666667   -0.08333333   -0.37500000          1/144
   9:    -0.41666667   -0.08333333   -0.12500000          1/144
          ...
 143:     0.41666667    0.41666667    0.37500000          1/144

Wave functions: Plane wave expansion
  Cutoff energy: 600.000 eV
  Number of coefficients (min, max): 10068, 10125
  Pulay-stress correction: 0.000000 eV/Ang^3 (de/decut=0.000000)
  Using FFTW library
  ScaLapack parameters: grid=1x1, blocksize=None
  Wavefunction extrapolation:
    Improved wavefunction reuse through dual PAW basis 

  Fermi-Dirac: width=0.0010 eV

Eigensolver
   Davidson(niter=2, smin=None, normalize=True) 

Densities:
  Coarse grid: 60*35*27 grid
  Fine grid: 120*70*54 grid
  Total Charge: 0.000000 

Density mixing:
  Method: difference
  Backend: pulay
  Linear mixing parameter: 0.05
  Mixing with 5 old densities
  Damping of long wave oscillations: 50 

Hamiltonian:
  XC and Coulomb potentials evaluated on a 120*70*54 grid
  Using the LDA Exchange-Correlation functional
 

Memory estimate:
  Process memory now: 12759.34 MiB
  Calculator: 375.55 MiB
    Density: 20.02 MiB
      Arrays: 7.57 MiB
      Localized functions: 9.42 MiB
      Mixer: 3.03 MiB
    Hamiltonian: 5.90 MiB
      Arrays: 5.62 MiB
      XC: 0.00 MiB
      Poisson: 0.00 MiB
      vbar: 0.27 MiB
    Wavefunctions: 349.64 MiB
      Arrays psit_nG: 311.46 MiB
      Eigensolver: 19.99 MiB
      Projections: 5.41 MiB
      Projectors: 9.73 MiB
      PW-descriptor: 3.03 MiB

Total number of cores used: 32
Parallelization over k-points: 16
Domain decomposition: 2 x 1 x 1

Number of atoms: 28
Number of atomic orbitals: 148
Number of bands in calculation: 112
Number of valence electrons: 180
Bands to converge: occupied

... initialized

Initializing position-dependent things.

Density initialized from atomic densities
Creating initial wave functions:
  112 bands from LCAO basis set

     .-------------------------.  
    /|         OP              |  
   / |O            O        O  |  
  /  |       O            O  P |  
 *   |O    Mn      O           |  
 |   |          OLi          O |  
 |   P--O--------------Mn------.  
 |  /          Li    O  Mn  O /   
 | /LiO           PO         /    
 |/       Mn                /     
 *Li-----------------------*      

Positions:
   0 O     -1.330281   -2.539252   -1.168500    ( 0.0000,  0.0000,  0.0000)
   1 O     -3.152392    2.974909    1.200956    ( 0.0000,  0.0000,  0.0000)
   2 O      2.077234    0.510133    1.506966    ( 0.0000,  0.0000,  0.0000)
   3 O      3.899724   -0.074476   -0.862491    ( 0.0000,  0.0000,  0.0000)
   4 O      2.077424    2.964966    1.507072    ( 0.0000,  0.0000,  0.0000)
   5 O      3.899535   -2.539195   -0.862384    ( 0.0000,  0.0000,  0.0000)
   6 O     -1.330092   -0.074418   -1.168395    ( 0.0000,  0.0000,  0.0000)
   7 O     -3.152581    0.510191    1.201063    ( 0.0000,  0.0000,  0.0000)
   8 O     -4.389675   -1.306969   -0.813152    ( 0.0000,  0.0000,  0.0000)
   9 O     -0.093301    1.742683    1.556268    ( 0.0000,  0.0000,  0.0000)
  10 O      5.136817    1.742683    1.151723    ( 0.0000,  0.0000,  0.0000)
  11 O      0.840444   -1.306969   -1.217697    ( 0.0000,  0.0000,  0.0000)
  12 Mn    -2.557192   -1.307258    0.273595    ( 0.0000,  0.0000,  1.0000)
  13 Mn    -1.925535    1.742972   -2.096623    ( 0.0000,  0.0000, -1.0000)
  14 Mn     3.304335    1.742972    0.064976    ( 0.0000,  0.0000, -1.0000)
  15 Mn     2.672678   -1.307258    2.435195    ( 0.0000,  0.0000,  1.0000)
  16 P     -0.597175   -1.306854   -1.801474    ( 0.0000,  0.0000,  0.0000)
  17 P     -3.885565    1.742568    0.568028    ( 0.0000,  0.0000,  0.0000)
  18 P      1.344318    1.742568    2.140045    ( 0.0000,  0.0000,  0.0000)
  19 P      4.632708   -1.306854   -0.229456    ( 0.0000,  0.0000,  0.0000)
  20 O     -0.636957   -1.306861    1.403074    ( 0.0000,  0.0000,  0.0000)
  21 O     -3.845824    1.742575   -0.967462    ( 0.0000,  0.0000,  0.0000)
  22 O      1.384100    1.742576   -1.064503    ( 0.0000,  0.0000,  0.0000)
  23 O      4.592967   -1.306861    1.306033    ( 0.0000,  0.0000,  0.0000)
  24 Li    -4.856429   -2.832143   -2.200714    ( 0.0000,  0.0000,  0.0000)
  25 Li     0.373571   -2.832143    0.169286    ( 0.0000,  0.0000,  0.0000)
  26 Li    -4.856429    0.217857   -2.200714    ( 0.0000,  0.0000,  0.0000)
  27 Li     0.373571    0.217857    0.169286    ( 0.0000,  0.0000,  0.0000)

Unit cell:
           periodic     x           y           z      points  spacing
  1. axis:    yes   10.460000    0.000000    0.000000    60     0.1743
  2. axis:    yes    0.000000    6.100000    0.000000    35     0.1743
  3. axis:    yes    0.000000    0.000000    4.740000    27     0.1756

  Lengths:  10.460000   6.100000   4.740000
  Angles:   90.000000  90.000000  90.000000

Effective grid spacing dv^(1/3) = 0.1747

                     log10-error:           total        iterations:
           time      wfs    density  force  energy       poisson  magmom
iter:   1  00:17:19                       -220.690020             +0.0000
iter:   2  00:17:58  -0.64  -0.92         -235.514586             +0.0000
iter:   3  00:18:38  -0.40  -0.96         -226.168987             -0.0000
iter:   4  00:19:17  -1.41  -1.29         -225.886730             +0.0000
iter:   5  00:19:57  -1.19  -1.38         -227.586926             +0.0000
iter:   6  00:20:36  -1.39  -1.51         -225.828459             +0.0000
iter:   7  00:21:15  -2.56  -2.06         -225.897576             +0.0000
iter:   8  00:21:55  -2.24  -2.01         -225.643189             -0.0000
iter:   9  00:22:34  -2.67  -2.08         -225.545348             +0.0000
iter:  10  00:23:13  -3.54  -2.94         -225.544273             +0.0000
iter:  11  00:23:53  -3.95  -3.00         -225.546300             +0.0000
iter:  12  00:24:32  -4.30  -3.22         -225.546456             +0.0000
iter:  13  00:25:11  -5.35  -3.36         -225.546353             -0.0000
iter:  14  00:25:51  -5.18  -3.44         -225.546226             -0.0000
iter:  15  00:26:30  -5.34  -3.59         -225.546125             -0.0000
iter:  16  00:27:09  -6.33  -3.69         -225.546113             +0.0000
iter:  17  00:27:49  -6.32  -3.77         -225.546130             -0.0000
iter:  18  00:28:28  -6.71  -3.82         -225.546131             -0.0000
iter:  19  00:29:08  -5.89  -3.84         -225.546096             -0.0000
iter:  20  00:29:47  -7.08  -4.37         -225.546091             -0.0000
iter:  21  00:30:37  -7.78  -4.47         -225.546090             +0.0000
iter:  22  00:31:16  -7.23  -4.52         -225.546092             +0.0000
iter:  23  00:32:06  -7.61  -4.54    -2.74-225.546090             +0.0000
iter:  24  00:32:56  -7.66  -4.63    -2.63-225.546091             +0.0000
iter:  25  00:33:35  -6.97  -4.66         -225.546093             +0.0000
iter:  26  00:34:15  -7.18  -4.50         -225.546091             +0.0000
iter:  27  00:35:05  -8.38  -4.86    -2.51-225.546091             +0.0000
iter:  28  00:35:55  -7.46  -4.86    -2.97-225.546091             +0.0000
iter:  29  00:36:45  -8.09  -4.95    -2.93-225.546090             +0.0000
iter:  30  00:37:35  -9.40  -5.50    -3.80-225.546090             +0.0000
iter:  31  00:38:25  -9.39  -5.55    -3.84-225.546090             +0.0000
iter:  32  00:39:15  -9.27  -5.65    -3.66-225.546090             +0.0000
iter:  33  00:40:05  -9.63  -5.81    -3.92-225.546090             +0.0000
iter:  34  00:40:55  -9.88  -5.95    -4.23-225.546090             +0.0000
iter:  35  00:41:45 -10.28  -6.02    -4.28-225.546090             +0.0000
iter:  36  00:42:35 -10.54  -6.09    -4.15-225.546090             +0.0000
iter:  37  00:43:25 -11.34  -6.20    -4.47-225.546090             +0.0000
iter:  38  00:44:15 -11.39  -6.25    -4.70-225.546090             +0.0000
iter:  39  00:45:05 -11.31  -6.30    -4.80-225.546090             +0.0000
iter:  40  00:45:55 -11.06  -6.36    -4.10-225.546090             -0.0000
iter:  41  00:46:44 -12.08  -6.80    -5.01-225.546090             +0.0000
iter:  42  00:47:34 -12.08  -7.01    -5.04-225.546090             +0.0000
iter:  43  00:48:24 -12.28  -7.25    -4.83-225.546090             +0.0000
iter:  44  00:49:14 -12.90  -7.24    -5.29-225.546090             +0.0000
iter:  45  00:50:04 -13.26  -7.44    -5.34-225.546090             +0.0000
iter:  46  00:50:54 -13.59  -7.56    -5.54-225.546090             +0.0000
iter:  47  00:51:44 -13.94  -7.61    -5.52-225.546090             +0.0000
iter:  48  00:52:34 -14.29  -7.80    -6.14-225.546090             +0.0000

Converged after 48 iterations.

Dipole moment: (13.159263, 1.721020, -5.513547) |e|*Ang

Total magnetic moment: (0.000000, 0.000000, 0.000000)
Local magnetic moments:
   0 O  ( 0.000000,  0.000000,  0.001072)
   1 O  ( 0.000000,  0.000000, -0.001046)
   2 O  ( 0.000000,  0.000000, -0.000997)
   3 O  ( 0.000000,  0.000000,  0.001176)
   4 O  ( 0.000000,  0.000000, -0.001300)
   5 O  ( 0.000000,  0.000000,  0.001004)
   6 O  ( 0.000000,  0.000000,  0.001059)
   7 O  ( 0.000000,  0.000000, -0.001041)
   8 O  ( 0.000000,  0.000000,  0.019765)
   9 O  ( 0.000000,  0.000000, -0.019916)
  10 O  ( 0.000000,  0.000000, -0.019772)
  11 O  ( 0.000000,  0.000000,  0.019743)
  12 Mn ( 0.000000,  0.000000,  4.601520)
  13 Mn ( 0.000000,  0.000000, -4.601625)
  14 Mn ( 0.000000,  0.000000, -4.601468)
  15 Mn ( 0.000000,  0.000000,  4.602374)
  16 P  ( 0.000000,  0.000000,  0.001288)
  17 P  ( 0.000000,  0.000000, -0.001299)
  18 P  ( 0.000000,  0.000000, -0.001522)
  19 P  ( 0.000000,  0.000000,  0.001281)
  20 O  ( 0.000000,  0.000000,  0.018074)
  21 O  ( 0.000000,  0.000000, -0.018053)
  22 O  ( 0.000000,  0.000000, -0.018154)
  23 O  ( 0.000000,  0.000000,  0.018018)
  24 Li ( 0.000000,  0.000000, -0.000000)
  25 Li ( 0.000000,  0.000000, -0.000015)
  26 Li ( 0.000000,  0.000000, -0.000001)
  27 Li ( 0.000000,  0.000000, -0.000001)

Energy contributions relative to reference atoms: (reference = -196157.275402)

Kinetic:       +243.472130
Potential:     -215.849136
External:        +0.000000
XC:            -255.083296
Entropy (-ST):   -0.000000
Local:           +1.914211
--------------------------
Free energy:   -225.546090
Extrapolated:  -225.546090

Spin contamination: 9.747955 electrons
Showing only first 2 kpts
                      Up                     Down
 Kpt  Band  Eigenvalues  Occupancy  Eigenvalues  Occupancy
  0    88      3.91563    0.00694      3.92631    0.00694
  0    89      3.96614    0.00694      3.97518    0.00694
  0    90      8.67111    0.00000      8.66317    0.00000
  0    91      8.68955    0.00000      8.67877    0.00000

  1    88      3.91218    0.00694      3.92260    0.00694
  1    89      3.96958    0.00694      3.97909    0.00694
  1    90      8.51805    0.00000      8.50813    0.00000
  1    91      8.53348    0.00000      8.52321    0.00000


Fermi level: 5.31860

Gap: 3.775 eV
Transition (v -> c):
  (s=1, k=74, n=89, [0.08, -0.42, 0.12]) -> (s=1, k=85, n=90, [0.08, 0.08, -0.12])
Writing to born-0.01-4y-.gpw (mode='all')

Timing:                              incl.     excl.
-----------------------------------------------------------
Hamiltonian:                         0.425     0.002   0.0% |
 Atomic:                             0.057     0.057   0.0% |
  XC Correction:                     0.000     0.000   0.0% |
 Calculate atomic Hamiltonians:      0.186     0.186   0.0% |
 Communicate:                        0.002     0.002   0.0% |
 Initialize Hamiltonian:             0.000     0.000   0.0% |
 Poisson:                            0.002     0.002   0.0% |
 XC 3D grid:                         0.175     0.175   0.0% |
LCAO initialization:               136.675     0.677   0.0% |
 LCAO eigensolver:                  34.192     0.003   0.0% |
  Calculate projections:             0.057     0.057   0.0% |
  DenseAtomicCorrection:             0.083     0.083   0.0% |
  Distribute overlap matrix:         0.524     0.524   0.0% |
  Orbital Layouts:                   0.363     0.363   0.0% |
  Potential matrix:                 33.075    33.075   0.7% |
  Sum over cells:                    0.088     0.088   0.0% |
 LCAO to grid:                      99.531    99.531   2.0% ||
 Set positions (LCAO WFS):           2.274     0.345   0.0% |
  Basic WFS set positions:           0.001     0.001   0.0% |
  Basis functions set positions:     0.000     0.000   0.0% |
  P tci:                             1.058     1.058   0.0% |
  ST tci:                            0.663     0.663   0.0% |
  mktci:                             0.206     0.206   0.0% |
PWDescriptor:                        0.025     0.025   0.0% |
SCF-cycle:                        2157.563     7.364   0.2% |
 Davidson:                        1788.771   584.877  12.0% |----|
  Apply H:                         124.556   120.630   2.5% ||
   HMM T:                            3.926     3.926   0.1% |
  Subspace diag:                   263.352     0.152   0.0% |
   calc_h_matrix:                  170.289    47.438   1.0% |
    Apply H:                       122.850   119.105   2.4% ||
     HMM T:                          3.745     3.745   0.1% |
   diagonalize:                      5.888     5.888   0.1% |
   rotate_psi:                      87.024    87.024   1.8% ||
  calc. matrices:                  559.415   316.914   6.5% |--|
   Apply H:                        242.501   235.337   4.8% |-|
    HMM T:                           7.164     7.164   0.1% |
  diagonalize:                      79.960    79.960   1.6% ||
  rotate_psi:                      176.610   176.610   3.6% ||
 Density:                           70.894     0.001   0.0% |
  Atomic density matrices:           1.213     1.213   0.0% |
  Mix:                              11.467    11.467   0.2% |
  Multipole moments:                 0.027     0.027   0.0% |
  Pseudo density:                   58.185    58.184   1.2% |
   Symmetrize density:               0.001     0.001   0.0% |
 Forces:                           265.968   265.968   5.4% |-|
 Hamiltonian:                       20.155     0.124   0.0% |
  Atomic:                            2.909     2.908   0.1% |
   XC Correction:                    0.000     0.000   0.0% |
  Calculate atomic Hamiltonians:     8.641     8.641   0.2% |
  Communicate:                       0.057     0.057   0.0% |
  Poisson:                           0.082     0.082   0.0% |
  XC 3D grid:                        8.343     8.343   0.2% |
 Orthonormalize:                     4.412     0.004   0.0% |
  calc_s_matrix:                     0.524     0.524   0.0% |
  inverse-cholesky:                  0.054     0.054   0.0% |
  projections:                       2.899     2.899   0.1% |
  rotate_psi_s:                      0.931     0.931   0.0% |
Set symmetry:                        0.000     0.000   0.0% |
Other:                            2596.266  2596.266  53.1% |--------------------|
-----------------------------------------------------------
Total:                                      4890.954 100.0%

Memory usage: 12.48 GiB
Date: Mon Mar 22 01:35:48 2021
