
  ___ ___ ___ _ _ _  
 |   |   |_  | | | | 
 | | | | | . | | | | 
 |__ |  _|___|_____|  21.1.1b1
 |___|_|             

User:   madkru@g031.nifl.fysik.dtu.dk
Date:   Mon Mar 29 18:52:30 2021
Arch:   x86_64
Pid:    42907
Python: 3.8.6
gpaw:   /home/niflheim/madkru/venv_madkru/gpaw/gpaw (e6f0d78a31)
_gpaw:  /home/niflheim/madkru/venv_madkru/gpaw/build/lib.linux-x86_64-sandybridge-3.8/
        _gpaw.cpython-38-x86_64-linux-gnu.so (e6f0d78a31)
ase:    /home/niflheim/madkru/venv_madkru/ase/ase (version 3.22.0b1-4d5a73cb29)
numpy:  /home/modules/software/SciPy-bundle/2020.11-foss-2020b/lib/python3.8/site-packages/numpy (version 1.19.4)
scipy:  /home/modules/software/SciPy-bundle/2020.11-foss-2020b/lib/python3.8/site-packages/scipy (version 1.5.4)
libxc:  4.3.4
units:  Angstrom and eV
cores: 64
OpenMP: False
OMP_NUM_THREADS: 1

Input parameters:
  convergence: {bands: occupied,
                density: 0.0001,
                eigenstates: 4e-08,
                energy: 0.0005,
                forces: 1e-06}
  kpts: [6 6 4]
  mode: {ecut: 600.0,
         gammacentered: False,
         name: pw}
  occupations: {fixmagmom: False,
                name: fermi-dirac,
                width: 0.001}
  setups: {Mn: :d,3.0}
  symmetry: {point_group: False,
             time_reversal: False}

System changes: positions, numbers, cell, pbc, initial_charges, initial_magmoms 

Initialize ...

O-setup:
  name: Oxygen
  id: 9b9d51c344dea68c822856295a461509
  Z: 8.0
  valence: 6
  core: 2
  charge: 0.0
  file: /home/modules/software/GPAW-setups/0.9.20000/O.LDA.gz
  compensation charges: gauss, rc=0.21, lmax=2
  cutoffs: 1.17(filt), 0.83(core),
  valence states:
                energy  radius
    2s(2.00)   -23.752   0.688
    2p(4.00)    -9.195   0.598
    *s           3.459   0.688
    *p          18.016   0.598
    *d           0.000   0.619

  Using partial waves for O as LCAO basis

Mn-setup:
  name: Manganese
  id: 0d715a8018be061a6e9ea6f2d364ac92
  Z: 25.0
  valence: 15
  core: 10
  charge: 0.0
  Hubbard U: 3.000000 eV (l=2, scale=True)
  file: /home/modules/software/GPAW-setups/0.9.20000/Mn.LDA.gz
  compensation charges: gauss, rc=0.38, lmax=2
  cutoffs: 2.14(filt), 0.86(core),
  valence states:
                energy  radius
    3s(2.00)   -85.387   1.275
    4s(2.00)    -5.282   1.275
    3p(6.00)   -54.493   1.281
    4p(0.00)    -1.471   1.281
    3d(5.00)    -7.009   1.138
    *d          20.203   1.138

  Using partial waves for Mn as LCAO basis

P-setup:
  name: Phosphorus
  id: a5561c299094968922a179ab894d2e2d
  Z: 15.0
  valence: 5
  core: 10
  charge: 0.0
  file: /home/modules/software/GPAW-setups/0.9.20000/P.LDA.gz
  compensation charges: gauss, rc=0.30, lmax=2
  cutoffs: 1.69(filt), 1.81(core),
  valence states:
                energy  radius
    3s(2.00)   -14.015   0.953
    3p(3.00)    -5.596   0.953
    *s          13.197   0.953
    *p          21.615   0.953
    *d           0.000   0.953

  Using partial waves for P as LCAO basis

Li-setup:
  name: Lithium
  id: b73562207f97a71b6967473b66fe8b65
  Z: 3.0
  valence: 1
  core: 2
  charge: 0.0
  file: /home/modules/software/GPAW-setups/0.9.20000/Li.LDA.gz
  compensation charges: gauss, rc=0.33, lmax=2
  cutoffs: 1.91(filt), 2.55(core),
  valence states:
                energy  radius
    2s(1.00)    -2.874   1.058
    2p(0.00)    -1.126   1.058
    *s          24.338   1.058

  Using partial waves for Li as LCAO basis

Reference energy: -196157.275402

Spin-polarized calculation.
Magnetic moment: 0.000000

Convergence criteria:
  Maximum total energy change: 0.0005 eV / electron
  Maximum integral of absolute density change: 0.0001 electrons
  Maximum integral of absolute eigenstate change: 4e-08 eV^2
  Maximum change in atomic force: 1e-06 eV / Ang
  Maximum number of iterations: 333

Symmetries present (total): 1

  ( 1  0  0)
  ( 0  1  0)
  ( 0  0  1)

144 k-points: 6 x 6 x 4 Monkhorst-Pack grid
144 k-points in the irreducible part of the Brillouin zone
       k-points in crystal coordinates                weights
   0:    -0.41666667   -0.41666667   -0.37500000          1/144
   1:    -0.41666667   -0.41666667   -0.12500000          1/144
   2:    -0.41666667   -0.41666667    0.12500000          1/144
   3:    -0.41666667   -0.41666667    0.37500000          1/144
   4:    -0.41666667   -0.25000000   -0.37500000          1/144
   5:    -0.41666667   -0.25000000   -0.12500000          1/144
   6:    -0.41666667   -0.25000000    0.12500000          1/144
   7:    -0.41666667   -0.25000000    0.37500000          1/144
   8:    -0.41666667   -0.08333333   -0.37500000          1/144
   9:    -0.41666667   -0.08333333   -0.12500000          1/144
          ...
 143:     0.41666667    0.41666667    0.37500000          1/144

Wave functions: Plane wave expansion
  Cutoff energy: 600.000 eV
  Number of coefficients (min, max): 10068, 10125
  Pulay-stress correction: 0.000000 eV/Ang^3 (de/decut=0.000000)
  Using FFTW library
  ScaLapack parameters: grid=1x1, blocksize=None
  Wavefunction extrapolation:
    Improved wavefunction reuse through dual PAW basis 

  Fermi-Dirac: width=0.0010 eV

Eigensolver
   Davidson(niter=2) 

Densities:
  Coarse grid: 60*35*27 grid
  Fine grid: 120*70*54 grid
  Total Charge: 0.000000 

Density mixing:
  Method: difference
  Backend: pulay
  Linear mixing parameter: 0.05
  Mixing with 5 old densities
  Damping of long wave oscillations: 50 

Hamiltonian:
  XC and Coulomb potentials evaluated on a 120*70*54 grid
  Using the LDA Exchange-Correlation functional
 

Memory estimate:
  Process memory now: 12086.05 MiB
  Calculator: 354.82 MiB
    Density: 10.06 MiB
      Arrays: 3.79 MiB
      Localized functions: 4.71 MiB
      Mixer: 1.56 MiB
    Hamiltonian: 2.95 MiB
      Arrays: 2.82 MiB
      XC: 0.00 MiB
      Poisson: 0.00 MiB
      vbar: 0.14 MiB
    Wavefunctions: 341.80 MiB
      Arrays psit_nG: 311.46 MiB
      Eigensolver: 19.99 MiB
      Projections: 2.71 MiB
      Projectors: 4.87 MiB
      PW-descriptor: 2.77 MiB

Total number of cores used: 64
Parallelization over k-points: 16
Domain decomposition: 2 x 2 x 1

Number of atoms: 28
Number of atomic orbitals: 148
Number of bands in calculation: 112
Number of valence electrons: 180
Bands to converge: occupied

... initialized

Initializing position-dependent things.

Density initialized from atomic densities
Creating initial wave functions:
  112 bands from LCAO basis set

     .-------------------------.  
    /|         OP              |  
   / |O            O        O  |  
  /  |       O            O  P |  
 *   |O    Mn      O           |  
 |   |          OLi          O |  
 |   P--O--------------Mn------.  
 |  /          Li    O  Mn  O /   
 | /LiO           PO         /    
 |/       Mn                /     
 *Li-----------------------*      

Positions:
   0 O     -1.330281   -2.539252   -1.168500    ( 0.0000,  0.0000,  0.0000)
   1 O     -3.152392    2.974909    1.200956    ( 0.0000,  0.0000,  0.0000)
   2 O      2.077234    0.510133    1.506966    ( 0.0000,  0.0000,  0.0000)
   3 O      3.899724   -0.074476   -0.862491    ( 0.0000,  0.0000,  0.0000)
   4 O      2.077424    2.974966    1.507072    ( 0.0000,  0.0000,  0.0000)
   5 O      3.899535   -2.539195   -0.862384    ( 0.0000,  0.0000,  0.0000)
   6 O     -1.330092   -0.074418   -1.168395    ( 0.0000,  0.0000,  0.0000)
   7 O     -3.152581    0.510191    1.201063    ( 0.0000,  0.0000,  0.0000)
   8 O     -4.389675   -1.306969   -0.813152    ( 0.0000,  0.0000,  0.0000)
   9 O     -0.093301    1.742683    1.556268    ( 0.0000,  0.0000,  0.0000)
  10 O      5.136817    1.742683    1.151723    ( 0.0000,  0.0000,  0.0000)
  11 O      0.840444   -1.306969   -1.217697    ( 0.0000,  0.0000,  0.0000)
  12 Mn    -2.557192   -1.307258    0.273595    ( 0.0000,  0.0000,  1.0000)
  13 Mn    -1.925535    1.742972   -2.096623    ( 0.0000,  0.0000, -1.0000)
  14 Mn     3.304335    1.742972    0.064976    ( 0.0000,  0.0000, -1.0000)
  15 Mn     2.672678   -1.307258    2.435195    ( 0.0000,  0.0000,  1.0000)
  16 P     -0.597175   -1.306854   -1.801474    ( 0.0000,  0.0000,  0.0000)
  17 P     -3.885565    1.742568    0.568028    ( 0.0000,  0.0000,  0.0000)
  18 P      1.344318    1.742568    2.140045    ( 0.0000,  0.0000,  0.0000)
  19 P      4.632708   -1.306854   -0.229456    ( 0.0000,  0.0000,  0.0000)
  20 O     -0.636957   -1.306861    1.403074    ( 0.0000,  0.0000,  0.0000)
  21 O     -3.845824    1.742575   -0.967462    ( 0.0000,  0.0000,  0.0000)
  22 O      1.384100    1.742576   -1.064503    ( 0.0000,  0.0000,  0.0000)
  23 O      4.592967   -1.306861    1.306033    ( 0.0000,  0.0000,  0.0000)
  24 Li    -4.856429   -2.832143   -2.200714    ( 0.0000,  0.0000,  0.0000)
  25 Li     0.373571   -2.832143    0.169286    ( 0.0000,  0.0000,  0.0000)
  26 Li    -4.856429    0.227857   -2.200714    ( 0.0000,  0.0000,  0.0000)
  27 Li     0.373571    0.217857    0.169286    ( 0.0000,  0.0000,  0.0000)

Unit cell:
           periodic     x           y           z      points  spacing
  1. axis:    yes   10.460000    0.000000    0.000000    60     0.1743
  2. axis:    yes    0.000000    6.100000    0.000000    35     0.1743
  3. axis:    yes    0.000000    0.000000    4.740000    27     0.1756

  Lengths:  10.460000   6.100000   4.740000
  Angles:   90.000000  90.000000  90.000000

Effective grid spacing dv^(1/3) = 0.1747

                     log10-error:           total        iterations:
           time      wfs    density  force  energy       poisson  magmom
iter:   1  18:54:06                       -220.688546             +0.0000
iter:   2  18:54:27  -0.64  -0.92         -235.503985             +0.0000
iter:   3  18:54:48  -0.40  -0.96         -226.168970             -0.0000
iter:   4  18:55:10  -1.41  -1.29         -225.888387             +0.0000
iter:   5  18:55:31  -1.19  -1.38         -227.589285             +0.0000
iter:   6  18:55:52  -1.39  -1.51         -225.829243             +0.0000
iter:   7  18:56:13  -2.57  -2.06         -225.899277             +0.0000
iter:   8  18:56:34  -2.23  -2.01         -225.642022             -0.0000
iter:   9  18:56:56  -2.68  -2.09         -225.546871             +0.0000
iter:  10  18:57:17  -3.55  -2.95         -225.546109             +0.0000
iter:  11  18:57:38  -3.95  -3.00         -225.547659             +0.0000
iter:  12  18:57:59  -4.29  -3.22         -225.547836             +0.0000
iter:  13  18:58:20  -5.37  -3.36         -225.547727             -0.0000
iter:  14  18:58:42  -5.18  -3.44         -225.547579             -0.0000
iter:  15  18:59:03  -5.36  -3.60         -225.547493             -0.0000
iter:  16  18:59:24  -6.31  -3.68         -225.547478             +0.0000
iter:  17  18:59:45  -6.26  -3.75         -225.547497             -0.0000
iter:  18  19:00:06  -6.76  -3.81         -225.547498             -0.0000
iter:  19  19:00:28  -5.82  -3.83         -225.547463             -0.0000
iter:  20  19:00:49  -7.01  -4.42         -225.547459             -0.0000
iter:  21  19:01:16  -7.81  -4.70         -225.547457             -0.0000
iter:  22  19:01:37  -7.22  -4.80         -225.547455             +0.0000
iter:  23  19:02:03  -7.89  -4.77    -3.04-225.547454             +0.0000
iter:  24  19:02:30  -8.51  -4.94    -3.07-225.547455             +0.0000
iter:  25  19:02:57  -7.44  -4.96    -2.57-225.547455             +0.0000
iter:  26  19:03:24  -8.08  -4.96    -2.84-225.547454             +0.0000
iter:  27  19:03:50  -7.86  -5.07    -3.21-225.547455             +0.0000
iter:  28  19:04:17  -8.00  -5.04    -2.86-225.547454             +0.0000
iter:  29  19:04:44  -8.14  -5.22    -2.89-225.547455             +0.0000
iter:  30  19:05:10  -9.59  -5.55    -3.71-225.547455             +0.0000
iter:  31  19:05:37  -9.16  -5.61    -3.70-225.547454             +0.0000
iter:  32  19:06:04  -9.65  -5.73    -3.77-225.547454             +0.0000
iter:  33  19:06:30  -8.86  -5.79    -3.30-225.547454             +0.0000
iter:  34  19:06:57  -9.72  -5.72    -3.73-225.547454             +0.0000
iter:  35  19:07:24  -9.98  -5.95    -3.78-225.547454             +0.0000
iter:  36  19:07:50 -10.37  -6.06    -4.50-225.547454             +0.0000
iter:  37  19:08:17 -10.23  -6.14    -3.99-225.547454             +0.0000
iter:  38  19:08:44 -10.32  -6.30    -4.16-225.547454             +0.0000
iter:  39  19:09:10 -11.06  -6.81    -4.86-225.547454             +0.0000
iter:  40  19:09:37 -11.84  -6.87    -5.09-225.547454             +0.0000
iter:  41  19:10:04 -11.28  -7.04    -4.73-225.547454             +0.0000
iter:  42  19:10:30 -12.17  -6.96    -4.66-225.547454             +0.0000
iter:  43  19:10:57 -12.60  -7.28    -5.45-225.547454             +0.0000
iter:  44  19:11:24 -12.54  -7.34    -4.97-225.547454             +0.0000
iter:  45  19:11:50 -12.72  -7.33    -5.17-225.547454             +0.0000
iter:  46  19:12:17 -13.55  -7.65    -5.98-225.547454             +0.0000
iter:  47  19:12:44 -14.05  -7.68    -5.46-225.547454             +0.0000
iter:  48  19:13:10 -14.27  -7.73    -6.01-225.547454             -0.0000

Converged after 48 iterations.

Dipole moment: (13.160808, 1.666255, -5.512456) |e|*Ang

Total magnetic moment: (0.000000, 0.000000, -0.000000)
Local magnetic moments:
   0 O  ( 0.000000,  0.000000,  0.001056)
   1 O  ( 0.000000,  0.000000, -0.001069)
   2 O  ( 0.000000,  0.000000, -0.001069)
   3 O  ( 0.000000,  0.000000,  0.001011)
   4 O  ( 0.000000,  0.000000, -0.001075)
   5 O  ( 0.000000,  0.000000,  0.001036)
   6 O  ( 0.000000,  0.000000,  0.001047)
   7 O  ( 0.000000,  0.000000, -0.001078)
   8 O  ( 0.000000,  0.000000,  0.019811)
   9 O  ( 0.000000,  0.000000, -0.019790)
  10 O  ( 0.000000,  0.000000, -0.019747)
  11 O  ( 0.000000,  0.000000,  0.019762)
  12 Mn ( 0.000000,  0.000000,  4.601562)
  13 Mn ( 0.000000,  0.000000, -4.601582)
  14 Mn ( 0.000000,  0.000000, -4.601488)
  15 Mn ( 0.000000,  0.000000,  4.601601)
  16 P  ( 0.000000,  0.000000,  0.001302)
  17 P  ( 0.000000,  0.000000, -0.001292)
  18 P  ( 0.000000,  0.000000, -0.001297)
  19 P  ( 0.000000,  0.000000,  0.001295)
  20 O  ( 0.000000,  0.000000,  0.018063)
  21 O  ( 0.000000,  0.000000, -0.018057)
  22 O  ( 0.000000,  0.000000, -0.018081)
  23 O  ( 0.000000,  0.000000,  0.018079)
  24 Li ( 0.000000,  0.000000,  0.000001)
  25 Li ( 0.000000,  0.000000,  0.000000)
  26 Li ( 0.000000,  0.000000, -0.000004)
  27 Li ( 0.000000,  0.000000, -0.000000)

Energy contributions relative to reference atoms: (reference = -196157.275402)

Kinetic:       +242.942937
Potential:     -215.439212
External:        +0.000000
XC:            -254.966483
Entropy (-ST):   -0.000000
Local:           +1.915305
--------------------------
Free energy:   -225.547454
Extrapolated:  -225.547454

Spin contamination: 9.747498 electrons
Showing only first 2 kpts
                      Up                     Down
 Kpt  Band  Eigenvalues  Occupancy  Eigenvalues  Occupancy
  0    88      3.92473    1.00000      3.92103    1.00000
  0    89      3.97368    1.00000      3.96955    1.00000
  0    90      8.66581    0.00000      8.66890    0.00000
  0    91      8.68469    0.00000      8.68894    0.00000

  1    88      3.92119    1.00000      3.91754    1.00000
  1    89      3.97755    1.00000      3.97330    1.00000
  1    90      8.51159    0.00000      8.51457    0.00000
  1    91      8.52765    0.00000      8.53158    0.00000


Fermi level: 5.31841

Gap: 3.776 eV
Transition (v -> c):
  (s=0, k=49, n=89, [-0.08, -0.42, -0.12]) -> (s=0, k=86, n=90, [0.08, 0.08, 0.12])
Writing to born-0.01-26y+.gpw (mode='all')

Timing:                              incl.     excl.
-----------------------------------------------------------
Hamiltonian:                         0.251     0.003   0.0% |
 Atomic:                             0.063     0.063   0.0% |
  XC Correction:                     0.000     0.000   0.0% |
 Calculate atomic Hamiltonians:      0.092     0.092   0.0% |
 Communicate:                        0.001     0.001   0.0% |
 Initialize Hamiltonian:             0.000     0.000   0.0% |
 Poisson:                            0.001     0.001   0.0% |
 XC 3D grid:                         0.091     0.091   0.0% |
LCAO initialization:                67.610     0.674   0.0% |
 LCAO eigensolver:                  18.013     0.002   0.0% |
  Calculate projections:             0.029     0.029   0.0% |
  DenseAtomicCorrection:             0.043     0.043   0.0% |
  Distribute overlap matrix:         0.042     0.042   0.0% |
  Orbital Layouts:                   0.277     0.277   0.0% |
  Potential matrix:                 17.523    17.523   0.6% |
  Sum over cells:                    0.097     0.097   0.0% |
 LCAO to grid:                      47.611    47.611   1.6% ||
 Set positions (LCAO WFS):           1.312     0.181   0.0% |
  Basic WFS set positions:           0.002     0.002   0.0% |
  Basis functions set positions:     0.000     0.000   0.0% |
  P tci:                             0.515     0.515   0.0% |
  ST tci:                            0.367     0.367   0.0% |
  mktci:                             0.247     0.247   0.0% |
PWDescriptor:                        0.025     0.025   0.0% |
SCF-cycle:                        1170.954     8.046   0.3% |
 Davidson:                         962.770   308.136  10.0% |---|
  Apply H:                          64.539    62.690   2.0% ||
   HMM T:                            1.849     1.849   0.1% |
  Subspace diag:                   138.030     0.139   0.0% |
   calc_h_matrix:                   87.824    24.117   0.8% |
    Apply H:                        63.708    61.947   2.0% ||
     HMM T:                          1.760     1.760   0.1% |
   diagonalize:                      4.935     4.935   0.2% |
   rotate_psi:                      45.132    45.132   1.5% ||
  calc. matrices:                  287.679   160.694   5.2% |-|
   Apply H:                        126.984   123.425   4.0% |-|
    HMM T:                           3.559     3.559   0.1% |
  diagonalize:                      74.474    74.474   2.4% ||
  rotate_psi:                       89.912    89.912   2.9% ||
 Density:                           37.793     0.001   0.0% |
  Atomic density matrices:           0.627     0.627   0.0% |
  Mix:                               6.481     6.481   0.2% |
  Multipole moments:                 0.018     0.018   0.0% |
  Pseudo density:                   30.666    30.665   1.0% |
   Symmetrize density:               0.001     0.001   0.0% |
 Forces:                           148.188   148.188   4.8% |-|
 Hamiltonian:                       11.862     0.099   0.0% |
  Atomic:                            2.899     2.899   0.1% |
   XC Correction:                    0.000     0.000   0.0% |
  Calculate atomic Hamiltonians:     4.478     4.478   0.1% |
  Communicate:                       0.028     0.028   0.0% |
  Poisson:                           0.042     0.042   0.0% |
  XC 3D grid:                        4.315     4.315   0.1% |
 Orthonormalize:                     2.296     0.003   0.0% |
  calc_s_matrix:                     0.266     0.266   0.0% |
  inverse-cholesky:                  0.042     0.042   0.0% |
  projections:                       1.497     1.497   0.0% |
  rotate_psi_s:                      0.488     0.488   0.0% |
Set symmetry:                        0.000     0.000   0.0% |
Other:                            1828.116  1828.116  59.6% |-----------------------|
-----------------------------------------------------------
Total:                                      3066.955 100.0%

Memory usage: 11.81 GiB
Date: Mon Mar 29 19:43:37 2021
