
  ___ ___ ___ _ _ _  
 |   |   |_  | | | | 
 | | | | | . | | | | 
 |__ |  _|___|_____|  20.10.1b1
 |___|_|             

User:   madkru@g006.nifl.fysik.dtu.dk
Date:   Wed Mar 24 13:44:42 2021
Arch:   x86_64
Pid:    12017
Python: 3.7.4
gpaw:   /home/niflheim/madkru/venv_folder/gpaw/gpaw (d224efde0f)
_gpaw:  /home/niflheim/madkru/venv_folder/gpaw/build/lib.linux-x86_64-sandybridge-3.7/
        _gpaw.cpython-37m-x86_64-linux-gnu.so (4fd39e8b1e)
ase:    /home/niflheim/madkru/venv_folder/ase/ase (version 3.21.0b1-4d5a73cb29)
numpy:  /home/niflheim/madkru/venv_folder/lib/python3.7/site-packages/numpy (version 1.19.4)
scipy:  /home/niflheim/madkru/venv_folder/lib/python3.7/site-packages/scipy (version 1.5.4)
libxc:  4.3.4
units:  Angstrom and eV
cores: 64
OMP_NUM_THREADS: 1

Input parameters:
  convergence: {bands: occupied,
                density: 0.0001,
                eigenstates: 4e-08,
                energy: 0.0005,
                forces: 1e-06}
  kpts: [6 6 4]
  mode: {ecut: 600.0,
         gammacentered: False,
         name: pw}
  occupations: {fixmagmom: False,
                name: fermi-dirac,
                width: 0.001}
  setups: {Mn: :d,3.0}
  symmetry: {point_group: False,
             time_reversal: False}

System changes: positions, numbers, cell, pbc, initial_charges, initial_magmoms 

Initialize ...

O-setup:
  name: Oxygen
  id: 9b9d51c344dea68c822856295a461509
  Z: 8.0
  valence: 6
  core: 2
  charge: 0.0
  file: /home/modules/software/GPAW-setups/0.9.20000/O.LDA.gz
  compensation charges: gauss, rc=0.21, lmax=2
  cutoffs: 1.17(filt), 0.83(core),
  valence states:
                energy  radius
    2s(2.00)   -23.752   0.688
    2p(4.00)    -9.195   0.598
    *s           3.459   0.688
    *p          18.016   0.598
    *d           0.000   0.619

  Using partial waves for O as LCAO basis

Mn-setup:
  name: Manganese
  id: 0d715a8018be061a6e9ea6f2d364ac92
  Z: 25.0
  valence: 15
  core: 10
  charge: 0.0
  Hubbard U: 3.000000 eV (l=2, scale=True)
  file: /home/modules/software/GPAW-setups/0.9.20000/Mn.LDA.gz
  compensation charges: gauss, rc=0.38, lmax=2
  cutoffs: 2.14(filt), 0.86(core),
  valence states:
                energy  radius
    3s(2.00)   -85.387   1.275
    4s(2.00)    -5.282   1.275
    3p(6.00)   -54.493   1.281
    4p(0.00)    -1.471   1.281
    3d(5.00)    -7.009   1.138
    *d          20.203   1.138

  Using partial waves for Mn as LCAO basis

P-setup:
  name: Phosphorus
  id: a5561c299094968922a179ab894d2e2d
  Z: 15.0
  valence: 5
  core: 10
  charge: 0.0
  file: /home/modules/software/GPAW-setups/0.9.20000/P.LDA.gz
  compensation charges: gauss, rc=0.30, lmax=2
  cutoffs: 1.69(filt), 1.81(core),
  valence states:
                energy  radius
    3s(2.00)   -14.015   0.953
    3p(3.00)    -5.596   0.953
    *s          13.197   0.953
    *p          21.615   0.953
    *d           0.000   0.953

  Using partial waves for P as LCAO basis

Li-setup:
  name: Lithium
  id: b73562207f97a71b6967473b66fe8b65
  Z: 3.0
  valence: 1
  core: 2
  charge: 0.0
  file: /home/modules/software/GPAW-setups/0.9.20000/Li.LDA.gz
  compensation charges: gauss, rc=0.33, lmax=2
  cutoffs: 1.91(filt), 2.55(core),
  valence states:
                energy  radius
    2s(1.00)    -2.874   1.058
    2p(0.00)    -1.126   1.058
    *s          24.338   1.058

  Using partial waves for Li as LCAO basis

Reference energy: -196157.275402

Spin-polarized calculation.
Magnetic moment: 0.000000

Convergence criteria:
  Maximum total energy change: 0.0005 eV / electron
  Maximum integral of absolute density change: 0.0001 electrons
  Maximum integral of absolute eigenstate change: 4e-08 eV^2
  Maximum change in atomic force: 1e-06 eV / Ang
  Maximum number of iterations: 333

Symmetries present (total): 1

  ( 1  0  0)
  ( 0  1  0)
  ( 0  0  1)

144 k-points: 6 x 6 x 4 Monkhorst-Pack grid
144 k-points in the irreducible part of the Brillouin zone
       k-points in crystal coordinates                weights
   0:    -0.41666667   -0.41666667   -0.37500000          1/144
   1:    -0.41666667   -0.41666667   -0.12500000          1/144
   2:    -0.41666667   -0.41666667    0.12500000          1/144
   3:    -0.41666667   -0.41666667    0.37500000          1/144
   4:    -0.41666667   -0.25000000   -0.37500000          1/144
   5:    -0.41666667   -0.25000000   -0.12500000          1/144
   6:    -0.41666667   -0.25000000    0.12500000          1/144
   7:    -0.41666667   -0.25000000    0.37500000          1/144
   8:    -0.41666667   -0.08333333   -0.37500000          1/144
   9:    -0.41666667   -0.08333333   -0.12500000          1/144
          ...
 143:     0.41666667    0.41666667    0.37500000          1/144

Wave functions: Plane wave expansion
  Cutoff energy: 600.000 eV
  Number of coefficients (min, max): 10068, 10125
  Pulay-stress correction: 0.000000 eV/Ang^3 (de/decut=0.000000)
  Using FFTW library
  ScaLapack parameters: grid=1x1, blocksize=None
  Wavefunction extrapolation:
    Improved wavefunction reuse through dual PAW basis 

  Fermi-Dirac: width=0.0010 eV

Eigensolver
   Davidson(niter=2, smin=None, normalize=True) 

Densities:
  Coarse grid: 60*35*27 grid
  Fine grid: 120*70*54 grid
  Total Charge: 0.000000 

Density mixing:
  Method: difference
  Backend: pulay
  Linear mixing parameter: 0.05
  Mixing with 5 old densities
  Damping of long wave oscillations: 50 

Hamiltonian:
  XC and Coulomb potentials evaluated on a 120*70*54 grid
  Using the LDA Exchange-Correlation functional
 

Memory estimate:
  Process memory now: 12972.03 MiB
  Calculator: 354.82 MiB
    Density: 10.06 MiB
      Arrays: 3.79 MiB
      Localized functions: 4.71 MiB
      Mixer: 1.56 MiB
    Hamiltonian: 2.95 MiB
      Arrays: 2.82 MiB
      XC: 0.00 MiB
      Poisson: 0.00 MiB
      vbar: 0.14 MiB
    Wavefunctions: 341.80 MiB
      Arrays psit_nG: 311.46 MiB
      Eigensolver: 19.99 MiB
      Projections: 2.71 MiB
      Projectors: 4.87 MiB
      PW-descriptor: 2.77 MiB

Total number of cores used: 64
Parallelization over k-points: 16
Domain decomposition: 2 x 2 x 1

Number of atoms: 28
Number of atomic orbitals: 148
Number of bands in calculation: 112
Number of valence electrons: 180
Bands to converge: occupied

... initialized

Initializing position-dependent things.

Density initialized from atomic densities
Creating initial wave functions:
  112 bands from LCAO basis set

     .-------------------------.  
    /|         OP              |  
   / |O            O        O  |  
  /  |       O            O  P |  
 *   |O    Mn      O           |  
 |   |          OLi          O |  
 |   P--O--------------Mn------.  
 |  /          Li    O  Mn  O /   
 | /LiO           PO         /    
 |/       Mn                /     
 *Li-----------------------*      

Positions:
   0 O     -1.330281   -2.539252   -1.168500    ( 0.0000,  0.0000,  0.0000)
   1 O     -3.152392    2.974909    1.200956    ( 0.0000,  0.0000,  0.0000)
   2 O      2.077234    0.510133    1.506966    ( 0.0000,  0.0000,  0.0000)
   3 O      3.899724   -0.074476   -0.862491    ( 0.0000,  0.0000,  0.0000)
   4 O      2.077424    2.974966    1.507072    ( 0.0000,  0.0000,  0.0000)
   5 O      3.899535   -2.539195   -0.862384    ( 0.0000,  0.0000,  0.0000)
   6 O     -1.330092   -0.074418   -1.168395    ( 0.0000,  0.0000,  0.0000)
   7 O     -3.152581    0.510191    1.201063    ( 0.0000,  0.0000,  0.0000)
   8 O     -4.389675   -1.306969   -0.813152    ( 0.0000,  0.0000,  0.0000)
   9 O     -0.093301    1.742683    1.556268    ( 0.0000,  0.0000,  0.0000)
  10 O      5.136817    1.742683    1.151723    ( 0.0000,  0.0000,  0.0000)
  11 O      0.840444   -1.306969   -1.217697    ( 0.0000,  0.0000,  0.0000)
  12 Mn    -2.557192   -1.307258    0.273595    ( 0.0000,  0.0000,  1.0000)
  13 Mn    -1.925535    1.742972   -2.096623    ( 0.0000,  0.0000, -1.0000)
  14 Mn     3.304335    1.742972    0.064976    ( 0.0000,  0.0000, -1.0000)
  15 Mn     2.672678   -1.307258    2.435195    ( 0.0000,  0.0000,  1.0000)
  16 P     -0.597175   -1.306854   -1.801474    ( 0.0000,  0.0000,  0.0000)
  17 P     -3.885565    1.742568    0.568028    ( 0.0000,  0.0000,  0.0000)
  18 P      1.334318    1.742568    2.140045    ( 0.0000,  0.0000,  0.0000)
  19 P      4.632708   -1.306854   -0.229456    ( 0.0000,  0.0000,  0.0000)
  20 O     -0.636957   -1.306861    1.403074    ( 0.0000,  0.0000,  0.0000)
  21 O     -3.845824    1.742575   -0.967462    ( 0.0000,  0.0000,  0.0000)
  22 O      1.384100    1.742576   -1.064503    ( 0.0000,  0.0000,  0.0000)
  23 O      4.592967   -1.306861    1.306033    ( 0.0000,  0.0000,  0.0000)
  24 Li    -4.856429   -2.832143   -2.200714    ( 0.0000,  0.0000,  0.0000)
  25 Li     0.373571   -2.832143    0.169286    ( 0.0000,  0.0000,  0.0000)
  26 Li    -4.856429    0.217857   -2.200714    ( 0.0000,  0.0000,  0.0000)
  27 Li     0.373571    0.217857    0.169286    ( 0.0000,  0.0000,  0.0000)

Unit cell:
           periodic     x           y           z      points  spacing
  1. axis:    yes   10.460000    0.000000    0.000000    60     0.1743
  2. axis:    yes    0.000000    6.100000    0.000000    35     0.1743
  3. axis:    yes    0.000000    0.000000    4.740000    27     0.1756

  Lengths:  10.460000   6.100000   4.740000
  Angles:   90.000000  90.000000  90.000000

Effective grid spacing dv^(1/3) = 0.1747

                     log10-error:           total        iterations:
           time      wfs    density  force  energy       poisson  magmom
iter:   1  13:46:14                       -220.680101             +0.0000
iter:   2  13:46:36  -0.64  -0.92         -235.496074             +0.0000
iter:   3  13:46:57  -0.40  -0.96         -226.165074             -0.0000
iter:   4  13:47:19  -1.41  -1.29         -225.885123             +0.0000
iter:   5  13:47:40  -1.19  -1.38         -227.587881             +0.0000
iter:   6  13:48:01  -1.40  -1.51         -225.825450             +0.0000
iter:   7  13:48:23  -2.58  -2.06         -225.898880             +0.0000
iter:   8  13:48:44  -2.22  -2.01         -225.628911             -0.0000
iter:   9  13:49:06  -2.71  -2.11         -225.544255             +0.0000
iter:  10  13:49:27  -3.58  -2.96         -225.544071             +0.0000
iter:  11  13:49:48  -3.95  -3.00         -225.544765             +0.0000
iter:  12  13:50:10  -4.31  -3.23         -225.544918             +0.0000
iter:  13  13:50:31  -5.48  -3.38         -225.544823             -0.0000
iter:  14  13:50:52  -5.29  -3.44         -225.544654             -0.0000
iter:  15  13:51:14  -5.53  -3.62         -225.544623             -0.0000
iter:  16  13:51:35  -6.34  -3.65         -225.544593             +0.0000
iter:  17  13:51:57  -5.86  -3.70         -225.544618             -0.0000
iter:  18  13:52:18  -6.39  -3.78         -225.544612             -0.0000
iter:  19  13:52:39  -6.63  -3.83         -225.544579             -0.0000
iter:  20  13:53:01  -6.90  -3.95         -225.544569             -0.0000
iter:  21  13:53:22  -6.30  -4.04         -225.544584             -0.0000
iter:  22  13:53:49  -7.52  -4.22         -225.544580             -0.0000
iter:  23  13:54:15  -7.50  -4.26    -2.39-225.544574             -0.0000
iter:  24  13:54:37  -6.94  -4.32         -225.544577             -0.0000
iter:  25  13:54:58  -6.95  -4.53         -225.544568             +0.0000
iter:  26  13:55:20  -7.08  -4.60         -225.544566             +0.0000
iter:  27  13:55:46  -7.46  -4.57    -2.33-225.544566             -0.0000
iter:  28  13:56:13  -8.39  -4.73    -3.05-225.544565             +0.0000
iter:  29  13:56:40  -7.92  -4.78    -2.84-225.544564             +0.0000
iter:  30  13:57:07  -7.92  -4.85    -2.57-225.544565             +0.0000
iter:  31  13:57:34  -8.22  -4.97    -2.81-225.544564             +0.0000
iter:  32  13:58:00  -8.59  -5.08    -3.60-225.544564             -0.0000
iter:  33  13:58:27  -8.95  -5.14    -3.01-225.544564             +0.0000
iter:  34  13:58:54  -8.22  -5.27    -3.26-225.544564             +0.0000
iter:  35  13:59:20  -8.70  -5.29    -2.95-225.544564             +0.0000
iter:  36  13:59:47  -8.33  -5.44    -3.37-225.544564             +0.0000
iter:  37  14:00:14  -8.78  -5.39    -3.18-225.544564             +0.0000
iter:  38  14:00:41  -9.84  -5.80    -4.48-225.544564             +0.0000
iter:  39  14:01:07 -10.61  -5.83    -4.10-225.544564             +0.0000
iter:  40  14:01:34  -9.55  -5.90    -3.35-225.544564             -0.0000
iter:  41  14:02:01  -9.91  -5.91    -4.03-225.544564             -0.0000
iter:  42  14:02:28  -9.77  -6.25    -3.97-225.544564             -0.0000
iter:  43  14:02:54 -10.26  -6.42    -4.00-225.544564             -0.0000
iter:  44  14:03:21 -11.33  -6.62    -4.34-225.544564             -0.0000
iter:  45  14:03:48 -11.75  -7.17    -5.25-225.544564             +0.0000
iter:  46  14:04:15 -12.47  -7.18    -5.20-225.544564             +0.0000
iter:  47  14:04:42 -13.06  -7.22    -5.16-225.544564             +0.0000
iter:  48  14:05:08 -12.74  -7.30    -5.48-225.544564             +0.0000
iter:  49  14:05:35 -12.74  -7.46    -5.47-225.544564             +0.0000
iter:  50  14:06:02 -13.88  -7.54    -6.02-225.544564             +0.0000

Converged after 50 iterations.

Dipole moment: (13.143523, 1.708191, -5.513051) |e|*Ang

Total magnetic moment: (0.000000, 0.000000, 0.000000)
Local magnetic moments:
   0 O  ( 0.000000,  0.000000,  0.001009)
   1 O  ( 0.000000,  0.000000, -0.001098)
   2 O  ( 0.000000,  0.000000, -0.000928)
   3 O  ( 0.000000,  0.000000,  0.001065)
   4 O  ( 0.000000,  0.000000, -0.000936)
   5 O  ( 0.000000,  0.000000,  0.001073)
   6 O  ( 0.000000,  0.000000,  0.001001)
   7 O  ( 0.000000,  0.000000, -0.001090)
   8 O  ( 0.000000,  0.000000,  0.019840)
   9 O  ( 0.000000,  0.000000, -0.019632)
  10 O  ( 0.000000,  0.000000, -0.019731)
  11 O  ( 0.000000,  0.000000,  0.019696)
  12 Mn ( 0.000000,  0.000000,  4.601518)
  13 Mn ( 0.000000,  0.000000, -4.601676)
  14 Mn ( 0.000000,  0.000000, -4.601647)
  15 Mn ( 0.000000,  0.000000,  4.601478)
  16 P  ( 0.000000,  0.000000,  0.001320)
  17 P  ( 0.000000,  0.000000, -0.001298)
  18 P  ( 0.000000,  0.000000, -0.001405)
  19 P  ( 0.000000,  0.000000,  0.001291)
  20 O  ( 0.000000,  0.000000,  0.018058)
  21 O  ( 0.000000,  0.000000, -0.018143)
  22 O  ( 0.000000,  0.000000, -0.017941)
  23 O  ( 0.000000,  0.000000,  0.018058)
  24 Li ( 0.000000,  0.000000, -0.000000)
  25 Li ( 0.000000,  0.000000,  0.000010)
  26 Li ( 0.000000,  0.000000, -0.000000)
  27 Li ( 0.000000,  0.000000,  0.000010)

Energy contributions relative to reference atoms: (reference = -196157.275402)

Kinetic:       +242.980343
Potential:     -215.472525
External:        +0.000000
XC:            -254.967650
Entropy (-ST):   -0.000000
Local:           +1.915268
--------------------------
Free energy:   -225.544564
Extrapolated:  -225.544564

Spin contamination: 9.747380 electrons
Showing only first 2 kpts
                      Up                     Down
 Kpt  Band  Eigenvalues  Occupancy  Eigenvalues  Occupancy
  0    88      3.92622    0.00694      3.91007    0.00694
  0    89      3.98011    0.00694      3.97077    0.00694
  0    90      8.66251    0.00000      8.66440    0.00000
  0    91      8.69112    0.00000      8.70156    0.00000

  1    88      3.92311    0.00694      3.90675    0.00694
  1    89      3.98343    0.00694      3.97478    0.00694
  1    90      8.50584    0.00000      8.50946    0.00000
  1    91      8.54122    0.00000      8.54405    0.00000


Fermi level: 5.31883

Gap: 3.773 eV
Transition (v -> c):
  (s=0, k=70, n=89, [-0.08, 0.42, 0.12]) -> (s=1, k=57, n=90, [-0.08, -0.08, -0.12])
Writing to born-0.01-18x-.gpw (mode='all')

Timing:                              incl.     excl.
-----------------------------------------------------------
Hamiltonian:                         0.249     0.002   0.0% |
 Atomic:                             0.057     0.057   0.0% |
  XC Correction:                     0.000     0.000   0.0% |
 Calculate atomic Hamiltonians:      0.094     0.094   0.0% |
 Communicate:                        0.002     0.002   0.0% |
 Initialize Hamiltonian:             0.000     0.000   0.0% |
 Poisson:                            0.001     0.001   0.0% |
 XC 3D grid:                         0.092     0.092   0.0% |
LCAO initialization:                68.541     0.679   0.0% |
 LCAO eigensolver:                  17.624     0.002   0.0% |
  Calculate projections:             0.029     0.029   0.0% |
  DenseAtomicCorrection:             0.042     0.042   0.0% |
  Distribute overlap matrix:         0.043     0.043   0.0% |
  Orbital Layouts:                   0.474     0.474   0.0% |
  Potential matrix:                 16.934    16.934   0.5% |
  Sum over cells:                    0.099     0.099   0.0% |
 LCAO to grid:                      48.967    48.967   1.6% ||
 Set positions (LCAO WFS):           1.271     0.184   0.0% |
  Basic WFS set positions:           0.001     0.001   0.0% |
  Basis functions set positions:     0.000     0.000   0.0% |
  P tci:                             0.519     0.519   0.0% |
  ST tci:                            0.360     0.360   0.0% |
  mktci:                             0.207     0.207   0.0% |
PWDescriptor:                        0.025     0.025   0.0% |
SCF-cycle:                        1210.190     0.408   0.0% |
 Davidson:                        1015.259   317.585  10.2% |---|
  Apply H:                          68.616    66.592   2.1% ||
   HMM T:                            2.024     2.024   0.1% |
  Subspace diag:                   146.543     0.146   0.0% |
   calc_h_matrix:                   93.215    24.902   0.8% |
    Apply H:                        68.312    66.377   2.1% ||
     HMM T:                          1.935     1.935   0.1% |
   diagonalize:                      7.240     7.240   0.2% |
   rotate_psi:                      45.943    45.943   1.5% ||
  calc. matrices:                  300.129   167.800   5.4% |-|
   Apply H:                        132.328   128.677   4.2% |-|
    HMM T:                           3.652     3.652   0.1% |
  diagonalize:                      83.216    83.216   2.7% ||
  rotate_psi:                       99.171    99.171   3.2% ||
 Density:                           41.293     0.001   0.0% |
  Atomic density matrices:           0.906     0.906   0.0% |
  Mix:                               6.355     6.355   0.2% |
  Multipole moments:                 0.018     0.018   0.0% |
  Pseudo density:                   34.013    34.012   1.1% |
   Symmetrize density:               0.001     0.001   0.0% |
 Forces:                           138.570   138.570   4.5% |-|
 Hamiltonian:                       12.370     0.108   0.0% |
  Atomic:                            2.947     2.947   0.1% |
   XC Correction:                    0.000     0.000   0.0% |
  Calculate atomic Hamiltonians:     4.608     4.608   0.1% |
  Communicate:                       0.099     0.099   0.0% |
  Poisson:                           0.038     0.038   0.0% |
  XC 3D grid:                        4.569     4.569   0.1% |
 Orthonormalize:                     2.290     0.003   0.0% |
  calc_s_matrix:                     0.265     0.265   0.0% |
  inverse-cholesky:                  0.078     0.078   0.0% |
  projections:                       1.470     1.470   0.0% |
  rotate_psi_s:                      0.472     0.472   0.0% |
Set symmetry:                        0.000     0.000   0.0% |
Other:                            1820.970  1820.970  58.7% |----------------------|
-----------------------------------------------------------
Total:                                      3099.975 100.0%

Memory usage: 12.68 GiB
Date: Wed Mar 24 14:36:22 2021
