
  ___ ___ ___ _ _ _  
 |   |   |_  | | | | 
 | | | | | . | | | | 
 |__ |  _|___|_____|  20.10.1b1
 |___|_|             

User:   madkru@g006.nifl.fysik.dtu.dk
Date:   Tue Mar 23 16:09:57 2021
Arch:   x86_64
Pid:    12017
Python: 3.7.4
gpaw:   /home/niflheim/madkru/venv_folder/gpaw/gpaw (d0d1ca1c71)
_gpaw:  /home/niflheim/madkru/venv_folder/gpaw/build/lib.linux-x86_64-sandybridge-3.7/
        _gpaw.cpython-37m-x86_64-linux-gnu.so (4fd39e8b1e)
ase:    /home/niflheim/madkru/venv_folder/ase/ase (version 3.21.0b1-7e6c206a91)
numpy:  /home/niflheim/madkru/venv_folder/lib/python3.7/site-packages/numpy (version 1.19.4)
scipy:  /home/niflheim/madkru/venv_folder/lib/python3.7/site-packages/scipy (version 1.5.4)
libxc:  4.3.4
units:  Angstrom and eV
cores: 64
OMP_NUM_THREADS: 1

Input parameters:
  convergence: {bands: occupied,
                density: 0.0001,
                eigenstates: 4e-08,
                energy: 0.0005,
                forces: 1e-06}
  kpts: [6 6 4]
  mode: {ecut: 600.0,
         gammacentered: False,
         name: pw}
  occupations: {fixmagmom: False,
                name: fermi-dirac,
                width: 0.001}
  setups: {Mn: :d,3.0}
  symmetry: {point_group: False,
             time_reversal: False}

System changes: positions, numbers, cell, pbc, initial_charges, initial_magmoms 

Initialize ...

O-setup:
  name: Oxygen
  id: 9b9d51c344dea68c822856295a461509
  Z: 8.0
  valence: 6
  core: 2
  charge: 0.0
  file: /home/modules/software/GPAW-setups/0.9.20000/O.LDA.gz
  compensation charges: gauss, rc=0.21, lmax=2
  cutoffs: 1.17(filt), 0.83(core),
  valence states:
                energy  radius
    2s(2.00)   -23.752   0.688
    2p(4.00)    -9.195   0.598
    *s           3.459   0.688
    *p          18.016   0.598
    *d           0.000   0.619

  Using partial waves for O as LCAO basis

Mn-setup:
  name: Manganese
  id: 0d715a8018be061a6e9ea6f2d364ac92
  Z: 25.0
  valence: 15
  core: 10
  charge: 0.0
  Hubbard U: 3.000000 eV (l=2, scale=True)
  file: /home/modules/software/GPAW-setups/0.9.20000/Mn.LDA.gz
  compensation charges: gauss, rc=0.38, lmax=2
  cutoffs: 2.14(filt), 0.86(core),
  valence states:
                energy  radius
    3s(2.00)   -85.387   1.275
    4s(2.00)    -5.282   1.275
    3p(6.00)   -54.493   1.281
    4p(0.00)    -1.471   1.281
    3d(5.00)    -7.009   1.138
    *d          20.203   1.138

  Using partial waves for Mn as LCAO basis

P-setup:
  name: Phosphorus
  id: a5561c299094968922a179ab894d2e2d
  Z: 15.0
  valence: 5
  core: 10
  charge: 0.0
  file: /home/modules/software/GPAW-setups/0.9.20000/P.LDA.gz
  compensation charges: gauss, rc=0.30, lmax=2
  cutoffs: 1.69(filt), 1.81(core),
  valence states:
                energy  radius
    3s(2.00)   -14.015   0.953
    3p(3.00)    -5.596   0.953
    *s          13.197   0.953
    *p          21.615   0.953
    *d           0.000   0.953

  Using partial waves for P as LCAO basis

Li-setup:
  name: Lithium
  id: b73562207f97a71b6967473b66fe8b65
  Z: 3.0
  valence: 1
  core: 2
  charge: 0.0
  file: /home/modules/software/GPAW-setups/0.9.20000/Li.LDA.gz
  compensation charges: gauss, rc=0.33, lmax=2
  cutoffs: 1.91(filt), 2.55(core),
  valence states:
                energy  radius
    2s(1.00)    -2.874   1.058
    2p(0.00)    -1.126   1.058
    *s          24.338   1.058

  Using partial waves for Li as LCAO basis

Reference energy: -196157.275402

Spin-polarized calculation.
Magnetic moment: 0.000000

Convergence criteria:
  Maximum total energy change: 0.0005 eV / electron
  Maximum integral of absolute density change: 0.0001 electrons
  Maximum integral of absolute eigenstate change: 4e-08 eV^2
  Maximum change in atomic force: 1e-06 eV / Ang
  Maximum number of iterations: 333

Symmetries present (total): 1

  ( 1  0  0)
  ( 0  1  0)
  ( 0  0  1)

144 k-points: 6 x 6 x 4 Monkhorst-Pack grid
144 k-points in the irreducible part of the Brillouin zone
       k-points in crystal coordinates                weights
   0:    -0.41666667   -0.41666667   -0.37500000          1/144
   1:    -0.41666667   -0.41666667   -0.12500000          1/144
   2:    -0.41666667   -0.41666667    0.12500000          1/144
   3:    -0.41666667   -0.41666667    0.37500000          1/144
   4:    -0.41666667   -0.25000000   -0.37500000          1/144
   5:    -0.41666667   -0.25000000   -0.12500000          1/144
   6:    -0.41666667   -0.25000000    0.12500000          1/144
   7:    -0.41666667   -0.25000000    0.37500000          1/144
   8:    -0.41666667   -0.08333333   -0.37500000          1/144
   9:    -0.41666667   -0.08333333   -0.12500000          1/144
          ...
 143:     0.41666667    0.41666667    0.37500000          1/144

Wave functions: Plane wave expansion
  Cutoff energy: 600.000 eV
  Number of coefficients (min, max): 10068, 10125
  Pulay-stress correction: 0.000000 eV/Ang^3 (de/decut=0.000000)
  Using FFTW library
  ScaLapack parameters: grid=1x1, blocksize=None
  Wavefunction extrapolation:
    Improved wavefunction reuse through dual PAW basis 

  Fermi-Dirac: width=0.0010 eV

Eigensolver
   Davidson(niter=2, smin=None, normalize=True) 

Densities:
  Coarse grid: 60*35*27 grid
  Fine grid: 120*70*54 grid
  Total Charge: 0.000000 

Density mixing:
  Method: difference
  Backend: pulay
  Linear mixing parameter: 0.05
  Mixing with 5 old densities
  Damping of long wave oscillations: 50 

Hamiltonian:
  XC and Coulomb potentials evaluated on a 120*70*54 grid
  Using the LDA Exchange-Correlation functional
 

Memory estimate:
  Process memory now: 12056.72 MiB
  Calculator: 354.82 MiB
    Density: 10.06 MiB
      Arrays: 3.79 MiB
      Localized functions: 4.71 MiB
      Mixer: 1.56 MiB
    Hamiltonian: 2.95 MiB
      Arrays: 2.82 MiB
      XC: 0.00 MiB
      Poisson: 0.00 MiB
      vbar: 0.14 MiB
    Wavefunctions: 341.80 MiB
      Arrays psit_nG: 311.46 MiB
      Eigensolver: 19.99 MiB
      Projections: 2.71 MiB
      Projectors: 4.87 MiB
      PW-descriptor: 2.77 MiB

Total number of cores used: 64
Parallelization over k-points: 16
Domain decomposition: 2 x 2 x 1

Number of atoms: 28
Number of atomic orbitals: 148
Number of bands in calculation: 112
Number of valence electrons: 180
Bands to converge: occupied

... initialized

Initializing position-dependent things.

Density initialized from atomic densities
Creating initial wave functions:
  112 bands from LCAO basis set

     .-------------------------.  
    /|         OP              |  
   / |O            O        O  |  
  /  |       O            O  P |  
 *   |O    Mn      O           |  
 |   |          OLi          O |  
 |   P--O--------------Mn------.  
 |  /          Li    O  Mn  O /   
 | /LiO           PO         /    
 |/       Mn                /     
 *Li-----------------------*      

Positions:
   0 O     -1.330281   -2.539252   -1.168500    ( 0.0000,  0.0000,  0.0000)
   1 O     -3.152392    2.974909    1.200956    ( 0.0000,  0.0000,  0.0000)
   2 O      2.077234    0.510133    1.506966    ( 0.0000,  0.0000,  0.0000)
   3 O      3.899724   -0.074476   -0.862491    ( 0.0000,  0.0000,  0.0000)
   4 O      2.077424    2.974966    1.507072    ( 0.0000,  0.0000,  0.0000)
   5 O      3.899535   -2.539195   -0.862384    ( 0.0000,  0.0000,  0.0000)
   6 O     -1.330092   -0.074418   -1.168395    ( 0.0000,  0.0000,  0.0000)
   7 O     -3.152581    0.510191    1.201063    ( 0.0000,  0.0000,  0.0000)
   8 O     -4.389675   -1.306969   -0.813152    ( 0.0000,  0.0000,  0.0000)
   9 O     -0.093301    1.742683    1.556268    ( 0.0000,  0.0000,  0.0000)
  10 O      5.136817    1.742683    1.161723    ( 0.0000,  0.0000,  0.0000)
  11 O      0.840444   -1.306969   -1.217697    ( 0.0000,  0.0000,  0.0000)
  12 Mn    -2.557192   -1.307258    0.273595    ( 0.0000,  0.0000,  1.0000)
  13 Mn    -1.925535    1.742972   -2.096623    ( 0.0000,  0.0000, -1.0000)
  14 Mn     3.304335    1.742972    0.064976    ( 0.0000,  0.0000, -1.0000)
  15 Mn     2.672678   -1.307258    2.435195    ( 0.0000,  0.0000,  1.0000)
  16 P     -0.597175   -1.306854   -1.801474    ( 0.0000,  0.0000,  0.0000)
  17 P     -3.885565    1.742568    0.568028    ( 0.0000,  0.0000,  0.0000)
  18 P      1.344318    1.742568    2.140045    ( 0.0000,  0.0000,  0.0000)
  19 P      4.632708   -1.306854   -0.229456    ( 0.0000,  0.0000,  0.0000)
  20 O     -0.636957   -1.306861    1.403074    ( 0.0000,  0.0000,  0.0000)
  21 O     -3.845824    1.742575   -0.967462    ( 0.0000,  0.0000,  0.0000)
  22 O      1.384100    1.742576   -1.064503    ( 0.0000,  0.0000,  0.0000)
  23 O      4.592967   -1.306861    1.306033    ( 0.0000,  0.0000,  0.0000)
  24 Li    -4.856429   -2.832143   -2.200714    ( 0.0000,  0.0000,  0.0000)
  25 Li     0.373571   -2.832143    0.169286    ( 0.0000,  0.0000,  0.0000)
  26 Li    -4.856429    0.217857   -2.200714    ( 0.0000,  0.0000,  0.0000)
  27 Li     0.373571    0.217857    0.169286    ( 0.0000,  0.0000,  0.0000)

Unit cell:
           periodic     x           y           z      points  spacing
  1. axis:    yes   10.460000    0.000000    0.000000    60     0.1743
  2. axis:    yes    0.000000    6.100000    0.000000    35     0.1743
  3. axis:    yes    0.000000    0.000000    4.740000    27     0.1756

  Lengths:  10.460000   6.100000   4.740000
  Angles:   90.000000  90.000000  90.000000

Effective grid spacing dv^(1/3) = 0.1747

                     log10-error:           total        iterations:
           time      wfs    density  force  energy       poisson  magmom
iter:   1  16:11:29                       -220.692582             +0.0000
iter:   2  16:11:50  -0.64  -0.92         -235.507905             +0.0000
iter:   3  16:12:12  -0.40  -0.96         -226.168853             -0.0000
iter:   4  16:12:33  -1.41  -1.29         -225.888708             +0.0000
iter:   5  16:12:54  -1.19  -1.38         -227.586760             +0.0000
iter:   6  16:13:16  -1.39  -1.51         -225.828944             +0.0000
iter:   7  16:13:37  -2.56  -2.06         -225.897218             +0.0000
iter:   8  16:13:59  -2.24  -2.01         -225.647535             -0.0000
iter:   9  16:14:20  -2.67  -2.08         -225.546286             +0.0000
iter:  10  16:14:41  -3.53  -2.94         -225.545033             +0.0000
iter:  11  16:15:03  -3.95  -3.00         -225.547245             +0.0000
iter:  12  16:15:24  -4.29  -3.21         -225.547417             +0.0000
iter:  13  16:15:46  -5.33  -3.35         -225.547302             -0.0000
iter:  14  16:16:07  -5.13  -3.43         -225.547180             -0.0000
iter:  15  16:16:28  -5.27  -3.58         -225.547060             -0.0000
iter:  16  16:16:50  -6.26  -3.71         -225.547050             +0.0000
iter:  17  16:17:11  -6.42  -3.79         -225.547066             -0.0000
iter:  18  16:17:32  -6.71  -3.84         -225.547066             -0.0000
iter:  19  16:17:54  -5.97  -3.86         -225.547033             -0.0000
iter:  20  16:18:15  -7.21  -4.37         -225.547031             -0.0000
iter:  21  16:18:42  -7.48  -4.42         -225.547030             -0.0000
iter:  22  16:19:03  -7.19  -4.47         -225.547032             -0.0000
iter:  23  16:19:30  -7.52  -4.48    -2.66-225.547030             -0.0000
iter:  24  16:19:57  -7.53  -4.55    -2.42-225.547029             -0.0000
iter:  25  16:20:18  -7.02  -4.62         -225.547032             -0.0000
iter:  26  16:20:39  -7.27  -4.57         -225.547030             -0.0000
iter:  27  16:21:06  -8.41  -4.91    -2.44-225.547030             -0.0000
iter:  28  16:21:33  -8.33  -4.91    -3.26-225.547030             -0.0000
iter:  29  16:22:00  -8.37  -5.08    -3.00-225.547030             -0.0000
iter:  30  16:22:27  -9.23  -5.13    -3.49-225.547030             +0.0000
iter:  31  16:22:53  -8.26  -5.20    -3.14-225.547030             -0.0000
iter:  32  16:23:20  -8.63  -5.22    -3.16-225.547030             +0.0000
iter:  33  16:23:47  -9.99  -5.46    -3.75-225.547030             +0.0000
iter:  34  16:24:13  -9.04  -5.51    -3.22-225.547030             +0.0000
iter:  35  16:24:40  -9.64  -5.59    -3.72-225.547030             -0.0000
iter:  36  16:25:07 -10.47  -5.63    -4.38-225.547030             +0.0000
iter:  37  16:25:34 -10.39  -5.65    -4.38-225.547030             +0.0000
iter:  38  16:26:01 -10.03  -5.69    -3.75-225.547030             -0.0000
iter:  39  16:26:27 -10.48  -5.83    -4.09-225.547030             +0.0000
iter:  40  16:26:54 -10.86  -5.96    -3.86-225.547030             -0.0000
iter:  41  16:27:21 -10.80  -6.04    -4.22-225.547030             +0.0000
iter:  42  16:27:48 -11.86  -6.08    -4.29-225.547030             -0.0000
iter:  43  16:28:14 -10.74  -6.20    -4.51-225.547030             -0.0000
iter:  44  16:28:41 -11.00  -6.47    -4.46-225.547030             -0.0000
iter:  45  16:29:08 -12.05  -6.88    -5.00-225.547030             -0.0000
iter:  46  16:29:35 -12.24  -6.95    -4.82-225.547030             -0.0000
iter:  47  16:30:01 -12.29  -7.07    -5.48-225.547030             -0.0000
iter:  48  16:30:28 -13.44  -7.16    -5.54-225.547030             -0.0000
iter:  49  16:30:55 -12.83  -7.17    -5.35-225.547030             -0.0000
iter:  50  16:31:21 -13.92  -7.19    -5.94-225.547030             -0.0000
iter:  51  16:31:48 -13.33  -7.25    -5.07-225.547030             -0.0000
iter:  52  16:32:15 -14.13  -7.49    -6.18-225.547030             -0.0000

Converged after 52 iterations.

Dipole moment: (13.160829, 1.716076, -5.507917) |e|*Ang

Total magnetic moment: (0.000000, 0.000000, -0.000000)
Local magnetic moments:
   0 O  ( 0.000000,  0.000000,  0.001069)
   1 O  ( 0.000000,  0.000000, -0.001013)
   2 O  ( 0.000000,  0.000000, -0.001053)
   3 O  ( 0.000000,  0.000000,  0.001079)
   4 O  ( 0.000000,  0.000000, -0.001061)
   5 O  ( 0.000000,  0.000000,  0.001087)
   6 O  ( 0.000000,  0.000000,  0.001061)
   7 O  ( 0.000000,  0.000000, -0.001005)
   8 O  ( 0.000000,  0.000000,  0.019791)
   9 O  ( 0.000000,  0.000000, -0.019797)
  10 O  ( 0.000000,  0.000000, -0.019735)
  11 O  ( 0.000000,  0.000000,  0.019771)
  12 Mn ( 0.000000,  0.000000,  4.601521)
  13 Mn ( 0.000000,  0.000000, -4.601557)
  14 Mn ( 0.000000,  0.000000, -4.601875)
  15 Mn ( 0.000000,  0.000000,  4.601605)
  16 P  ( 0.000000,  0.000000,  0.001305)
  17 P  ( 0.000000,  0.000000, -0.001248)
  18 P  ( 0.000000,  0.000000, -0.001295)
  19 P  ( 0.000000,  0.000000,  0.001301)
  20 O  ( 0.000000,  0.000000,  0.018077)
  21 O  ( 0.000000,  0.000000, -0.017991)
  22 O  ( 0.000000,  0.000000, -0.018102)
  23 O  ( 0.000000,  0.000000,  0.018073)
  24 Li ( 0.000000,  0.000000, -0.000005)
  25 Li ( 0.000000,  0.000000,  0.000000)
  26 Li ( 0.000000,  0.000000, -0.000005)
  27 Li ( 0.000000,  0.000000,  0.000000)

Energy contributions relative to reference atoms: (reference = -196157.275402)

Kinetic:       +242.626186
Potential:     -215.191692
External:        +0.000000
XC:            -254.897742
Entropy (-ST):   -0.000000
Local:           +1.916218
--------------------------
Free energy:   -225.547030
Extrapolated:  -225.547030

Spin contamination: 9.747596 electrons
Showing only first 2 kpts
                      Up                     Down
 Kpt  Band  Eigenvalues  Occupancy  Eigenvalues  Occupancy
  0    88      3.92272    0.00694      3.91761    0.00694
  0    89      3.97150    0.00694      3.96717    0.00694
  0    90      8.66569    0.00000      8.66697    0.00000
  0    91      8.68410    0.00000      8.68670    0.00000

  1    88      3.91929    0.00694      3.91426    0.00694
  1    89      3.97537    0.00694      3.97052    0.00694
  1    90      8.51242    0.00000      8.51259    0.00000
  1    91      8.52783    0.00000      8.52940    0.00000


Fermi level: 5.31842

Gap: 3.776 eV
Transition (v -> c):
  (s=0, k=74, n=89, [0.08, -0.42, 0.12]) -> (s=1, k=86, n=90, [0.08, 0.08, 0.12])
Writing to born-0.01-10z+.gpw (mode='all')

Timing:                              incl.     excl.
-----------------------------------------------------------
Hamiltonian:                         0.248     0.002   0.0% |
 Atomic:                             0.058     0.058   0.0% |
  XC Correction:                     0.000     0.000   0.0% |
 Calculate atomic Hamiltonians:      0.093     0.093   0.0% |
 Communicate:                        0.001     0.001   0.0% |
 Initialize Hamiltonian:             0.000     0.000   0.0% |
 Poisson:                            0.001     0.001   0.0% |
 XC 3D grid:                         0.092     0.092   0.0% |
LCAO initialization:                65.730     0.684   0.0% |
 LCAO eigensolver:                  17.533     0.002   0.0% |
  Calculate projections:             0.029     0.029   0.0% |
  DenseAtomicCorrection:             0.043     0.043   0.0% |
  Distribute overlap matrix:         0.125     0.125   0.0% |
  Orbital Layouts:                   0.474     0.474   0.0% |
  Potential matrix:                 16.771    16.771   0.5% |
  Sum over cells:                    0.089     0.089   0.0% |
 LCAO to grid:                      46.223    46.223   1.5% ||
 Set positions (LCAO WFS):           1.290     0.177   0.0% |
  Basic WFS set positions:           0.001     0.001   0.0% |
  Basis functions set positions:     0.000     0.000   0.0% |
  P tci:                             0.516     0.516   0.0% |
  ST tci:                            0.359     0.359   0.0% |
  mktci:                             0.235     0.235   0.0% |
PWDescriptor:                        0.025     0.025   0.0% |
SCF-cycle:                        1270.600     2.279   0.1% |
 Davidson:                        1055.558   330.186  10.5% |---|
  Apply H:                          71.225    69.128   2.2% ||
   HMM T:                            2.097     2.097   0.1% |
  Subspace diag:                   152.361     0.153   0.0% |
   calc_h_matrix:                   96.692    25.931   0.8% |
    Apply H:                        70.761    68.694   2.2% ||
     HMM T:                          2.067     2.067   0.1% |
   diagonalize:                      7.581     7.581   0.2% |
   rotate_psi:                      47.936    47.936   1.5% ||
  calc. matrices:                  311.632   174.459   5.5% |-|
   Apply H:                        137.173   133.448   4.2% |-|
    HMM T:                           3.725     3.725   0.1% |
  diagonalize:                      86.644    86.644   2.8% ||
  rotate_psi:                      103.509   103.509   3.3% ||
 Density:                           41.988     0.001   0.0% |
  Atomic density matrices:           0.896     0.896   0.0% |
  Mix:                               6.581     6.581   0.2% |
  Multipole moments:                 0.019     0.019   0.0% |
  Pseudo density:                   34.491    34.490   1.1% |
   Symmetrize density:               0.001     0.001   0.0% |
 Forces:                           155.654   155.654   4.9% |-|
 Hamiltonian:                       12.836     0.113   0.0% |
  Atomic:                            3.084     3.083   0.1% |
   XC Correction:                    0.000     0.000   0.0% |
  Calculate atomic Hamiltonians:     4.781     4.781   0.2% |
  Communicate:                       0.056     0.056   0.0% |
  Poisson:                           0.041     0.041   0.0% |
  XC 3D grid:                        4.761     4.761   0.2% |
 Orthonormalize:                     2.286     0.003   0.0% |
  calc_s_matrix:                     0.264     0.264   0.0% |
  inverse-cholesky:                  0.078     0.078   0.0% |
  projections:                       1.467     1.467   0.0% |
  rotate_psi_s:                      0.473     0.473   0.0% |
Set symmetry:                        0.000     0.000   0.0% |
Other:                            1811.177  1811.177  57.5% |----------------------|
-----------------------------------------------------------
Total:                                      3147.781 100.0%

Memory usage: 11.78 GiB
Date: Tue Mar 23 17:02:25 2021
