
  ___ ___ ___ _ _ _  
 |   |   |_  | | | | 
 | | | | | . | | | | 
 |__ |  _|___|_____|  20.10.1b1
 |___|_|             

User:   madkru@g031.nifl.fysik.dtu.dk
Date:   Sun Mar 21 15:03:09 2021
Arch:   x86_64
Pid:    47913
Python: 3.7.4
gpaw:   /home/niflheim/madkru/venv_folder/gpaw/gpaw (d0d1ca1c71)
_gpaw:  /home/niflheim/madkru/venv_folder/gpaw/build/lib.linux-x86_64-sandybridge-3.7/
        _gpaw.cpython-37m-x86_64-linux-gnu.so (4fd39e8b1e)
ase:    /home/niflheim/madkru/venv_folder/ase/ase (version 3.21.0b1-7e6c206a91)
numpy:  /home/niflheim/madkru/venv_folder/lib/python3.7/site-packages/numpy (version 1.19.4)
scipy:  /home/niflheim/madkru/venv_folder/lib/python3.7/site-packages/scipy (version 1.5.4)
libxc:  4.3.4
units:  Angstrom and eV
cores: 32
OMP_NUM_THREADS: 1

Input parameters:
  convergence: {bands: occupied,
                density: 0.0001,
                eigenstates: 4e-08,
                energy: 0.0005,
                forces: 1e-06}
  kpts: [6 6 4]
  mode: {ecut: 600.0,
         gammacentered: False,
         name: pw}
  occupations: {fixmagmom: False,
                name: fermi-dirac,
                width: 0.001}
  setups: {Mn: :d,3.0}
  symmetry: {point_group: False,
             time_reversal: False}

System changes: positions, numbers, cell, pbc, initial_charges, initial_magmoms 

Initialize ...

O-setup:
  name: Oxygen
  id: 9b9d51c344dea68c822856295a461509
  Z: 8.0
  valence: 6
  core: 2
  charge: 0.0
  file: /home/modules/software/GPAW-setups/0.9.20000/O.LDA.gz
  compensation charges: gauss, rc=0.21, lmax=2
  cutoffs: 1.17(filt), 0.83(core),
  valence states:
                energy  radius
    2s(2.00)   -23.752   0.688
    2p(4.00)    -9.195   0.598
    *s           3.459   0.688
    *p          18.016   0.598
    *d           0.000   0.619

  Using partial waves for O as LCAO basis

Mn-setup:
  name: Manganese
  id: 0d715a8018be061a6e9ea6f2d364ac92
  Z: 25.0
  valence: 15
  core: 10
  charge: 0.0
  Hubbard U: 3.000000 eV (l=2, scale=True)
  file: /home/modules/software/GPAW-setups/0.9.20000/Mn.LDA.gz
  compensation charges: gauss, rc=0.38, lmax=2
  cutoffs: 2.14(filt), 0.86(core),
  valence states:
                energy  radius
    3s(2.00)   -85.387   1.275
    4s(2.00)    -5.282   1.275
    3p(6.00)   -54.493   1.281
    4p(0.00)    -1.471   1.281
    3d(5.00)    -7.009   1.138
    *d          20.203   1.138

  Using partial waves for Mn as LCAO basis

P-setup:
  name: Phosphorus
  id: a5561c299094968922a179ab894d2e2d
  Z: 15.0
  valence: 5
  core: 10
  charge: 0.0
  file: /home/modules/software/GPAW-setups/0.9.20000/P.LDA.gz
  compensation charges: gauss, rc=0.30, lmax=2
  cutoffs: 1.69(filt), 1.81(core),
  valence states:
                energy  radius
    3s(2.00)   -14.015   0.953
    3p(3.00)    -5.596   0.953
    *s          13.197   0.953
    *p          21.615   0.953
    *d           0.000   0.953

  Using partial waves for P as LCAO basis

Li-setup:
  name: Lithium
  id: b73562207f97a71b6967473b66fe8b65
  Z: 3.0
  valence: 1
  core: 2
  charge: 0.0
  file: /home/modules/software/GPAW-setups/0.9.20000/Li.LDA.gz
  compensation charges: gauss, rc=0.33, lmax=2
  cutoffs: 1.91(filt), 2.55(core),
  valence states:
                energy  radius
    2s(1.00)    -2.874   1.058
    2p(0.00)    -1.126   1.058
    *s          24.338   1.058

  Using partial waves for Li as LCAO basis

Reference energy: -196157.275402

Spin-polarized calculation.
Magnetic moment: 0.000000

Convergence criteria:
  Maximum total energy change: 0.0005 eV / electron
  Maximum integral of absolute density change: 0.0001 electrons
  Maximum integral of absolute eigenstate change: 4e-08 eV^2
  Maximum change in atomic force: 1e-06 eV / Ang
  Maximum number of iterations: 333

Symmetries present (total): 1

  ( 1  0  0)
  ( 0  1  0)
  ( 0  0  1)

144 k-points: 6 x 6 x 4 Monkhorst-Pack grid
144 k-points in the irreducible part of the Brillouin zone
       k-points in crystal coordinates                weights
   0:    -0.41666667   -0.41666667   -0.37500000          1/144
   1:    -0.41666667   -0.41666667   -0.12500000          1/144
   2:    -0.41666667   -0.41666667    0.12500000          1/144
   3:    -0.41666667   -0.41666667    0.37500000          1/144
   4:    -0.41666667   -0.25000000   -0.37500000          1/144
   5:    -0.41666667   -0.25000000   -0.12500000          1/144
   6:    -0.41666667   -0.25000000    0.12500000          1/144
   7:    -0.41666667   -0.25000000    0.37500000          1/144
   8:    -0.41666667   -0.08333333   -0.37500000          1/144
   9:    -0.41666667   -0.08333333   -0.12500000          1/144
          ...
 143:     0.41666667    0.41666667    0.37500000          1/144

Wave functions: Plane wave expansion
  Cutoff energy: 600.000 eV
  Number of coefficients (min, max): 10068, 10125
  Pulay-stress correction: 0.000000 eV/Ang^3 (de/decut=0.000000)
  Using FFTW library
  ScaLapack parameters: grid=1x1, blocksize=None
  Wavefunction extrapolation:
    Improved wavefunction reuse through dual PAW basis 

  Fermi-Dirac: width=0.0010 eV

Eigensolver
   Davidson(niter=2, smin=None, normalize=True) 

Densities:
  Coarse grid: 60*35*27 grid
  Fine grid: 120*70*54 grid
  Total Charge: 0.000000 

Density mixing:
  Method: difference
  Backend: pulay
  Linear mixing parameter: 0.05
  Mixing with 5 old densities
  Damping of long wave oscillations: 50 

Hamiltonian:
  XC and Coulomb potentials evaluated on a 120*70*54 grid
  Using the LDA Exchange-Correlation functional
 

Memory estimate:
  Process memory now: 12511.75 MiB
  Calculator: 375.55 MiB
    Density: 20.02 MiB
      Arrays: 7.57 MiB
      Localized functions: 9.42 MiB
      Mixer: 3.03 MiB
    Hamiltonian: 5.90 MiB
      Arrays: 5.62 MiB
      XC: 0.00 MiB
      Poisson: 0.00 MiB
      vbar: 0.27 MiB
    Wavefunctions: 349.64 MiB
      Arrays psit_nG: 311.46 MiB
      Eigensolver: 19.99 MiB
      Projections: 5.41 MiB
      Projectors: 9.73 MiB
      PW-descriptor: 3.03 MiB

Total number of cores used: 32
Parallelization over k-points: 16
Domain decomposition: 2 x 1 x 1

Number of atoms: 28
Number of atomic orbitals: 148
Number of bands in calculation: 112
Number of valence electrons: 180
Bands to converge: occupied

... initialized

Initializing position-dependent things.

Density initialized from atomic densities
Creating initial wave functions:
  112 bands from LCAO basis set

     .-------------------------.  
    /|         OP              |  
   / |O            O        O  |  
  /  |       O            O  P |  
 *   |O    Mn      O           |  
 |   |          OLi          O |  
 |   P--O--------------Mn------.  
 |  /          Li    O  Mn  O /   
 | /LiO           PO         /    
 |/       Mn                /     
 *Li-----------------------*      

Positions:
   0 O     -1.330281   -2.539252   -1.168500    ( 0.0000,  0.0000,  0.0000)
   1 O     -3.152392    2.974909    1.200956    ( 0.0000,  0.0000,  0.0000)
   2 O      2.077234    0.500133    1.506966    ( 0.0000,  0.0000,  0.0000)
   3 O      3.899724   -0.074476   -0.862491    ( 0.0000,  0.0000,  0.0000)
   4 O      2.077424    2.974966    1.507072    ( 0.0000,  0.0000,  0.0000)
   5 O      3.899535   -2.539195   -0.862384    ( 0.0000,  0.0000,  0.0000)
   6 O     -1.330092   -0.074418   -1.168395    ( 0.0000,  0.0000,  0.0000)
   7 O     -3.152581    0.510191    1.201063    ( 0.0000,  0.0000,  0.0000)
   8 O     -4.389675   -1.306969   -0.813152    ( 0.0000,  0.0000,  0.0000)
   9 O     -0.093301    1.742683    1.556268    ( 0.0000,  0.0000,  0.0000)
  10 O      5.136817    1.742683    1.151723    ( 0.0000,  0.0000,  0.0000)
  11 O      0.840444   -1.306969   -1.217697    ( 0.0000,  0.0000,  0.0000)
  12 Mn    -2.557192   -1.307258    0.273595    ( 0.0000,  0.0000,  1.0000)
  13 Mn    -1.925535    1.742972   -2.096623    ( 0.0000,  0.0000, -1.0000)
  14 Mn     3.304335    1.742972    0.064976    ( 0.0000,  0.0000, -1.0000)
  15 Mn     2.672678   -1.307258    2.435195    ( 0.0000,  0.0000,  1.0000)
  16 P     -0.597175   -1.306854   -1.801474    ( 0.0000,  0.0000,  0.0000)
  17 P     -3.885565    1.742568    0.568028    ( 0.0000,  0.0000,  0.0000)
  18 P      1.344318    1.742568    2.140045    ( 0.0000,  0.0000,  0.0000)
  19 P      4.632708   -1.306854   -0.229456    ( 0.0000,  0.0000,  0.0000)
  20 O     -0.636957   -1.306861    1.403074    ( 0.0000,  0.0000,  0.0000)
  21 O     -3.845824    1.742575   -0.967462    ( 0.0000,  0.0000,  0.0000)
  22 O      1.384100    1.742576   -1.064503    ( 0.0000,  0.0000,  0.0000)
  23 O      4.592967   -1.306861    1.306033    ( 0.0000,  0.0000,  0.0000)
  24 Li    -4.856429   -2.832143   -2.200714    ( 0.0000,  0.0000,  0.0000)
  25 Li     0.373571   -2.832143    0.169286    ( 0.0000,  0.0000,  0.0000)
  26 Li    -4.856429    0.217857   -2.200714    ( 0.0000,  0.0000,  0.0000)
  27 Li     0.373571    0.217857    0.169286    ( 0.0000,  0.0000,  0.0000)

Unit cell:
           periodic     x           y           z      points  spacing
  1. axis:    yes   10.460000    0.000000    0.000000    60     0.1743
  2. axis:    yes    0.000000    6.100000    0.000000    35     0.1743
  3. axis:    yes    0.000000    0.000000    4.740000    27     0.1756

  Lengths:  10.460000   6.100000   4.740000
  Angles:   90.000000  90.000000  90.000000

Effective grid spacing dv^(1/3) = 0.1747

                     log10-error:           total        iterations:
           time      wfs    density  force  energy       poisson  magmom
iter:   1  15:06:08                       -220.685250             +0.0000
iter:   2  15:06:48  -0.64  -0.92         -235.491085             +0.0000
iter:   3  15:07:27  -0.40  -0.96         -226.166300             -0.0000
iter:   4  15:08:07  -1.41  -1.29         -225.887378             +0.0000
iter:   5  15:08:46  -1.19  -1.38         -227.588729             +0.0000
iter:   6  15:09:26  -1.39  -1.51         -225.827319             +0.0000
iter:   7  15:10:05  -2.57  -2.06         -225.898008             +0.0000
iter:   8  15:10:45  -2.23  -2.01         -225.639194             -0.0000
iter:   9  15:11:24  -2.68  -2.09         -225.545669             +0.0000
iter:  10  15:12:04  -3.56  -2.95         -225.545142             +0.0000
iter:  11  15:12:43  -3.95  -3.00         -225.546323             +0.0000
iter:  12  15:13:22  -4.29  -3.22         -225.546516             +0.0000
iter:  13  15:14:02  -5.39  -3.36         -225.546402             -0.0000
iter:  14  15:14:41  -5.18  -3.44         -225.546237             -0.0000
iter:  15  15:15:21  -5.39  -3.61         -225.546169             -0.0000
iter:  16  15:16:00  -6.28  -3.67         -225.546147             +0.0000
iter:  17  15:16:40  -6.22  -3.75         -225.546168             -0.0000
iter:  18  15:17:19  -6.78  -3.81         -225.546169             -0.0000
iter:  19  15:17:58  -5.82  -3.83         -225.546129             -0.0000
iter:  20  15:18:38  -6.84  -4.38         -225.546129             -0.0000
iter:  21  15:19:17  -6.73  -4.63         -225.546114             +0.0000
iter:  22  15:19:57  -7.03  -4.76         -225.546123             -0.0000
iter:  23  15:20:47  -7.54  -4.88         -225.546122             -0.0000
iter:  24  15:21:37  -8.61  -5.33    -3.75-225.546122             -0.0000
iter:  25  15:22:27  -9.10  -5.41    -2.97-225.546122             +0.0000
iter:  26  15:23:17  -9.14  -5.47    -3.43-225.546122             -0.0000
iter:  27  15:24:07  -9.99  -5.69    -4.15-225.546122             -0.0000
iter:  28  15:24:57  -9.54  -5.74    -3.44-225.546122             -0.0000
iter:  29  15:25:47  -9.59  -5.92    -3.39-225.546122             +0.0000
iter:  30  15:26:37  -9.47  -5.89    -3.95-225.546122             -0.0000
iter:  31  15:27:27 -10.77  -6.06    -4.17-225.546122             -0.0000
iter:  32  15:28:17 -11.09  -6.13    -4.60-225.546122             +0.0000
iter:  33  15:29:07  -9.85  -6.16    -3.62-225.546122             +0.0000
iter:  34  15:29:57 -10.79  -6.27    -4.23-225.546122             +0.0000
iter:  35  15:30:47 -10.65  -6.64    -4.18-225.546122             +0.0000
iter:  36  15:31:37 -11.55  -6.66    -4.50-225.546122             +0.0000
iter:  37  15:32:27 -12.33  -7.03    -5.09-225.546122             +0.0000
iter:  38  15:33:17 -13.06  -7.16    -5.63-225.546122             +0.0000
iter:  39  15:34:07 -12.88  -7.21    -4.80-225.546122             +0.0000
iter:  40  15:34:58 -13.59  -7.66    -5.57-225.546122             +0.0000
iter:  41  15:35:48 -13.53  -7.82    -5.34-225.546122             +0.0000
iter:  42  15:36:38 -13.66  -7.63    -5.27-225.546122             +0.0000
iter:  43  15:37:28 -13.64  -7.89    -5.55-225.546122             +0.0000
iter:  44  15:38:18 -14.52  -8.14    -6.05-225.546122             +0.0000

Converged after 44 iterations.

Dipole moment: (13.160955, 1.565603, -5.511749) |e|*Ang

Total magnetic moment: (0.000000, 0.000000, 0.000000)
Local magnetic moments:
   0 O  ( 0.000000,  0.000000,  0.001065)
   1 O  ( 0.000000,  0.000000, -0.001057)
   2 O  ( 0.000000,  0.000000, -0.000822)
   3 O  ( 0.000000,  0.000000,  0.001093)
   4 O  ( 0.000000,  0.000000, -0.001125)
   5 O  ( 0.000000,  0.000000,  0.000919)
   6 O  ( 0.000000,  0.000000,  0.001051)
   7 O  ( 0.000000,  0.000000, -0.001052)
   8 O  ( 0.000000,  0.000000,  0.019792)
   9 O  ( 0.000000,  0.000000, -0.019634)
  10 O  ( 0.000000,  0.000000, -0.019786)
  11 O  ( 0.000000,  0.000000,  0.019809)
  12 Mn ( 0.000000,  0.000000,  4.601530)
  13 Mn ( 0.000000,  0.000000, -4.601556)
  14 Mn ( 0.000000,  0.000000, -4.601572)
  15 Mn ( 0.000000,  0.000000,  4.600766)
  16 P  ( 0.000000,  0.000000,  0.001312)
  17 P  ( 0.000000,  0.000000, -0.001288)
  18 P  ( 0.000000,  0.000000, -0.001072)
  19 P  ( 0.000000,  0.000000,  0.001306)
  20 O  ( 0.000000,  0.000000,  0.018070)
  21 O  ( 0.000000,  0.000000, -0.018083)
  22 O  ( 0.000000,  0.000000, -0.017990)
  23 O  ( 0.000000,  0.000000,  0.018117)
  24 Li ( 0.000000,  0.000000,  0.000001)
  25 Li ( 0.000000,  0.000000,  0.000001)
  26 Li ( 0.000000,  0.000000,  0.000000)
  27 Li ( 0.000000,  0.000000,  0.000016)

Energy contributions relative to reference atoms: (reference = -196157.275402)

Kinetic:       +242.435462
Potential:     -215.046197
External:        +0.000000
XC:            -254.851737
Entropy (-ST):   -0.000000
Local:           +1.916349
--------------------------
Free energy:   -225.546122
Extrapolated:  -225.546122

Spin contamination: 9.747029 electrons
Showing only first 2 kpts
                      Up                     Down
 Kpt  Band  Eigenvalues  Occupancy  Eigenvalues  Occupancy
  0    88      3.92878    0.00694      3.91939    0.00694
  0    89      3.97871    0.00694      3.96795    0.00694
  0    90      8.66341    0.00000      8.67058    0.00000
  0    91      8.68404    0.00000      8.69575    0.00000

  1    88      3.92565    0.00694      3.91596    0.00694
  1    89      3.98243    0.00694      3.97175    0.00694
  1    90      8.50755    0.00000      8.51620    0.00000
  1    91      8.52608    0.00000      8.53810    0.00000


Fermi level: 5.31914

Gap: 3.770 eV
Transition (v -> c):
  (s=0, k=73, n=89, [0.08, -0.42, -0.12]) -> (s=0, k=82, n=90, [0.08, -0.08, 0.12])
Writing to born-0.01-2y-.gpw (mode='all')

Timing:                              incl.     excl.
-----------------------------------------------------------
Hamiltonian:                         0.417     0.002   0.0% |
 Atomic:                             0.057     0.057   0.0% |
  XC Correction:                     0.000     0.000   0.0% |
 Calculate atomic Hamiltonians:      0.179     0.179   0.0% |
 Communicate:                        0.002     0.002   0.0% |
 Initialize Hamiltonian:             0.000     0.000   0.0% |
 Poisson:                            0.001     0.001   0.0% |
 XC 3D grid:                         0.174     0.174   0.0% |
LCAO initialization:               132.353     0.676   0.0% |
 LCAO eigensolver:                  33.997     0.002   0.0% |
  Calculate projections:             0.057     0.057   0.0% |
  DenseAtomicCorrection:             0.083     0.083   0.0% |
  Distribute overlap matrix:         0.051     0.051   0.0% |
  Orbital Layouts:                   0.362     0.362   0.0% |
  Potential matrix:                 33.342    33.342   0.7% |
  Sum over cells:                    0.101     0.101   0.0% |
 LCAO to grid:                      95.379    95.379   1.9% ||
 Set positions (LCAO WFS):           2.299     0.344   0.0% |
  Basic WFS set positions:           0.001     0.001   0.0% |
  Basis functions set positions:     0.000     0.000   0.0% |
  P tci:                             1.049     1.049   0.0% |
  ST tci:                            0.657     0.657   0.0% |
  mktci:                             0.248     0.248   0.0% |
PWDescriptor:                        0.025     0.025   0.0% |
SCF-cycle:                        1974.342     4.568   0.1% |
 Davidson:                        1647.483   536.774  10.5% |---|
  Apply H:                         116.278   112.130   2.2% ||
   HMM T:                            4.148     4.148   0.1% |
  Subspace diag:                   243.255     0.140   0.0% |
   calc_h_matrix:                  157.869    43.505   0.9% |
    Apply H:                       114.364   110.500   2.2% ||
     HMM T:                          3.864     3.864   0.1% |
   diagonalize:                      5.408     5.408   0.1% |
   rotate_psi:                      79.838    79.838   1.6% ||
  calc. matrices:                  515.784   290.779   5.7% |-|
   Apply H:                        225.004   217.859   4.3% |-|
    HMM T:                           7.145     7.145   0.1% |
  diagonalize:                      73.355    73.355   1.4% ||
  rotate_psi:                      162.037   162.037   3.2% ||
 Density:                           65.008     0.001   0.0% |
  Atomic density matrices:           1.118     1.118   0.0% |
  Mix:                              10.700    10.700   0.2% |
  Multipole moments:                 0.026     0.026   0.0% |
  Pseudo density:                   53.163    53.162   1.0% |
   Symmetrize density:               0.001     0.001   0.0% |
 Forces:                           234.320   234.320   4.6% |-|
 Hamiltonian:                       18.549     0.106   0.0% |
  Atomic:                            2.563     2.563   0.1% |
   XC Correction:                    0.000     0.000   0.0% |
  Calculate atomic Hamiltonians:     7.992     7.992   0.2% |
  Communicate:                       0.100     0.100   0.0% |
  Poisson:                           0.074     0.074   0.0% |
  XC 3D grid:                        7.713     7.713   0.2% |
 Orthonormalize:                     4.414     0.004   0.0% |
  calc_s_matrix:                     0.525     0.525   0.0% |
  inverse-cholesky:                  0.055     0.055   0.0% |
  projections:                       2.896     2.896   0.1% |
  rotate_psi_s:                      0.935     0.935   0.0% |
Set symmetry:                        0.000     0.000   0.0% |
Other:                            2981.150  2981.150  58.6% |----------------------|
-----------------------------------------------------------
Total:                                      5088.287 100.0%

Memory usage: 12.22 GiB
Date: Sun Mar 21 16:27:57 2021
