
  ___ ___ ___ _ _ _  
 |   |   |_  | | | | 
 | | | | | . | | | | 
 |__ |  _|___|_____|  20.10.1b1
 |___|_|             

User:   madkru@g031.nifl.fysik.dtu.dk
Date:   Mon Mar 22 10:20:13 2021
Arch:   x86_64
Pid:    47913
Python: 3.7.4
gpaw:   /home/niflheim/madkru/venv_folder/gpaw/gpaw (d0d1ca1c71)
_gpaw:  /home/niflheim/madkru/venv_folder/gpaw/build/lib.linux-x86_64-sandybridge-3.7/
        _gpaw.cpython-37m-x86_64-linux-gnu.so (4fd39e8b1e)
ase:    /home/niflheim/madkru/venv_folder/ase/ase (version 3.21.0b1-7e6c206a91)
numpy:  /home/niflheim/madkru/venv_folder/lib/python3.7/site-packages/numpy (version 1.19.4)
scipy:  /home/niflheim/madkru/venv_folder/lib/python3.7/site-packages/scipy (version 1.5.4)
libxc:  4.3.4
units:  Angstrom and eV
cores: 32
OMP_NUM_THREADS: 1

Input parameters:
  convergence: {bands: occupied,
                density: 0.0001,
                eigenstates: 4e-08,
                energy: 0.0005,
                forces: 1e-06}
  kpts: [6 6 4]
  mode: {ecut: 600.0,
         gammacentered: False,
         name: pw}
  occupations: {fixmagmom: False,
                name: fermi-dirac,
                width: 0.001}
  setups: {Mn: :d,3.0}
  symmetry: {point_group: False,
             time_reversal: False}

System changes: positions, numbers, cell, pbc, initial_charges, initial_magmoms 

Initialize ...

O-setup:
  name: Oxygen
  id: 9b9d51c344dea68c822856295a461509
  Z: 8.0
  valence: 6
  core: 2
  charge: 0.0
  file: /home/modules/software/GPAW-setups/0.9.20000/O.LDA.gz
  compensation charges: gauss, rc=0.21, lmax=2
  cutoffs: 1.17(filt), 0.83(core),
  valence states:
                energy  radius
    2s(2.00)   -23.752   0.688
    2p(4.00)    -9.195   0.598
    *s           3.459   0.688
    *p          18.016   0.598
    *d           0.000   0.619

  Using partial waves for O as LCAO basis

Mn-setup:
  name: Manganese
  id: 0d715a8018be061a6e9ea6f2d364ac92
  Z: 25.0
  valence: 15
  core: 10
  charge: 0.0
  Hubbard U: 3.000000 eV (l=2, scale=True)
  file: /home/modules/software/GPAW-setups/0.9.20000/Mn.LDA.gz
  compensation charges: gauss, rc=0.38, lmax=2
  cutoffs: 2.14(filt), 0.86(core),
  valence states:
                energy  radius
    3s(2.00)   -85.387   1.275
    4s(2.00)    -5.282   1.275
    3p(6.00)   -54.493   1.281
    4p(0.00)    -1.471   1.281
    3d(5.00)    -7.009   1.138
    *d          20.203   1.138

  Using partial waves for Mn as LCAO basis

P-setup:
  name: Phosphorus
  id: a5561c299094968922a179ab894d2e2d
  Z: 15.0
  valence: 5
  core: 10
  charge: 0.0
  file: /home/modules/software/GPAW-setups/0.9.20000/P.LDA.gz
  compensation charges: gauss, rc=0.30, lmax=2
  cutoffs: 1.69(filt), 1.81(core),
  valence states:
                energy  radius
    3s(2.00)   -14.015   0.953
    3p(3.00)    -5.596   0.953
    *s          13.197   0.953
    *p          21.615   0.953
    *d           0.000   0.953

  Using partial waves for P as LCAO basis

Li-setup:
  name: Lithium
  id: b73562207f97a71b6967473b66fe8b65
  Z: 3.0
  valence: 1
  core: 2
  charge: 0.0
  file: /home/modules/software/GPAW-setups/0.9.20000/Li.LDA.gz
  compensation charges: gauss, rc=0.33, lmax=2
  cutoffs: 1.91(filt), 2.55(core),
  valence states:
                energy  radius
    2s(1.00)    -2.874   1.058
    2p(0.00)    -1.126   1.058
    *s          24.338   1.058

  Using partial waves for Li as LCAO basis

Reference energy: -196157.275402

Spin-polarized calculation.
Magnetic moment: 0.000000

Convergence criteria:
  Maximum total energy change: 0.0005 eV / electron
  Maximum integral of absolute density change: 0.0001 electrons
  Maximum integral of absolute eigenstate change: 4e-08 eV^2
  Maximum change in atomic force: 1e-06 eV / Ang
  Maximum number of iterations: 333

Symmetries present (total): 1

  ( 1  0  0)
  ( 0  1  0)
  ( 0  0  1)

144 k-points: 6 x 6 x 4 Monkhorst-Pack grid
144 k-points in the irreducible part of the Brillouin zone
       k-points in crystal coordinates                weights
   0:    -0.41666667   -0.41666667   -0.37500000          1/144
   1:    -0.41666667   -0.41666667   -0.12500000          1/144
   2:    -0.41666667   -0.41666667    0.12500000          1/144
   3:    -0.41666667   -0.41666667    0.37500000          1/144
   4:    -0.41666667   -0.25000000   -0.37500000          1/144
   5:    -0.41666667   -0.25000000   -0.12500000          1/144
   6:    -0.41666667   -0.25000000    0.12500000          1/144
   7:    -0.41666667   -0.25000000    0.37500000          1/144
   8:    -0.41666667   -0.08333333   -0.37500000          1/144
   9:    -0.41666667   -0.08333333   -0.12500000          1/144
          ...
 143:     0.41666667    0.41666667    0.37500000          1/144

Wave functions: Plane wave expansion
  Cutoff energy: 600.000 eV
  Number of coefficients (min, max): 10068, 10125
  Pulay-stress correction: 0.000000 eV/Ang^3 (de/decut=0.000000)
  Using FFTW library
  ScaLapack parameters: grid=1x1, blocksize=None
  Wavefunction extrapolation:
    Improved wavefunction reuse through dual PAW basis 

  Fermi-Dirac: width=0.0010 eV

Eigensolver
   Davidson(niter=2, smin=None, normalize=True) 

Densities:
  Coarse grid: 60*35*27 grid
  Fine grid: 120*70*54 grid
  Total Charge: 0.000000 

Density mixing:
  Method: difference
  Backend: pulay
  Linear mixing parameter: 0.05
  Mixing with 5 old densities
  Damping of long wave oscillations: 50 

Hamiltonian:
  XC and Coulomb potentials evaluated on a 120*70*54 grid
  Using the LDA Exchange-Correlation functional
 

Memory estimate:
  Process memory now: 13010.84 MiB
  Calculator: 375.55 MiB
    Density: 20.02 MiB
      Arrays: 7.57 MiB
      Localized functions: 9.42 MiB
      Mixer: 3.03 MiB
    Hamiltonian: 5.90 MiB
      Arrays: 5.62 MiB
      XC: 0.00 MiB
      Poisson: 0.00 MiB
      vbar: 0.27 MiB
    Wavefunctions: 349.64 MiB
      Arrays psit_nG: 311.46 MiB
      Eigensolver: 19.99 MiB
      Projections: 5.41 MiB
      Projectors: 9.73 MiB
      PW-descriptor: 3.03 MiB

Total number of cores used: 32
Parallelization over k-points: 16
Domain decomposition: 2 x 1 x 1

Number of atoms: 28
Number of atomic orbitals: 148
Number of bands in calculation: 112
Number of valence electrons: 180
Bands to converge: occupied

... initialized

Initializing position-dependent things.

Density initialized from atomic densities
Creating initial wave functions:
  112 bands from LCAO basis set

     .-------------------------.  
    /|         OP              |  
   / |O            O        O  |  
  /  |       O            O  P |  
 *   |O    Mn      O           |  
 |   |          OLi          O |  
 |   P--O--------------Mn------.  
 |  /          Li    O  Mn  O /   
 | /LiO           PO         /    
 |/       Mn                /     
 *Li-----------------------*      

Positions:
   0 O     -1.330281   -2.539252   -1.168500    ( 0.0000,  0.0000,  0.0000)
   1 O     -3.152392    2.974909    1.200956    ( 0.0000,  0.0000,  0.0000)
   2 O      2.077234    0.510133    1.506966    ( 0.0000,  0.0000,  0.0000)
   3 O      3.899724   -0.074476   -0.862491    ( 0.0000,  0.0000,  0.0000)
   4 O      2.077424    2.974966    1.507072    ( 0.0000,  0.0000,  0.0000)
   5 O      3.899535   -2.539195   -0.862384    ( 0.0000,  0.0000,  0.0000)
   6 O     -1.330092   -0.064418   -1.168395    ( 0.0000,  0.0000,  0.0000)
   7 O     -3.152581    0.510191    1.201063    ( 0.0000,  0.0000,  0.0000)
   8 O     -4.389675   -1.306969   -0.813152    ( 0.0000,  0.0000,  0.0000)
   9 O     -0.093301    1.742683    1.556268    ( 0.0000,  0.0000,  0.0000)
  10 O      5.136817    1.742683    1.151723    ( 0.0000,  0.0000,  0.0000)
  11 O      0.840444   -1.306969   -1.217697    ( 0.0000,  0.0000,  0.0000)
  12 Mn    -2.557192   -1.307258    0.273595    ( 0.0000,  0.0000,  1.0000)
  13 Mn    -1.925535    1.742972   -2.096623    ( 0.0000,  0.0000, -1.0000)
  14 Mn     3.304335    1.742972    0.064976    ( 0.0000,  0.0000, -1.0000)
  15 Mn     2.672678   -1.307258    2.435195    ( 0.0000,  0.0000,  1.0000)
  16 P     -0.597175   -1.306854   -1.801474    ( 0.0000,  0.0000,  0.0000)
  17 P     -3.885565    1.742568    0.568028    ( 0.0000,  0.0000,  0.0000)
  18 P      1.344318    1.742568    2.140045    ( 0.0000,  0.0000,  0.0000)
  19 P      4.632708   -1.306854   -0.229456    ( 0.0000,  0.0000,  0.0000)
  20 O     -0.636957   -1.306861    1.403074    ( 0.0000,  0.0000,  0.0000)
  21 O     -3.845824    1.742575   -0.967462    ( 0.0000,  0.0000,  0.0000)
  22 O      1.384100    1.742576   -1.064503    ( 0.0000,  0.0000,  0.0000)
  23 O      4.592967   -1.306861    1.306033    ( 0.0000,  0.0000,  0.0000)
  24 Li    -4.856429   -2.832143   -2.200714    ( 0.0000,  0.0000,  0.0000)
  25 Li     0.373571   -2.832143    0.169286    ( 0.0000,  0.0000,  0.0000)
  26 Li    -4.856429    0.217857   -2.200714    ( 0.0000,  0.0000,  0.0000)
  27 Li     0.373571    0.217857    0.169286    ( 0.0000,  0.0000,  0.0000)

Unit cell:
           periodic     x           y           z      points  spacing
  1. axis:    yes   10.460000    0.000000    0.000000    60     0.1743
  2. axis:    yes    0.000000    6.100000    0.000000    35     0.1743
  3. axis:    yes    0.000000    0.000000    4.740000    27     0.1756

  Lengths:  10.460000   6.100000   4.740000
  Angles:   90.000000  90.000000  90.000000

Effective grid spacing dv^(1/3) = 0.1747

                     log10-error:           total        iterations:
           time      wfs    density  force  energy       poisson  magmom
iter:   1  10:23:17                       -220.685223             +0.0000
iter:   2  10:23:56  -0.64  -0.92         -235.491071             +0.0000
iter:   3  10:24:36  -0.40  -0.96         -226.166296             -0.0000
iter:   4  10:25:16  -1.41  -1.29         -225.887376             +0.0000
iter:   5  10:25:55  -1.19  -1.38         -227.588814             +0.0000
iter:   6  10:26:35  -1.39  -1.51         -225.827322             +0.0000
iter:   7  10:27:14  -2.57  -2.06         -225.898019             +0.0000
iter:   8  10:27:54  -2.23  -2.01         -225.639180             -0.0000
iter:   9  10:28:33  -2.68  -2.09         -225.545675             +0.0000
iter:  10  10:29:12  -3.56  -2.95         -225.545151             +0.0000
iter:  11  10:29:52  -3.95  -3.00         -225.546329             +0.0000
iter:  12  10:30:31  -4.29  -3.22         -225.546522             +0.0000
iter:  13  10:31:11  -5.39  -3.36         -225.546408             -0.0000
iter:  14  10:31:50  -5.18  -3.44         -225.546243             -0.0000
iter:  15  10:32:30  -5.39  -3.61         -225.546175             -0.0000
iter:  16  10:33:09  -6.28  -3.67         -225.546153             +0.0000
iter:  17  10:33:48  -6.22  -3.75         -225.546173             -0.0000
iter:  18  10:34:28  -6.78  -3.81         -225.546175             -0.0000
iter:  19  10:35:07  -5.82  -3.83         -225.546135             -0.0000
iter:  20  10:35:47  -6.84  -4.38         -225.546135             -0.0000
iter:  21  10:36:26  -6.72  -4.63         -225.546119             -0.0000
iter:  22  10:37:06  -7.02  -4.76         -225.546129             -0.0000
iter:  23  10:37:56  -7.53  -4.88         -225.546128             +0.0000
iter:  24  10:38:46  -8.61  -5.34    -3.76-225.546128             +0.0000
iter:  25  10:39:36  -9.10  -5.41    -2.98-225.546128             +0.0000
iter:  26  10:40:26  -9.16  -5.48    -3.43-225.546128             +0.0000
iter:  27  10:41:16 -10.02  -5.70    -4.16-225.546128             +0.0000
iter:  28  10:42:06  -9.54  -5.75    -3.42-225.546128             +0.0000
iter:  29  10:42:56  -9.56  -5.93    -3.38-225.546128             +0.0000
iter:  30  10:43:46  -9.34  -5.88    -3.87-225.546128             +0.0000
iter:  31  10:44:36 -10.69  -6.07    -4.10-225.546128             +0.0000
iter:  32  10:45:26 -11.08  -6.19    -4.64-225.546128             +0.0000
iter:  33  10:46:16 -10.10  -6.22    -3.70-225.546128             +0.0000
iter:  34  10:47:06 -10.99  -6.33    -4.36-225.546128             +0.0000
iter:  35  10:47:56 -11.09  -6.64    -4.47-225.546128             +0.0000
iter:  36  10:48:46 -11.55  -6.76    -4.41-225.546128             +0.0000
iter:  37  10:49:36 -11.17  -6.77    -4.30-225.546128             +0.0000
iter:  38  10:50:26 -12.66  -7.16    -5.27-225.546128             +0.0000
iter:  39  10:51:16 -12.21  -7.19    -5.11-225.546128             -0.0000
iter:  40  10:52:06 -12.37  -7.21    -4.70-225.546128             +0.0000
iter:  41  10:52:56 -13.39  -7.50    -5.50-225.546128             +0.0000
iter:  42  10:53:46 -13.55  -7.61    -5.22-225.546128             -0.0000
iter:  43  10:54:36 -14.07  -8.10    -6.21-225.546128             +0.0000

Converged after 43 iterations.

Dipole moment: (13.158146, 1.252156, -5.512728) |e|*Ang

Total magnetic moment: (0.000000, 0.000000, 0.000000)
Local magnetic moments:
   0 O  ( 0.000000,  0.000000,  0.001125)
   1 O  ( 0.000000,  0.000000, -0.000919)
   2 O  ( 0.000000,  0.000000, -0.001052)
   3 O  ( 0.000000,  0.000000,  0.001051)
   4 O  ( 0.000000,  0.000000, -0.001065)
   5 O  ( 0.000000,  0.000000,  0.001057)
   6 O  ( 0.000000,  0.000000,  0.000822)
   7 O  ( 0.000000,  0.000000, -0.001093)
   8 O  ( 0.000000,  0.000000,  0.019786)
   9 O  ( 0.000000,  0.000000, -0.019809)
  10 O  ( 0.000000,  0.000000, -0.019792)
  11 O  ( 0.000000,  0.000000,  0.019634)
  12 Mn ( 0.000000,  0.000000,  4.601573)
  13 Mn ( 0.000000,  0.000000, -4.600765)
  14 Mn ( 0.000000,  0.000000, -4.601529)
  15 Mn ( 0.000000,  0.000000,  4.601557)
  16 P  ( 0.000000,  0.000000,  0.001072)
  17 P  ( 0.000000,  0.000000, -0.001306)
  18 P  ( 0.000000,  0.000000, -0.001311)
  19 P  ( 0.000000,  0.000000,  0.001288)
  20 O  ( 0.000000,  0.000000,  0.017990)
  21 O  ( 0.000000,  0.000000, -0.018117)
  22 O  ( 0.000000,  0.000000, -0.018070)
  23 O  ( 0.000000,  0.000000,  0.018082)
  24 Li ( 0.000000,  0.000000, -0.000001)
  25 Li ( 0.000000,  0.000000, -0.000001)
  26 Li ( 0.000000,  0.000000, -0.000000)
  27 Li ( 0.000000,  0.000000, -0.000016)

Energy contributions relative to reference atoms: (reference = -196157.275402)

Kinetic:       +242.435463
Potential:     -215.046080
External:        +0.000000
XC:            -254.851758
Entropy (-ST):   -0.000000
Local:           +1.916246
--------------------------
Free energy:   -225.546128
Extrapolated:  -225.546128

Spin contamination: 9.747020 electrons
Showing only first 2 kpts
                      Up                     Down
 Kpt  Band  Eigenvalues  Occupancy  Eigenvalues  Occupancy
  0    88      3.91938    0.00694      3.92879    0.00694
  0    89      3.96794    0.00694      3.97873    0.00694
  0    90      8.67058    0.00000      8.66341    0.00000
  0    91      8.69575    0.00000      8.68404    0.00000

  1    88      3.91594    0.00694      3.92566    0.00694
  1    89      3.97174    0.00694      3.98245    0.00694
  1    90      8.51620    0.00000      8.50756    0.00000
  1    91      8.53809    0.00000      8.52609    0.00000


Fermi level: 5.31910

Gap: 3.770 eV
Transition (v -> c):
  (s=1, k=73, n=89, [0.08, -0.42, -0.12]) -> (s=1, k=82, n=90, [0.08, -0.08, 0.12])
Writing to born-0.01-6y+.gpw (mode='all')

Timing:                              incl.     excl.
-----------------------------------------------------------
Hamiltonian:                         0.421     0.002   0.0% |
 Atomic:                             0.057     0.057   0.0% |
  XC Correction:                     0.000     0.000   0.0% |
 Calculate atomic Hamiltonians:      0.186     0.186   0.0% |
 Communicate:                        0.002     0.002   0.0% |
 Initialize Hamiltonian:             0.000     0.000   0.0% |
 Poisson:                            0.002     0.002   0.0% |
 XC 3D grid:                         0.172     0.172   0.0% |
LCAO initialization:               135.451     0.677   0.0% |
 LCAO eigensolver:                  33.935     0.002   0.0% |
  Calculate projections:             0.056     0.056   0.0% |
  DenseAtomicCorrection:             0.082     0.082   0.0% |
  Distribute overlap matrix:         0.006     0.006   0.0% |
  Orbital Layouts:                   0.361     0.361   0.0% |
  Potential matrix:                 33.338    33.338   0.7% |
  Sum over cells:                    0.088     0.088   0.0% |
 LCAO to grid:                      98.534    98.534   2.0% ||
 Set positions (LCAO WFS):           2.304     0.345   0.0% |
  Basic WFS set positions:           0.001     0.001   0.0% |
  Basis functions set positions:     0.000     0.000   0.0% |
  P tci:                             1.052     1.052   0.0% |
  ST tci:                            0.660     0.660   0.0% |
  mktci:                             0.245     0.245   0.0% |
PWDescriptor:                        0.025     0.025   0.0% |
SCF-cycle:                        1924.610     5.251   0.1% |
 Davidson:                        1610.378   523.014  10.9% |---|
  Apply H:                         113.986   109.925   2.3% ||
   HMM T:                            4.061     4.061   0.1% |
  Subspace diag:                   239.069     0.139   0.0% |
   calc_h_matrix:                  155.560    42.728   0.9% |
    Apply H:                       112.832   109.019   2.3% ||
     HMM T:                          3.813     3.813   0.1% |
   diagonalize:                      5.298     5.298   0.1% |
   rotate_psi:                      78.072    78.072   1.6% ||
  calc. matrices:                  503.800   284.252   5.9% |-|
   Apply H:                        219.548   212.728   4.4% |-|
    HMM T:                           6.820     6.820   0.1% |
  diagonalize:                      71.881    71.881   1.5% ||
  rotate_psi:                      158.628   158.628   3.3% ||
 Density:                           63.352     0.001   0.0% |
  Atomic density matrices:           1.103     1.103   0.0% |
  Mix:                              10.339    10.339   0.2% |
  Multipole moments:                 0.025     0.025   0.0% |
  Pseudo density:                   51.884    51.883   1.1% |
   Symmetrize density:               0.001     0.001   0.0% |
 Forces:                           223.221   223.221   4.6% |-|
 Hamiltonian:                       17.993     0.100   0.0% |
  Atomic:                            2.546     2.546   0.1% |
   XC Correction:                    0.000     0.000   0.0% |
  Calculate atomic Hamiltonians:     7.733     7.733   0.2% |
  Communicate:                       0.059     0.059   0.0% |
  Poisson:                           0.070     0.070   0.0% |
  XC 3D grid:                        7.486     7.486   0.2% |
 Orthonormalize:                     4.415     0.004   0.0% |
  calc_s_matrix:                     0.524     0.524   0.0% |
  inverse-cholesky:                  0.055     0.055   0.0% |
  projections:                       2.899     2.899   0.1% |
  rotate_psi_s:                      0.934     0.934   0.0% |
Set symmetry:                        0.000     0.000   0.0% |
Other:                            2747.292  2747.292  57.1% |----------------------|
-----------------------------------------------------------
Total:                                      4807.799 100.0%

Memory usage: 12.72 GiB
Date: Mon Mar 22 11:40:21 2021
