
  ___ ___ ___ _ _ _  
 |   |   |_  | | | | 
 | | | | | . | | | | 
 |__ |  _|___|_____|  20.10.1b1
 |___|_|             

User:   madkru@g006.nifl.fysik.dtu.dk
Date:   Thu Mar 25 08:07:16 2021
Arch:   x86_64
Pid:    12017
Python: 3.7.4
gpaw:   /home/niflheim/madkru/venv_folder/gpaw/gpaw (d224efde0f)
_gpaw:  /home/niflheim/madkru/venv_folder/gpaw/build/lib.linux-x86_64-sandybridge-3.7/
        _gpaw.cpython-37m-x86_64-linux-gnu.so (4fd39e8b1e)
ase:    /home/niflheim/madkru/venv_folder/ase/ase (version 3.21.0b1-4d5a73cb29)
numpy:  /home/niflheim/madkru/venv_folder/lib/python3.7/site-packages/numpy (version 1.19.4)
scipy:  /home/niflheim/madkru/venv_folder/lib/python3.7/site-packages/scipy (version 1.5.4)
libxc:  4.3.4
units:  Angstrom and eV
cores: 64
OMP_NUM_THREADS: 1

Input parameters:
  convergence: {bands: occupied,
                density: 0.0001,
                eigenstates: 4e-08,
                energy: 0.0005,
                forces: 1e-06}
  kpts: [6 6 4]
  mode: {ecut: 600.0,
         gammacentered: False,
         name: pw}
  occupations: {fixmagmom: False,
                name: fermi-dirac,
                width: 0.001}
  setups: {Mn: :d,3.0}
  symmetry: {point_group: False,
             time_reversal: False}

System changes: positions, numbers, cell, pbc, initial_charges, initial_magmoms 

Initialize ...

O-setup:
  name: Oxygen
  id: 9b9d51c344dea68c822856295a461509
  Z: 8.0
  valence: 6
  core: 2
  charge: 0.0
  file: /home/modules/software/GPAW-setups/0.9.20000/O.LDA.gz
  compensation charges: gauss, rc=0.21, lmax=2
  cutoffs: 1.17(filt), 0.83(core),
  valence states:
                energy  radius
    2s(2.00)   -23.752   0.688
    2p(4.00)    -9.195   0.598
    *s           3.459   0.688
    *p          18.016   0.598
    *d           0.000   0.619

  Using partial waves for O as LCAO basis

Mn-setup:
  name: Manganese
  id: 0d715a8018be061a6e9ea6f2d364ac92
  Z: 25.0
  valence: 15
  core: 10
  charge: 0.0
  Hubbard U: 3.000000 eV (l=2, scale=True)
  file: /home/modules/software/GPAW-setups/0.9.20000/Mn.LDA.gz
  compensation charges: gauss, rc=0.38, lmax=2
  cutoffs: 2.14(filt), 0.86(core),
  valence states:
                energy  radius
    3s(2.00)   -85.387   1.275
    4s(2.00)    -5.282   1.275
    3p(6.00)   -54.493   1.281
    4p(0.00)    -1.471   1.281
    3d(5.00)    -7.009   1.138
    *d          20.203   1.138

  Using partial waves for Mn as LCAO basis

P-setup:
  name: Phosphorus
  id: a5561c299094968922a179ab894d2e2d
  Z: 15.0
  valence: 5
  core: 10
  charge: 0.0
  file: /home/modules/software/GPAW-setups/0.9.20000/P.LDA.gz
  compensation charges: gauss, rc=0.30, lmax=2
  cutoffs: 1.69(filt), 1.81(core),
  valence states:
                energy  radius
    3s(2.00)   -14.015   0.953
    3p(3.00)    -5.596   0.953
    *s          13.197   0.953
    *p          21.615   0.953
    *d           0.000   0.953

  Using partial waves for P as LCAO basis

Li-setup:
  name: Lithium
  id: b73562207f97a71b6967473b66fe8b65
  Z: 3.0
  valence: 1
  core: 2
  charge: 0.0
  file: /home/modules/software/GPAW-setups/0.9.20000/Li.LDA.gz
  compensation charges: gauss, rc=0.33, lmax=2
  cutoffs: 1.91(filt), 2.55(core),
  valence states:
                energy  radius
    2s(1.00)    -2.874   1.058
    2p(0.00)    -1.126   1.058
    *s          24.338   1.058

  Using partial waves for Li as LCAO basis

Reference energy: -196157.275402

Spin-polarized calculation.
Magnetic moment: 0.000000

Convergence criteria:
  Maximum total energy change: 0.0005 eV / electron
  Maximum integral of absolute density change: 0.0001 electrons
  Maximum integral of absolute eigenstate change: 4e-08 eV^2
  Maximum change in atomic force: 1e-06 eV / Ang
  Maximum number of iterations: 333

Symmetries present (total): 1

  ( 1  0  0)
  ( 0  1  0)
  ( 0  0  1)

144 k-points: 6 x 6 x 4 Monkhorst-Pack grid
144 k-points in the irreducible part of the Brillouin zone
       k-points in crystal coordinates                weights
   0:    -0.41666667   -0.41666667   -0.37500000          1/144
   1:    -0.41666667   -0.41666667   -0.12500000          1/144
   2:    -0.41666667   -0.41666667    0.12500000          1/144
   3:    -0.41666667   -0.41666667    0.37500000          1/144
   4:    -0.41666667   -0.25000000   -0.37500000          1/144
   5:    -0.41666667   -0.25000000   -0.12500000          1/144
   6:    -0.41666667   -0.25000000    0.12500000          1/144
   7:    -0.41666667   -0.25000000    0.37500000          1/144
   8:    -0.41666667   -0.08333333   -0.37500000          1/144
   9:    -0.41666667   -0.08333333   -0.12500000          1/144
          ...
 143:     0.41666667    0.41666667    0.37500000          1/144

Wave functions: Plane wave expansion
  Cutoff energy: 600.000 eV
  Number of coefficients (min, max): 10068, 10125
  Pulay-stress correction: 0.000000 eV/Ang^3 (de/decut=0.000000)
  Using FFTW library
  ScaLapack parameters: grid=1x1, blocksize=None
  Wavefunction extrapolation:
    Improved wavefunction reuse through dual PAW basis 

  Fermi-Dirac: width=0.0010 eV

Eigensolver
   Davidson(niter=2, smin=None, normalize=True) 

Densities:
  Coarse grid: 60*35*27 grid
  Fine grid: 120*70*54 grid
  Total Charge: 0.000000 

Density mixing:
  Method: difference
  Backend: pulay
  Linear mixing parameter: 0.05
  Mixing with 5 old densities
  Damping of long wave oscillations: 50 

Hamiltonian:
  XC and Coulomb potentials evaluated on a 120*70*54 grid
  Using the LDA Exchange-Correlation functional
 

Memory estimate:
  Process memory now: 13732.54 MiB
  Calculator: 354.82 MiB
    Density: 10.06 MiB
      Arrays: 3.79 MiB
      Localized functions: 4.71 MiB
      Mixer: 1.56 MiB
    Hamiltonian: 2.95 MiB
      Arrays: 2.82 MiB
      XC: 0.00 MiB
      Poisson: 0.00 MiB
      vbar: 0.14 MiB
    Wavefunctions: 341.80 MiB
      Arrays psit_nG: 311.46 MiB
      Eigensolver: 19.99 MiB
      Projections: 2.71 MiB
      Projectors: 4.87 MiB
      PW-descriptor: 2.77 MiB

Total number of cores used: 64
Parallelization over k-points: 16
Domain decomposition: 2 x 2 x 1

Number of atoms: 28
Number of atomic orbitals: 148
Number of bands in calculation: 112
Number of valence electrons: 180
Bands to converge: occupied

... initialized

Initializing position-dependent things.

Density initialized from atomic densities
Creating initial wave functions:
  112 bands from LCAO basis set

     .-------------------------.  
    /|         OP              |  
   / |O            O        O  |  
  /  |       O            O  P |  
 *   |O    Mn      O           |  
 |   |          OLi          O |  
 |   P--O--------------Mn------.  
 |  /          Li    O  Mn  O /   
 | /LiO           PO         /    
 |/       Mn                /     
 *Li-----------------------*      

Positions:
   0 O     -1.330281   -2.539252   -1.168500    ( 0.0000,  0.0000,  0.0000)
   1 O     -3.152392    2.974909    1.200956    ( 0.0000,  0.0000,  0.0000)
   2 O      2.077234    0.510133    1.506966    ( 0.0000,  0.0000,  0.0000)
   3 O      3.899724   -0.074476   -0.862491    ( 0.0000,  0.0000,  0.0000)
   4 O      2.077424    2.974966    1.507072    ( 0.0000,  0.0000,  0.0000)
   5 O      3.899535   -2.539195   -0.862384    ( 0.0000,  0.0000,  0.0000)
   6 O     -1.330092   -0.074418   -1.168395    ( 0.0000,  0.0000,  0.0000)
   7 O     -3.152581    0.510191    1.201063    ( 0.0000,  0.0000,  0.0000)
   8 O     -4.389675   -1.306969   -0.813152    ( 0.0000,  0.0000,  0.0000)
   9 O     -0.093301    1.742683    1.556268    ( 0.0000,  0.0000,  0.0000)
  10 O      5.136817    1.742683    1.151723    ( 0.0000,  0.0000,  0.0000)
  11 O      0.840444   -1.306969   -1.217697    ( 0.0000,  0.0000,  0.0000)
  12 Mn    -2.557192   -1.307258    0.273595    ( 0.0000,  0.0000,  1.0000)
  13 Mn    -1.925535    1.742972   -2.096623    ( 0.0000,  0.0000, -1.0000)
  14 Mn     3.304335    1.742972    0.064976    ( 0.0000,  0.0000, -1.0000)
  15 Mn     2.672678   -1.307258    2.435195    ( 0.0000,  0.0000,  1.0000)
  16 P     -0.597175   -1.306854   -1.801474    ( 0.0000,  0.0000,  0.0000)
  17 P     -3.885565    1.742568    0.568028    ( 0.0000,  0.0000,  0.0000)
  18 P      1.344318    1.742568    2.140045    ( 0.0000,  0.0000,  0.0000)
  19 P      4.632708   -1.306854   -0.229456    ( 0.0000,  0.0000,  0.0000)
  20 O     -0.636957   -1.306861    1.403074    ( 0.0000,  0.0000,  0.0000)
  21 O     -3.845824    1.742575   -0.967462    ( 0.0000,  0.0000,  0.0000)
  22 O      1.384100    1.742576   -1.064503    ( 0.0000,  0.0000,  0.0000)
  23 O      4.592967   -1.306861    1.306033    ( 0.0000,  0.0000,  0.0000)
  24 Li    -4.846429   -2.832143   -2.200714    ( 0.0000,  0.0000,  0.0000)
  25 Li     0.373571   -2.832143    0.169286    ( 0.0000,  0.0000,  0.0000)
  26 Li    -4.856429    0.217857   -2.200714    ( 0.0000,  0.0000,  0.0000)
  27 Li     0.373571    0.217857    0.169286    ( 0.0000,  0.0000,  0.0000)

Unit cell:
           periodic     x           y           z      points  spacing
  1. axis:    yes   10.460000    0.000000    0.000000    60     0.1743
  2. axis:    yes    0.000000    6.100000    0.000000    35     0.1743
  3. axis:    yes    0.000000    0.000000    4.740000    27     0.1756

  Lengths:  10.460000   6.100000   4.740000
  Angles:   90.000000  90.000000  90.000000

Effective grid spacing dv^(1/3) = 0.1747

                     log10-error:           total        iterations:
           time      wfs    density  force  energy       poisson  magmom
iter:   1  08:08:51                       -220.688563             +0.0000
iter:   2  08:09:13  -0.64  -0.92         -235.504019             +0.0000
iter:   3  08:09:34  -0.40  -0.96         -226.169009             -0.0000
iter:   4  08:09:56  -1.41  -1.29         -225.888436             +0.0000
iter:   5  08:10:17  -1.19  -1.38         -227.589341             +0.0000
iter:   6  08:10:38  -1.39  -1.51         -225.829293             +0.0000
iter:   7  08:11:00  -2.57  -2.06         -225.899319             +0.0000
iter:   8  08:11:21  -2.23  -2.01         -225.642104             -0.0000
iter:   9  08:11:43  -2.68  -2.09         -225.546922             +0.0000
iter:  10  08:12:04  -3.55  -2.95         -225.546155             +0.0000
iter:  11  08:12:26  -3.95  -3.00         -225.547710             +0.0000
iter:  12  08:12:47  -4.29  -3.22         -225.547887             +0.0000
iter:  13  08:13:08  -5.37  -3.36         -225.547778             -0.0000
iter:  14  08:13:30  -5.18  -3.44         -225.547630             -0.0000
iter:  15  08:13:51  -5.36  -3.60         -225.547545             -0.0000
iter:  16  08:14:13  -6.31  -3.68         -225.547530             +0.0000
iter:  17  08:14:34  -6.26  -3.75         -225.547548             -0.0000
iter:  18  08:14:55  -6.76  -3.81         -225.547549             -0.0000
iter:  19  08:15:17  -5.82  -3.83         -225.547514             -0.0000
iter:  20  08:15:38  -7.01  -4.42         -225.547510             -0.0000
iter:  21  08:16:05  -7.81  -4.70         -225.547508             -0.0000
iter:  22  08:16:26  -7.22  -4.80         -225.547506             -0.0000
iter:  23  08:16:53  -7.89  -4.77    -3.04-225.547506             -0.0000
iter:  24  08:17:20  -8.51  -4.94    -3.08-225.547506             -0.0000
iter:  25  08:17:47  -7.45  -4.96    -2.57-225.547506             -0.0000
iter:  26  08:18:14  -8.08  -4.96    -2.84-225.547506             -0.0000
iter:  27  08:18:40  -7.87  -5.07    -3.22-225.547506             -0.0000
iter:  28  08:19:07  -8.00  -5.04    -2.86-225.547506             -0.0000
iter:  29  08:19:34  -8.13  -5.22    -2.89-225.547506             -0.0000
iter:  30  08:20:01  -9.60  -5.55    -3.72-225.547506             -0.0000
iter:  31  08:20:28  -9.13  -5.61    -3.70-225.547506             -0.0000
iter:  32  08:20:54  -9.63  -5.73    -3.75-225.547506             -0.0000
iter:  33  08:21:21  -8.85  -5.78    -3.31-225.547506             -0.0000
iter:  34  08:21:48  -9.73  -5.72    -3.74-225.547506             -0.0000
iter:  35  08:22:15  -9.94  -5.94    -3.77-225.547506             -0.0000
iter:  36  08:22:42 -10.42  -6.05    -4.54-225.547506             -0.0000
iter:  37  08:23:08 -10.30  -6.13    -3.94-225.547506             +0.0000
iter:  38  08:23:35 -10.29  -6.29    -4.15-225.547506             -0.0000
iter:  39  08:24:02 -11.11  -6.84    -4.91-225.547506             -0.0000
iter:  40  08:24:29 -11.92  -6.91    -5.15-225.547506             -0.0000
iter:  41  08:24:56 -11.40  -7.07    -4.79-225.547506             -0.0000
iter:  42  08:25:22 -12.15  -7.00    -4.78-225.547506             -0.0000
iter:  43  08:25:49 -12.45  -7.27    -5.23-225.547506             -0.0000
iter:  44  08:26:16 -12.56  -7.26    -4.95-225.547506             -0.0000
iter:  45  08:26:43 -13.57  -7.43    -5.59-225.547506             -0.0000
iter:  46  08:27:10 -13.24  -7.52    -5.71-225.547506             -0.0000
iter:  47  08:27:36 -13.57  -7.61    -5.58-225.547506             -0.0000
iter:  48  08:28:03 -13.82  -7.72    -5.85-225.547506             -0.0000
iter:  49  08:28:30 -14.07  -7.88    -5.89-225.547506             -0.0000
iter:  50  08:28:57 -13.82  -7.96    -6.09-225.547506             -0.0000

Converged after 50 iterations.

Dipole moment: (13.163418, 1.714914, -5.512517) |e|*Ang

Total magnetic moment: (0.000000, 0.000000, -0.000000)
Local magnetic moments:
   0 O  ( 0.000000,  0.000000,  0.001065)
   1 O  ( 0.000000,  0.000000, -0.001066)
   2 O  ( 0.000000,  0.000000, -0.001058)
   3 O  ( 0.000000,  0.000000,  0.001043)
   4 O  ( 0.000000,  0.000000, -0.001067)
   5 O  ( 0.000000,  0.000000,  0.001040)
   6 O  ( 0.000000,  0.000000,  0.001057)
   7 O  ( 0.000000,  0.000000, -0.001046)
   8 O  ( 0.000000,  0.000000,  0.019806)
   9 O  ( 0.000000,  0.000000, -0.019798)
  10 O  ( 0.000000,  0.000000, -0.019752)
  11 O  ( 0.000000,  0.000000,  0.019754)
  12 Mn ( 0.000000,  0.000000,  4.601487)
  13 Mn ( 0.000000,  0.000000, -4.601557)
  14 Mn ( 0.000000,  0.000000, -4.601562)
  15 Mn ( 0.000000,  0.000000,  4.601626)
  16 P  ( 0.000000,  0.000000,  0.001303)
  17 P  ( 0.000000,  0.000000, -0.001299)
  18 P  ( 0.000000,  0.000000, -0.001296)
  19 P  ( 0.000000,  0.000000,  0.001287)
  20 O  ( 0.000000,  0.000000,  0.018076)
  21 O  ( 0.000000,  0.000000, -0.018076)
  22 O  ( 0.000000,  0.000000, -0.018068)
  23 O  ( 0.000000,  0.000000,  0.018060)
  24 Li ( 0.000000,  0.000000,  0.000013)
  25 Li ( 0.000000,  0.000000,  0.000000)
  26 Li ( 0.000000,  0.000000, -0.000000)
  27 Li ( 0.000000,  0.000000,  0.000000)

Energy contributions relative to reference atoms: (reference = -196157.275402)

Kinetic:       +242.942618
Potential:     -215.439016
External:        +0.000000
XC:            -254.966404
Entropy (-ST):   -0.000000
Local:           +1.915296
--------------------------
Free energy:   -225.547506
Extrapolated:  -225.547506

Spin contamination: 9.747498 electrons
Showing only first 2 kpts
                      Up                     Down
 Kpt  Band  Eigenvalues  Occupancy  Eigenvalues  Occupancy
  0    88      3.92269    0.00694      3.92260    0.00694
  0    89      3.97173    0.00694      3.97198    0.00694
  0    90      8.66876    0.00000      8.66487    0.00000
  0    91      8.68505    0.00000      8.68950    0.00000

  1    88      3.91922    0.00694      3.91906    0.00694
  1    89      3.97552    0.00694      3.97579    0.00694
  1    90      8.51416    0.00000      8.51026    0.00000
  1    91      8.52906    0.00000      8.53185    0.00000


Fermi level: 5.31846

Gap: 3.778 eV
Transition (v -> c):
  (s=1, k=69, n=89, [-0.08, 0.42, -0.12]) -> (s=1, k=61, n=90, [-0.08, 0.08, -0.12])
Writing to born-0.01-24x+.gpw (mode='all')

Timing:                              incl.     excl.
-----------------------------------------------------------
Hamiltonian:                         0.249     0.002   0.0% |
 Atomic:                             0.057     0.057   0.0% |
  XC Correction:                     0.000     0.000   0.0% |
 Calculate atomic Hamiltonians:      0.094     0.094   0.0% |
 Communicate:                        0.001     0.001   0.0% |
 Initialize Hamiltonian:             0.000     0.000   0.0% |
 Poisson:                            0.001     0.001   0.0% |
 XC 3D grid:                         0.093     0.093   0.0% |
LCAO initialization:                69.284     0.679   0.0% |
 LCAO eigensolver:                  17.753     0.002   0.0% |
  Calculate projections:             0.029     0.029   0.0% |
  DenseAtomicCorrection:             0.042     0.042   0.0% |
  Distribute overlap matrix:         0.104     0.104   0.0% |
  Orbital Layouts:                   0.475     0.475   0.0% |
  Potential matrix:                 17.000    17.000   0.5% |
  Sum over cells:                    0.101     0.101   0.0% |
 LCAO to grid:                      49.559    49.559   1.5% ||
 Set positions (LCAO WFS):           1.293     0.194   0.0% |
  Basic WFS set positions:           0.001     0.001   0.0% |
  Basis functions set positions:     0.000     0.000   0.0% |
  P tci:                             0.528     0.528   0.0% |
  ST tci:                            0.362     0.362   0.0% |
  mktci:                             0.208     0.208   0.0% |
PWDescriptor:                        0.025     0.025   0.0% |
SCF-cycle:                        1229.449     1.613   0.1% |
 Davidson:                        1017.637   317.394   9.8% |---|
  Apply H:                          68.893    66.847   2.1% ||
   HMM T:                            2.047     2.047   0.1% |
  Subspace diag:                   147.146     0.150   0.0% |
   calc_h_matrix:                   93.740    24.939   0.8% |
    Apply H:                        68.801    66.866   2.1% ||
     HMM T:                          1.935     1.935   0.1% |
   diagonalize:                      7.237     7.237   0.2% |
   rotate_psi:                      46.018    46.018   1.4% ||
  calc. matrices:                  301.421   168.087   5.2% |-|
   Apply H:                        133.334   129.543   4.0% |-|
    HMM T:                           3.790     3.790   0.1% |
  diagonalize:                      83.298    83.298   2.6% ||
  rotate_psi:                       99.485    99.485   3.1% ||
 Density:                           40.094     0.001   0.0% |
  Atomic density matrices:           0.862     0.862   0.0% |
  Mix:                               6.369     6.369   0.2% |
  Multipole moments:                 0.019     0.019   0.0% |
  Pseudo density:                   32.843    32.842   1.0% |
   Symmetrize density:               0.001     0.001   0.0% |
 Forces:                           155.517   155.517   4.8% |-|
 Hamiltonian:                       12.301     0.108   0.0% |
  Atomic:                            2.842     2.841   0.1% |
   XC Correction:                    0.000     0.000   0.0% |
  Calculate atomic Hamiltonians:     4.679     4.679   0.1% |
  Communicate:                       0.054     0.054   0.0% |
  Poisson:                           0.040     0.040   0.0% |
  XC 3D grid:                        4.579     4.579   0.1% |
 Orthonormalize:                     2.287     0.003   0.0% |
  calc_s_matrix:                     0.264     0.264   0.0% |
  inverse-cholesky:                  0.077     0.077   0.0% |
  projections:                       1.470     1.470   0.0% |
  rotate_psi_s:                      0.473     0.473   0.0% |
Set symmetry:                        0.000     0.000   0.0% |
Other:                            1924.215  1924.215  59.7% |-----------------------|
-----------------------------------------------------------
Total:                                      3223.222 100.0%

Memory usage: 13.45 GiB
Date: Thu Mar 25 09:01:00 2021
