
  ___ ___ ___ _ _ _  
 |   |   |_  | | | | 
 | | | | | . | | | | 
 |__ |  _|___|_____|  20.10.1b1
 |___|_|             

User:   madkru@g006.nifl.fysik.dtu.dk
Date:   Thu Mar 25 03:09:10 2021
Arch:   x86_64
Pid:    12017
Python: 3.7.4
gpaw:   /home/niflheim/madkru/venv_folder/gpaw/gpaw (d224efde0f)
_gpaw:  /home/niflheim/madkru/venv_folder/gpaw/build/lib.linux-x86_64-sandybridge-3.7/
        _gpaw.cpython-37m-x86_64-linux-gnu.so (4fd39e8b1e)
ase:    /home/niflheim/madkru/venv_folder/ase/ase (version 3.21.0b1-4d5a73cb29)
numpy:  /home/niflheim/madkru/venv_folder/lib/python3.7/site-packages/numpy (version 1.19.4)
scipy:  /home/niflheim/madkru/venv_folder/lib/python3.7/site-packages/scipy (version 1.5.4)
libxc:  4.3.4
units:  Angstrom and eV
cores: 64
OMP_NUM_THREADS: 1

Input parameters:
  convergence: {bands: occupied,
                density: 0.0001,
                eigenstates: 4e-08,
                energy: 0.0005,
                forces: 1e-06}
  kpts: [6 6 4]
  mode: {ecut: 600.0,
         gammacentered: False,
         name: pw}
  occupations: {fixmagmom: False,
                name: fermi-dirac,
                width: 0.001}
  setups: {Mn: :d,3.0}
  symmetry: {point_group: False,
             time_reversal: False}

System changes: positions, numbers, cell, pbc, initial_charges, initial_magmoms 

Initialize ...

O-setup:
  name: Oxygen
  id: 9b9d51c344dea68c822856295a461509
  Z: 8.0
  valence: 6
  core: 2
  charge: 0.0
  file: /home/modules/software/GPAW-setups/0.9.20000/O.LDA.gz
  compensation charges: gauss, rc=0.21, lmax=2
  cutoffs: 1.17(filt), 0.83(core),
  valence states:
                energy  radius
    2s(2.00)   -23.752   0.688
    2p(4.00)    -9.195   0.598
    *s           3.459   0.688
    *p          18.016   0.598
    *d           0.000   0.619

  Using partial waves for O as LCAO basis

Mn-setup:
  name: Manganese
  id: 0d715a8018be061a6e9ea6f2d364ac92
  Z: 25.0
  valence: 15
  core: 10
  charge: 0.0
  Hubbard U: 3.000000 eV (l=2, scale=True)
  file: /home/modules/software/GPAW-setups/0.9.20000/Mn.LDA.gz
  compensation charges: gauss, rc=0.38, lmax=2
  cutoffs: 2.14(filt), 0.86(core),
  valence states:
                energy  radius
    3s(2.00)   -85.387   1.275
    4s(2.00)    -5.282   1.275
    3p(6.00)   -54.493   1.281
    4p(0.00)    -1.471   1.281
    3d(5.00)    -7.009   1.138
    *d          20.203   1.138

  Using partial waves for Mn as LCAO basis

P-setup:
  name: Phosphorus
  id: a5561c299094968922a179ab894d2e2d
  Z: 15.0
  valence: 5
  core: 10
  charge: 0.0
  file: /home/modules/software/GPAW-setups/0.9.20000/P.LDA.gz
  compensation charges: gauss, rc=0.30, lmax=2
  cutoffs: 1.69(filt), 1.81(core),
  valence states:
                energy  radius
    3s(2.00)   -14.015   0.953
    3p(3.00)    -5.596   0.953
    *s          13.197   0.953
    *p          21.615   0.953
    *d           0.000   0.953

  Using partial waves for P as LCAO basis

Li-setup:
  name: Lithium
  id: b73562207f97a71b6967473b66fe8b65
  Z: 3.0
  valence: 1
  core: 2
  charge: 0.0
  file: /home/modules/software/GPAW-setups/0.9.20000/Li.LDA.gz
  compensation charges: gauss, rc=0.33, lmax=2
  cutoffs: 1.91(filt), 2.55(core),
  valence states:
                energy  radius
    2s(1.00)    -2.874   1.058
    2p(0.00)    -1.126   1.058
    *s          24.338   1.058

  Using partial waves for Li as LCAO basis

Reference energy: -196157.275402

Spin-polarized calculation.
Magnetic moment: 0.000000

Convergence criteria:
  Maximum total energy change: 0.0005 eV / electron
  Maximum integral of absolute density change: 0.0001 electrons
  Maximum integral of absolute eigenstate change: 4e-08 eV^2
  Maximum change in atomic force: 1e-06 eV / Ang
  Maximum number of iterations: 333

Symmetries present (total): 1

  ( 1  0  0)
  ( 0  1  0)
  ( 0  0  1)

144 k-points: 6 x 6 x 4 Monkhorst-Pack grid
144 k-points in the irreducible part of the Brillouin zone
       k-points in crystal coordinates                weights
   0:    -0.41666667   -0.41666667   -0.37500000          1/144
   1:    -0.41666667   -0.41666667   -0.12500000          1/144
   2:    -0.41666667   -0.41666667    0.12500000          1/144
   3:    -0.41666667   -0.41666667    0.37500000          1/144
   4:    -0.41666667   -0.25000000   -0.37500000          1/144
   5:    -0.41666667   -0.25000000   -0.12500000          1/144
   6:    -0.41666667   -0.25000000    0.12500000          1/144
   7:    -0.41666667   -0.25000000    0.37500000          1/144
   8:    -0.41666667   -0.08333333   -0.37500000          1/144
   9:    -0.41666667   -0.08333333   -0.12500000          1/144
          ...
 143:     0.41666667    0.41666667    0.37500000          1/144

Wave functions: Plane wave expansion
  Cutoff energy: 600.000 eV
  Number of coefficients (min, max): 10068, 10125
  Pulay-stress correction: 0.000000 eV/Ang^3 (de/decut=0.000000)
  Using FFTW library
  ScaLapack parameters: grid=1x1, blocksize=None
  Wavefunction extrapolation:
    Improved wavefunction reuse through dual PAW basis 

  Fermi-Dirac: width=0.0010 eV

Eigensolver
   Davidson(niter=2, smin=None, normalize=True) 

Densities:
  Coarse grid: 60*35*27 grid
  Fine grid: 120*70*54 grid
  Total Charge: 0.000000 

Density mixing:
  Method: difference
  Backend: pulay
  Linear mixing parameter: 0.05
  Mixing with 5 old densities
  Damping of long wave oscillations: 50 

Hamiltonian:
  XC and Coulomb potentials evaluated on a 120*70*54 grid
  Using the LDA Exchange-Correlation functional
 

Memory estimate:
  Process memory now: 13519.45 MiB
  Calculator: 354.82 MiB
    Density: 10.06 MiB
      Arrays: 3.79 MiB
      Localized functions: 4.71 MiB
      Mixer: 1.56 MiB
    Hamiltonian: 2.95 MiB
      Arrays: 2.82 MiB
      XC: 0.00 MiB
      Poisson: 0.00 MiB
      vbar: 0.14 MiB
    Wavefunctions: 341.80 MiB
      Arrays psit_nG: 311.46 MiB
      Eigensolver: 19.99 MiB
      Projections: 2.71 MiB
      Projectors: 4.87 MiB
      PW-descriptor: 2.77 MiB

Total number of cores used: 64
Parallelization over k-points: 16
Domain decomposition: 2 x 2 x 1

Number of atoms: 28
Number of atomic orbitals: 148
Number of bands in calculation: 112
Number of valence electrons: 180
Bands to converge: occupied

... initialized

Initializing position-dependent things.

Density initialized from atomic densities
Creating initial wave functions:
  112 bands from LCAO basis set

     .-------------------------.  
    /|         OP              |  
   / |O            O        O  |  
  /  |       O            O  P |  
 *   |O    Mn      O           |  
 |   |          OLi          O |  
 |   P--O--------------Mn------.  
 |  /          Li    O  Mn  O /   
 | /LiO           PO         /    
 |/       Mn                /     
 *Li-----------------------*      

Positions:
   0 O     -1.330281   -2.539252   -1.168500    ( 0.0000,  0.0000,  0.0000)
   1 O     -3.152392    2.974909    1.200956    ( 0.0000,  0.0000,  0.0000)
   2 O      2.077234    0.510133    1.506966    ( 0.0000,  0.0000,  0.0000)
   3 O      3.899724   -0.074476   -0.862491    ( 0.0000,  0.0000,  0.0000)
   4 O      2.077424    2.974966    1.507072    ( 0.0000,  0.0000,  0.0000)
   5 O      3.899535   -2.539195   -0.862384    ( 0.0000,  0.0000,  0.0000)
   6 O     -1.330092   -0.074418   -1.168395    ( 0.0000,  0.0000,  0.0000)
   7 O     -3.152581    0.510191    1.201063    ( 0.0000,  0.0000,  0.0000)
   8 O     -4.389675   -1.306969   -0.813152    ( 0.0000,  0.0000,  0.0000)
   9 O     -0.093301    1.742683    1.556268    ( 0.0000,  0.0000,  0.0000)
  10 O      5.136817    1.742683    1.151723    ( 0.0000,  0.0000,  0.0000)
  11 O      0.840444   -1.306969   -1.217697    ( 0.0000,  0.0000,  0.0000)
  12 Mn    -2.557192   -1.307258    0.273595    ( 0.0000,  0.0000,  1.0000)
  13 Mn    -1.925535    1.742972   -2.096623    ( 0.0000,  0.0000, -1.0000)
  14 Mn     3.304335    1.742972    0.064976    ( 0.0000,  0.0000, -1.0000)
  15 Mn     2.672678   -1.307258    2.435195    ( 0.0000,  0.0000,  1.0000)
  16 P     -0.597175   -1.306854   -1.801474    ( 0.0000,  0.0000,  0.0000)
  17 P     -3.885565    1.742568    0.568028    ( 0.0000,  0.0000,  0.0000)
  18 P      1.344318    1.742568    2.140045    ( 0.0000,  0.0000,  0.0000)
  19 P      4.632708   -1.306854   -0.229456    ( 0.0000,  0.0000,  0.0000)
  20 O     -0.636957   -1.306861    1.403074    ( 0.0000,  0.0000,  0.0000)
  21 O     -3.845824    1.742575   -0.967462    ( 0.0000,  0.0000,  0.0000)
  22 O      1.384100    1.752576   -1.064503    ( 0.0000,  0.0000,  0.0000)
  23 O      4.592967   -1.306861    1.306033    ( 0.0000,  0.0000,  0.0000)
  24 Li    -4.856429   -2.832143   -2.200714    ( 0.0000,  0.0000,  0.0000)
  25 Li     0.373571   -2.832143    0.169286    ( 0.0000,  0.0000,  0.0000)
  26 Li    -4.856429    0.217857   -2.200714    ( 0.0000,  0.0000,  0.0000)
  27 Li     0.373571    0.217857    0.169286    ( 0.0000,  0.0000,  0.0000)

Unit cell:
           periodic     x           y           z      points  spacing
  1. axis:    yes   10.460000    0.000000    0.000000    60     0.1743
  2. axis:    yes    0.000000    6.100000    0.000000    35     0.1743
  3. axis:    yes    0.000000    0.000000    4.740000    27     0.1756

  Lengths:  10.460000   6.100000   4.740000
  Angles:   90.000000  90.000000  90.000000

Effective grid spacing dv^(1/3) = 0.1747

                     log10-error:           total        iterations:
           time      wfs    density  force  energy       poisson  magmom
iter:   1  03:10:42                       -220.688419             +0.0000
iter:   2  03:11:04  -0.64  -0.92         -235.503865             +0.0000
iter:   3  03:11:25  -0.40  -0.96         -226.168804             -0.0000
iter:   4  03:11:47  -1.41  -1.29         -225.888222             +0.0000
iter:   5  03:12:08  -1.19  -1.38         -227.589070             +0.0000
iter:   6  03:12:29  -1.39  -1.51         -225.829078             +0.0000
iter:   7  03:12:51  -2.57  -2.06         -225.899064             +0.0000
iter:   8  03:13:12  -2.23  -2.01         -225.641990             -0.0000
iter:   9  03:13:34  -2.68  -2.09         -225.546698             +0.0000
iter:  10  03:13:55  -3.55  -2.95         -225.545918             +0.0000
iter:  11  03:14:17  -3.95  -3.00         -225.547490             +0.0000
iter:  12  03:14:38  -4.29  -3.22         -225.547667             +0.0000
iter:  13  03:15:00  -5.37  -3.36         -225.547558             -0.0000
iter:  14  03:15:21  -5.18  -3.44         -225.547410             -0.0000
iter:  15  03:15:43  -5.36  -3.60         -225.547324             -0.0000
iter:  16  03:16:04  -6.31  -3.68         -225.547309             +0.0000
iter:  17  03:16:25  -6.27  -3.76         -225.547328             -0.0000
iter:  18  03:16:47  -6.76  -3.81         -225.547329             -0.0000
iter:  19  03:17:08  -5.82  -3.83         -225.547293             -0.0000
iter:  20  03:17:30  -7.02  -4.42         -225.547290             -0.0000
iter:  21  03:17:56  -7.84  -4.68         -225.547288             -0.0000
iter:  22  03:18:18  -7.20  -4.78         -225.547286             +0.0000
iter:  23  03:18:45  -7.86  -4.77    -3.01-225.547285             -0.0000
iter:  24  03:19:12  -8.56  -4.92    -3.02-225.547286             +0.0000
iter:  25  03:19:38  -7.40  -4.94    -2.54-225.547286             +0.0000
iter:  26  03:20:05  -8.01  -4.93    -2.80-225.547285             +0.0000
iter:  27  03:20:32  -7.82  -5.05    -3.17-225.547286             +0.0000
iter:  28  03:20:59  -8.04  -5.01    -2.84-225.547285             +0.0000
iter:  29  03:21:26  -8.15  -5.22    -2.89-225.547286             +0.0000
iter:  30  03:21:52  -9.57  -5.58    -3.70-225.547286             +0.0000
iter:  31  03:22:19  -9.30  -5.65    -3.77-225.547285             +0.0000
iter:  32  03:22:46  -9.68  -5.76    -3.67-225.547285             +0.0000
iter:  33  03:23:13  -8.74  -5.80    -3.23-225.547285             +0.0000
iter:  34  03:23:40  -9.72  -5.77    -3.69-225.547285             +0.0000
iter:  35  03:24:06  -9.98  -6.10    -3.78-225.547285             +0.0000
iter:  36  03:24:33 -10.16  -6.18    -4.19-225.547285             +0.0000
iter:  37  03:25:00 -10.42  -6.40    -4.17-225.547285             +0.0000
iter:  38  03:25:27 -10.04  -6.31    -4.01-225.547285             +0.0000
iter:  39  03:25:53 -11.49  -7.11    -5.46-225.547285             +0.0000
iter:  40  03:26:20 -12.57  -7.15    -5.45-225.547285             +0.0000
iter:  41  03:26:47 -12.32  -7.18    -5.22-225.547285             +0.0000
iter:  42  03:27:14 -12.13  -7.27    -4.93-225.547285             +0.0000
iter:  43  03:27:41 -13.15  -7.34    -5.46-225.547285             +0.0000
iter:  44  03:28:07 -13.47  -7.42    -5.99-225.547285             +0.0000
iter:  45  03:28:34 -13.42  -7.47    -5.19-225.547285             +0.0000
iter:  46  03:29:01 -12.43  -7.50    -5.20-225.547285             +0.0000
iter:  47  03:29:28 -13.66  -7.76    -5.78-225.547285             +0.0000
iter:  48  03:29:54 -13.68  -7.84    -6.02-225.547285             +0.0000

Converged after 48 iterations.

Dipole moment: (13.160121, 1.710399, -5.512660) |e|*Ang

Total magnetic moment: (0.000000, 0.000000, 0.000000)
Local magnetic moments:
   0 O  ( 0.000000,  0.000000,  0.001070)
   1 O  ( 0.000000,  0.000000, -0.001053)
   2 O  ( 0.000000,  0.000000, -0.001028)
   3 O  ( 0.000000,  0.000000,  0.001062)
   4 O  ( 0.000000,  0.000000, -0.001096)
   5 O  ( 0.000000,  0.000000,  0.001035)
   6 O  ( 0.000000,  0.000000,  0.001053)
   7 O  ( 0.000000,  0.000000, -0.001045)
   8 O  ( 0.000000,  0.000000,  0.019779)
   9 O  ( 0.000000,  0.000000, -0.019776)
  10 O  ( 0.000000,  0.000000, -0.019779)
  11 O  ( 0.000000,  0.000000,  0.019776)
  12 Mn ( 0.000000,  0.000000,  4.601525)
  13 Mn ( 0.000000,  0.000000, -4.601591)
  14 Mn ( 0.000000,  0.000000, -4.601523)
  15 Mn ( 0.000000,  0.000000,  4.601592)
  16 P  ( 0.000000,  0.000000,  0.001300)
  17 P  ( 0.000000,  0.000000, -0.001293)
  18 P  ( 0.000000,  0.000000, -0.001299)
  19 P  ( 0.000000,  0.000000,  0.001293)
  20 O  ( 0.000000,  0.000000,  0.018072)
  21 O  ( 0.000000,  0.000000, -0.018068)
  22 O  ( 0.000000,  0.000000, -0.018073)
  23 O  ( 0.000000,  0.000000,  0.018068)
  24 Li ( 0.000000,  0.000000,  0.000000)
  25 Li ( 0.000000,  0.000000, -0.000003)
  26 Li ( 0.000000,  0.000000, -0.000000)
  27 Li ( 0.000000,  0.000000,  0.000004)

Energy contributions relative to reference atoms: (reference = -196157.275402)

Kinetic:       +242.940018
Potential:     -215.436862
External:        +0.000000
XC:            -254.965756
Entropy (-ST):   -0.000000
Local:           +1.915315
--------------------------
Free energy:   -225.547285
Extrapolated:  -225.547285

Spin contamination: 9.747498 electrons
Showing only first 2 kpts
                      Up                     Down
 Kpt  Band  Eigenvalues  Occupancy  Eigenvalues  Occupancy
  0    88      3.92293    0.00694      3.92299    0.00694
  0    89      3.97158    0.00694      3.97173    0.00694
  0    90      8.66739    0.00000      8.66739    0.00000
  0    91      8.68679    0.00000      8.68682    0.00000

  1    88      3.91940    0.00694      3.91945    0.00694
  1    89      3.97543    0.00694      3.97568    0.00694
  1    90      8.51306    0.00000      8.51302    0.00000
  1    91      8.52960    0.00000      8.52965    0.00000


Fermi level: 5.31838

Gap: 3.778 eV
Transition (v -> c):
  (s=1, k=94, n=89, [0.08, 0.42, 0.12]) -> (s=1, k=85, n=90, [0.08, 0.08, -0.12])
Writing to born-0.01-22y+.gpw (mode='all')

Timing:                              incl.     excl.
-----------------------------------------------------------
Hamiltonian:                         0.248     0.002   0.0% |
 Atomic:                             0.057     0.057   0.0% |
  XC Correction:                     0.000     0.000   0.0% |
 Calculate atomic Hamiltonians:      0.093     0.093   0.0% |
 Communicate:                        0.002     0.002   0.0% |
 Initialize Hamiltonian:             0.000     0.000   0.0% |
 Poisson:                            0.001     0.001   0.0% |
 XC 3D grid:                         0.093     0.093   0.0% |
LCAO initialization:                68.575     0.679   0.0% |
 LCAO eigensolver:                  17.748     0.002   0.0% |
  Calculate projections:             0.029     0.029   0.0% |
  DenseAtomicCorrection:             0.042     0.042   0.0% |
  Distribute overlap matrix:         0.009     0.009   0.0% |
  Orbital Layouts:                   0.472     0.472   0.0% |
  Potential matrix:                 17.094    17.094   0.6% |
  Sum over cells:                    0.100     0.100   0.0% |
 LCAO to grid:                      48.878    48.878   1.6% ||
 Set positions (LCAO WFS):           1.270     0.178   0.0% |
  Basic WFS set positions:           0.001     0.001   0.0% |
  Basis functions set positions:     0.000     0.000   0.0% |
  P tci:                             0.518     0.518   0.0% |
  ST tci:                            0.360     0.360   0.0% |
  mktci:                             0.212     0.212   0.0% |
PWDescriptor:                        0.026     0.026   0.0% |
SCF-cycle:                        1174.938     0.335   0.0% |
 Davidson:                         976.987   304.774   9.8% |---|
  Apply H:                          66.192    64.250   2.1% ||
   HMM T:                            1.942     1.942   0.1% |
  Subspace diag:                   141.305     0.144   0.0% |
   calc_h_matrix:                   90.094    23.927   0.8% |
    Apply H:                        66.168    64.239   2.1% ||
     HMM T:                          1.928     1.928   0.1% |
   diagonalize:                      6.970     6.970   0.2% |
   rotate_psi:                      44.097    44.097   1.4% ||
  calc. matrices:                  289.270   161.234   5.2% |-|
   Apply H:                        128.037   124.487   4.0% |-|
    HMM T:                           3.550     3.550   0.1% |
  diagonalize:                      80.036    80.036   2.6% ||
  rotate_psi:                       95.409    95.409   3.1% ||
 Density:                           38.612     0.001   0.0% |
  Atomic density matrices:           0.876     0.876   0.0% |
  Mix:                               6.073     6.073   0.2% |
  Multipole moments:                 0.018     0.018   0.0% |
  Pseudo density:                   31.643    31.642   1.0% |
   Symmetrize density:               0.001     0.001   0.0% |
 Forces:                           144.867   144.867   4.7% |-|
 Hamiltonian:                       11.846     0.104   0.0% |
  Atomic:                            2.763     2.762   0.1% |
   XC Correction:                    0.000     0.000   0.0% |
  Calculate atomic Hamiltonians:     4.467     4.467   0.1% |
  Communicate:                       0.084     0.084   0.0% |
  Poisson:                           0.037     0.037   0.0% |
  XC 3D grid:                        4.392     4.392   0.1% |
 Orthonormalize:                     2.292     0.003   0.0% |
  calc_s_matrix:                     0.265     0.265   0.0% |
  inverse-cholesky:                  0.077     0.077   0.0% |
  projections:                       1.473     1.473   0.0% |
  rotate_psi_s:                      0.474     0.474   0.0% |
Set symmetry:                        0.000     0.000   0.0% |
Other:                            1850.484  1850.484  59.8% |-----------------------|
-----------------------------------------------------------
Total:                                      3094.270 100.0%

Memory usage: 13.24 GiB
Date: Thu Mar 25 04:00:44 2021
