
  ___ ___ ___ _ _ _  
 |   |   |_  | | | | 
 | | | | | . | | | | 
 |__ |  _|___|_____|  20.10.1b1
 |___|_|             

User:   madkru@g006.nifl.fysik.dtu.dk
Date:   Wed Mar 24 07:16:16 2021
Arch:   x86_64
Pid:    12017
Python: 3.7.4
gpaw:   /home/niflheim/madkru/venv_folder/gpaw/gpaw (d0d1ca1c71)
_gpaw:  /home/niflheim/madkru/venv_folder/gpaw/build/lib.linux-x86_64-sandybridge-3.7/
        _gpaw.cpython-37m-x86_64-linux-gnu.so (4fd39e8b1e)
ase:    /home/niflheim/madkru/venv_folder/ase/ase (version 3.21.0b1-7e6c206a91)
numpy:  /home/niflheim/madkru/venv_folder/lib/python3.7/site-packages/numpy (version 1.19.4)
scipy:  /home/niflheim/madkru/venv_folder/lib/python3.7/site-packages/scipy (version 1.5.4)
libxc:  4.3.4
units:  Angstrom and eV
cores: 64
OMP_NUM_THREADS: 1

Input parameters:
  convergence: {bands: occupied,
                density: 0.0001,
                eigenstates: 4e-08,
                energy: 0.0005,
                forces: 1e-06}
  kpts: [6 6 4]
  mode: {ecut: 600.0,
         gammacentered: False,
         name: pw}
  occupations: {fixmagmom: False,
                name: fermi-dirac,
                width: 0.001}
  setups: {Mn: :d,3.0}
  symmetry: {point_group: False,
             time_reversal: False}

System changes: positions, numbers, cell, pbc, initial_charges, initial_magmoms 

Initialize ...

O-setup:
  name: Oxygen
  id: 9b9d51c344dea68c822856295a461509
  Z: 8.0
  valence: 6
  core: 2
  charge: 0.0
  file: /home/modules/software/GPAW-setups/0.9.20000/O.LDA.gz
  compensation charges: gauss, rc=0.21, lmax=2
  cutoffs: 1.17(filt), 0.83(core),
  valence states:
                energy  radius
    2s(2.00)   -23.752   0.688
    2p(4.00)    -9.195   0.598
    *s           3.459   0.688
    *p          18.016   0.598
    *d           0.000   0.619

  Using partial waves for O as LCAO basis

Mn-setup:
  name: Manganese
  id: 0d715a8018be061a6e9ea6f2d364ac92
  Z: 25.0
  valence: 15
  core: 10
  charge: 0.0
  Hubbard U: 3.000000 eV (l=2, scale=True)
  file: /home/modules/software/GPAW-setups/0.9.20000/Mn.LDA.gz
  compensation charges: gauss, rc=0.38, lmax=2
  cutoffs: 2.14(filt), 0.86(core),
  valence states:
                energy  radius
    3s(2.00)   -85.387   1.275
    4s(2.00)    -5.282   1.275
    3p(6.00)   -54.493   1.281
    4p(0.00)    -1.471   1.281
    3d(5.00)    -7.009   1.138
    *d          20.203   1.138

  Using partial waves for Mn as LCAO basis

P-setup:
  name: Phosphorus
  id: a5561c299094968922a179ab894d2e2d
  Z: 15.0
  valence: 5
  core: 10
  charge: 0.0
  file: /home/modules/software/GPAW-setups/0.9.20000/P.LDA.gz
  compensation charges: gauss, rc=0.30, lmax=2
  cutoffs: 1.69(filt), 1.81(core),
  valence states:
                energy  radius
    3s(2.00)   -14.015   0.953
    3p(3.00)    -5.596   0.953
    *s          13.197   0.953
    *p          21.615   0.953
    *d           0.000   0.953

  Using partial waves for P as LCAO basis

Li-setup:
  name: Lithium
  id: b73562207f97a71b6967473b66fe8b65
  Z: 3.0
  valence: 1
  core: 2
  charge: 0.0
  file: /home/modules/software/GPAW-setups/0.9.20000/Li.LDA.gz
  compensation charges: gauss, rc=0.33, lmax=2
  cutoffs: 1.91(filt), 2.55(core),
  valence states:
                energy  radius
    2s(1.00)    -2.874   1.058
    2p(0.00)    -1.126   1.058
    *s          24.338   1.058

  Using partial waves for Li as LCAO basis

Reference energy: -196157.275402

Spin-polarized calculation.
Magnetic moment: 0.000000

Convergence criteria:
  Maximum total energy change: 0.0005 eV / electron
  Maximum integral of absolute density change: 0.0001 electrons
  Maximum integral of absolute eigenstate change: 4e-08 eV^2
  Maximum change in atomic force: 1e-06 eV / Ang
  Maximum number of iterations: 333

Symmetries present (total): 1

  ( 1  0  0)
  ( 0  1  0)
  ( 0  0  1)

144 k-points: 6 x 6 x 4 Monkhorst-Pack grid
144 k-points in the irreducible part of the Brillouin zone
       k-points in crystal coordinates                weights
   0:    -0.41666667   -0.41666667   -0.37500000          1/144
   1:    -0.41666667   -0.41666667   -0.12500000          1/144
   2:    -0.41666667   -0.41666667    0.12500000          1/144
   3:    -0.41666667   -0.41666667    0.37500000          1/144
   4:    -0.41666667   -0.25000000   -0.37500000          1/144
   5:    -0.41666667   -0.25000000   -0.12500000          1/144
   6:    -0.41666667   -0.25000000    0.12500000          1/144
   7:    -0.41666667   -0.25000000    0.37500000          1/144
   8:    -0.41666667   -0.08333333   -0.37500000          1/144
   9:    -0.41666667   -0.08333333   -0.12500000          1/144
          ...
 143:     0.41666667    0.41666667    0.37500000          1/144

Wave functions: Plane wave expansion
  Cutoff energy: 600.000 eV
  Number of coefficients (min, max): 10068, 10125
  Pulay-stress correction: 0.000000 eV/Ang^3 (de/decut=0.000000)
  Using FFTW library
  ScaLapack parameters: grid=1x1, blocksize=None
  Wavefunction extrapolation:
    Improved wavefunction reuse through dual PAW basis 

  Fermi-Dirac: width=0.0010 eV

Eigensolver
   Davidson(niter=2, smin=None, normalize=True) 

Densities:
  Coarse grid: 60*35*27 grid
  Fine grid: 120*70*54 grid
  Total Charge: 0.000000 

Density mixing:
  Method: difference
  Backend: pulay
  Linear mixing parameter: 0.05
  Mixing with 5 old densities
  Damping of long wave oscillations: 50 

Hamiltonian:
  XC and Coulomb potentials evaluated on a 120*70*54 grid
  Using the LDA Exchange-Correlation functional
 

Memory estimate:
  Process memory now: 12706.82 MiB
  Calculator: 354.82 MiB
    Density: 10.06 MiB
      Arrays: 3.79 MiB
      Localized functions: 4.71 MiB
      Mixer: 1.56 MiB
    Hamiltonian: 2.95 MiB
      Arrays: 2.82 MiB
      XC: 0.00 MiB
      Poisson: 0.00 MiB
      vbar: 0.14 MiB
    Wavefunctions: 341.80 MiB
      Arrays psit_nG: 311.46 MiB
      Eigensolver: 19.99 MiB
      Projections: 2.71 MiB
      Projectors: 4.87 MiB
      PW-descriptor: 2.77 MiB

Total number of cores used: 64
Parallelization over k-points: 16
Domain decomposition: 2 x 2 x 1

Number of atoms: 28
Number of atomic orbitals: 148
Number of bands in calculation: 112
Number of valence electrons: 180
Bands to converge: occupied

... initialized

Initializing position-dependent things.

Density initialized from atomic densities
Creating initial wave functions:
  112 bands from LCAO basis set

     .-------------------------.  
    /|         OP              |  
   / |O            O        O  |  
  /  |       O            O  P |  
 *   |O    Mn      O           |  
 |   |          OLi          O |  
 |   P--O--------------Mn------.  
 |  /          Li    O  Mn  O /   
 | /LiO           PO         /    
 |/       Mn                /     
 *Li-----------------------*      

Positions:
   0 O     -1.330281   -2.539252   -1.168500    ( 0.0000,  0.0000,  0.0000)
   1 O     -3.152392    2.974909    1.200956    ( 0.0000,  0.0000,  0.0000)
   2 O      2.077234    0.510133    1.506966    ( 0.0000,  0.0000,  0.0000)
   3 O      3.899724   -0.074476   -0.862491    ( 0.0000,  0.0000,  0.0000)
   4 O      2.077424    2.974966    1.507072    ( 0.0000,  0.0000,  0.0000)
   5 O      3.899535   -2.539195   -0.862384    ( 0.0000,  0.0000,  0.0000)
   6 O     -1.330092   -0.074418   -1.168395    ( 0.0000,  0.0000,  0.0000)
   7 O     -3.152581    0.510191    1.201063    ( 0.0000,  0.0000,  0.0000)
   8 O     -4.389675   -1.306969   -0.813152    ( 0.0000,  0.0000,  0.0000)
   9 O     -0.093301    1.742683    1.556268    ( 0.0000,  0.0000,  0.0000)
  10 O      5.136817    1.742683    1.151723    ( 0.0000,  0.0000,  0.0000)
  11 O      0.840444   -1.306969   -1.217697    ( 0.0000,  0.0000,  0.0000)
  12 Mn    -2.557192   -1.307258    0.273595    ( 0.0000,  0.0000,  1.0000)
  13 Mn    -1.925535    1.742972   -2.096623    ( 0.0000,  0.0000, -1.0000)
  14 Mn     3.304335    1.742972    0.064976    ( 0.0000,  0.0000, -1.0000)
  15 Mn     2.672678   -1.307258    2.445195    ( 0.0000,  0.0000,  1.0000)
  16 P     -0.597175   -1.306854   -1.801474    ( 0.0000,  0.0000,  0.0000)
  17 P     -3.885565    1.742568    0.568028    ( 0.0000,  0.0000,  0.0000)
  18 P      1.344318    1.742568    2.140045    ( 0.0000,  0.0000,  0.0000)
  19 P      4.632708   -1.306854   -0.229456    ( 0.0000,  0.0000,  0.0000)
  20 O     -0.636957   -1.306861    1.403074    ( 0.0000,  0.0000,  0.0000)
  21 O     -3.845824    1.742575   -0.967462    ( 0.0000,  0.0000,  0.0000)
  22 O      1.384100    1.742576   -1.064503    ( 0.0000,  0.0000,  0.0000)
  23 O      4.592967   -1.306861    1.306033    ( 0.0000,  0.0000,  0.0000)
  24 Li    -4.856429   -2.832143   -2.200714    ( 0.0000,  0.0000,  0.0000)
  25 Li     0.373571   -2.832143    0.169286    ( 0.0000,  0.0000,  0.0000)
  26 Li    -4.856429    0.217857   -2.200714    ( 0.0000,  0.0000,  0.0000)
  27 Li     0.373571    0.217857    0.169286    ( 0.0000,  0.0000,  0.0000)

Unit cell:
           periodic     x           y           z      points  spacing
  1. axis:    yes   10.460000    0.000000    0.000000    60     0.1743
  2. axis:    yes    0.000000    6.100000    0.000000    35     0.1743
  3. axis:    yes    0.000000    0.000000    4.740000    27     0.1756

  Lengths:  10.460000   6.100000   4.740000
  Angles:   90.000000  90.000000  90.000000

Effective grid spacing dv^(1/3) = 0.1747

                     log10-error:           total        iterations:
           time      wfs    density  force  energy       poisson  magmom
iter:   1  07:17:48                       -220.687021             +0.0000
iter:   2  07:18:09  -0.64  -0.92         -235.500163             +0.0000
iter:   3  07:18:31  -0.40  -0.96         -226.169031             -0.0000
iter:   4  07:18:52  -1.41  -1.29         -225.888122             +0.0000
iter:   5  07:19:14  -1.19  -1.38         -227.588310             +0.0000
iter:   6  07:19:35  -1.39  -1.51         -225.829247             +0.0000
iter:   7  07:19:56  -2.57  -2.06         -225.898917             +0.0000
iter:   8  07:20:18  -2.23  -2.01         -225.643045             -0.0000
iter:   9  07:20:39  -2.68  -2.08         -225.546627             +0.0000
iter:  10  07:21:01  -3.55  -2.95         -225.545918             +0.0000
iter:  11  07:21:22  -3.95  -3.00         -225.547456             +0.0000
iter:  12  07:21:43  -4.30  -3.22         -225.547623             +0.0000
iter:  13  07:22:05  -5.39  -3.36         -225.547522             -0.0000
iter:  14  07:22:26  -5.22  -3.44         -225.547376             -0.0000
iter:  15  07:22:48  -5.41  -3.60         -225.547300             -0.0000
iter:  16  07:23:09  -6.37  -3.68         -225.547283             +0.0000
iter:  17  07:23:30  -6.19  -3.74         -225.547304             -0.0000
iter:  18  07:23:52  -6.68  -3.81         -225.547304             -0.0000
iter:  19  07:24:13  -5.81  -3.83         -225.547266             -0.0000
iter:  20  07:24:34  -6.84  -4.39         -225.547263             -0.0000
iter:  21  07:25:01  -7.60  -4.74         -225.547260             -0.0000
iter:  22  07:25:28  -7.43  -4.94    -2.64-225.547259             -0.0000
iter:  23  07:25:55  -8.08  -4.82    -2.75-225.547259             +0.0000
iter:  24  07:26:22  -8.84  -5.13    -3.45-225.547259             -0.0000
iter:  25  07:26:48  -8.18  -5.16    -3.00-225.547258             +0.0000
iter:  26  07:27:15  -9.13  -5.24    -3.76-225.547258             +0.0000
iter:  27  07:27:42  -8.86  -5.27    -3.23-225.547259             +0.0000
iter:  28  07:28:09  -9.09  -5.50    -3.13-225.547258             +0.0000
iter:  29  07:28:36  -9.30  -5.77    -3.50-225.547258             +0.0000
iter:  30  07:29:02 -10.12  -6.01    -4.23-225.547258             +0.0000
iter:  31  07:29:29 -10.58  -6.08    -4.64-225.547258             +0.0000
iter:  32  07:29:56 -10.66  -6.13    -3.85-225.547258             +0.0000
iter:  33  07:30:23 -10.44  -6.35    -4.11-225.547258             +0.0000
iter:  34  07:30:49 -11.14  -6.51    -4.38-225.547258             +0.0000
iter:  35  07:31:16 -11.40  -6.60    -4.35-225.547258             -0.0000
iter:  36  07:31:43 -11.26  -6.66    -4.59-225.547258             +0.0000
iter:  37  07:32:10 -11.90  -6.72    -5.26-225.547258             +0.0000
iter:  38  07:32:37 -12.20  -6.77    -5.00-225.547258             +0.0000
iter:  39  07:33:03 -12.60  -6.86    -4.85-225.547258             +0.0000
iter:  40  07:33:30 -11.54  -6.95    -4.78-225.547258             +0.0000
iter:  41  07:33:57 -12.15  -7.11    -4.89-225.547258             +0.0000
iter:  42  07:34:24 -12.94  -7.31    -5.55-225.547258             +0.0000
iter:  43  07:34:50 -13.55  -7.46    -5.81-225.547258             +0.0000
iter:  44  07:35:17 -13.26  -7.50    -5.47-225.547258             +0.0000
iter:  45  07:35:44 -14.03  -7.62    -6.33-225.547258             +0.0000

Converged after 45 iterations.

Dipole moment: (13.161097, 1.715633, -5.500544) |e|*Ang

Total magnetic moment: (0.000000, 0.000000, 0.000000)
Local magnetic moments:
   0 O  ( 0.000000,  0.000000,  0.001085)
   1 O  ( 0.000000,  0.000000, -0.001055)
   2 O  ( 0.000000,  0.000000, -0.001173)
   3 O  ( 0.000000,  0.000000,  0.001309)
   4 O  ( 0.000000,  0.000000, -0.001181)
   5 O  ( 0.000000,  0.000000,  0.001317)
   6 O  ( 0.000000,  0.000000,  0.001077)
   7 O  ( 0.000000,  0.000000, -0.001047)
   8 O  ( 0.000000,  0.000000,  0.019786)
   9 O  ( 0.000000,  0.000000, -0.019822)
  10 O  ( 0.000000,  0.000000, -0.019765)
  11 O  ( 0.000000,  0.000000,  0.019893)
  12 Mn ( 0.000000,  0.000000,  4.601542)
  13 Mn ( 0.000000,  0.000000, -4.601593)
  14 Mn ( 0.000000,  0.000000, -4.601484)
  15 Mn ( 0.000000,  0.000000,  4.601495)
  16 P  ( 0.000000,  0.000000,  0.001379)
  17 P  ( 0.000000,  0.000000, -0.001293)
  18 P  ( 0.000000,  0.000000, -0.001419)
  19 P  ( 0.000000,  0.000000,  0.001298)
  20 O  ( 0.000000,  0.000000,  0.018073)
  21 O  ( 0.000000,  0.000000, -0.018059)
  22 O  ( 0.000000,  0.000000, -0.018100)
  23 O  ( 0.000000,  0.000000,  0.017923)
  24 Li ( 0.000000,  0.000000,  0.000002)
  25 Li ( 0.000000,  0.000000,  0.000002)
  26 Li ( 0.000000,  0.000000,  0.000002)
  27 Li ( 0.000000,  0.000000,  0.000002)

Energy contributions relative to reference atoms: (reference = -196157.275402)

Kinetic:       +242.992477
Potential:     -215.477848
External:        +0.000000
XC:            -254.977018
Entropy (-ST):   -0.000000
Local:           +1.915130
--------------------------
Free energy:   -225.547258
Extrapolated:  -225.547258

Spin contamination: 9.747279 electrons
Showing only first 2 kpts
                      Up                     Down
 Kpt  Band  Eigenvalues  Occupancy  Eigenvalues  Occupancy
  0    88      3.92198    0.00694      3.92205    0.00694
  0    89      3.96943    0.00694      3.97083    0.00694
  0    90      8.66719    0.00000      8.66803    0.00000
  0    91      8.68643    0.00000      8.69359    0.00000

  1    88      3.91875    0.00694      3.91864    0.00694
  1    89      3.97448    0.00694      3.97494    0.00694
  1    90      8.51310    0.00000      8.51329    0.00000
  1    91      8.52937    0.00000      8.53332    0.00000


Fermi level: 5.31834

Gap: 3.779 eV
Transition (v -> c):
  (s=0, k=73, n=89, [0.08, -0.42, -0.12]) -> (s=0, k=58, n=90, [-0.08, -0.08, 0.12])
Writing to born-0.01-15z+.gpw (mode='all')

Timing:                              incl.     excl.
-----------------------------------------------------------
Hamiltonian:                         0.248     0.002   0.0% |
 Atomic:                             0.057     0.057   0.0% |
  XC Correction:                     0.000     0.000   0.0% |
 Calculate atomic Hamiltonians:      0.094     0.094   0.0% |
 Communicate:                        0.001     0.001   0.0% |
 Initialize Hamiltonian:             0.000     0.000   0.0% |
 Poisson:                            0.001     0.001   0.0% |
 XC 3D grid:                         0.092     0.092   0.0% |
LCAO initialization:                66.408     0.681   0.0% |
 LCAO eigensolver:                  17.387     0.002   0.0% |
  Calculate projections:             0.029     0.029   0.0% |
  DenseAtomicCorrection:             0.042     0.042   0.0% |
  Distribute overlap matrix:         0.019     0.019   0.0% |
  Orbital Layouts:                   0.473     0.473   0.0% |
  Potential matrix:                 16.722    16.722   0.6% |
  Sum over cells:                    0.099     0.099   0.0% |
 LCAO to grid:                      47.049    47.049   1.5% ||
 Set positions (LCAO WFS):           1.291     0.177   0.0% |
  Basic WFS set positions:           0.001     0.001   0.0% |
  Basis functions set positions:     0.000     0.000   0.0% |
  P tci:                             0.515     0.515   0.0% |
  ST tci:                            0.359     0.359   0.0% |
  mktci:                             0.238     0.238   0.0% |
PWDescriptor:                        0.025     0.025   0.0% |
SCF-cycle:                        1099.975     1.585   0.1% |
 Davidson:                         914.783   285.534   9.4% |---|
  Apply H:                          61.916    60.071   2.0% ||
   HMM T:                            1.845     1.845   0.1% |
  Subspace diag:                   132.148     0.134   0.0% |
   calc_h_matrix:                   84.146    22.442   0.7% |
    Apply H:                        61.704    59.868   2.0% ||
     HMM T:                          1.837     1.837   0.1% |
   diagonalize:                      6.537     6.537   0.2% |
   rotate_psi:                      41.331    41.331   1.4% ||
  calc. matrices:                  270.763   151.136   5.0% |-|
   Apply H:                        119.627   116.321   3.8% |-|
    HMM T:                           3.306     3.306   0.1% |
  diagonalize:                      75.025    75.025   2.5% ||
  rotate_psi:                       89.398    89.398   2.9% ||
 Density:                           35.947     0.001   0.0% |
  Atomic density matrices:           0.775     0.775   0.0% |
  Mix:                               5.688     5.688   0.2% |
  Multipole moments:                 0.016     0.016   0.0% |
  Pseudo density:                   29.466    29.465   1.0% |
   Symmetrize density:               0.001     0.001   0.0% |
 Forces:                           134.286   134.286   4.4% |-|
 Hamiltonian:                       11.091     0.097   0.0% |
  Atomic:                            2.571     2.571   0.1% |
   XC Correction:                    0.000     0.000   0.0% |
  Calculate atomic Hamiltonians:     4.209     4.209   0.1% |
  Communicate:                       0.055     0.055   0.0% |
  Poisson:                           0.035     0.035   0.0% |
  XC 3D grid:                        4.124     4.124   0.1% |
 Orthonormalize:                     2.283     0.003   0.0% |
  calc_s_matrix:                     0.264     0.264   0.0% |
  inverse-cholesky:                  0.078     0.078   0.0% |
  projections:                       1.466     1.466   0.0% |
  rotate_psi_s:                      0.472     0.472   0.0% |
Set symmetry:                        0.000     0.000   0.0% |
Other:                            1871.065  1871.065  61.6% |------------------------|
-----------------------------------------------------------
Total:                                      3037.721 100.0%

Memory usage: 12.41 GiB
Date: Wed Mar 24 08:06:54 2021
