
  ___ ___ ___ _ _ _  
 |   |   |_  | | | | 
 | | | | | . | | | | 
 |__ |  _|___|_____|  20.10.1b1
 |___|_|             

User:   madkru@g006.nifl.fysik.dtu.dk
Date:   Wed Mar 24 04:11:31 2021
Arch:   x86_64
Pid:    12017
Python: 3.7.4
gpaw:   /home/niflheim/madkru/venv_folder/gpaw/gpaw (d0d1ca1c71)
_gpaw:  /home/niflheim/madkru/venv_folder/gpaw/build/lib.linux-x86_64-sandybridge-3.7/
        _gpaw.cpython-37m-x86_64-linux-gnu.so (4fd39e8b1e)
ase:    /home/niflheim/madkru/venv_folder/ase/ase (version 3.21.0b1-7e6c206a91)
numpy:  /home/niflheim/madkru/venv_folder/lib/python3.7/site-packages/numpy (version 1.19.4)
scipy:  /home/niflheim/madkru/venv_folder/lib/python3.7/site-packages/scipy (version 1.5.4)
libxc:  4.3.4
units:  Angstrom and eV
cores: 64
OMP_NUM_THREADS: 1

Input parameters:
  convergence: {bands: occupied,
                density: 0.0001,
                eigenstates: 4e-08,
                energy: 0.0005,
                forces: 1e-06}
  kpts: [6 6 4]
  mode: {ecut: 600.0,
         gammacentered: False,
         name: pw}
  occupations: {fixmagmom: False,
                name: fermi-dirac,
                width: 0.001}
  setups: {Mn: :d,3.0}
  symmetry: {point_group: False,
             time_reversal: False}

System changes: positions, numbers, cell, pbc, initial_charges, initial_magmoms 

Initialize ...

O-setup:
  name: Oxygen
  id: 9b9d51c344dea68c822856295a461509
  Z: 8.0
  valence: 6
  core: 2
  charge: 0.0
  file: /home/modules/software/GPAW-setups/0.9.20000/O.LDA.gz
  compensation charges: gauss, rc=0.21, lmax=2
  cutoffs: 1.17(filt), 0.83(core),
  valence states:
                energy  radius
    2s(2.00)   -23.752   0.688
    2p(4.00)    -9.195   0.598
    *s           3.459   0.688
    *p          18.016   0.598
    *d           0.000   0.619

  Using partial waves for O as LCAO basis

Mn-setup:
  name: Manganese
  id: 0d715a8018be061a6e9ea6f2d364ac92
  Z: 25.0
  valence: 15
  core: 10
  charge: 0.0
  Hubbard U: 3.000000 eV (l=2, scale=True)
  file: /home/modules/software/GPAW-setups/0.9.20000/Mn.LDA.gz
  compensation charges: gauss, rc=0.38, lmax=2
  cutoffs: 2.14(filt), 0.86(core),
  valence states:
                energy  radius
    3s(2.00)   -85.387   1.275
    4s(2.00)    -5.282   1.275
    3p(6.00)   -54.493   1.281
    4p(0.00)    -1.471   1.281
    3d(5.00)    -7.009   1.138
    *d          20.203   1.138

  Using partial waves for Mn as LCAO basis

P-setup:
  name: Phosphorus
  id: a5561c299094968922a179ab894d2e2d
  Z: 15.0
  valence: 5
  core: 10
  charge: 0.0
  file: /home/modules/software/GPAW-setups/0.9.20000/P.LDA.gz
  compensation charges: gauss, rc=0.30, lmax=2
  cutoffs: 1.69(filt), 1.81(core),
  valence states:
                energy  radius
    3s(2.00)   -14.015   0.953
    3p(3.00)    -5.596   0.953
    *s          13.197   0.953
    *p          21.615   0.953
    *d           0.000   0.953

  Using partial waves for P as LCAO basis

Li-setup:
  name: Lithium
  id: b73562207f97a71b6967473b66fe8b65
  Z: 3.0
  valence: 1
  core: 2
  charge: 0.0
  file: /home/modules/software/GPAW-setups/0.9.20000/Li.LDA.gz
  compensation charges: gauss, rc=0.33, lmax=2
  cutoffs: 1.91(filt), 2.55(core),
  valence states:
                energy  radius
    2s(1.00)    -2.874   1.058
    2p(0.00)    -1.126   1.058
    *s          24.338   1.058

  Using partial waves for Li as LCAO basis

Reference energy: -196157.275402

Spin-polarized calculation.
Magnetic moment: 0.000000

Convergence criteria:
  Maximum total energy change: 0.0005 eV / electron
  Maximum integral of absolute density change: 0.0001 electrons
  Maximum integral of absolute eigenstate change: 4e-08 eV^2
  Maximum change in atomic force: 1e-06 eV / Ang
  Maximum number of iterations: 333

Symmetries present (total): 1

  ( 1  0  0)
  ( 0  1  0)
  ( 0  0  1)

144 k-points: 6 x 6 x 4 Monkhorst-Pack grid
144 k-points in the irreducible part of the Brillouin zone
       k-points in crystal coordinates                weights
   0:    -0.41666667   -0.41666667   -0.37500000          1/144
   1:    -0.41666667   -0.41666667   -0.12500000          1/144
   2:    -0.41666667   -0.41666667    0.12500000          1/144
   3:    -0.41666667   -0.41666667    0.37500000          1/144
   4:    -0.41666667   -0.25000000   -0.37500000          1/144
   5:    -0.41666667   -0.25000000   -0.12500000          1/144
   6:    -0.41666667   -0.25000000    0.12500000          1/144
   7:    -0.41666667   -0.25000000    0.37500000          1/144
   8:    -0.41666667   -0.08333333   -0.37500000          1/144
   9:    -0.41666667   -0.08333333   -0.12500000          1/144
          ...
 143:     0.41666667    0.41666667    0.37500000          1/144

Wave functions: Plane wave expansion
  Cutoff energy: 600.000 eV
  Number of coefficients (min, max): 10068, 10125
  Pulay-stress correction: 0.000000 eV/Ang^3 (de/decut=0.000000)
  Using FFTW library
  ScaLapack parameters: grid=1x1, blocksize=None
  Wavefunction extrapolation:
    Improved wavefunction reuse through dual PAW basis 

  Fermi-Dirac: width=0.0010 eV

Eigensolver
   Davidson(niter=2, smin=None, normalize=True) 

Densities:
  Coarse grid: 60*35*27 grid
  Fine grid: 120*70*54 grid
  Total Charge: 0.000000 

Density mixing:
  Method: difference
  Backend: pulay
  Linear mixing parameter: 0.05
  Mixing with 5 old densities
  Damping of long wave oscillations: 50 

Hamiltonian:
  XC and Coulomb potentials evaluated on a 120*70*54 grid
  Using the LDA Exchange-Correlation functional
 

Memory estimate:
  Process memory now: 12573.49 MiB
  Calculator: 354.82 MiB
    Density: 10.06 MiB
      Arrays: 3.79 MiB
      Localized functions: 4.71 MiB
      Mixer: 1.56 MiB
    Hamiltonian: 2.95 MiB
      Arrays: 2.82 MiB
      XC: 0.00 MiB
      Poisson: 0.00 MiB
      vbar: 0.14 MiB
    Wavefunctions: 341.80 MiB
      Arrays psit_nG: 311.46 MiB
      Eigensolver: 19.99 MiB
      Projections: 2.71 MiB
      Projectors: 4.87 MiB
      PW-descriptor: 2.77 MiB

Total number of cores used: 64
Parallelization over k-points: 16
Domain decomposition: 2 x 2 x 1

Number of atoms: 28
Number of atomic orbitals: 148
Number of bands in calculation: 112
Number of valence electrons: 180
Bands to converge: occupied

... initialized

Initializing position-dependent things.

Density initialized from atomic densities
Creating initial wave functions:
  112 bands from LCAO basis set

     .-------------------------.  
    /|         OP              |  
   / |O            O        O  |  
  /  |       O            O  P |  
 *   |O    Mn      O           |  
 |   |          OLi          O |  
 |   P--O--------------Mn------.  
 |  /          Li    O  Mn  O /   
 | /LiO           PO         /    
 |/       Mn                /     
 *Li-----------------------*      

Positions:
   0 O     -1.330281   -2.539252   -1.168500    ( 0.0000,  0.0000,  0.0000)
   1 O     -3.152392    2.974909    1.200956    ( 0.0000,  0.0000,  0.0000)
   2 O      2.077234    0.510133    1.506966    ( 0.0000,  0.0000,  0.0000)
   3 O      3.899724   -0.074476   -0.862491    ( 0.0000,  0.0000,  0.0000)
   4 O      2.077424    2.974966    1.507072    ( 0.0000,  0.0000,  0.0000)
   5 O      3.899535   -2.539195   -0.862384    ( 0.0000,  0.0000,  0.0000)
   6 O     -1.330092   -0.074418   -1.168395    ( 0.0000,  0.0000,  0.0000)
   7 O     -3.152581    0.510191    1.201063    ( 0.0000,  0.0000,  0.0000)
   8 O     -4.389675   -1.306969   -0.813152    ( 0.0000,  0.0000,  0.0000)
   9 O     -0.093301    1.742683    1.556268    ( 0.0000,  0.0000,  0.0000)
  10 O      5.136817    1.742683    1.151723    ( 0.0000,  0.0000,  0.0000)
  11 O      0.840444   -1.306969   -1.217697    ( 0.0000,  0.0000,  0.0000)
  12 Mn    -2.557192   -1.307258    0.273595    ( 0.0000,  0.0000,  1.0000)
  13 Mn    -1.925535    1.742972   -2.096623    ( 0.0000,  0.0000, -1.0000)
  14 Mn     3.304335    1.742972    0.074976    ( 0.0000,  0.0000, -1.0000)
  15 Mn     2.672678   -1.307258    2.435195    ( 0.0000,  0.0000,  1.0000)
  16 P     -0.597175   -1.306854   -1.801474    ( 0.0000,  0.0000,  0.0000)
  17 P     -3.885565    1.742568    0.568028    ( 0.0000,  0.0000,  0.0000)
  18 P      1.344318    1.742568    2.140045    ( 0.0000,  0.0000,  0.0000)
  19 P      4.632708   -1.306854   -0.229456    ( 0.0000,  0.0000,  0.0000)
  20 O     -0.636957   -1.306861    1.403074    ( 0.0000,  0.0000,  0.0000)
  21 O     -3.845824    1.742575   -0.967462    ( 0.0000,  0.0000,  0.0000)
  22 O      1.384100    1.742576   -1.064503    ( 0.0000,  0.0000,  0.0000)
  23 O      4.592967   -1.306861    1.306033    ( 0.0000,  0.0000,  0.0000)
  24 Li    -4.856429   -2.832143   -2.200714    ( 0.0000,  0.0000,  0.0000)
  25 Li     0.373571   -2.832143    0.169286    ( 0.0000,  0.0000,  0.0000)
  26 Li    -4.856429    0.217857   -2.200714    ( 0.0000,  0.0000,  0.0000)
  27 Li     0.373571    0.217857    0.169286    ( 0.0000,  0.0000,  0.0000)

Unit cell:
           periodic     x           y           z      points  spacing
  1. axis:    yes   10.460000    0.000000    0.000000    60     0.1743
  2. axis:    yes    0.000000    6.100000    0.000000    35     0.1743
  3. axis:    yes    0.000000    0.000000    4.740000    27     0.1756

  Lengths:  10.460000   6.100000   4.740000
  Angles:   90.000000  90.000000  90.000000

Effective grid spacing dv^(1/3) = 0.1747

                     log10-error:           total        iterations:
           time      wfs    density  force  energy       poisson  magmom
iter:   1  04:13:03                       -220.687020             +0.0000
iter:   2  04:13:24  -0.64  -0.92         -235.500169             +0.0000
iter:   3  04:13:46  -0.40  -0.96         -226.169100             -0.0000
iter:   4  04:14:07  -1.41  -1.29         -225.888128             +0.0000
iter:   5  04:14:29  -1.19  -1.38         -227.588072             +0.0000
iter:   6  04:14:50  -1.39  -1.51         -225.829251             +0.0000
iter:   7  04:15:12  -2.57  -2.06         -225.898877             +0.0000
iter:   8  04:15:33  -2.23  -2.01         -225.643171             -0.0000
iter:   9  04:15:55  -2.67  -2.08         -225.546623             +0.0000
iter:  10  04:16:16  -3.55  -2.95         -225.545900             +0.0000
iter:  11  04:16:38  -3.95  -3.00         -225.547456             +0.0000
iter:  12  04:16:59  -4.30  -3.22         -225.547623             +0.0000
iter:  13  04:17:21  -5.39  -3.36         -225.547522             -0.0000
iter:  14  04:17:42  -5.21  -3.44         -225.547377             -0.0000
iter:  15  04:18:04  -5.41  -3.60         -225.547300             -0.0000
iter:  16  04:18:25  -6.37  -3.68         -225.547283             +0.0000
iter:  17  04:18:47  -6.19  -3.74         -225.547303             -0.0000
iter:  18  04:19:08  -6.68  -3.81         -225.547304             -0.0000
iter:  19  04:19:30  -5.81  -3.83         -225.547266             -0.0000
iter:  20  04:19:51  -6.87  -4.39         -225.547263             -0.0000
iter:  21  04:20:18  -7.66  -4.75         -225.547260             +0.0000
iter:  22  04:20:40  -7.37  -4.93         -225.547259             +0.0000
iter:  23  04:21:06  -8.01  -4.80    -3.04-225.547259             -0.0000
iter:  24  04:21:33  -8.88  -5.11    -3.43-225.547258             -0.0000
iter:  25  04:22:00  -8.08  -5.14    -2.93-225.547258             -0.0000
iter:  26  04:22:27  -9.20  -5.22    -3.56-225.547258             -0.0000
iter:  27  04:22:54  -8.55  -5.25    -3.27-225.547258             -0.0000
iter:  28  04:23:21  -8.98  -5.31    -3.09-225.547258             -0.0000
iter:  29  04:23:47  -9.76  -5.47    -3.60-225.547258             -0.0000
iter:  30  04:24:14  -9.12  -5.54    -3.73-225.547258             -0.0000
iter:  31  04:24:41  -8.92  -5.65    -3.29-225.547258             -0.0000
iter:  32  04:25:08  -9.60  -5.78    -3.55-225.547258             -0.0000
iter:  33  04:25:34 -10.78  -6.19    -4.82-225.547258             -0.0000
iter:  34  04:26:01 -10.82  -6.20    -4.25-225.547258             -0.0000
iter:  35  04:26:28 -10.91  -6.28    -4.45-225.547258             -0.0000
iter:  36  04:26:55 -10.85  -6.32    -4.23-225.547258             -0.0000
iter:  37  04:27:22 -11.08  -6.45    -4.58-225.547258             -0.0000
iter:  38  04:27:49 -11.47  -6.56    -4.70-225.547258             -0.0000
iter:  39  04:28:15 -11.75  -6.74    -4.91-225.547258             -0.0000
iter:  40  04:28:42 -11.59  -6.88    -4.65-225.547258             -0.0000
iter:  41  04:29:09 -12.07  -6.99    -4.88-225.547258             -0.0000
iter:  42  04:29:36 -12.56  -7.28    -5.45-225.547258             -0.0000
iter:  43  04:30:03 -12.83  -7.33    -5.13-225.547258             -0.0000
iter:  44  04:30:29 -12.96  -7.57    -5.66-225.547258             -0.0000
iter:  45  04:30:56 -13.97  -7.73    -5.83-225.547258             -0.0000
iter:  46  04:31:23 -13.83  -7.76    -5.49-225.547258             -0.0000
iter:  47  04:31:50 -14.01  -7.93    -5.85-225.547258             -0.0000
iter:  48  04:32:17 -14.95  -8.02    -6.65-225.547258             -0.0000

Converged after 48 iterations.

Dipole moment: (13.160619, 1.714300, -5.706933) |e|*Ang

Total magnetic moment: (0.000000, 0.000000, -0.000000)
Local magnetic moments:
   0 O  ( 0.000000,  0.000000,  0.001067)
   1 O  ( 0.000000,  0.000000, -0.001073)
   2 O  ( 0.000000,  0.000000, -0.001323)
   3 O  ( 0.000000,  0.000000,  0.001159)
   4 O  ( 0.000000,  0.000000, -0.001331)
   5 O  ( 0.000000,  0.000000,  0.001167)
   6 O  ( 0.000000,  0.000000,  0.001059)
   7 O  ( 0.000000,  0.000000, -0.001064)
   8 O  ( 0.000000,  0.000000,  0.019825)
   9 O  ( 0.000000,  0.000000, -0.019783)
  10 O  ( 0.000000,  0.000000, -0.019895)
  11 O  ( 0.000000,  0.000000,  0.019762)
  12 Mn ( 0.000000,  0.000000,  4.601527)
  13 Mn ( 0.000000,  0.000000, -4.601608)
  14 Mn ( 0.000000,  0.000000, -4.601428)
  15 Mn ( 0.000000,  0.000000,  4.601552)
  16 P  ( 0.000000,  0.000000,  0.001300)
  17 P  ( 0.000000,  0.000000, -0.001372)
  18 P  ( 0.000000,  0.000000, -0.001304)
  19 P  ( 0.000000,  0.000000,  0.001412)
  20 O  ( 0.000000,  0.000000,  0.018063)
  21 O  ( 0.000000,  0.000000, -0.018069)
  22 O  ( 0.000000,  0.000000, -0.017927)
  23 O  ( 0.000000,  0.000000,  0.018096)
  24 Li ( 0.000000,  0.000000, -0.000002)
  25 Li ( 0.000000,  0.000000, -0.000002)
  26 Li ( 0.000000,  0.000000, -0.000002)
  27 Li ( 0.000000,  0.000000, -0.000002)

Energy contributions relative to reference atoms: (reference = -196157.275402)

Kinetic:       +242.992300
Potential:     -215.477691
External:        +0.000000
XC:            -254.977003
Entropy (-ST):   -0.000000
Local:           +1.915136
--------------------------
Free energy:   -225.547258
Extrapolated:  -225.547258

Spin contamination: 9.747278 electrons
Showing only first 2 kpts
                      Up                     Down
 Kpt  Band  Eigenvalues  Occupancy  Eigenvalues  Occupancy
  0    88      3.92205    0.00694      3.92121    0.00694
  0    89      3.97080    0.00694      3.97032    0.00694
  0    90      8.67249    0.00000      8.66709    0.00000
  0    91      8.68833    0.00000      8.68654    0.00000

  1    88      3.91873    0.00694      3.91823    0.00694
  1    89      3.97482    0.00694      3.97507    0.00694
  1    90      8.51618    0.00000      8.51281    0.00000
  1    91      8.53025    0.00000      8.52968    0.00000


Fermi level: 5.31862

Gap: 3.779 eV
Transition (v -> c):
  (s=1, k=69, n=89, [-0.08, 0.42, -0.12]) -> (s=1, k=86, n=90, [0.08, 0.08, 0.12])
Writing to born-0.01-14z+.gpw (mode='all')

Timing:                              incl.     excl.
-----------------------------------------------------------
Hamiltonian:                         0.249     0.002   0.0% |
 Atomic:                             0.058     0.058   0.0% |
  XC Correction:                     0.000     0.000   0.0% |
 Calculate atomic Hamiltonians:      0.094     0.094   0.0% |
 Communicate:                        0.002     0.002   0.0% |
 Initialize Hamiltonian:             0.000     0.000   0.0% |
 Poisson:                            0.001     0.001   0.0% |
 XC 3D grid:                         0.092     0.092   0.0% |
LCAO initialization:                66.463     0.678   0.0% |
 LCAO eigensolver:                  17.609     0.002   0.0% |
  Calculate projections:             0.029     0.029   0.0% |
  DenseAtomicCorrection:             0.043     0.043   0.0% |
  Distribute overlap matrix:         0.150     0.150   0.0% |
  Orbital Layouts:                   0.471     0.471   0.0% |
  Potential matrix:                 16.812    16.812   0.5% |
  Sum over cells:                    0.103     0.103   0.0% |
 LCAO to grid:                      46.882    46.882   1.5% ||
 Set positions (LCAO WFS):           1.294     0.177   0.0% |
  Basic WFS set positions:           0.001     0.001   0.0% |
  Basis functions set positions:     0.000     0.000   0.0% |
  P tci:                             0.517     0.517   0.0% |
  ST tci:                            0.359     0.359   0.0% |
  mktci:                             0.238     0.238   0.0% |
PWDescriptor:                        0.025     0.025   0.0% |
SCF-cycle:                        1177.894     1.740   0.1% |
 Davidson:                         978.178   305.050   9.5% |---|
  Apply H:                          66.480    64.605   2.0% ||
   HMM T:                            1.876     1.876   0.1% |
  Subspace diag:                   141.501     0.140   0.0% |
   calc_h_matrix:                   90.297    23.885   0.7% |
    Apply H:                        66.412    64.565   2.0% ||
     HMM T:                          1.846     1.846   0.1% |
   diagonalize:                      6.929     6.929   0.2% |
   rotate_psi:                      44.135    44.135   1.4% ||
  calc. matrices:                  290.026   160.932   5.0% |-|
   Apply H:                        129.094   125.652   3.9% |-|
    HMM T:                           3.442     3.442   0.1% |
  diagonalize:                      79.932    79.932   2.5% ||
  rotate_psi:                       95.189    95.189   3.0% ||
 Density:                           39.545     0.001   0.0% |
  Atomic density matrices:           0.793     0.793   0.0% |
  Mix:                               6.094     6.094   0.2% |
  Multipole moments:                 0.018     0.018   0.0% |
  Pseudo density:                   32.639    32.637   1.0% |
   Symmetrize density:               0.001     0.001   0.0% |
 Forces:                           144.273   144.273   4.5% |-|
 Hamiltonian:                       11.863     0.104   0.0% |
  Atomic:                            2.742     2.742   0.1% |
   XC Correction:                    0.000     0.000   0.0% |
  Calculate atomic Hamiltonians:     4.440     4.440   0.1% |
  Communicate:                       0.079     0.079   0.0% |
  Poisson:                           0.037     0.037   0.0% |
  XC 3D grid:                        4.460     4.460   0.1% |
 Orthonormalize:                     2.295     0.004   0.0% |
  calc_s_matrix:                     0.264     0.264   0.0% |
  inverse-cholesky:                  0.077     0.077   0.0% |
  projections:                       1.474     1.474   0.0% |
  rotate_psi_s:                      0.475     0.475   0.0% |
Set symmetry:                        0.000     0.000   0.0% |
Other:                            1980.960  1980.960  61.4% |------------------------|
-----------------------------------------------------------
Total:                                      3225.591 100.0%

Memory usage: 12.28 GiB
Date: Wed Mar 24 05:05:17 2021
