
  ___ ___ ___ _ _ _  
 |   |   |_  | | | | 
 | | | | | . | | | | 
 |__ |  _|___|_____|  20.10.1b1
 |___|_|             

User:   madkru@g006.nifl.fysik.dtu.dk
Date:   Tue Mar 23 14:09:06 2021
Arch:   x86_64
Pid:    12017
Python: 3.7.4
gpaw:   /home/niflheim/madkru/venv_folder/gpaw/gpaw (d0d1ca1c71)
_gpaw:  /home/niflheim/madkru/venv_folder/gpaw/build/lib.linux-x86_64-sandybridge-3.7/
        _gpaw.cpython-37m-x86_64-linux-gnu.so (4fd39e8b1e)
ase:    /home/niflheim/madkru/venv_folder/ase/ase (version 3.21.0b1-7e6c206a91)
numpy:  /home/niflheim/madkru/venv_folder/lib/python3.7/site-packages/numpy (version 1.19.4)
scipy:  /home/niflheim/madkru/venv_folder/lib/python3.7/site-packages/scipy (version 1.5.4)
libxc:  4.3.4
units:  Angstrom and eV
cores: 64
OMP_NUM_THREADS: 1

Input parameters:
  convergence: {bands: occupied,
                density: 0.0001,
                eigenstates: 4e-08,
                energy: 0.0005,
                forces: 1e-06}
  kpts: [6 6 4]
  mode: {ecut: 600.0,
         gammacentered: False,
         name: pw}
  occupations: {fixmagmom: False,
                name: fermi-dirac,
                width: 0.001}
  setups: {Mn: :d,3.0}
  symmetry: {point_group: False,
             time_reversal: False}

System changes: positions, numbers, cell, pbc, initial_charges, initial_magmoms 

Initialize ...

O-setup:
  name: Oxygen
  id: 9b9d51c344dea68c822856295a461509
  Z: 8.0
  valence: 6
  core: 2
  charge: 0.0
  file: /home/modules/software/GPAW-setups/0.9.20000/O.LDA.gz
  compensation charges: gauss, rc=0.21, lmax=2
  cutoffs: 1.17(filt), 0.83(core),
  valence states:
                energy  radius
    2s(2.00)   -23.752   0.688
    2p(4.00)    -9.195   0.598
    *s           3.459   0.688
    *p          18.016   0.598
    *d           0.000   0.619

  Using partial waves for O as LCAO basis

Mn-setup:
  name: Manganese
  id: 0d715a8018be061a6e9ea6f2d364ac92
  Z: 25.0
  valence: 15
  core: 10
  charge: 0.0
  Hubbard U: 3.000000 eV (l=2, scale=True)
  file: /home/modules/software/GPAW-setups/0.9.20000/Mn.LDA.gz
  compensation charges: gauss, rc=0.38, lmax=2
  cutoffs: 2.14(filt), 0.86(core),
  valence states:
                energy  radius
    3s(2.00)   -85.387   1.275
    4s(2.00)    -5.282   1.275
    3p(6.00)   -54.493   1.281
    4p(0.00)    -1.471   1.281
    3d(5.00)    -7.009   1.138
    *d          20.203   1.138

  Using partial waves for Mn as LCAO basis

P-setup:
  name: Phosphorus
  id: a5561c299094968922a179ab894d2e2d
  Z: 15.0
  valence: 5
  core: 10
  charge: 0.0
  file: /home/modules/software/GPAW-setups/0.9.20000/P.LDA.gz
  compensation charges: gauss, rc=0.30, lmax=2
  cutoffs: 1.69(filt), 1.81(core),
  valence states:
                energy  radius
    3s(2.00)   -14.015   0.953
    3p(3.00)    -5.596   0.953
    *s          13.197   0.953
    *p          21.615   0.953
    *d           0.000   0.953

  Using partial waves for P as LCAO basis

Li-setup:
  name: Lithium
  id: b73562207f97a71b6967473b66fe8b65
  Z: 3.0
  valence: 1
  core: 2
  charge: 0.0
  file: /home/modules/software/GPAW-setups/0.9.20000/Li.LDA.gz
  compensation charges: gauss, rc=0.33, lmax=2
  cutoffs: 1.91(filt), 2.55(core),
  valence states:
                energy  radius
    2s(1.00)    -2.874   1.058
    2p(0.00)    -1.126   1.058
    *s          24.338   1.058

  Using partial waves for Li as LCAO basis

Reference energy: -196157.275402

Spin-polarized calculation.
Magnetic moment: 0.000000

Convergence criteria:
  Maximum total energy change: 0.0005 eV / electron
  Maximum integral of absolute density change: 0.0001 electrons
  Maximum integral of absolute eigenstate change: 4e-08 eV^2
  Maximum change in atomic force: 1e-06 eV / Ang
  Maximum number of iterations: 333

Symmetries present (total): 1

  ( 1  0  0)
  ( 0  1  0)
  ( 0  0  1)

144 k-points: 6 x 6 x 4 Monkhorst-Pack grid
144 k-points in the irreducible part of the Brillouin zone
       k-points in crystal coordinates                weights
   0:    -0.41666667   -0.41666667   -0.37500000          1/144
   1:    -0.41666667   -0.41666667   -0.12500000          1/144
   2:    -0.41666667   -0.41666667    0.12500000          1/144
   3:    -0.41666667   -0.41666667    0.37500000          1/144
   4:    -0.41666667   -0.25000000   -0.37500000          1/144
   5:    -0.41666667   -0.25000000   -0.12500000          1/144
   6:    -0.41666667   -0.25000000    0.12500000          1/144
   7:    -0.41666667   -0.25000000    0.37500000          1/144
   8:    -0.41666667   -0.08333333   -0.37500000          1/144
   9:    -0.41666667   -0.08333333   -0.12500000          1/144
          ...
 143:     0.41666667    0.41666667    0.37500000          1/144

Wave functions: Plane wave expansion
  Cutoff energy: 600.000 eV
  Number of coefficients (min, max): 10068, 10125
  Pulay-stress correction: 0.000000 eV/Ang^3 (de/decut=0.000000)
  Using FFTW library
  ScaLapack parameters: grid=1x1, blocksize=None
  Wavefunction extrapolation:
    Improved wavefunction reuse through dual PAW basis 

  Fermi-Dirac: width=0.0010 eV

Eigensolver
   Davidson(niter=2, smin=None, normalize=True) 

Densities:
  Coarse grid: 60*35*27 grid
  Fine grid: 120*70*54 grid
  Total Charge: 0.000000 

Density mixing:
  Method: difference
  Backend: pulay
  Linear mixing parameter: 0.05
  Mixing with 5 old densities
  Damping of long wave oscillations: 50 

Hamiltonian:
  XC and Coulomb potentials evaluated on a 120*70*54 grid
  Using the LDA Exchange-Correlation functional
 

Memory estimate:
  Process memory now: 126.94 MiB
  Calculator: 354.82 MiB
    Density: 10.06 MiB
      Arrays: 3.79 MiB
      Localized functions: 4.71 MiB
      Mixer: 1.56 MiB
    Hamiltonian: 2.95 MiB
      Arrays: 2.82 MiB
      XC: 0.00 MiB
      Poisson: 0.00 MiB
      vbar: 0.14 MiB
    Wavefunctions: 341.80 MiB
      Arrays psit_nG: 311.46 MiB
      Eigensolver: 19.99 MiB
      Projections: 2.71 MiB
      Projectors: 4.87 MiB
      PW-descriptor: 2.77 MiB

Total number of cores used: 64
Parallelization over k-points: 16
Domain decomposition: 2 x 2 x 1

Number of atoms: 28
Number of atomic orbitals: 148
Number of bands in calculation: 112
Number of valence electrons: 180
Bands to converge: occupied

... initialized

Initializing position-dependent things.

Density initialized from atomic densities
Creating initial wave functions:
  112 bands from LCAO basis set

     .-------------------------.  
    /|         OP              |  
   / |O            O        O  |  
  /  |       O            O  P |  
 *   |O    Mn      O           |  
 |   |          OLi          O |  
 |   P--O--------------Mn------.  
 |  /          Li    O  Mn  O /   
 | /LiO           PO         /    
 |/       Mn                /     
 *Li-----------------------*      

Positions:
   0 O     -1.330281   -2.539252   -1.168500    ( 0.0000,  0.0000,  0.0000)
   1 O     -3.152392    2.974909    1.200956    ( 0.0000,  0.0000,  0.0000)
   2 O      2.077234    0.510133    1.506966    ( 0.0000,  0.0000,  0.0000)
   3 O      3.899724   -0.074476   -0.862491    ( 0.0000,  0.0000,  0.0000)
   4 O      2.077424    2.974966    1.507072    ( 0.0000,  0.0000,  0.0000)
   5 O      3.899535   -2.539195   -0.862384    ( 0.0000,  0.0000,  0.0000)
   6 O     -1.330092   -0.074418   -1.168395    ( 0.0000,  0.0000,  0.0000)
   7 O     -3.152581    0.510191    1.201063    ( 0.0000,  0.0000,  0.0000)
   8 O     -4.389675   -1.306969   -0.813152    ( 0.0000,  0.0000,  0.0000)
   9 O     -0.093301    1.742683    1.556268    ( 0.0000,  0.0000,  0.0000)
  10 O      5.146817    1.742683    1.151723    ( 0.0000,  0.0000,  0.0000)
  11 O      0.840444   -1.306969   -1.217697    ( 0.0000,  0.0000,  0.0000)
  12 Mn    -2.557192   -1.307258    0.273595    ( 0.0000,  0.0000,  1.0000)
  13 Mn    -1.925535    1.742972   -2.096623    ( 0.0000,  0.0000, -1.0000)
  14 Mn     3.304335    1.742972    0.064976    ( 0.0000,  0.0000, -1.0000)
  15 Mn     2.672678   -1.307258    2.435195    ( 0.0000,  0.0000,  1.0000)
  16 P     -0.597175   -1.306854   -1.801474    ( 0.0000,  0.0000,  0.0000)
  17 P     -3.885565    1.742568    0.568028    ( 0.0000,  0.0000,  0.0000)
  18 P      1.344318    1.742568    2.140045    ( 0.0000,  0.0000,  0.0000)
  19 P      4.632708   -1.306854   -0.229456    ( 0.0000,  0.0000,  0.0000)
  20 O     -0.636957   -1.306861    1.403074    ( 0.0000,  0.0000,  0.0000)
  21 O     -3.845824    1.742575   -0.967462    ( 0.0000,  0.0000,  0.0000)
  22 O      1.384100    1.742576   -1.064503    ( 0.0000,  0.0000,  0.0000)
  23 O      4.592967   -1.306861    1.306033    ( 0.0000,  0.0000,  0.0000)
  24 Li    -4.856429   -2.832143   -2.200714    ( 0.0000,  0.0000,  0.0000)
  25 Li     0.373571   -2.832143    0.169286    ( 0.0000,  0.0000,  0.0000)
  26 Li    -4.856429    0.217857   -2.200714    ( 0.0000,  0.0000,  0.0000)
  27 Li     0.373571    0.217857    0.169286    ( 0.0000,  0.0000,  0.0000)

Unit cell:
           periodic     x           y           z      points  spacing
  1. axis:    yes   10.460000    0.000000    0.000000    60     0.1743
  2. axis:    yes    0.000000    6.100000    0.000000    35     0.1743
  3. axis:    yes    0.000000    0.000000    4.740000    27     0.1756

  Lengths:  10.460000   6.100000   4.740000
  Angles:   90.000000  90.000000  90.000000

Effective grid spacing dv^(1/3) = 0.1747

                     log10-error:           total        iterations:
           time      wfs    density  force  energy       poisson  magmom
iter:   1  14:10:38                       -220.696316             +0.0000
iter:   2  14:10:59  -0.64  -0.92         -235.516471             +0.0000
iter:   3  14:11:21  -0.40  -0.96         -226.167540             -0.0000
iter:   4  14:11:42  -1.41  -1.29         -225.885946             +0.0000
iter:   5  14:12:04  -1.19  -1.38         -227.592639             +0.0000
iter:   6  14:12:25  -1.39  -1.51         -225.827470             +0.0000
iter:   7  14:12:47  -2.57  -2.06         -225.899832             +0.0000
iter:   8  14:13:08  -2.23  -2.01         -225.633636             -0.0000
iter:   9  14:13:30  -2.69  -2.10         -225.545055             +0.0000
iter:  10  14:13:51  -3.56  -2.95         -225.544717             +0.0000
iter:  11  14:14:13  -3.95  -2.99         -225.545768             +0.0000
iter:  12  14:14:34  -4.31  -3.23         -225.545910             +0.0000
iter:  13  14:14:55  -5.46  -3.37         -225.545818             -0.0000
iter:  14  14:15:17  -5.28  -3.44         -225.545664             -0.0000
iter:  15  14:15:38  -5.50  -3.61         -225.545618             -0.0000
iter:  16  14:16:00  -6.38  -3.66         -225.545593             +0.0000
iter:  17  14:16:21  -6.03  -3.72         -225.545616             -0.0000
iter:  18  14:16:43  -6.54  -3.79         -225.545615             -0.0000
iter:  19  14:17:04  -6.19  -3.83         -225.545570             -0.0000
iter:  20  14:17:25  -6.78  -4.06         -225.545567             -0.0000
iter:  21  14:17:47  -6.19  -4.20         -225.545577             -0.0000
iter:  22  14:18:08  -6.68  -4.44         -225.545562             -0.0000
iter:  23  14:18:35  -7.43  -4.74         -225.545569             -0.0000
iter:  24  14:19:02  -8.41  -4.79    -3.54-225.545568             -0.0000
iter:  25  14:19:29  -7.65  -4.83    -3.00-225.545566             -0.0000
iter:  26  14:19:55  -8.21  -5.01    -3.18-225.545566             -0.0000
iter:  27  14:20:22  -9.01  -5.05    -3.48-225.545566             -0.0000
iter:  28  14:20:49  -9.08  -5.09    -3.78-225.545566             -0.0000
iter:  29  14:21:16  -7.79  -5.12    -3.20-225.545566             -0.0000
iter:  30  14:21:43  -9.08  -5.56    -3.73-225.545566             -0.0000
iter:  31  14:22:09  -9.77  -5.78    -3.96-225.545566             -0.0000
iter:  32  14:22:36 -10.32  -5.91    -3.81-225.545566             -0.0000
iter:  33  14:23:03 -11.10  -6.14    -4.63-225.545566             -0.0000
iter:  34  14:23:30  -9.44  -6.18    -4.18-225.545566             -0.0000
iter:  35  14:23:57 -10.99  -6.09    -4.76-225.545566             -0.0000
iter:  36  14:24:23 -10.34  -6.12    -4.52-225.545566             +0.0000
iter:  37  14:24:50 -10.46  -6.24    -4.65-225.545566             -0.0000
iter:  38  14:25:17 -10.99  -6.38    -4.60-225.545566             -0.0000
iter:  39  14:25:44 -10.73  -6.46    -4.67-225.545566             -0.0000
iter:  40  14:26:10 -11.25  -6.51    -4.78-225.545566             -0.0000
iter:  41  14:26:37 -11.17  -6.60    -4.52-225.545566             -0.0000
iter:  42  14:27:04 -10.85  -6.59    -4.91-225.545566             -0.0000
iter:  43  14:27:31 -11.95  -7.00    -5.10-225.545566             -0.0000
iter:  44  14:27:57 -12.85  -7.09    -5.38-225.545566             -0.0000
iter:  45  14:28:24 -11.81  -7.12    -5.10-225.545566             -0.0000
iter:  46  14:28:51 -11.72  -7.15    -5.31-225.545566             -0.0000
iter:  47  14:29:18 -13.36  -7.52    -5.74-225.545566             -0.0000
iter:  48  14:29:45 -12.66  -7.61    -5.57-225.545566             -0.0000
iter:  49  14:30:11 -13.27  -7.57    -6.07-225.545566             -0.0000

Converged after 49 iterations.

Dipole moment: (13.151707, 1.714349, -5.510758) |e|*Ang

Total magnetic moment: (0.000000, 0.000000, -0.000000)
Local magnetic moments:
   0 O  ( 0.000000,  0.000000,  0.001065)
   1 O  ( 0.000000,  0.000000, -0.001000)
   2 O  ( 0.000000,  0.000000, -0.001059)
   3 O  ( 0.000000,  0.000000,  0.001088)
   4 O  ( 0.000000,  0.000000, -0.001067)
   5 O  ( 0.000000,  0.000000,  0.001096)
   6 O  ( 0.000000,  0.000000,  0.001057)
   7 O  ( 0.000000,  0.000000, -0.000992)
   8 O  ( 0.000000,  0.000000,  0.019743)
   9 O  ( 0.000000,  0.000000, -0.019728)
  10 O  ( 0.000000,  0.000000, -0.019551)
  11 O  ( 0.000000,  0.000000,  0.019817)
  12 Mn ( 0.000000,  0.000000,  4.601520)
  13 Mn ( 0.000000,  0.000000, -4.601579)
  14 Mn ( 0.000000,  0.000000, -4.602279)
  15 Mn ( 0.000000,  0.000000,  4.601608)
  16 P  ( 0.000000,  0.000000,  0.001292)
  17 P  ( 0.000000,  0.000000, -0.001169)
  18 P  ( 0.000000,  0.000000, -0.001296)
  19 P  ( 0.000000,  0.000000,  0.001317)
  20 O  ( 0.000000,  0.000000,  0.018078)
  21 O  ( 0.000000,  0.000000, -0.018094)
  22 O  ( 0.000000,  0.000000, -0.018192)
  23 O  ( 0.000000,  0.000000,  0.018066)
  24 Li ( 0.000000,  0.000000,  0.000018)
  25 Li ( 0.000000,  0.000000,  0.000000)
  26 Li ( 0.000000,  0.000000,  0.000018)
  27 Li ( 0.000000,  0.000000,  0.000000)

Energy contributions relative to reference atoms: (reference = -196157.275402)

Kinetic:       +243.586309
Potential:     -215.939373
External:        +0.000000
XC:            -255.106483
Entropy (-ST):   -0.000000
Local:           +1.913982
--------------------------
Free energy:   -225.545566
Extrapolated:  -225.545566

Spin contamination: 9.747583 electrons
Showing only first 2 kpts
                      Up                     Down
 Kpt  Band  Eigenvalues  Occupancy  Eigenvalues  Occupancy
  0    88      3.92291    0.00694      3.90528    0.00694
  0    89      3.97447    0.00694      3.96717    0.00694
  0    90      8.65401    0.00000      8.66957    0.00000
  0    91      8.69273    0.00000      8.68602    0.00000

  1    88      3.91952    0.00694      3.90150    0.00694
  1    89      3.97815    0.00694      3.96982    0.00694
  1    90      8.49889    0.00000      8.51362    0.00000
  1    91      8.53533    0.00000      8.53126    0.00000


Fermi level: 5.31837

Gap: 3.777 eV
Transition (v -> c):
  (s=0, k=69, n=89, [-0.08, 0.42, -0.12]) -> (s=1, k=58, n=90, [-0.08, -0.08, 0.12])
Writing to born-0.01-10x+.gpw (mode='all')

Timing:                              incl.     excl.
-----------------------------------------------------------
Hamiltonian:                         0.272     0.002   0.0% |
 Atomic:                             0.058     0.058   0.0% |
  XC Correction:                     0.000     0.000   0.0% |
 Calculate atomic Hamiltonians:      0.099     0.099   0.0% |
 Communicate:                        0.016     0.016   0.0% |
 Initialize Hamiltonian:             0.000     0.000   0.0% |
 Poisson:                            0.001     0.001   0.0% |
 XC 3D grid:                         0.095     0.095   0.0% |
LCAO initialization:                66.005     0.684   0.0% |
 LCAO eigensolver:                  17.383     0.004   0.0% |
  Calculate projections:             0.030     0.030   0.0% |
  DenseAtomicCorrection:             0.043     0.043   0.0% |
  Distribute overlap matrix:         0.049     0.049   0.0% |
  Orbital Layouts:                   0.414     0.414   0.0% |
  Potential matrix:                 16.744    16.744   0.5% |
  Sum over cells:                    0.099     0.099   0.0% |
 LCAO to grid:                      46.606    46.606   1.5% ||
 Set positions (LCAO WFS):           1.332     0.191   0.0% |
  Basic WFS set positions:           0.001     0.001   0.0% |
  Basis functions set positions:     0.000     0.000   0.0% |
  P tci:                             0.559     0.559   0.0% |
  ST tci:                            0.368     0.368   0.0% |
  mktci:                             0.212     0.212   0.0% |
PWDescriptor:                        0.026     0.026   0.0% |
SCF-cycle:                        1197.253     2.468   0.1% |
 Davidson:                         995.128   311.977   9.8% |---|
  Apply H:                          67.827    65.876   2.1% ||
   HMM T:                            1.951     1.951   0.1% |
  Subspace diag:                   143.418     0.141   0.0% |
   calc_h_matrix:                   91.370    24.457   0.8% |
    Apply H:                        66.913    65.039   2.0% ||
     HMM T:                          1.874     1.874   0.1% |
   diagonalize:                      6.616     6.616   0.2% |
   rotate_psi:                      45.292    45.292   1.4% ||
  calc. matrices:                  295.111   164.273   5.2% |-|
   Apply H:                        130.838   127.307   4.0% |-|
    HMM T:                           3.531     3.531   0.1% |
  diagonalize:                      81.458    81.458   2.6% ||
  rotate_psi:                       95.338    95.338   3.0% ||
 Density:                           39.935     0.001   0.0% |
  Atomic density matrices:           0.874     0.874   0.0% |
  Mix:                               6.247     6.247   0.2% |
  Multipole moments:                 0.018     0.018   0.0% |
  Pseudo density:                   32.794    32.793   1.0% |
   Symmetrize density:               0.001     0.001   0.0% |
 Forces:                           145.230   145.230   4.6% |-|
 Hamiltonian:                       12.184     0.108   0.0% |
  Atomic:                            2.955     2.954   0.1% |
   XC Correction:                    0.000     0.000   0.0% |
  Calculate atomic Hamiltonians:     4.498     4.498   0.1% |
  Communicate:                       0.078     0.078   0.0% |
  Poisson:                           0.041     0.041   0.0% |
  XC 3D grid:                        4.504     4.504   0.1% |
 Orthonormalize:                     2.308     0.003   0.0% |
  calc_s_matrix:                     0.268     0.268   0.0% |
  inverse-cholesky:                  0.070     0.070   0.0% |
  projections:                       1.489     1.489   0.0% |
  rotate_psi_s:                      0.477     0.477   0.0% |
Set symmetry:                        0.000     0.000   0.0% |
Other:                            1919.916  1919.916  60.3% |-----------------------|
-----------------------------------------------------------
Total:                                      3183.472 100.0%

Memory usage: 11.69 GiB
Date: Tue Mar 23 15:02:10 2021
