
  ___ ___ ___ _ _ _  
 |   |   |_  | | | | 
 | | | | | . | | | | 
 |__ |  _|___|_____|  20.10.1b1
 |___|_|             

User:   madkru@g031.nifl.fysik.dtu.dk
Date:   Sun Mar 21 12:03:05 2021
Arch:   x86_64
Pid:    47913
Python: 3.7.4
gpaw:   /home/niflheim/madkru/venv_folder/gpaw/gpaw (d0d1ca1c71)
_gpaw:  /home/niflheim/madkru/venv_folder/gpaw/build/lib.linux-x86_64-sandybridge-3.7/
        _gpaw.cpython-37m-x86_64-linux-gnu.so (4fd39e8b1e)
ase:    /home/niflheim/madkru/venv_folder/ase/ase (version 3.21.0b1-7e6c206a91)
numpy:  /home/niflheim/madkru/venv_folder/lib/python3.7/site-packages/numpy (version 1.19.4)
scipy:  /home/niflheim/madkru/venv_folder/lib/python3.7/site-packages/scipy (version 1.5.4)
libxc:  4.3.4
units:  Angstrom and eV
cores: 32
OMP_NUM_THREADS: 1

Input parameters:
  convergence: {bands: occupied,
                density: 0.0001,
                eigenstates: 4e-08,
                energy: 0.0005,
                forces: 1e-06}
  kpts: [6 6 4]
  mode: {ecut: 600.0,
         gammacentered: False,
         name: pw}
  occupations: {fixmagmom: False,
                name: fermi-dirac,
                width: 0.001}
  setups: {Mn: :d,3.0}
  symmetry: {point_group: False,
             time_reversal: False}

System changes: positions, numbers, cell, pbc, initial_charges, initial_magmoms 

Initialize ...

O-setup:
  name: Oxygen
  id: 9b9d51c344dea68c822856295a461509
  Z: 8.0
  valence: 6
  core: 2
  charge: 0.0
  file: /home/modules/software/GPAW-setups/0.9.20000/O.LDA.gz
  compensation charges: gauss, rc=0.21, lmax=2
  cutoffs: 1.17(filt), 0.83(core),
  valence states:
                energy  radius
    2s(2.00)   -23.752   0.688
    2p(4.00)    -9.195   0.598
    *s           3.459   0.688
    *p          18.016   0.598
    *d           0.000   0.619

  Using partial waves for O as LCAO basis

Mn-setup:
  name: Manganese
  id: 0d715a8018be061a6e9ea6f2d364ac92
  Z: 25.0
  valence: 15
  core: 10
  charge: 0.0
  Hubbard U: 3.000000 eV (l=2, scale=True)
  file: /home/modules/software/GPAW-setups/0.9.20000/Mn.LDA.gz
  compensation charges: gauss, rc=0.38, lmax=2
  cutoffs: 2.14(filt), 0.86(core),
  valence states:
                energy  radius
    3s(2.00)   -85.387   1.275
    4s(2.00)    -5.282   1.275
    3p(6.00)   -54.493   1.281
    4p(0.00)    -1.471   1.281
    3d(5.00)    -7.009   1.138
    *d          20.203   1.138

  Using partial waves for Mn as LCAO basis

P-setup:
  name: Phosphorus
  id: a5561c299094968922a179ab894d2e2d
  Z: 15.0
  valence: 5
  core: 10
  charge: 0.0
  file: /home/modules/software/GPAW-setups/0.9.20000/P.LDA.gz
  compensation charges: gauss, rc=0.30, lmax=2
  cutoffs: 1.69(filt), 1.81(core),
  valence states:
                energy  radius
    3s(2.00)   -14.015   0.953
    3p(3.00)    -5.596   0.953
    *s          13.197   0.953
    *p          21.615   0.953
    *d           0.000   0.953

  Using partial waves for P as LCAO basis

Li-setup:
  name: Lithium
  id: b73562207f97a71b6967473b66fe8b65
  Z: 3.0
  valence: 1
  core: 2
  charge: 0.0
  file: /home/modules/software/GPAW-setups/0.9.20000/Li.LDA.gz
  compensation charges: gauss, rc=0.33, lmax=2
  cutoffs: 1.91(filt), 2.55(core),
  valence states:
                energy  radius
    2s(1.00)    -2.874   1.058
    2p(0.00)    -1.126   1.058
    *s          24.338   1.058

  Using partial waves for Li as LCAO basis

Reference energy: -196157.275402

Spin-polarized calculation.
Magnetic moment: 0.000000

Convergence criteria:
  Maximum total energy change: 0.0005 eV / electron
  Maximum integral of absolute density change: 0.0001 electrons
  Maximum integral of absolute eigenstate change: 4e-08 eV^2
  Maximum change in atomic force: 1e-06 eV / Ang
  Maximum number of iterations: 333

Symmetries present (total): 1

  ( 1  0  0)
  ( 0  1  0)
  ( 0  0  1)

144 k-points: 6 x 6 x 4 Monkhorst-Pack grid
144 k-points in the irreducible part of the Brillouin zone
       k-points in crystal coordinates                weights
   0:    -0.41666667   -0.41666667   -0.37500000          1/144
   1:    -0.41666667   -0.41666667   -0.12500000          1/144
   2:    -0.41666667   -0.41666667    0.12500000          1/144
   3:    -0.41666667   -0.41666667    0.37500000          1/144
   4:    -0.41666667   -0.25000000   -0.37500000          1/144
   5:    -0.41666667   -0.25000000   -0.12500000          1/144
   6:    -0.41666667   -0.25000000    0.12500000          1/144
   7:    -0.41666667   -0.25000000    0.37500000          1/144
   8:    -0.41666667   -0.08333333   -0.37500000          1/144
   9:    -0.41666667   -0.08333333   -0.12500000          1/144
          ...
 143:     0.41666667    0.41666667    0.37500000          1/144

Wave functions: Plane wave expansion
  Cutoff energy: 600.000 eV
  Number of coefficients (min, max): 10068, 10125
  Pulay-stress correction: 0.000000 eV/Ang^3 (de/decut=0.000000)
  Using FFTW library
  ScaLapack parameters: grid=1x1, blocksize=None
  Wavefunction extrapolation:
    Improved wavefunction reuse through dual PAW basis 

  Fermi-Dirac: width=0.0010 eV

Eigensolver
   Davidson(niter=2, smin=None, normalize=True) 

Densities:
  Coarse grid: 60*35*27 grid
  Fine grid: 120*70*54 grid
  Total Charge: 0.000000 

Density mixing:
  Method: difference
  Backend: pulay
  Linear mixing parameter: 0.05
  Mixing with 5 old densities
  Damping of long wave oscillations: 50 

Hamiltonian:
  XC and Coulomb potentials evaluated on a 120*70*54 grid
  Using the LDA Exchange-Correlation functional
 

Memory estimate:
  Process memory now: 12429.48 MiB
  Calculator: 375.55 MiB
    Density: 20.02 MiB
      Arrays: 7.57 MiB
      Localized functions: 9.42 MiB
      Mixer: 3.03 MiB
    Hamiltonian: 5.90 MiB
      Arrays: 5.62 MiB
      XC: 0.00 MiB
      Poisson: 0.00 MiB
      vbar: 0.27 MiB
    Wavefunctions: 349.64 MiB
      Arrays psit_nG: 311.46 MiB
      Eigensolver: 19.99 MiB
      Projections: 5.41 MiB
      Projectors: 9.73 MiB
      PW-descriptor: 3.03 MiB

Total number of cores used: 32
Parallelization over k-points: 16
Domain decomposition: 2 x 1 x 1

Number of atoms: 28
Number of atomic orbitals: 148
Number of bands in calculation: 112
Number of valence electrons: 180
Bands to converge: occupied

... initialized

Initializing position-dependent things.

Density initialized from atomic densities
Creating initial wave functions:
  112 bands from LCAO basis set

     .-------------------------.  
    /|         OP              |  
   / |O            O        O  |  
  /  |       O            O  P |  
 *   |O    Mn      O           |  
 |   |          OLi          O |  
 |   P--O--------------Mn------.  
 |  /          Li    O  Mn  O /   
 | /LiO           PO         /    
 |/       Mn                /     
 *Li-----------------------*      

Positions:
   0 O     -1.330281   -2.539252   -1.168500    ( 0.0000,  0.0000,  0.0000)
   1 O     -3.152392    2.974909    1.190956    ( 0.0000,  0.0000,  0.0000)
   2 O      2.077234    0.510133    1.506966    ( 0.0000,  0.0000,  0.0000)
   3 O      3.899724   -0.074476   -0.862491    ( 0.0000,  0.0000,  0.0000)
   4 O      2.077424    2.974966    1.507072    ( 0.0000,  0.0000,  0.0000)
   5 O      3.899535   -2.539195   -0.862384    ( 0.0000,  0.0000,  0.0000)
   6 O     -1.330092   -0.074418   -1.168395    ( 0.0000,  0.0000,  0.0000)
   7 O     -3.152581    0.510191    1.201063    ( 0.0000,  0.0000,  0.0000)
   8 O     -4.389675   -1.306969   -0.813152    ( 0.0000,  0.0000,  0.0000)
   9 O     -0.093301    1.742683    1.556268    ( 0.0000,  0.0000,  0.0000)
  10 O      5.136817    1.742683    1.151723    ( 0.0000,  0.0000,  0.0000)
  11 O      0.840444   -1.306969   -1.217697    ( 0.0000,  0.0000,  0.0000)
  12 Mn    -2.557192   -1.307258    0.273595    ( 0.0000,  0.0000,  1.0000)
  13 Mn    -1.925535    1.742972   -2.096623    ( 0.0000,  0.0000, -1.0000)
  14 Mn     3.304335    1.742972    0.064976    ( 0.0000,  0.0000, -1.0000)
  15 Mn     2.672678   -1.307258    2.435195    ( 0.0000,  0.0000,  1.0000)
  16 P     -0.597175   -1.306854   -1.801474    ( 0.0000,  0.0000,  0.0000)
  17 P     -3.885565    1.742568    0.568028    ( 0.0000,  0.0000,  0.0000)
  18 P      1.344318    1.742568    2.140045    ( 0.0000,  0.0000,  0.0000)
  19 P      4.632708   -1.306854   -0.229456    ( 0.0000,  0.0000,  0.0000)
  20 O     -0.636957   -1.306861    1.403074    ( 0.0000,  0.0000,  0.0000)
  21 O     -3.845824    1.742575   -0.967462    ( 0.0000,  0.0000,  0.0000)
  22 O      1.384100    1.742576   -1.064503    ( 0.0000,  0.0000,  0.0000)
  23 O      4.592967   -1.306861    1.306033    ( 0.0000,  0.0000,  0.0000)
  24 Li    -4.856429   -2.832143   -2.200714    ( 0.0000,  0.0000,  0.0000)
  25 Li     0.373571   -2.832143    0.169286    ( 0.0000,  0.0000,  0.0000)
  26 Li    -4.856429    0.217857   -2.200714    ( 0.0000,  0.0000,  0.0000)
  27 Li     0.373571    0.217857    0.169286    ( 0.0000,  0.0000,  0.0000)

Unit cell:
           periodic     x           y           z      points  spacing
  1. axis:    yes   10.460000    0.000000    0.000000    60     0.1743
  2. axis:    yes    0.000000    6.100000    0.000000    35     0.1743
  3. axis:    yes    0.000000    0.000000    4.740000    27     0.1756

  Lengths:  10.460000   6.100000   4.740000
  Angles:   90.000000  90.000000  90.000000

Effective grid spacing dv^(1/3) = 0.1747

                     log10-error:           total        iterations:
           time      wfs    density  force  energy       poisson  magmom
iter:   1  12:06:02                       -220.687695             +0.0000
iter:   2  12:06:41  -0.64  -0.92         -235.505868             +0.0000
iter:   3  12:07:21  -0.40  -0.96         -226.169156             -0.0000
iter:   4  12:08:00  -1.41  -1.29         -225.887806             +0.0000
iter:   5  12:08:40  -1.19  -1.38         -227.587592             +0.0000
iter:   6  12:09:19  -1.39  -1.51         -225.828887             +0.0000
iter:   7  12:09:59  -2.57  -2.06         -225.898404             +0.0000
iter:   8  12:10:38  -2.23  -2.01         -225.642899             -0.0000
iter:   9  12:11:18  -2.68  -2.08         -225.546335             +0.0000
iter:  10  12:11:57  -3.54  -2.94         -225.545466             +0.0000
iter:  11  12:12:37  -3.95  -3.00         -225.547194             +0.0000
iter:  12  12:13:16  -4.30  -3.22         -225.547361             +0.0000
iter:  13  12:13:56  -5.37  -3.36         -225.547255             -0.0000
iter:  14  12:14:35  -5.19  -3.44         -225.547115             -0.0000
iter:  15  12:15:14  -5.36  -3.60         -225.547025             -0.0000
iter:  16  12:15:54  -6.33  -3.69         -225.547011             +0.0000
iter:  17  12:16:33  -6.27  -3.76         -225.547030             -0.0000
iter:  18  12:17:13  -6.72  -3.82         -225.547031             -0.0000
iter:  19  12:17:52  -5.83  -3.83         -225.546995             -0.0000
iter:  20  12:18:32  -7.04  -4.40         -225.546991             -0.0000
iter:  21  12:19:22  -7.92  -4.61         -225.546989             -0.0000
iter:  22  12:20:01  -7.18  -4.68         -225.546988             +0.0000
iter:  23  12:20:51  -7.62  -4.70    -2.79-225.546988             +0.0000
iter:  24  12:21:41  -8.46  -4.86    -3.18-225.546988             -0.0000
iter:  25  12:22:31  -7.66  -4.88    -2.42-225.546988             -0.0000
iter:  26  12:23:22  -7.94  -4.88    -2.77-225.546988             -0.0000
iter:  27  12:24:12  -8.72  -5.31    -3.54-225.546988             -0.0000
iter:  28  12:25:02  -9.03  -5.29    -3.36-225.546988             -0.0000
iter:  29  12:25:52  -8.52  -5.39    -3.12-225.546988             -0.0000
iter:  30  12:26:42  -9.78  -5.83    -4.58-225.546988             -0.0000
iter:  31  12:27:32  -8.97  -5.85    -3.72-225.546988             -0.0000
iter:  32  12:28:22  -9.79  -5.93    -3.75-225.546988             -0.0000
iter:  33  12:29:12 -10.16  -6.35    -4.49-225.546988             -0.0000
iter:  34  12:30:02 -10.24  -6.44    -4.04-225.546988             -0.0000
iter:  35  12:30:53 -11.42  -6.60    -4.71-225.546988             +0.0000
iter:  36  12:31:43 -10.59  -6.68    -4.29-225.546988             -0.0000
iter:  37  12:32:33 -10.63  -6.70    -4.17-225.546988             +0.0000
iter:  38  12:33:23 -11.72  -7.09    -4.82-225.546988             +0.0000
iter:  39  12:34:13 -12.99  -7.59    -5.65-225.546988             +0.0000
iter:  40  12:35:03 -13.87  -7.66    -5.96-225.546988             +0.0000
iter:  41  12:35:54 -12.77  -7.70    -5.50-225.546988             +0.0000
iter:  42  12:36:44 -13.15  -7.78    -5.56-225.546988             +0.0000
iter:  43  12:37:34 -14.72  -8.18    -6.43-225.546988             +0.0000

Converged after 43 iterations.

Dipole moment: (13.160838, 1.716360, -5.515003) |e|*Ang

Total magnetic moment: (0.000000, 0.000000, 0.000000)
Local magnetic moments:
   0 O  ( 0.000000,  0.000000,  0.001118)
   1 O  ( 0.000000,  0.000000, -0.000861)
   2 O  ( 0.000000,  0.000000, -0.001053)
   3 O  ( 0.000000,  0.000000,  0.001054)
   4 O  ( 0.000000,  0.000000, -0.001064)
   5 O  ( 0.000000,  0.000000,  0.001060)
   6 O  ( 0.000000,  0.000000,  0.000973)
   7 O  ( 0.000000,  0.000000, -0.001018)
   8 O  ( 0.000000,  0.000000,  0.019820)
   9 O  ( 0.000000,  0.000000, -0.019763)
  10 O  ( 0.000000,  0.000000, -0.019719)
  11 O  ( 0.000000,  0.000000,  0.019773)
  12 Mn ( 0.000000,  0.000000,  4.601253)
  13 Mn ( 0.000000,  0.000000, -4.601883)
  14 Mn ( 0.000000,  0.000000, -4.601526)
  15 Mn ( 0.000000,  0.000000,  4.601595)
  16 P  ( 0.000000,  0.000000,  0.001305)
  17 P  ( 0.000000,  0.000000, -0.001165)
  18 P  ( 0.000000,  0.000000, -0.001292)
  19 P  ( 0.000000,  0.000000,  0.001298)
  20 O  ( 0.000000,  0.000000,  0.018083)
  21 O  ( 0.000000,  0.000000, -0.018072)
  22 O  ( 0.000000,  0.000000, -0.018070)
  23 O  ( 0.000000,  0.000000,  0.018073)
  24 Li ( 0.000000,  0.000000,  0.000006)
  25 Li ( 0.000000,  0.000000, -0.000001)
  26 Li ( 0.000000,  0.000000, -0.000000)
  27 Li ( 0.000000,  0.000000,  0.000000)

Energy contributions relative to reference atoms: (reference = -196157.275402)

Kinetic:       +243.191929
Potential:     -215.629792
External:        +0.000000
XC:            -255.023829
Entropy (-ST):   -0.000000
Local:           +1.914704
--------------------------
Free energy:   -225.546988
Extrapolated:  -225.546988

Spin contamination: 9.747558 electrons
Showing only first 2 kpts
                      Up                     Down
 Kpt  Band  Eigenvalues  Occupancy  Eigenvalues  Occupancy
  0    88      3.92418    0.00694      3.92033    0.00694
  0    89      3.97313    0.00694      3.97020    0.00694
  0    90      8.66540    0.00000      8.66697    0.00000
  0    91      8.68365    0.00000      8.68685    0.00000

  1    88      3.92065    0.00694      3.91655    0.00694
  1    89      3.97671    0.00694      3.97359    0.00694
  1    90      8.51249    0.00000      8.51199    0.00000
  1    91      8.52744    0.00000      8.52951    0.00000


Fermi level: 5.31859

Gap: 3.778 eV
Transition (v -> c):
  (s=0, k=70, n=89, [-0.08, 0.42, 0.12]) -> (s=1, k=57, n=90, [-0.08, -0.08, -0.12])
Writing to born-0.01-1z-.gpw (mode='all')

Timing:                              incl.     excl.
-----------------------------------------------------------
Hamiltonian:                         0.419     0.003   0.0% |
 Atomic:                             0.057     0.057   0.0% |
  XC Correction:                     0.000     0.000   0.0% |
 Calculate atomic Hamiltonians:      0.183     0.183   0.0% |
 Communicate:                        0.002     0.002   0.0% |
 Initialize Hamiltonian:             0.000     0.000   0.0% |
 Poisson:                            0.002     0.002   0.0% |
 XC 3D grid:                         0.173     0.173   0.0% |
LCAO initialization:               130.790     0.674   0.0% |
 LCAO eigensolver:                  33.995     0.002   0.0% |
  Calculate projections:             0.056     0.056   0.0% |
  DenseAtomicCorrection:             0.083     0.083   0.0% |
  Distribute overlap matrix:         0.123     0.123   0.0% |
  Orbital Layouts:                   0.361     0.361   0.0% |
  Potential matrix:                 33.270    33.270   0.7% |
  Sum over cells:                    0.101     0.101   0.0% |
 LCAO to grid:                      93.831    93.831   2.0% ||
 Set positions (LCAO WFS):           2.289     0.344   0.0% |
  Basic WFS set positions:           0.001     0.001   0.0% |
  Basis functions set positions:     0.000     0.000   0.0% |
  P tci:                             1.051     1.051   0.0% |
  ST tci:                            0.657     0.657   0.0% |
  mktci:                             0.235     0.235   0.0% |
PWDescriptor:                        0.025     0.025   0.0% |
SCF-cycle:                        1935.652     3.367   0.1% |
 Davidson:                        1612.054   523.148  11.1% |---|
  Apply H:                         114.235   110.946   2.4% ||
   HMM T:                            3.289     3.289   0.1% |
  Subspace diag:                   238.974     0.139   0.0% |
   calc_h_matrix:                  155.587    42.570   0.9% |
    Apply H:                       113.016   109.832   2.3% ||
     HMM T:                          3.184     3.184   0.1% |
   diagonalize:                      5.293     5.293   0.1% |
   rotate_psi:                      77.956    77.956   1.7% ||
  calc. matrices:                  505.040   284.204   6.0% |-|
   Apply H:                        220.835   214.902   4.6% |-|
    HMM T:                           5.933     5.933   0.1% |
  diagonalize:                      72.048    72.048   1.5% ||
  rotate_psi:                      158.610   158.610   3.4% ||
 Density:                           63.665     0.001   0.0% |
  Atomic density matrices:           1.167     1.167   0.0% |
  Mix:                              10.352    10.352   0.2% |
  Multipole moments:                 0.025     0.025   0.0% |
  Pseudo density:                   52.119    52.118   1.1% |
   Symmetrize density:               0.001     0.001   0.0% |
 Forces:                           234.151   234.151   5.0% |-|
 Hamiltonian:                       18.010     0.112   0.0% |
  Atomic:                            2.496     2.496   0.1% |
   XC Correction:                    0.000     0.000   0.0% |
  Calculate atomic Hamiltonians:     7.788     7.788   0.2% |
  Communicate:                       0.065     0.065   0.0% |
  Poisson:                           0.073     0.073   0.0% |
  XC 3D grid:                        7.476     7.476   0.2% |
 Orthonormalize:                     4.405     0.004   0.0% |
  calc_s_matrix:                     0.523     0.523   0.0% |
  inverse-cholesky:                  0.054     0.054   0.0% |
  projections:                       2.892     2.892   0.1% |
  rotate_psi_s:                      0.932     0.932   0.0% |
Set symmetry:                        0.000     0.000   0.0% |
Other:                            2649.622  2649.622  56.2% |---------------------|
-----------------------------------------------------------
Total:                                      4716.509 100.0%

Memory usage: 12.14 GiB
Date: Sun Mar 21 13:21:41 2021
