
  ___ ___ ___ _ _ _  
 |   |   |_  | | | | 
 | | | | | . | | | | 
 |__ |  _|___|_____|  20.10.1b1
 |___|_|             

User:   madkru@g006.nifl.fysik.dtu.dk
Date:   Thu Mar 25 09:09:30 2021
Arch:   x86_64
Pid:    12017
Python: 3.7.4
gpaw:   /home/niflheim/madkru/venv_folder/gpaw/gpaw (d224efde0f)
_gpaw:  /home/niflheim/madkru/venv_folder/gpaw/build/lib.linux-x86_64-sandybridge-3.7/
        _gpaw.cpython-37m-x86_64-linux-gnu.so (4fd39e8b1e)
ase:    /home/niflheim/madkru/venv_folder/ase/ase (version 3.21.0b1-4d5a73cb29)
numpy:  /home/niflheim/madkru/venv_folder/lib/python3.7/site-packages/numpy (version 1.19.4)
scipy:  /home/niflheim/madkru/venv_folder/lib/python3.7/site-packages/scipy (version 1.5.4)
libxc:  4.3.4
units:  Angstrom and eV
cores: 64
OMP_NUM_THREADS: 1

Input parameters:
  convergence: {bands: occupied,
                density: 0.0001,
                eigenstates: 4e-08,
                energy: 0.0005,
                forces: 1e-06}
  kpts: [6 6 4]
  mode: {ecut: 600.0,
         gammacentered: False,
         name: pw}
  occupations: {fixmagmom: False,
                name: fermi-dirac,
                width: 0.001}
  setups: {Mn: :d,3.0}
  symmetry: {point_group: False,
             time_reversal: False}

System changes: positions, numbers, cell, pbc, initial_charges, initial_magmoms 

Initialize ...

O-setup:
  name: Oxygen
  id: 9b9d51c344dea68c822856295a461509
  Z: 8.0
  valence: 6
  core: 2
  charge: 0.0
  file: /home/modules/software/GPAW-setups/0.9.20000/O.LDA.gz
  compensation charges: gauss, rc=0.21, lmax=2
  cutoffs: 1.17(filt), 0.83(core),
  valence states:
                energy  radius
    2s(2.00)   -23.752   0.688
    2p(4.00)    -9.195   0.598
    *s           3.459   0.688
    *p          18.016   0.598
    *d           0.000   0.619

  Using partial waves for O as LCAO basis

Mn-setup:
  name: Manganese
  id: 0d715a8018be061a6e9ea6f2d364ac92
  Z: 25.0
  valence: 15
  core: 10
  charge: 0.0
  Hubbard U: 3.000000 eV (l=2, scale=True)
  file: /home/modules/software/GPAW-setups/0.9.20000/Mn.LDA.gz
  compensation charges: gauss, rc=0.38, lmax=2
  cutoffs: 2.14(filt), 0.86(core),
  valence states:
                energy  radius
    3s(2.00)   -85.387   1.275
    4s(2.00)    -5.282   1.275
    3p(6.00)   -54.493   1.281
    4p(0.00)    -1.471   1.281
    3d(5.00)    -7.009   1.138
    *d          20.203   1.138

  Using partial waves for Mn as LCAO basis

P-setup:
  name: Phosphorus
  id: a5561c299094968922a179ab894d2e2d
  Z: 15.0
  valence: 5
  core: 10
  charge: 0.0
  file: /home/modules/software/GPAW-setups/0.9.20000/P.LDA.gz
  compensation charges: gauss, rc=0.30, lmax=2
  cutoffs: 1.69(filt), 1.81(core),
  valence states:
                energy  radius
    3s(2.00)   -14.015   0.953
    3p(3.00)    -5.596   0.953
    *s          13.197   0.953
    *p          21.615   0.953
    *d           0.000   0.953

  Using partial waves for P as LCAO basis

Li-setup:
  name: Lithium
  id: b73562207f97a71b6967473b66fe8b65
  Z: 3.0
  valence: 1
  core: 2
  charge: 0.0
  file: /home/modules/software/GPAW-setups/0.9.20000/Li.LDA.gz
  compensation charges: gauss, rc=0.33, lmax=2
  cutoffs: 1.91(filt), 2.55(core),
  valence states:
                energy  radius
    2s(1.00)    -2.874   1.058
    2p(0.00)    -1.126   1.058
    *s          24.338   1.058

  Using partial waves for Li as LCAO basis

Reference energy: -196157.275402

Spin-polarized calculation.
Magnetic moment: 0.000000

Convergence criteria:
  Maximum total energy change: 0.0005 eV / electron
  Maximum integral of absolute density change: 0.0001 electrons
  Maximum integral of absolute eigenstate change: 4e-08 eV^2
  Maximum change in atomic force: 1e-06 eV / Ang
  Maximum number of iterations: 333

Symmetries present (total): 1

  ( 1  0  0)
  ( 0  1  0)
  ( 0  0  1)

144 k-points: 6 x 6 x 4 Monkhorst-Pack grid
144 k-points in the irreducible part of the Brillouin zone
       k-points in crystal coordinates                weights
   0:    -0.41666667   -0.41666667   -0.37500000          1/144
   1:    -0.41666667   -0.41666667   -0.12500000          1/144
   2:    -0.41666667   -0.41666667    0.12500000          1/144
   3:    -0.41666667   -0.41666667    0.37500000          1/144
   4:    -0.41666667   -0.25000000   -0.37500000          1/144
   5:    -0.41666667   -0.25000000   -0.12500000          1/144
   6:    -0.41666667   -0.25000000    0.12500000          1/144
   7:    -0.41666667   -0.25000000    0.37500000          1/144
   8:    -0.41666667   -0.08333333   -0.37500000          1/144
   9:    -0.41666667   -0.08333333   -0.12500000          1/144
          ...
 143:     0.41666667    0.41666667    0.37500000          1/144

Wave functions: Plane wave expansion
  Cutoff energy: 600.000 eV
  Number of coefficients (min, max): 10068, 10125
  Pulay-stress correction: 0.000000 eV/Ang^3 (de/decut=0.000000)
  Using FFTW library
  ScaLapack parameters: grid=1x1, blocksize=None
  Wavefunction extrapolation:
    Improved wavefunction reuse through dual PAW basis 

  Fermi-Dirac: width=0.0010 eV

Eigensolver
   Davidson(niter=2, smin=None, normalize=True) 

Densities:
  Coarse grid: 60*35*27 grid
  Fine grid: 120*70*54 grid
  Total Charge: 0.000000 

Density mixing:
  Method: difference
  Backend: pulay
  Linear mixing parameter: 0.05
  Mixing with 5 old densities
  Damping of long wave oscillations: 50 

Hamiltonian:
  XC and Coulomb potentials evaluated on a 120*70*54 grid
  Using the LDA Exchange-Correlation functional
 

Memory estimate:
  Process memory now: 13775.72 MiB
  Calculator: 354.82 MiB
    Density: 10.06 MiB
      Arrays: 3.79 MiB
      Localized functions: 4.71 MiB
      Mixer: 1.56 MiB
    Hamiltonian: 2.95 MiB
      Arrays: 2.82 MiB
      XC: 0.00 MiB
      Poisson: 0.00 MiB
      vbar: 0.14 MiB
    Wavefunctions: 341.80 MiB
      Arrays psit_nG: 311.46 MiB
      Eigensolver: 19.99 MiB
      Projections: 2.71 MiB
      Projectors: 4.87 MiB
      PW-descriptor: 2.77 MiB

Total number of cores used: 64
Parallelization over k-points: 16
Domain decomposition: 2 x 2 x 1

Number of atoms: 28
Number of atomic orbitals: 148
Number of bands in calculation: 112
Number of valence electrons: 180
Bands to converge: occupied

... initialized

Initializing position-dependent things.

Density initialized from atomic densities
Creating initial wave functions:
  112 bands from LCAO basis set

     .-------------------------.  
    /|         OP              |  
   / |O            O        O  |  
  /  |       O            O  P |  
 *   |O    Mn      O           |  
 |   |          OLi          O |  
 |   P--O--------------Mn------.  
 |  /          Li    O  Mn  O /   
 | /LiO           PO         /    
 |/       Mn                /     
 *Li-----------------------*      

Positions:
   0 O     -1.330281   -2.539252   -1.168500    ( 0.0000,  0.0000,  0.0000)
   1 O     -3.152392    2.974909    1.200956    ( 0.0000,  0.0000,  0.0000)
   2 O      2.077234    0.510133    1.506966    ( 0.0000,  0.0000,  0.0000)
   3 O      3.899724   -0.074476   -0.862491    ( 0.0000,  0.0000,  0.0000)
   4 O      2.077424    2.974966    1.507072    ( 0.0000,  0.0000,  0.0000)
   5 O      3.899535   -2.539195   -0.862384    ( 0.0000,  0.0000,  0.0000)
   6 O     -1.330092   -0.074418   -1.168395    ( 0.0000,  0.0000,  0.0000)
   7 O     -3.152581    0.510191    1.201063    ( 0.0000,  0.0000,  0.0000)
   8 O     -4.389675   -1.306969   -0.813152    ( 0.0000,  0.0000,  0.0000)
   9 O     -0.093301    1.742683    1.556268    ( 0.0000,  0.0000,  0.0000)
  10 O      5.136817    1.742683    1.151723    ( 0.0000,  0.0000,  0.0000)
  11 O      0.840444   -1.306969   -1.217697    ( 0.0000,  0.0000,  0.0000)
  12 Mn    -2.557192   -1.307258    0.273595    ( 0.0000,  0.0000,  1.0000)
  13 Mn    -1.925535    1.742972   -2.096623    ( 0.0000,  0.0000, -1.0000)
  14 Mn     3.304335    1.742972    0.064976    ( 0.0000,  0.0000, -1.0000)
  15 Mn     2.672678   -1.307258    2.435195    ( 0.0000,  0.0000,  1.0000)
  16 P     -0.597175   -1.306854   -1.801474    ( 0.0000,  0.0000,  0.0000)
  17 P     -3.885565    1.742568    0.568028    ( 0.0000,  0.0000,  0.0000)
  18 P      1.344318    1.742568    2.140045    ( 0.0000,  0.0000,  0.0000)
  19 P      4.632708   -1.306854   -0.229456    ( 0.0000,  0.0000,  0.0000)
  20 O     -0.636957   -1.306861    1.403074    ( 0.0000,  0.0000,  0.0000)
  21 O     -3.845824    1.742575   -0.967462    ( 0.0000,  0.0000,  0.0000)
  22 O      1.384100    1.742576   -1.064503    ( 0.0000,  0.0000,  0.0000)
  23 O      4.592967   -1.306861    1.306033    ( 0.0000,  0.0000,  0.0000)
  24 Li    -4.856429   -2.822143   -2.200714    ( 0.0000,  0.0000,  0.0000)
  25 Li     0.373571   -2.832143    0.169286    ( 0.0000,  0.0000,  0.0000)
  26 Li    -4.856429    0.217857   -2.200714    ( 0.0000,  0.0000,  0.0000)
  27 Li     0.373571    0.217857    0.169286    ( 0.0000,  0.0000,  0.0000)

Unit cell:
           periodic     x           y           z      points  spacing
  1. axis:    yes   10.460000    0.000000    0.000000    60     0.1743
  2. axis:    yes    0.000000    6.100000    0.000000    35     0.1743
  3. axis:    yes    0.000000    0.000000    4.740000    27     0.1756

  Lengths:  10.460000   6.100000   4.740000
  Angles:   90.000000  90.000000  90.000000

Effective grid spacing dv^(1/3) = 0.1747

                     log10-error:           total        iterations:
           time      wfs    density  force  energy       poisson  magmom
iter:   1  09:11:04                       -220.688510             +0.0000
iter:   2  09:11:26  -0.64  -0.92         -235.503986             +0.0000
iter:   3  09:11:47  -0.40  -0.96         -226.168971             -0.0000
iter:   4  09:12:09  -1.41  -1.29         -225.888386             +0.0000
iter:   5  09:12:30  -1.19  -1.38         -227.589285             +0.0000
iter:   6  09:12:51  -1.39  -1.51         -225.829244             +0.0000
iter:   7  09:13:13  -2.57  -2.06         -225.899279             +0.0000
iter:   8  09:13:34  -2.23  -2.01         -225.642021             -0.0000
iter:   9  09:13:55  -2.68  -2.09         -225.546872             +0.0000
iter:  10  09:14:17  -3.55  -2.95         -225.546108             +0.0000
iter:  11  09:14:38  -3.95  -3.00         -225.547659             +0.0000
iter:  12  09:15:00  -4.29  -3.22         -225.547836             +0.0000
iter:  13  09:15:21  -5.37  -3.36         -225.547727             -0.0000
iter:  14  09:15:42  -5.18  -3.44         -225.547578             -0.0000
iter:  15  09:16:04  -5.36  -3.60         -225.547493             -0.0000
iter:  16  09:16:25  -6.31  -3.68         -225.547478             +0.0000
iter:  17  09:16:47  -6.26  -3.75         -225.547497             -0.0000
iter:  18  09:17:08  -6.76  -3.81         -225.547498             -0.0000
iter:  19  09:17:29  -5.82  -3.83         -225.547462             -0.0000
iter:  20  09:17:51  -7.01  -4.42         -225.547459             -0.0000
iter:  21  09:18:18  -7.81  -4.70         -225.547457             -0.0000
iter:  22  09:18:39  -7.23  -4.80         -225.547455             -0.0000
iter:  23  09:19:06  -7.90  -4.77    -3.04-225.547454             -0.0000
iter:  24  09:19:32  -8.49  -4.94    -3.07-225.547454             -0.0000
iter:  25  09:19:59  -7.45  -4.96    -2.57-225.547455             -0.0000
iter:  26  09:20:26  -8.09  -4.96    -2.84-225.547454             -0.0000
iter:  27  09:20:53  -7.86  -5.07    -3.22-225.547455             -0.0000
iter:  28  09:21:20  -8.01  -5.04    -2.86-225.547454             -0.0000
iter:  29  09:21:46  -8.15  -5.23    -2.89-225.547455             -0.0000
iter:  30  09:22:13  -9.57  -5.55    -3.69-225.547454             -0.0000
iter:  31  09:22:40  -9.18  -5.62    -3.71-225.547454             -0.0000
iter:  32  09:23:06  -9.66  -5.74    -3.75-225.547454             -0.0000
iter:  33  09:23:33  -8.87  -5.79    -3.29-225.547454             -0.0000
iter:  34  09:24:00  -9.75  -5.74    -3.73-225.547454             -0.0000
iter:  35  09:24:27 -10.03  -5.98    -3.77-225.547454             -0.0000
iter:  36  09:24:53 -10.31  -6.09    -4.35-225.547454             -0.0000
iter:  37  09:25:20 -10.47  -6.20    -4.09-225.547454             -0.0000
iter:  38  09:25:47 -10.48  -6.31    -4.16-225.547454             -0.0000
iter:  39  09:26:14 -11.25  -6.69    -5.14-225.547454             -0.0000
iter:  40  09:26:40 -11.61  -6.74    -4.63-225.547454             -0.0000
iter:  41  09:27:07 -10.90  -6.85    -4.46-225.547454             -0.0000
iter:  42  09:27:34 -12.35  -7.14    -5.52-225.547454             -0.0000
iter:  43  09:28:01 -12.69  -7.15    -5.55-225.547454             -0.0000
iter:  44  09:28:27 -12.86  -7.27    -5.54-225.547454             -0.0000
iter:  45  09:28:54 -12.54  -7.38    -5.09-225.547454             -0.0000
iter:  46  09:29:21 -13.64  -7.64    -5.76-225.547454             -0.0000
iter:  47  09:29:47 -13.68  -7.97    -5.89-225.547454             -0.0000
iter:  48  09:30:14 -13.80  -8.04    -6.33-225.547454             -0.0000

Converged after 48 iterations.

Dipole moment: (13.159397, 1.720374, -5.512842) |e|*Ang

Total magnetic moment: (0.000000, 0.000000, -0.000000)
Local magnetic moments:
   0 O  ( 0.000000,  0.000000,  0.001076)
   1 O  ( 0.000000,  0.000000, -0.001020)
   2 O  ( 0.000000,  0.000000, -0.001049)
   3 O  ( 0.000000,  0.000000,  0.001060)
   4 O  ( 0.000000,  0.000000, -0.001056)
   5 O  ( 0.000000,  0.000000,  0.001085)
   6 O  ( 0.000000,  0.000000,  0.001067)
   7 O  ( 0.000000,  0.000000, -0.001029)
   8 O  ( 0.000000,  0.000000,  0.019747)
   9 O  ( 0.000000,  0.000000, -0.019762)
  10 O  ( 0.000000,  0.000000, -0.019811)
  11 O  ( 0.000000,  0.000000,  0.019790)
  12 Mn ( 0.000000,  0.000000,  4.601489)
  13 Mn ( 0.000000,  0.000000, -4.601600)
  14 Mn ( 0.000000,  0.000000, -4.601561)
  15 Mn ( 0.000000,  0.000000,  4.601583)
  16 P  ( 0.000000,  0.000000,  0.001297)
  17 P  ( 0.000000,  0.000000, -0.001294)
  18 P  ( 0.000000,  0.000000, -0.001302)
  19 P  ( 0.000000,  0.000000,  0.001292)
  20 O  ( 0.000000,  0.000000,  0.018081)
  21 O  ( 0.000000,  0.000000, -0.018079)
  22 O  ( 0.000000,  0.000000, -0.018063)
  23 O  ( 0.000000,  0.000000,  0.018056)
  24 Li ( 0.000000,  0.000000,  0.000004)
  25 Li ( 0.000000,  0.000000,  0.000000)
  26 Li ( 0.000000,  0.000000, -0.000001)
  27 Li ( 0.000000,  0.000000,  0.000000)

Energy contributions relative to reference atoms: (reference = -196157.275402)

Kinetic:       +242.943092
Potential:     -215.439335
External:        +0.000000
XC:            -254.966502
Entropy (-ST):   -0.000000
Local:           +1.915291
--------------------------
Free energy:   -225.547454
Extrapolated:  -225.547454

Spin contamination: 9.747498 electrons
Showing only first 2 kpts
                      Up                     Down
 Kpt  Band  Eigenvalues  Occupancy  Eigenvalues  Occupancy
  0    88      3.92104    0.00694      3.92472    0.00694
  0    89      3.96954    0.00694      3.97369    0.00694
  0    90      8.66889    0.00000      8.66582    0.00000
  0    91      8.68895    0.00000      8.68469    0.00000

  1    88      3.91752    0.00694      3.92121    0.00694
  1    89      3.97331    0.00694      3.97754    0.00694
  1    90      8.51456    0.00000      8.51160    0.00000
  1    91      8.53156    0.00000      8.52768    0.00000


Fermi level: 5.31842

Gap: 3.776 eV
Transition (v -> c):
  (s=1, k=69, n=89, [-0.08, 0.42, -0.12]) -> (s=1, k=85, n=90, [0.08, 0.08, -0.12])
Writing to born-0.01-24y+.gpw (mode='all')

Timing:                              incl.     excl.
-----------------------------------------------------------
Hamiltonian:                         0.248     0.002   0.0% |
 Atomic:                             0.058     0.057   0.0% |
  XC Correction:                     0.000     0.000   0.0% |
 Calculate atomic Hamiltonians:      0.093     0.093   0.0% |
 Communicate:                        0.002     0.002   0.0% |
 Initialize Hamiltonian:             0.000     0.000   0.0% |
 Poisson:                            0.001     0.001   0.0% |
 XC 3D grid:                         0.092     0.092   0.0% |
LCAO initialization:                66.908     0.684   0.0% |
 LCAO eigensolver:                  18.001     0.003   0.0% |
  Calculate projections:             0.029     0.029   0.0% |
  DenseAtomicCorrection:             0.043     0.043   0.0% |
  Distribute overlap matrix:         0.009     0.009   0.0% |
  Orbital Layouts:                   0.474     0.474   0.0% |
  Potential matrix:                 17.343    17.343   0.6% |
  Sum over cells:                    0.101     0.101   0.0% |
 LCAO to grid:                      46.946    46.946   1.5% ||
 Set positions (LCAO WFS):           1.277     0.178   0.0% |
  Basic WFS set positions:           0.001     0.001   0.0% |
  Basis functions set positions:     0.000     0.000   0.0% |
  P tci:                             0.529     0.529   0.0% |
  ST tci:                            0.361     0.361   0.0% |
  mktci:                             0.208     0.208   0.0% |
PWDescriptor:                        0.025     0.025   0.0% |
SCF-cycle:                        1175.462     3.360   0.1% |
 Davidson:                         975.145   304.599   9.8% |---|
  Apply H:                          65.927    64.042   2.1% ||
   HMM T:                            1.885     1.885   0.1% |
  Subspace diag:                   141.030     0.143   0.0% |
   calc_h_matrix:                   89.718    23.940   0.8% |
    Apply H:                        65.779    63.932   2.1% ||
     HMM T:                          1.846     1.846   0.1% |
   diagonalize:                      6.991     6.991   0.2% |
   rotate_psi:                      44.178    44.178   1.4% ||
  calc. matrices:                  288.280   161.008   5.2% |-|
   Apply H:                        127.273   123.843   4.0% |-|
    HMM T:                           3.430     3.430   0.1% |
  diagonalize:                      79.901    79.901   2.6% ||
  rotate_psi:                       95.408    95.408   3.1% ||
 Density:                           38.596     0.001   0.0% |
  Atomic density matrices:           0.847     0.847   0.0% |
  Mix:                               6.042     6.042   0.2% |
  Multipole moments:                 0.017     0.017   0.0% |
  Pseudo density:                   31.689    31.688   1.0% |
   Symmetrize density:               0.001     0.001   0.0% |
 Forces:                           144.231   144.231   4.6% |-|
 Hamiltonian:                       11.844     0.105   0.0% |
  Atomic:                            2.826     2.826   0.1% |
   XC Correction:                    0.000     0.000   0.0% |
  Calculate atomic Hamiltonians:     4.395     4.395   0.1% |
  Communicate:                       0.080     0.080   0.0% |
  Poisson:                           0.037     0.037   0.0% |
  XC 3D grid:                        4.401     4.401   0.1% |
 Orthonormalize:                     2.287     0.003   0.0% |
  calc_s_matrix:                     0.264     0.264   0.0% |
  inverse-cholesky:                  0.077     0.077   0.0% |
  projections:                       1.468     1.468   0.0% |
  rotate_psi_s:                      0.474     0.474   0.0% |
Set symmetry:                        0.000     0.000   0.0% |
Other:                            1870.766  1870.766  60.1% |-----------------------|
-----------------------------------------------------------
Total:                                      3113.408 100.0%

Memory usage: 13.47 GiB
Date: Thu Mar 25 10:01:24 2021
