
  ___ ___ ___ _ _ _  
 |   |   |_  | | | | 
 | | | | | . | | | | 
 |__ |  _|___|_____|  20.10.1b1
 |___|_|             

User:   madkru@g031.nifl.fysik.dtu.dk
Date:   Sun Mar 21 22:38:48 2021
Arch:   x86_64
Pid:    47913
Python: 3.7.4
gpaw:   /home/niflheim/madkru/venv_folder/gpaw/gpaw (d0d1ca1c71)
_gpaw:  /home/niflheim/madkru/venv_folder/gpaw/build/lib.linux-x86_64-sandybridge-3.7/
        _gpaw.cpython-37m-x86_64-linux-gnu.so (4fd39e8b1e)
ase:    /home/niflheim/madkru/venv_folder/ase/ase (version 3.21.0b1-7e6c206a91)
numpy:  /home/niflheim/madkru/venv_folder/lib/python3.7/site-packages/numpy (version 1.19.4)
scipy:  /home/niflheim/madkru/venv_folder/lib/python3.7/site-packages/scipy (version 1.5.4)
libxc:  4.3.4
units:  Angstrom and eV
cores: 32
OMP_NUM_THREADS: 1

Input parameters:
  convergence: {bands: occupied,
                density: 0.0001,
                eigenstates: 4e-08,
                energy: 0.0005,
                forces: 1e-06}
  kpts: [6 6 4]
  mode: {ecut: 600.0,
         gammacentered: False,
         name: pw}
  occupations: {fixmagmom: False,
                name: fermi-dirac,
                width: 0.001}
  setups: {Mn: :d,3.0}
  symmetry: {point_group: False,
             time_reversal: False}

System changes: positions, numbers, cell, pbc, initial_charges, initial_magmoms 

Initialize ...

O-setup:
  name: Oxygen
  id: 9b9d51c344dea68c822856295a461509
  Z: 8.0
  valence: 6
  core: 2
  charge: 0.0
  file: /home/modules/software/GPAW-setups/0.9.20000/O.LDA.gz
  compensation charges: gauss, rc=0.21, lmax=2
  cutoffs: 1.17(filt), 0.83(core),
  valence states:
                energy  radius
    2s(2.00)   -23.752   0.688
    2p(4.00)    -9.195   0.598
    *s           3.459   0.688
    *p          18.016   0.598
    *d           0.000   0.619

  Using partial waves for O as LCAO basis

Mn-setup:
  name: Manganese
  id: 0d715a8018be061a6e9ea6f2d364ac92
  Z: 25.0
  valence: 15
  core: 10
  charge: 0.0
  Hubbard U: 3.000000 eV (l=2, scale=True)
  file: /home/modules/software/GPAW-setups/0.9.20000/Mn.LDA.gz
  compensation charges: gauss, rc=0.38, lmax=2
  cutoffs: 2.14(filt), 0.86(core),
  valence states:
                energy  radius
    3s(2.00)   -85.387   1.275
    4s(2.00)    -5.282   1.275
    3p(6.00)   -54.493   1.281
    4p(0.00)    -1.471   1.281
    3d(5.00)    -7.009   1.138
    *d          20.203   1.138

  Using partial waves for Mn as LCAO basis

P-setup:
  name: Phosphorus
  id: a5561c299094968922a179ab894d2e2d
  Z: 15.0
  valence: 5
  core: 10
  charge: 0.0
  file: /home/modules/software/GPAW-setups/0.9.20000/P.LDA.gz
  compensation charges: gauss, rc=0.30, lmax=2
  cutoffs: 1.69(filt), 1.81(core),
  valence states:
                energy  radius
    3s(2.00)   -14.015   0.953
    3p(3.00)    -5.596   0.953
    *s          13.197   0.953
    *p          21.615   0.953
    *d           0.000   0.953

  Using partial waves for P as LCAO basis

Li-setup:
  name: Lithium
  id: b73562207f97a71b6967473b66fe8b65
  Z: 3.0
  valence: 1
  core: 2
  charge: 0.0
  file: /home/modules/software/GPAW-setups/0.9.20000/Li.LDA.gz
  compensation charges: gauss, rc=0.33, lmax=2
  cutoffs: 1.91(filt), 2.55(core),
  valence states:
                energy  radius
    2s(1.00)    -2.874   1.058
    2p(0.00)    -1.126   1.058
    *s          24.338   1.058

  Using partial waves for Li as LCAO basis

Reference energy: -196157.275402

Spin-polarized calculation.
Magnetic moment: 0.000000

Convergence criteria:
  Maximum total energy change: 0.0005 eV / electron
  Maximum integral of absolute density change: 0.0001 electrons
  Maximum integral of absolute eigenstate change: 4e-08 eV^2
  Maximum change in atomic force: 1e-06 eV / Ang
  Maximum number of iterations: 333

Symmetries present (total): 1

  ( 1  0  0)
  ( 0  1  0)
  ( 0  0  1)

144 k-points: 6 x 6 x 4 Monkhorst-Pack grid
144 k-points in the irreducible part of the Brillouin zone
       k-points in crystal coordinates                weights
   0:    -0.41666667   -0.41666667   -0.37500000          1/144
   1:    -0.41666667   -0.41666667   -0.12500000          1/144
   2:    -0.41666667   -0.41666667    0.12500000          1/144
   3:    -0.41666667   -0.41666667    0.37500000          1/144
   4:    -0.41666667   -0.25000000   -0.37500000          1/144
   5:    -0.41666667   -0.25000000   -0.12500000          1/144
   6:    -0.41666667   -0.25000000    0.12500000          1/144
   7:    -0.41666667   -0.25000000    0.37500000          1/144
   8:    -0.41666667   -0.08333333   -0.37500000          1/144
   9:    -0.41666667   -0.08333333   -0.12500000          1/144
          ...
 143:     0.41666667    0.41666667    0.37500000          1/144

Wave functions: Plane wave expansion
  Cutoff energy: 600.000 eV
  Number of coefficients (min, max): 10068, 10125
  Pulay-stress correction: 0.000000 eV/Ang^3 (de/decut=0.000000)
  Using FFTW library
  ScaLapack parameters: grid=1x1, blocksize=None
  Wavefunction extrapolation:
    Improved wavefunction reuse through dual PAW basis 

  Fermi-Dirac: width=0.0010 eV

Eigensolver
   Davidson(niter=2, smin=None, normalize=True) 

Densities:
  Coarse grid: 60*35*27 grid
  Fine grid: 120*70*54 grid
  Total Charge: 0.000000 

Density mixing:
  Method: difference
  Backend: pulay
  Linear mixing parameter: 0.05
  Mixing with 5 old densities
  Damping of long wave oscillations: 50 

Hamiltonian:
  XC and Coulomb potentials evaluated on a 120*70*54 grid
  Using the LDA Exchange-Correlation functional
 

Memory estimate:
  Process memory now: 12729.14 MiB
  Calculator: 375.55 MiB
    Density: 20.02 MiB
      Arrays: 7.57 MiB
      Localized functions: 9.42 MiB
      Mixer: 3.03 MiB
    Hamiltonian: 5.90 MiB
      Arrays: 5.62 MiB
      XC: 0.00 MiB
      Poisson: 0.00 MiB
      vbar: 0.27 MiB
    Wavefunctions: 349.64 MiB
      Arrays psit_nG: 311.46 MiB
      Eigensolver: 19.99 MiB
      Projections: 5.41 MiB
      Projectors: 9.73 MiB
      PW-descriptor: 3.03 MiB

Total number of cores used: 32
Parallelization over k-points: 16
Domain decomposition: 2 x 1 x 1

Number of atoms: 28
Number of atomic orbitals: 148
Number of bands in calculation: 112
Number of valence electrons: 180
Bands to converge: occupied

... initialized

Initializing position-dependent things.

Density initialized from atomic densities
Creating initial wave functions:
  112 bands from LCAO basis set

     .-------------------------.  
    /|         OP              |  
   / |O            O        O  |  
  /  |       O            O  P |  
 *   |O    Mn      O           |  
 |   |          OLi          O |  
 |   P--O--------------Mn------.  
 |  /          Li    O  Mn  O /   
 | /LiO           PO         /    
 |/       Mn                /     
 *Li-----------------------*      

Positions:
   0 O     -1.330281   -2.539252   -1.168500    ( 0.0000,  0.0000,  0.0000)
   1 O     -3.152392    2.974909    1.200956    ( 0.0000,  0.0000,  0.0000)
   2 O      2.077234    0.510133    1.506966    ( 0.0000,  0.0000,  0.0000)
   3 O      3.899724   -0.074476   -0.862491    ( 0.0000,  0.0000,  0.0000)
   4 O      2.067424    2.974966    1.507072    ( 0.0000,  0.0000,  0.0000)
   5 O      3.899535   -2.539195   -0.862384    ( 0.0000,  0.0000,  0.0000)
   6 O     -1.330092   -0.074418   -1.168395    ( 0.0000,  0.0000,  0.0000)
   7 O     -3.152581    0.510191    1.201063    ( 0.0000,  0.0000,  0.0000)
   8 O     -4.389675   -1.306969   -0.813152    ( 0.0000,  0.0000,  0.0000)
   9 O     -0.093301    1.742683    1.556268    ( 0.0000,  0.0000,  0.0000)
  10 O      5.136817    1.742683    1.151723    ( 0.0000,  0.0000,  0.0000)
  11 O      0.840444   -1.306969   -1.217697    ( 0.0000,  0.0000,  0.0000)
  12 Mn    -2.557192   -1.307258    0.273595    ( 0.0000,  0.0000,  1.0000)
  13 Mn    -1.925535    1.742972   -2.096623    ( 0.0000,  0.0000, -1.0000)
  14 Mn     3.304335    1.742972    0.064976    ( 0.0000,  0.0000, -1.0000)
  15 Mn     2.672678   -1.307258    2.435195    ( 0.0000,  0.0000,  1.0000)
  16 P     -0.597175   -1.306854   -1.801474    ( 0.0000,  0.0000,  0.0000)
  17 P     -3.885565    1.742568    0.568028    ( 0.0000,  0.0000,  0.0000)
  18 P      1.344318    1.742568    2.140045    ( 0.0000,  0.0000,  0.0000)
  19 P      4.632708   -1.306854   -0.229456    ( 0.0000,  0.0000,  0.0000)
  20 O     -0.636957   -1.306861    1.403074    ( 0.0000,  0.0000,  0.0000)
  21 O     -3.845824    1.742575   -0.967462    ( 0.0000,  0.0000,  0.0000)
  22 O      1.384100    1.742576   -1.064503    ( 0.0000,  0.0000,  0.0000)
  23 O      4.592967   -1.306861    1.306033    ( 0.0000,  0.0000,  0.0000)
  24 Li    -4.856429   -2.832143   -2.200714    ( 0.0000,  0.0000,  0.0000)
  25 Li     0.373571   -2.832143    0.169286    ( 0.0000,  0.0000,  0.0000)
  26 Li    -4.856429    0.217857   -2.200714    ( 0.0000,  0.0000,  0.0000)
  27 Li     0.373571    0.217857    0.169286    ( 0.0000,  0.0000,  0.0000)

Unit cell:
           periodic     x           y           z      points  spacing
  1. axis:    yes   10.460000    0.000000    0.000000    60     0.1743
  2. axis:    yes    0.000000    6.100000    0.000000    35     0.1743
  3. axis:    yes    0.000000    0.000000    4.740000    27     0.1756

  Lengths:  10.460000   6.100000   4.740000
  Angles:   90.000000  90.000000  90.000000

Effective grid spacing dv^(1/3) = 0.1747

                     log10-error:           total        iterations:
           time      wfs    density  force  energy       poisson  magmom
iter:   1  22:41:49                       -220.694217             +0.0000
iter:   2  22:42:28  -0.64  -0.92         -235.516953             +0.0000
iter:   3  22:43:08  -0.40  -0.96         -226.169658             -0.0000
iter:   4  22:43:48  -1.41  -1.29         -225.887839             +0.0000
iter:   5  22:44:28  -1.19  -1.38         -227.589674             +0.0000
iter:   6  22:45:07  -1.39  -1.51         -225.829117             +0.0000
iter:   7  22:45:47  -2.56  -2.06         -225.898624             +0.0000
iter:   8  22:46:27  -2.24  -2.01         -225.643465             -0.0000
iter:   9  22:47:07  -2.67  -2.08         -225.546189             +0.0000
iter:  10  22:47:46  -3.54  -2.94         -225.545196             +0.0000
iter:  11  22:48:26  -3.95  -3.00         -225.547110             +0.0000
iter:  12  22:49:05  -4.30  -3.22         -225.547267             +0.0000
iter:  13  22:49:45  -5.36  -3.36         -225.547162             -0.0000
iter:  14  22:50:24  -5.17  -3.44         -225.547033             -0.0000
iter:  15  22:51:04  -5.33  -3.59         -225.546936             -0.0000
iter:  16  22:51:44  -6.32  -3.70         -225.546920             +0.0000
iter:  17  22:52:23  -6.34  -3.77         -225.546938             -0.0000
iter:  18  22:53:03  -6.72  -3.83         -225.546939             -0.0000
iter:  19  22:53:42  -5.90  -3.84         -225.546903             -0.0000
iter:  20  22:54:22  -7.12  -4.37         -225.546899             -0.0000
iter:  21  22:55:12  -7.72  -4.46         -225.546897             +0.0000
iter:  22  22:55:51  -7.35  -4.50         -225.546899             +0.0000
iter:  23  22:56:42  -7.68  -4.53    -2.74-225.546897             +0.0000
iter:  24  22:57:32  -7.57  -4.59    -2.52-225.546898             +0.0000
iter:  25  22:58:11  -7.26  -4.64         -225.546899             +0.0000
iter:  26  22:59:02  -7.55  -4.68    -2.60-225.546898             +0.0000
iter:  27  22:59:52  -8.54  -4.76    -3.23-225.546898             +0.0000
iter:  28  23:00:42  -7.63  -4.78    -2.97-225.546898             +0.0000
iter:  29  23:01:32  -8.52  -4.99    -3.20-225.546898             +0.0000
iter:  30  23:02:22  -8.21  -5.03    -3.10-225.546898             +0.0000
iter:  31  23:03:12  -9.50  -5.29    -3.49-225.546898             +0.0000
iter:  32  23:04:03  -9.56  -5.35    -3.45-225.546898             +0.0000
iter:  33  23:04:53  -8.83  -5.39    -3.32-225.546898             +0.0000
iter:  34  23:05:43  -9.11  -5.39    -3.59-225.546897             +0.0000
iter:  35  23:06:33  -8.94  -5.45    -3.42-225.546898             +0.0000
iter:  36  23:07:23  -9.27  -5.44    -3.69-225.546897             +0.0000
iter:  37  23:08:13 -10.07  -5.72    -4.04-225.546897             +0.0000
iter:  38  23:09:03 -10.03  -5.81    -3.70-225.546897             +0.0000
iter:  39  23:09:53 -10.31  -5.88    -3.86-225.546897             +0.0000
iter:  40  23:10:43 -11.40  -6.01    -4.59-225.546897             +0.0000
iter:  41  23:11:33 -10.48  -6.02    -3.79-225.546897             -0.0000
iter:  42  23:12:23 -10.66  -6.33    -4.75-225.546897             +0.0000
iter:  43  23:13:13 -11.47  -6.56    -4.43-225.546897             +0.0000
iter:  44  23:14:03 -11.70  -6.56    -4.55-225.546897             +0.0000
iter:  45  23:14:53 -12.10  -6.69    -5.10-225.546897             +0.0000
iter:  46  23:15:43 -12.24  -6.79    -5.10-225.546897             +0.0000
iter:  47  23:16:33 -13.09  -6.78    -4.98-225.546897             +0.0000
iter:  48  23:17:23 -12.72  -6.85    -5.28-225.546897             +0.0000
iter:  49  23:18:13 -11.71  -6.95    -4.89-225.546897             +0.0000
iter:  50  23:19:03 -12.60  -7.22    -5.43-225.546897             +0.0000
iter:  51  23:19:53 -13.67  -7.45    -6.03-225.546897             +0.0000

Converged after 51 iterations.

Dipole moment: (13.161264, 1.717647, -5.512411) |e|*Ang

Total magnetic moment: (0.000000, 0.000000, 0.000000)
Local magnetic moments:
   0 O  ( 0.000000,  0.000000,  0.001077)
   1 O  ( 0.000000,  0.000000, -0.001040)
   2 O  ( 0.000000,  0.000000, -0.001035)
   3 O  ( 0.000000,  0.000000,  0.001005)
   4 O  ( 0.000000,  0.000000, -0.001030)
   5 O  ( 0.000000,  0.000000,  0.001040)
   6 O  ( 0.000000,  0.000000,  0.001065)
   7 O  ( 0.000000,  0.000000, -0.001032)
   8 O  ( 0.000000,  0.000000,  0.019746)
   9 O  ( 0.000000,  0.000000, -0.019853)
  10 O  ( 0.000000,  0.000000, -0.019765)
  11 O  ( 0.000000,  0.000000,  0.019792)
  12 Mn ( 0.000000,  0.000000,  4.601527)
  13 Mn ( 0.000000,  0.000000, -4.601594)
  14 Mn ( 0.000000,  0.000000, -4.601824)
  15 Mn ( 0.000000,  0.000000,  4.601984)
  16 P  ( 0.000000,  0.000000,  0.001292)
  17 P  ( 0.000000,  0.000000, -0.001287)
  18 P  ( 0.000000,  0.000000, -0.001276)
  19 P  ( 0.000000,  0.000000,  0.001300)
  20 O  ( 0.000000,  0.000000,  0.018087)
  21 O  ( 0.000000,  0.000000, -0.018041)
  22 O  ( 0.000000,  0.000000, -0.018084)
  23 O  ( 0.000000,  0.000000,  0.018030)
  24 Li ( 0.000000,  0.000000,  0.000000)
  25 Li ( 0.000000,  0.000000,  0.000003)
  26 Li ( 0.000000,  0.000000,  0.000000)
  27 Li ( 0.000000,  0.000000, -0.000002)

Energy contributions relative to reference atoms: (reference = -196157.275402)

Kinetic:       +243.205669
Potential:     -215.638735
External:        +0.000000
XC:            -255.028795
Entropy (-ST):   -0.000000
Local:           +1.914964
--------------------------
Free energy:   -225.546897
Extrapolated:  -225.546897

Spin contamination: 9.747904 electrons
Showing only first 2 kpts
                      Up                     Down
 Kpt  Band  Eigenvalues  Occupancy  Eigenvalues  Occupancy
  0    88      3.91890    0.00694      3.92138    0.00694
  0    89      3.96871    0.00694      3.97182    0.00694
  0    90      8.66094    0.00000      8.66599    0.00000
  0    91      8.68919    0.00000      8.68196    0.00000

  1    88      3.91535    0.00694      3.91803    0.00694
  1    89      3.97249    0.00694      3.97537    0.00694
  1    90      8.50342    0.00000      8.51097    0.00000
  1    91      8.53167    0.00000      8.52610    0.00000


Fermi level: 5.31796

Gap: 3.777 eV
Transition (v -> c):
  (s=1, k=70, n=89, [-0.08, 0.42, 0.12]) -> (s=0, k=82, n=90, [0.08, -0.08, 0.12])
Writing to born-0.01-4x-.gpw (mode='all')

Timing:                              incl.     excl.
-----------------------------------------------------------
Hamiltonian:                         0.433     0.002   0.0% |
 Atomic:                             0.084     0.084   0.0% |
  XC Correction:                     0.000     0.000   0.0% |
 Calculate atomic Hamiltonians:      0.177     0.177   0.0% |
 Communicate:                        0.001     0.001   0.0% |
 Initialize Hamiltonian:             0.000     0.000   0.0% |
 Poisson:                            0.002     0.002   0.0% |
 XC 3D grid:                         0.166     0.166   0.0% |
LCAO initialization:               136.227     0.678   0.0% |
 LCAO eigensolver:                  34.511     0.003   0.0% |
  Calculate projections:             0.056     0.056   0.0% |
  DenseAtomicCorrection:             0.082     0.082   0.0% |
  Distribute overlap matrix:         0.587     0.587   0.0% |
  Orbital Layouts:                   0.363     0.363   0.0% |
  Potential matrix:                 33.325    33.325   0.6% |
  Sum over cells:                    0.095     0.095   0.0% |
 LCAO to grid:                      98.763    98.763   1.9% ||
 Set positions (LCAO WFS):           2.275     0.345   0.0% |
  Basic WFS set positions:           0.001     0.001   0.0% |
  Basis functions set positions:     0.000     0.000   0.0% |
  P tci:                             1.057     1.057   0.0% |
  ST tci:                            0.664     0.664   0.0% |
  mktci:                             0.207     0.207   0.0% |
PWDescriptor:                        0.025     0.025   0.0% |
SCF-cycle:                        2326.831     9.831   0.2% |
 Davidson:                        1905.125   621.130  11.8% |----|
  Apply H:                         133.338   129.416   2.5% ||
   HMM T:                            3.921     3.921   0.1% |
  Subspace diag:                   281.060     0.163   0.0% |
   calc_h_matrix:                  182.371    50.349   1.0% |
    Apply H:                       132.022   128.211   2.4% ||
     HMM T:                          3.810     3.810   0.1% |
   diagonalize:                      6.221     6.221   0.1% |
   rotate_psi:                      92.305    92.305   1.8% ||
  calc. matrices:                  597.027   336.946   6.4% |--|
   Apply H:                        260.081   252.814   4.8% |-|
    HMM T:                           7.266     7.266   0.1% |
  diagonalize:                      84.986    84.986   1.6% ||
  rotate_psi:                      187.584   187.584   3.6% ||
 Density:                           77.293     0.001   0.0% |
  Atomic density matrices:           1.249     1.249   0.0% |
  Mix:                              12.293    12.293   0.2% |
  Multipole moments:                 0.029     0.029   0.0% |
  Pseudo density:                   63.720    63.719   1.2% |
   Symmetrize density:               0.001     0.001   0.0% |
 Forces:                           308.770   308.770   5.9% |-|
 Hamiltonian:                       21.406     0.135   0.0% |
  Atomic:                            2.993     2.992   0.1% |
   XC Correction:                    0.000     0.000   0.0% |
  Calculate atomic Hamiltonians:     9.229     9.229   0.2% |
  Communicate:                       0.069     0.069   0.0% |
  Poisson:                           0.078     0.078   0.0% |
  XC 3D grid:                        8.902     8.902   0.2% |
 Orthonormalize:                     4.407     0.004   0.0% |
  calc_s_matrix:                     0.522     0.522   0.0% |
  inverse-cholesky:                  0.055     0.055   0.0% |
  projections:                       2.894     2.894   0.1% |
  rotate_psi_s:                      0.932     0.932   0.0% |
Set symmetry:                        0.000     0.000   0.0% |
Other:                            2808.441  2808.441  53.3% |--------------------|
-----------------------------------------------------------
Total:                                      5271.956 100.0%

Memory usage: 12.45 GiB
Date: Mon Mar 22 00:06:40 2021
