
  ___ ___ ___ _ _ _  
 |   |   |_  | | | | 
 | | | | | . | | | | 
 |__ |  _|___|_____|  20.10.1b1
 |___|_|             

User:   madkru@g006.nifl.fysik.dtu.dk
Date:   Tue Mar 23 19:40:25 2021
Arch:   x86_64
Pid:    12017
Python: 3.7.4
gpaw:   /home/niflheim/madkru/venv_folder/gpaw/gpaw (d0d1ca1c71)
_gpaw:  /home/niflheim/madkru/venv_folder/gpaw/build/lib.linux-x86_64-sandybridge-3.7/
        _gpaw.cpython-37m-x86_64-linux-gnu.so (4fd39e8b1e)
ase:    /home/niflheim/madkru/venv_folder/ase/ase (version 3.21.0b1-7e6c206a91)
numpy:  /home/niflheim/madkru/venv_folder/lib/python3.7/site-packages/numpy (version 1.19.4)
scipy:  /home/niflheim/madkru/venv_folder/lib/python3.7/site-packages/scipy (version 1.5.4)
libxc:  4.3.4
units:  Angstrom and eV
cores: 64
OMP_NUM_THREADS: 1

Input parameters:
  convergence: {bands: occupied,
                density: 0.0001,
                eigenstates: 4e-08,
                energy: 0.0005,
                forces: 1e-06}
  kpts: [6 6 4]
  mode: {ecut: 600.0,
         gammacentered: False,
         name: pw}
  occupations: {fixmagmom: False,
                name: fermi-dirac,
                width: 0.001}
  setups: {Mn: :d,3.0}
  symmetry: {point_group: False,
             time_reversal: False}

System changes: positions, numbers, cell, pbc, initial_charges, initial_magmoms 

Initialize ...

O-setup:
  name: Oxygen
  id: 9b9d51c344dea68c822856295a461509
  Z: 8.0
  valence: 6
  core: 2
  charge: 0.0
  file: /home/modules/software/GPAW-setups/0.9.20000/O.LDA.gz
  compensation charges: gauss, rc=0.21, lmax=2
  cutoffs: 1.17(filt), 0.83(core),
  valence states:
                energy  radius
    2s(2.00)   -23.752   0.688
    2p(4.00)    -9.195   0.598
    *s           3.459   0.688
    *p          18.016   0.598
    *d           0.000   0.619

  Using partial waves for O as LCAO basis

Mn-setup:
  name: Manganese
  id: 0d715a8018be061a6e9ea6f2d364ac92
  Z: 25.0
  valence: 15
  core: 10
  charge: 0.0
  Hubbard U: 3.000000 eV (l=2, scale=True)
  file: /home/modules/software/GPAW-setups/0.9.20000/Mn.LDA.gz
  compensation charges: gauss, rc=0.38, lmax=2
  cutoffs: 2.14(filt), 0.86(core),
  valence states:
                energy  radius
    3s(2.00)   -85.387   1.275
    4s(2.00)    -5.282   1.275
    3p(6.00)   -54.493   1.281
    4p(0.00)    -1.471   1.281
    3d(5.00)    -7.009   1.138
    *d          20.203   1.138

  Using partial waves for Mn as LCAO basis

P-setup:
  name: Phosphorus
  id: a5561c299094968922a179ab894d2e2d
  Z: 15.0
  valence: 5
  core: 10
  charge: 0.0
  file: /home/modules/software/GPAW-setups/0.9.20000/P.LDA.gz
  compensation charges: gauss, rc=0.30, lmax=2
  cutoffs: 1.69(filt), 1.81(core),
  valence states:
                energy  radius
    3s(2.00)   -14.015   0.953
    3p(3.00)    -5.596   0.953
    *s          13.197   0.953
    *p          21.615   0.953
    *d           0.000   0.953

  Using partial waves for P as LCAO basis

Li-setup:
  name: Lithium
  id: b73562207f97a71b6967473b66fe8b65
  Z: 3.0
  valence: 1
  core: 2
  charge: 0.0
  file: /home/modules/software/GPAW-setups/0.9.20000/Li.LDA.gz
  compensation charges: gauss, rc=0.33, lmax=2
  cutoffs: 1.91(filt), 2.55(core),
  valence states:
                energy  radius
    2s(1.00)    -2.874   1.058
    2p(0.00)    -1.126   1.058
    *s          24.338   1.058

  Using partial waves for Li as LCAO basis

Reference energy: -196157.275402

Spin-polarized calculation.
Magnetic moment: 0.000000

Convergence criteria:
  Maximum total energy change: 0.0005 eV / electron
  Maximum integral of absolute density change: 0.0001 electrons
  Maximum integral of absolute eigenstate change: 4e-08 eV^2
  Maximum change in atomic force: 1e-06 eV / Ang
  Maximum number of iterations: 333

Symmetries present (total): 1

  ( 1  0  0)
  ( 0  1  0)
  ( 0  0  1)

144 k-points: 6 x 6 x 4 Monkhorst-Pack grid
144 k-points in the irreducible part of the Brillouin zone
       k-points in crystal coordinates                weights
   0:    -0.41666667   -0.41666667   -0.37500000          1/144
   1:    -0.41666667   -0.41666667   -0.12500000          1/144
   2:    -0.41666667   -0.41666667    0.12500000          1/144
   3:    -0.41666667   -0.41666667    0.37500000          1/144
   4:    -0.41666667   -0.25000000   -0.37500000          1/144
   5:    -0.41666667   -0.25000000   -0.12500000          1/144
   6:    -0.41666667   -0.25000000    0.12500000          1/144
   7:    -0.41666667   -0.25000000    0.37500000          1/144
   8:    -0.41666667   -0.08333333   -0.37500000          1/144
   9:    -0.41666667   -0.08333333   -0.12500000          1/144
          ...
 143:     0.41666667    0.41666667    0.37500000          1/144

Wave functions: Plane wave expansion
  Cutoff energy: 600.000 eV
  Number of coefficients (min, max): 10068, 10125
  Pulay-stress correction: 0.000000 eV/Ang^3 (de/decut=0.000000)
  Using FFTW library
  ScaLapack parameters: grid=1x1, blocksize=None
  Wavefunction extrapolation:
    Improved wavefunction reuse through dual PAW basis 

  Fermi-Dirac: width=0.0010 eV

Eigensolver
   Davidson(niter=2, smin=None, normalize=True) 

Densities:
  Coarse grid: 60*35*27 grid
  Fine grid: 120*70*54 grid
  Total Charge: 0.000000 

Density mixing:
  Method: difference
  Backend: pulay
  Linear mixing parameter: 0.05
  Mixing with 5 old densities
  Damping of long wave oscillations: 50 

Hamiltonian:
  XC and Coulomb potentials evaluated on a 120*70*54 grid
  Using the LDA Exchange-Correlation functional
 

Memory estimate:
  Process memory now: 12192.31 MiB
  Calculator: 354.82 MiB
    Density: 10.06 MiB
      Arrays: 3.79 MiB
      Localized functions: 4.71 MiB
      Mixer: 1.56 MiB
    Hamiltonian: 2.95 MiB
      Arrays: 2.82 MiB
      XC: 0.00 MiB
      Poisson: 0.00 MiB
      vbar: 0.14 MiB
    Wavefunctions: 341.80 MiB
      Arrays psit_nG: 311.46 MiB
      Eigensolver: 19.99 MiB
      Projections: 2.71 MiB
      Projectors: 4.87 MiB
      PW-descriptor: 2.77 MiB

Total number of cores used: 64
Parallelization over k-points: 16
Domain decomposition: 2 x 2 x 1

Number of atoms: 28
Number of atomic orbitals: 148
Number of bands in calculation: 112
Number of valence electrons: 180
Bands to converge: occupied

... initialized

Initializing position-dependent things.

Density initialized from atomic densities
Creating initial wave functions:
  112 bands from LCAO basis set

     .-------------------------.  
    /|         OP              |  
   / |O            O        O  |  
  /  |       O            O  P |  
 *   |O    Mn      O           |  
 |   |          OLi          O |  
 |   P--O--------------Mn------.  
 |  /          Li    O  Mn  O /   
 | /LiO           PO         /    
 |/       Mn                /     
 *Li-----------------------*      

Positions:
   0 O     -1.330281   -2.539252   -1.168500    ( 0.0000,  0.0000,  0.0000)
   1 O     -3.152392    2.974909    1.200956    ( 0.0000,  0.0000,  0.0000)
   2 O      2.077234    0.510133    1.506966    ( 0.0000,  0.0000,  0.0000)
   3 O      3.899724   -0.074476   -0.862491    ( 0.0000,  0.0000,  0.0000)
   4 O      2.077424    2.974966    1.507072    ( 0.0000,  0.0000,  0.0000)
   5 O      3.899535   -2.539195   -0.862384    ( 0.0000,  0.0000,  0.0000)
   6 O     -1.330092   -0.074418   -1.168395    ( 0.0000,  0.0000,  0.0000)
   7 O     -3.152581    0.510191    1.201063    ( 0.0000,  0.0000,  0.0000)
   8 O     -4.389675   -1.306969   -0.813152    ( 0.0000,  0.0000,  0.0000)
   9 O     -0.093301    1.742683    1.556268    ( 0.0000,  0.0000,  0.0000)
  10 O      5.136817    1.742683    1.151723    ( 0.0000,  0.0000,  0.0000)
  11 O      0.840444   -1.306969   -1.217697    ( 0.0000,  0.0000,  0.0000)
  12 Mn    -2.567192   -1.307258    0.273595    ( 0.0000,  0.0000,  1.0000)
  13 Mn    -1.925535    1.742972   -2.096623    ( 0.0000,  0.0000, -1.0000)
  14 Mn     3.304335    1.742972    0.064976    ( 0.0000,  0.0000, -1.0000)
  15 Mn     2.672678   -1.307258    2.435195    ( 0.0000,  0.0000,  1.0000)
  16 P     -0.597175   -1.306854   -1.801474    ( 0.0000,  0.0000,  0.0000)
  17 P     -3.885565    1.742568    0.568028    ( 0.0000,  0.0000,  0.0000)
  18 P      1.344318    1.742568    2.140045    ( 0.0000,  0.0000,  0.0000)
  19 P      4.632708   -1.306854   -0.229456    ( 0.0000,  0.0000,  0.0000)
  20 O     -0.636957   -1.306861    1.403074    ( 0.0000,  0.0000,  0.0000)
  21 O     -3.845824    1.742575   -0.967462    ( 0.0000,  0.0000,  0.0000)
  22 O      1.384100    1.742576   -1.064503    ( 0.0000,  0.0000,  0.0000)
  23 O      4.592967   -1.306861    1.306033    ( 0.0000,  0.0000,  0.0000)
  24 Li    -4.856429   -2.832143   -2.200714    ( 0.0000,  0.0000,  0.0000)
  25 Li     0.373571   -2.832143    0.169286    ( 0.0000,  0.0000,  0.0000)
  26 Li    -4.856429    0.217857   -2.200714    ( 0.0000,  0.0000,  0.0000)
  27 Li     0.373571    0.217857    0.169286    ( 0.0000,  0.0000,  0.0000)

Unit cell:
           periodic     x           y           z      points  spacing
  1. axis:    yes   10.460000    0.000000    0.000000    60     0.1743
  2. axis:    yes    0.000000    6.100000    0.000000    35     0.1743
  3. axis:    yes    0.000000    0.000000    4.740000    27     0.1756

  Lengths:  10.460000   6.100000   4.740000
  Angles:   90.000000  90.000000  90.000000

Effective grid spacing dv^(1/3) = 0.1747

                     log10-error:           total        iterations:
           time      wfs    density  force  energy       poisson  magmom
iter:   1  19:41:57                       -220.689422             +0.0000
iter:   2  19:42:19  -0.64  -0.92         -235.506668             +0.0000
iter:   3  19:42:40  -0.40  -0.96         -226.168864             -0.0000
iter:   4  19:43:02  -1.41  -1.29         -225.888159             +0.0000
iter:   5  19:43:23  -1.19  -1.38         -227.588593             +0.0000
iter:   6  19:43:45  -1.39  -1.51         -225.828787             +0.0000
iter:   7  19:44:06  -2.57  -2.06         -225.899354             +0.0000
iter:   8  19:44:27  -2.23  -2.01         -225.639734             -0.0000
iter:   9  19:44:49  -2.68  -2.09         -225.546512             +0.0000
iter:  10  19:45:10  -3.55  -2.95         -225.545818             +0.0000
iter:  11  19:45:32  -3.95  -3.00         -225.547278             +0.0000
iter:  12  19:45:53  -4.30  -3.22         -225.547448             +0.0000
iter:  13  19:46:15  -5.39  -3.36         -225.547342             -0.0000
iter:  14  19:46:36  -5.20  -3.44         -225.547194             -0.0000
iter:  15  19:46:58  -5.39  -3.60         -225.547118             -0.0000
iter:  16  19:47:19  -6.34  -3.68         -225.547100             +0.0000
iter:  17  19:47:40  -6.23  -3.75         -225.547120             -0.0000
iter:  18  19:48:02  -6.73  -3.81         -225.547121             -0.0000
iter:  19  19:48:23  -5.81  -3.83         -225.547083             -0.0000
iter:  20  19:48:45  -6.98  -4.40         -225.547079             -0.0000
iter:  21  19:49:12  -7.90  -4.71         -225.547078             -0.0000
iter:  22  19:49:33  -6.94  -4.80         -225.547076             -0.0000
iter:  23  19:50:00  -7.53  -4.77    -2.98-225.547075             -0.0000
iter:  24  19:50:27  -8.79  -4.99    -3.15-225.547075             -0.0000
iter:  25  19:50:54  -7.62  -5.01    -2.59-225.547076             -0.0000
iter:  26  19:51:20  -8.17  -5.01    -2.89-225.547075             -0.0000
iter:  27  19:51:47  -7.85  -5.14    -3.04-225.547075             -0.0000
iter:  28  19:52:14  -7.72  -4.96    -2.74-225.547075             -0.0000
iter:  29  19:52:41  -8.11  -5.16    -3.02-225.547075             -0.0000
iter:  30  19:53:08  -9.38  -5.73    -3.90-225.547075             -0.0000
iter:  31  19:53:35  -9.42  -5.79    -3.74-225.547075             -0.0000
iter:  32  19:54:01 -10.05  -5.91    -3.77-225.547075             -0.0000
iter:  33  19:54:28 -10.45  -5.92    -4.30-225.547075             -0.0000
iter:  34  19:54:55  -9.45  -5.97    -3.67-225.547075             -0.0000
iter:  35  19:55:22 -10.26  -6.07    -4.08-225.547075             -0.0000
iter:  36  19:55:49 -10.40  -6.18    -4.22-225.547075             -0.0000
iter:  37  19:56:16 -11.00  -6.35    -4.26-225.547075             -0.0000
iter:  38  19:56:42 -11.46  -6.60    -5.05-225.547075             -0.0000
iter:  39  19:57:09 -11.77  -6.65    -4.36-225.547075             -0.0000
iter:  40  19:57:36 -11.60  -6.59    -4.69-225.547075             -0.0000
iter:  41  19:58:03 -12.53  -6.75    -4.97-225.547075             -0.0000
iter:  42  19:58:30 -11.67  -6.84    -4.75-225.547075             -0.0000
iter:  43  19:58:57 -12.35  -6.88    -5.23-225.547075             -0.0000
iter:  44  19:59:24 -12.10  -7.00    -4.73-225.547075             -0.0000
iter:  45  19:59:50 -12.51  -7.17    -5.37-225.547075             -0.0000
iter:  46  20:00:17 -12.90  -7.27    -5.82-225.547075             -0.0000
iter:  47  20:00:44 -13.32  -7.30    -5.42-225.547075             -0.0000
iter:  48  20:01:11 -12.12  -7.38    -5.09-225.547075             -0.0000
iter:  49  20:01:38 -12.32  -7.48    -5.69-225.547075             -0.0000
iter:  50  20:02:05 -13.11  -7.76    -6.45-225.547075             -0.0000

Converged after 50 iterations.

Dipole moment: (13.149736, 1.715655, -5.512488) |e|*Ang

Total magnetic moment: (0.000000, 0.000000, -0.000000)
Local magnetic moments:
   0 O  ( 0.000000,  0.000000,  0.000800)
   1 O  ( 0.000000,  0.000000, -0.000900)
   2 O  ( 0.000000,  0.000000, -0.001074)
   3 O  ( 0.000000,  0.000000,  0.001060)
   4 O  ( 0.000000,  0.000000, -0.001082)
   5 O  ( 0.000000,  0.000000,  0.001068)
   6 O  ( 0.000000,  0.000000,  0.000792)
   7 O  ( 0.000000,  0.000000, -0.000892)
   8 O  ( 0.000000,  0.000000,  0.020080)
   9 O  ( 0.000000,  0.000000, -0.019795)
  10 O  ( 0.000000,  0.000000, -0.019764)
  11 O  ( 0.000000,  0.000000,  0.019813)
  12 Mn ( 0.000000,  0.000000,  4.601306)
  13 Mn ( 0.000000,  0.000000, -4.601654)
  14 Mn ( 0.000000,  0.000000, -4.601519)
  15 Mn ( 0.000000,  0.000000,  4.601613)
  16 P  ( 0.000000,  0.000000,  0.001172)
  17 P  ( 0.000000,  0.000000, -0.001253)
  18 P  ( 0.000000,  0.000000, -0.001302)
  19 P  ( 0.000000,  0.000000,  0.001389)
  20 O  ( 0.000000,  0.000000,  0.017814)
  21 O  ( 0.000000,  0.000000, -0.018032)
  22 O  ( 0.000000,  0.000000, -0.018091)
  23 O  ( 0.000000,  0.000000,  0.018056)
  24 Li ( 0.000000,  0.000000,  0.000008)
  25 Li ( 0.000000,  0.000000,  0.000003)
  26 Li ( 0.000000,  0.000000,  0.000008)
  27 Li ( 0.000000,  0.000000,  0.000003)

Energy contributions relative to reference atoms: (reference = -196157.275402)

Kinetic:       +242.945424
Potential:     -215.446154
External:        +0.000000
XC:            -254.961569
Entropy (-ST):   -0.000000
Local:           +1.915224
--------------------------
Free energy:   -225.547075
Extrapolated:  -225.547075

Spin contamination: 9.747707 electrons
Showing only first 2 kpts
                      Up                     Down
 Kpt  Band  Eigenvalues  Occupancy  Eigenvalues  Occupancy
  0    88      3.92437    0.00694      3.92395    0.00694
  0    89      3.97467    0.00694      3.97276    0.00694
  0    90      8.66629    0.00000      8.66715    0.00000
  0    91      8.68951    0.00000      8.68581    0.00000

  1    88      3.92082    0.00694      3.92024    0.00694
  1    89      3.97847    0.00694      3.97651    0.00694
  1    90      8.51214    0.00000      8.51057    0.00000
  1    91      8.53195    0.00000      8.52819    0.00000


Fermi level: 5.31934

Gap: 3.773 eV
Transition (v -> c):
  (s=0, k=69, n=89, [-0.08, 0.42, -0.12]) -> (s=1, k=57, n=90, [-0.08, -0.08, -0.12])
Writing to born-0.01-12x-.gpw (mode='all')

Timing:                              incl.     excl.
-----------------------------------------------------------
Hamiltonian:                         0.250     0.002   0.0% |
 Atomic:                             0.063     0.063   0.0% |
  XC Correction:                     0.000     0.000   0.0% |
 Calculate atomic Hamiltonians:      0.090     0.090   0.0% |
 Communicate:                        0.002     0.002   0.0% |
 Initialize Hamiltonian:             0.000     0.000   0.0% |
 Poisson:                            0.001     0.001   0.0% |
 XC 3D grid:                         0.092     0.092   0.0% |
LCAO initialization:                66.925     0.679   0.0% |
 LCAO eigensolver:                  17.565     0.002   0.0% |
  Calculate projections:             0.029     0.029   0.0% |
  DenseAtomicCorrection:             0.043     0.043   0.0% |
  Distribute overlap matrix:         0.070     0.070   0.0% |
  Orbital Layouts:                   0.474     0.474   0.0% |
  Potential matrix:                 16.846    16.846   0.5% |
  Sum over cells:                    0.101     0.101   0.0% |
 LCAO to grid:                      47.411    47.411   1.5% ||
 Set positions (LCAO WFS):           1.270     0.178   0.0% |
  Basic WFS set positions:           0.001     0.001   0.0% |
  Basis functions set positions:     0.000     0.000   0.0% |
  P tci:                             0.521     0.521   0.0% |
  ST tci:                            0.362     0.362   0.0% |
  mktci:                             0.208     0.208   0.0% |
PWDescriptor:                        0.025     0.025   0.0% |
SCF-cycle:                        1231.775     1.967   0.1% |
 Davidson:                        1019.006   317.715  10.1% |---|
  Apply H:                          69.147    67.152   2.1% ||
   HMM T:                            1.995     1.995   0.1% |
  Subspace diag:                   147.217     0.146   0.0% |
   calc_h_matrix:                   93.939    24.922   0.8% |
    Apply H:                        69.017    67.099   2.1% ||
     HMM T:                          1.918     1.918   0.1% |
   diagonalize:                      7.206     7.206   0.2% |
   rotate_psi:                      45.926    45.926   1.5% ||
  calc. matrices:                  302.134   167.912   5.3% |-|
   Apply H:                        134.222   130.568   4.1% |-|
    HMM T:                           3.654     3.654   0.1% |
  diagonalize:                      83.381    83.381   2.6% ||
  rotate_psi:                       99.412    99.412   3.2% ||
 Density:                           40.746     0.001   0.0% |
  Atomic density matrices:           0.846     0.846   0.0% |
  Mix:                               6.391     6.391   0.2% |
  Multipole moments:                 0.018     0.018   0.0% |
  Pseudo density:                   33.491    33.490   1.1% |
   Symmetrize density:               0.001     0.001   0.0% |
 Forces:                           155.362   155.362   4.9% |-|
 Hamiltonian:                       12.413     0.107   0.0% |
  Atomic:                            2.958     2.957   0.1% |
   XC Correction:                    0.000     0.000   0.0% |
  Calculate atomic Hamiltonians:     4.647     4.647   0.1% |
  Communicate:                       0.088     0.088   0.0% |
  Poisson:                           0.038     0.038   0.0% |
  XC 3D grid:                        4.574     4.574   0.1% |
 Orthonormalize:                     2.281     0.003   0.0% |
  calc_s_matrix:                     0.264     0.264   0.0% |
  inverse-cholesky:                  0.077     0.077   0.0% |
  projections:                       1.466     1.466   0.0% |
  rotate_psi_s:                      0.471     0.471   0.0% |
Set symmetry:                        0.000     0.000   0.0% |
Other:                            1856.474  1856.474  58.8% |-----------------------|
-----------------------------------------------------------
Total:                                      3155.449 100.0%

Memory usage: 11.94 GiB
Date: Tue Mar 23 20:33:00 2021
