
  ___ ___ ___ _ _ _  
 |   |   |_  | | | | 
 | | | | | . | | | | 
 |__ |  _|___|_____|  20.10.1b1
 |___|_|             

User:   madkru@g031.nifl.fysik.dtu.dk
Date:   Sun Mar 21 18:09:23 2021
Arch:   x86_64
Pid:    47913
Python: 3.7.4
gpaw:   /home/niflheim/madkru/venv_folder/gpaw/gpaw (d0d1ca1c71)
_gpaw:  /home/niflheim/madkru/venv_folder/gpaw/build/lib.linux-x86_64-sandybridge-3.7/
        _gpaw.cpython-37m-x86_64-linux-gnu.so (4fd39e8b1e)
ase:    /home/niflheim/madkru/venv_folder/ase/ase (version 3.21.0b1-7e6c206a91)
numpy:  /home/niflheim/madkru/venv_folder/lib/python3.7/site-packages/numpy (version 1.19.4)
scipy:  /home/niflheim/madkru/venv_folder/lib/python3.7/site-packages/scipy (version 1.5.4)
libxc:  4.3.4
units:  Angstrom and eV
cores: 32
OMP_NUM_THREADS: 1

Input parameters:
  convergence: {bands: occupied,
                density: 0.0001,
                eigenstates: 4e-08,
                energy: 0.0005,
                forces: 1e-06}
  kpts: [6 6 4]
  mode: {ecut: 600.0,
         gammacentered: False,
         name: pw}
  occupations: {fixmagmom: False,
                name: fermi-dirac,
                width: 0.001}
  setups: {Mn: :d,3.0}
  symmetry: {point_group: False,
             time_reversal: False}

System changes: positions, numbers, cell, pbc, initial_charges, initial_magmoms 

Initialize ...

O-setup:
  name: Oxygen
  id: 9b9d51c344dea68c822856295a461509
  Z: 8.0
  valence: 6
  core: 2
  charge: 0.0
  file: /home/modules/software/GPAW-setups/0.9.20000/O.LDA.gz
  compensation charges: gauss, rc=0.21, lmax=2
  cutoffs: 1.17(filt), 0.83(core),
  valence states:
                energy  radius
    2s(2.00)   -23.752   0.688
    2p(4.00)    -9.195   0.598
    *s           3.459   0.688
    *p          18.016   0.598
    *d           0.000   0.619

  Using partial waves for O as LCAO basis

Mn-setup:
  name: Manganese
  id: 0d715a8018be061a6e9ea6f2d364ac92
  Z: 25.0
  valence: 15
  core: 10
  charge: 0.0
  Hubbard U: 3.000000 eV (l=2, scale=True)
  file: /home/modules/software/GPAW-setups/0.9.20000/Mn.LDA.gz
  compensation charges: gauss, rc=0.38, lmax=2
  cutoffs: 2.14(filt), 0.86(core),
  valence states:
                energy  radius
    3s(2.00)   -85.387   1.275
    4s(2.00)    -5.282   1.275
    3p(6.00)   -54.493   1.281
    4p(0.00)    -1.471   1.281
    3d(5.00)    -7.009   1.138
    *d          20.203   1.138

  Using partial waves for Mn as LCAO basis

P-setup:
  name: Phosphorus
  id: a5561c299094968922a179ab894d2e2d
  Z: 15.0
  valence: 5
  core: 10
  charge: 0.0
  file: /home/modules/software/GPAW-setups/0.9.20000/P.LDA.gz
  compensation charges: gauss, rc=0.30, lmax=2
  cutoffs: 1.69(filt), 1.81(core),
  valence states:
                energy  radius
    3s(2.00)   -14.015   0.953
    3p(3.00)    -5.596   0.953
    *s          13.197   0.953
    *p          21.615   0.953
    *d           0.000   0.953

  Using partial waves for P as LCAO basis

Li-setup:
  name: Lithium
  id: b73562207f97a71b6967473b66fe8b65
  Z: 3.0
  valence: 1
  core: 2
  charge: 0.0
  file: /home/modules/software/GPAW-setups/0.9.20000/Li.LDA.gz
  compensation charges: gauss, rc=0.33, lmax=2
  cutoffs: 1.91(filt), 2.55(core),
  valence states:
                energy  radius
    2s(1.00)    -2.874   1.058
    2p(0.00)    -1.126   1.058
    *s          24.338   1.058

  Using partial waves for Li as LCAO basis

Reference energy: -196157.275402

Spin-polarized calculation.
Magnetic moment: 0.000000

Convergence criteria:
  Maximum total energy change: 0.0005 eV / electron
  Maximum integral of absolute density change: 0.0001 electrons
  Maximum integral of absolute eigenstate change: 4e-08 eV^2
  Maximum change in atomic force: 1e-06 eV / Ang
  Maximum number of iterations: 333

Symmetries present (total): 1

  ( 1  0  0)
  ( 0  1  0)
  ( 0  0  1)

144 k-points: 6 x 6 x 4 Monkhorst-Pack grid
144 k-points in the irreducible part of the Brillouin zone
       k-points in crystal coordinates                weights
   0:    -0.41666667   -0.41666667   -0.37500000          1/144
   1:    -0.41666667   -0.41666667   -0.12500000          1/144
   2:    -0.41666667   -0.41666667    0.12500000          1/144
   3:    -0.41666667   -0.41666667    0.37500000          1/144
   4:    -0.41666667   -0.25000000   -0.37500000          1/144
   5:    -0.41666667   -0.25000000   -0.12500000          1/144
   6:    -0.41666667   -0.25000000    0.12500000          1/144
   7:    -0.41666667   -0.25000000    0.37500000          1/144
   8:    -0.41666667   -0.08333333   -0.37500000          1/144
   9:    -0.41666667   -0.08333333   -0.12500000          1/144
          ...
 143:     0.41666667    0.41666667    0.37500000          1/144

Wave functions: Plane wave expansion
  Cutoff energy: 600.000 eV
  Number of coefficients (min, max): 10068, 10125
  Pulay-stress correction: 0.000000 eV/Ang^3 (de/decut=0.000000)
  Using FFTW library
  ScaLapack parameters: grid=1x1, blocksize=None
  Wavefunction extrapolation:
    Improved wavefunction reuse through dual PAW basis 

  Fermi-Dirac: width=0.0010 eV

Eigensolver
   Davidson(niter=2, smin=None, normalize=True) 

Densities:
  Coarse grid: 60*35*27 grid
  Fine grid: 120*70*54 grid
  Total Charge: 0.000000 

Density mixing:
  Method: difference
  Backend: pulay
  Linear mixing parameter: 0.05
  Mixing with 5 old densities
  Damping of long wave oscillations: 50 

Hamiltonian:
  XC and Coulomb potentials evaluated on a 120*70*54 grid
  Using the LDA Exchange-Correlation functional
 

Memory estimate:
  Process memory now: 12604.48 MiB
  Calculator: 375.55 MiB
    Density: 20.02 MiB
      Arrays: 7.57 MiB
      Localized functions: 9.42 MiB
      Mixer: 3.03 MiB
    Hamiltonian: 5.90 MiB
      Arrays: 5.62 MiB
      XC: 0.00 MiB
      Poisson: 0.00 MiB
      vbar: 0.27 MiB
    Wavefunctions: 349.64 MiB
      Arrays psit_nG: 311.46 MiB
      Eigensolver: 19.99 MiB
      Projections: 5.41 MiB
      Projectors: 9.73 MiB
      PW-descriptor: 3.03 MiB

Total number of cores used: 32
Parallelization over k-points: 16
Domain decomposition: 2 x 1 x 1

Number of atoms: 28
Number of atomic orbitals: 148
Number of bands in calculation: 112
Number of valence electrons: 180
Bands to converge: occupied

... initialized

Initializing position-dependent things.

Density initialized from atomic densities
Creating initial wave functions:
  112 bands from LCAO basis set

     .-------------------------.  
    /|         OP              |  
   / |O            O        O  |  
  /  |       O            O  P |  
 *   |O    Mn      O           |  
 |   |          OLi          O |  
 |   P--O--------------Mn------.  
 |  /          Li    O  Mn  O /   
 | /LiO           PO         /    
 |/       Mn                /     
 *Li-----------------------*      

Positions:
   0 O     -1.330281   -2.539252   -1.168500    ( 0.0000,  0.0000,  0.0000)
   1 O     -3.152392    2.974909    1.200956    ( 0.0000,  0.0000,  0.0000)
   2 O      2.077234    0.510133    1.506966    ( 0.0000,  0.0000,  0.0000)
   3 O      3.889724   -0.074476   -0.862491    ( 0.0000,  0.0000,  0.0000)
   4 O      2.077424    2.974966    1.507072    ( 0.0000,  0.0000,  0.0000)
   5 O      3.899535   -2.539195   -0.862384    ( 0.0000,  0.0000,  0.0000)
   6 O     -1.330092   -0.074418   -1.168395    ( 0.0000,  0.0000,  0.0000)
   7 O     -3.152581    0.510191    1.201063    ( 0.0000,  0.0000,  0.0000)
   8 O     -4.389675   -1.306969   -0.813152    ( 0.0000,  0.0000,  0.0000)
   9 O     -0.093301    1.742683    1.556268    ( 0.0000,  0.0000,  0.0000)
  10 O      5.136817    1.742683    1.151723    ( 0.0000,  0.0000,  0.0000)
  11 O      0.840444   -1.306969   -1.217697    ( 0.0000,  0.0000,  0.0000)
  12 Mn    -2.557192   -1.307258    0.273595    ( 0.0000,  0.0000,  1.0000)
  13 Mn    -1.925535    1.742972   -2.096623    ( 0.0000,  0.0000, -1.0000)
  14 Mn     3.304335    1.742972    0.064976    ( 0.0000,  0.0000, -1.0000)
  15 Mn     2.672678   -1.307258    2.435195    ( 0.0000,  0.0000,  1.0000)
  16 P     -0.597175   -1.306854   -1.801474    ( 0.0000,  0.0000,  0.0000)
  17 P     -3.885565    1.742568    0.568028    ( 0.0000,  0.0000,  0.0000)
  18 P      1.344318    1.742568    2.140045    ( 0.0000,  0.0000,  0.0000)
  19 P      4.632708   -1.306854   -0.229456    ( 0.0000,  0.0000,  0.0000)
  20 O     -0.636957   -1.306861    1.403074    ( 0.0000,  0.0000,  0.0000)
  21 O     -3.845824    1.742575   -0.967462    ( 0.0000,  0.0000,  0.0000)
  22 O      1.384100    1.742576   -1.064503    ( 0.0000,  0.0000,  0.0000)
  23 O      4.592967   -1.306861    1.306033    ( 0.0000,  0.0000,  0.0000)
  24 Li    -4.856429   -2.832143   -2.200714    ( 0.0000,  0.0000,  0.0000)
  25 Li     0.373571   -2.832143    0.169286    ( 0.0000,  0.0000,  0.0000)
  26 Li    -4.856429    0.217857   -2.200714    ( 0.0000,  0.0000,  0.0000)
  27 Li     0.373571    0.217857    0.169286    ( 0.0000,  0.0000,  0.0000)

Unit cell:
           periodic     x           y           z      points  spacing
  1. axis:    yes   10.460000    0.000000    0.000000    60     0.1743
  2. axis:    yes    0.000000    6.100000    0.000000    35     0.1743
  3. axis:    yes    0.000000    0.000000    4.740000    27     0.1756

  Lengths:  10.460000   6.100000   4.740000
  Angles:   90.000000  90.000000  90.000000

Effective grid spacing dv^(1/3) = 0.1747

                     log10-error:           total        iterations:
           time      wfs    density  force  energy       poisson  magmom
iter:   1  18:12:26                       -220.682197             +0.0000
iter:   2  18:13:05  -0.64  -0.92         -235.490034             +0.0000
iter:   3  18:13:45  -0.40  -0.96         -226.167166             -0.0000
iter:   4  18:14:24  -1.41  -1.29         -225.887831             +0.0000
iter:   5  18:15:04  -1.19  -1.38         -227.587662             +0.0000
iter:   6  18:15:43  -1.40  -1.51         -225.828263             +0.0000
iter:   7  18:16:23  -2.57  -2.06         -225.898709             +0.0000
iter:   8  18:17:03  -2.23  -2.01         -225.639950             -0.0000
iter:   9  18:17:42  -2.68  -2.09         -225.546432             +0.0000
iter:  10  18:18:22  -3.56  -2.95         -225.545846             +0.0000
iter:  11  18:19:02  -3.95  -3.00         -225.547099             +0.0000
iter:  12  18:19:41  -4.29  -3.22         -225.547293             +0.0000
iter:  13  18:20:21  -5.38  -3.36         -225.547181             -0.0000
iter:  14  18:21:01  -5.20  -3.44         -225.547016             -0.0000
iter:  15  18:21:40  -5.39  -3.60         -225.546942             -0.0000
iter:  16  18:22:20  -6.30  -3.67         -225.546927             +0.0000
iter:  17  18:22:59  -6.19  -3.74         -225.546946             -0.0000
iter:  18  18:23:39  -6.76  -3.81         -225.546947             -0.0000
iter:  19  18:24:18  -5.85  -3.82         -225.546908             -0.0000
iter:  20  18:24:58  -6.83  -4.32         -225.546908             -0.0000
iter:  21  18:25:37  -6.60  -4.54         -225.546901             -0.0000
iter:  22  18:26:27  -7.43  -4.64         -225.546900             -0.0000
iter:  23  18:27:18  -8.21  -5.03    -2.77-225.546900             -0.0000
iter:  24  18:28:08  -8.67  -5.31    -3.64-225.546901             -0.0000
iter:  25  18:28:58  -9.01  -5.38    -3.03-225.546901             -0.0000
iter:  26  18:29:48  -9.52  -5.63    -3.56-225.546901             -0.0000
iter:  27  18:30:38  -9.18  -5.69    -3.43-225.546901             +0.0000
iter:  28  18:31:28  -9.91  -5.77    -4.09-225.546901             +0.0000
iter:  29  18:32:18  -9.57  -5.83    -3.68-225.546901             +0.0000
iter:  30  18:33:09 -10.06  -6.18    -4.12-225.546901             +0.0000
iter:  31  18:33:59 -11.02  -6.26    -4.19-225.546901             +0.0000
iter:  32  18:34:49 -10.85  -6.33    -4.10-225.546901             +0.0000
iter:  33  18:35:39 -11.95  -6.58    -4.85-225.546901             +0.0000
iter:  34  18:36:29 -11.63  -6.65    -4.64-225.546901             +0.0000
iter:  35  18:37:19 -12.37  -6.69    -5.14-225.546901             +0.0000
iter:  36  18:38:09 -10.93  -6.77    -4.36-225.546901             +0.0000
iter:  37  18:38:59 -12.18  -7.12    -5.28-225.546901             -0.0000
iter:  38  18:39:49 -12.15  -7.20    -4.75-225.546901             +0.0000
iter:  39  18:40:40 -12.04  -7.25    -5.27-225.546901             +0.0000
iter:  40  18:41:30 -12.90  -7.65    -6.00-225.546901             -0.0000

Converged after 40 iterations.

Dipole moment: (13.165217, 1.718565, -5.510092) |e|*Ang

Total magnetic moment: (0.000000, 0.000000, -0.000000)
Local magnetic moments:
   0 O  ( 0.000000,  0.000000,  0.001078)
   1 O  ( 0.000000,  0.000000, -0.001045)
   2 O  ( 0.000000,  0.000000, -0.001071)
   3 O  ( 0.000000,  0.000000,  0.001082)
   4 O  ( 0.000000,  0.000000, -0.001106)
   5 O  ( 0.000000,  0.000000,  0.001076)
   6 O  ( 0.000000,  0.000000,  0.001071)
   7 O  ( 0.000000,  0.000000, -0.001034)
   8 O  ( 0.000000,  0.000000,  0.019702)
   9 O  ( 0.000000,  0.000000, -0.019809)
  10 O  ( 0.000000,  0.000000, -0.019762)
  11 O  ( 0.000000,  0.000000,  0.019790)
  12 Mn ( 0.000000,  0.000000,  4.601520)
  13 Mn ( 0.000000,  0.000000, -4.601589)
  14 Mn ( 0.000000,  0.000000, -4.601124)
  15 Mn ( 0.000000,  0.000000,  4.601281)
  16 P  ( 0.000000,  0.000000,  0.001306)
  17 P  ( 0.000000,  0.000000, -0.001301)
  18 P  ( 0.000000,  0.000000, -0.001293)
  19 P  ( 0.000000,  0.000000,  0.001318)
  20 O  ( 0.000000,  0.000000,  0.018098)
  21 O  ( 0.000000,  0.000000, -0.018053)
  22 O  ( 0.000000,  0.000000, -0.018110)
  23 O  ( 0.000000,  0.000000,  0.018056)
  24 Li ( 0.000000,  0.000000, -0.000002)
  25 Li ( 0.000000,  0.000000,  0.000000)
  26 Li ( 0.000000,  0.000000,  0.000003)
  27 Li ( 0.000000,  0.000000,  0.000000)

Energy contributions relative to reference atoms: (reference = -196157.275402)

Kinetic:       +242.684372
Potential:     -215.242929
External:        +0.000000
XC:            -254.903936
Entropy (-ST):   -0.000000
Local:           +1.915593
--------------------------
Free energy:   -225.546901
Extrapolated:  -225.546901

Spin contamination: 9.747080 electrons
Showing only first 2 kpts
                      Up                     Down
 Kpt  Band  Eigenvalues  Occupancy  Eigenvalues  Occupancy
  0    88      3.92293    0.00694      3.92586    0.00694
  0    89      3.97296    0.00694      3.97559    0.00694
  0    90      8.67157    0.00000      8.66531    0.00000
  0    91      8.68766    0.00000      8.69385    0.00000

  1    88      3.91970    0.00694      3.92249    0.00694
  1    89      3.97655    0.00694      3.97934    0.00694
  1    90      8.51642    0.00000      8.51112    0.00000
  1    91      8.53169    0.00000      8.53931    0.00000


Fermi level: 5.31858

Gap: 3.775 eV
Transition (v -> c):
  (s=1, k=94, n=89, [0.08, 0.42, 0.12]) -> (s=0, k=81, n=90, [0.08, -0.08, -0.12])
Writing to born-0.01-3x-.gpw (mode='all')

Timing:                              incl.     excl.
-----------------------------------------------------------
Hamiltonian:                         0.448     0.002   0.0% |
 Atomic:                             0.097     0.097   0.0% |
  XC Correction:                     0.000     0.000   0.0% |
 Calculate atomic Hamiltonians:      0.180     0.180   0.0% |
 Communicate:                        0.002     0.002   0.0% |
 Initialize Hamiltonian:             0.000     0.000   0.0% |
 Poisson:                            0.002     0.002   0.0% |
 XC 3D grid:                         0.165     0.165   0.0% |
LCAO initialization:               133.423     0.679   0.0% |
 LCAO eigensolver:                  33.933     0.002   0.0% |
  Calculate projections:             0.056     0.056   0.0% |
  DenseAtomicCorrection:             0.082     0.082   0.0% |
  Distribute overlap matrix:         0.235     0.235   0.0% |
  Orbital Layouts:                   0.361     0.361   0.0% |
  Potential matrix:                 33.095    33.095   0.7% |
  Sum over cells:                    0.100     0.100   0.0% |
 LCAO to grid:                      96.559    96.559   1.9% ||
 Set positions (LCAO WFS):           2.253     0.344   0.0% |
  Basic WFS set positions:           0.001     0.001   0.0% |
  Basis functions set positions:     0.000     0.000   0.0% |
  P tci:                             1.042     1.042   0.0% |
  ST tci:                            0.659     0.659   0.0% |
  mktci:                             0.206     0.206   0.0% |
PWDescriptor:                        0.025     0.025   0.0% |
SCF-cycle:                        1790.662     9.688   0.2% |
 Davidson:                        1498.250   486.766   9.7% |---|
  Apply H:                         106.369   102.818   2.0% ||
   HMM T:                            3.551     3.551   0.1% |
  Subspace diag:                   221.692     0.128   0.0% |
   calc_h_matrix:                  144.300    39.596   0.8% |
    Apply H:                       104.704   101.344   2.0% ||
     HMM T:                          3.360     3.360   0.1% |
   diagonalize:                      4.904     4.904   0.1% |
   rotate_psi:                      72.360    72.360   1.4% ||
  calc. matrices:                  469.658   264.166   5.3% |-|
   Apply H:                        205.492   199.246   4.0% |-|
    HMM T:                           6.246     6.246   0.1% |
  diagonalize:                      66.704    66.704   1.3% ||
  rotate_psi:                      147.061   147.061   2.9% ||
 Density:                           59.301     0.001   0.0% |
  Atomic density matrices:           1.044     1.044   0.0% |
  Mix:                               9.641     9.641   0.2% |
  Multipole moments:                 0.023     0.023   0.0% |
  Pseudo density:                   48.593    48.592   1.0% |
   Symmetrize density:               0.001     0.001   0.0% |
 Forces:                           202.297   202.297   4.0% |-|
 Hamiltonian:                       16.728     0.094   0.0% |
  Atomic:                            2.272     2.271   0.0% |
   XC Correction:                    0.000     0.000   0.0% |
  Calculate atomic Hamiltonians:     7.265     7.265   0.1% |
  Communicate:                       0.066     0.066   0.0% |
  Poisson:                           0.065     0.065   0.0% |
  XC 3D grid:                        6.966     6.966   0.1% |
 Orthonormalize:                     4.397     0.004   0.0% |
  calc_s_matrix:                     0.523     0.523   0.0% |
  inverse-cholesky:                  0.055     0.055   0.0% |
  projections:                       2.886     2.886   0.1% |
  rotate_psi_s:                      0.930     0.930   0.0% |
Set symmetry:                        0.000     0.000   0.0% |
Other:                            3099.606  3099.606  61.7% |------------------------|
-----------------------------------------------------------
Total:                                      5024.165 100.0%

Memory usage: 12.32 GiB
Date: Sun Mar 21 19:33:08 2021
