
  ___ ___ ___ _ _ _  
 |   |   |_  | | | | 
 | | | | | . | | | | 
 |__ |  _|___|_____|  20.10.1b1
 |___|_|             

User:   madkru@g031.nifl.fysik.dtu.dk
Date:   Mon Mar 22 17:14:24 2021
Arch:   x86_64
Pid:    47913
Python: 3.7.4
gpaw:   /home/niflheim/madkru/venv_folder/gpaw/gpaw (d0d1ca1c71)
_gpaw:  /home/niflheim/madkru/venv_folder/gpaw/build/lib.linux-x86_64-sandybridge-3.7/
        _gpaw.cpython-37m-x86_64-linux-gnu.so (4fd39e8b1e)
ase:    /home/niflheim/madkru/venv_folder/ase/ase (version 3.21.0b1-7e6c206a91)
numpy:  /home/niflheim/madkru/venv_folder/lib/python3.7/site-packages/numpy (version 1.19.4)
scipy:  /home/niflheim/madkru/venv_folder/lib/python3.7/site-packages/scipy (version 1.5.4)
libxc:  4.3.4
units:  Angstrom and eV
cores: 32
OMP_NUM_THREADS: 1

Input parameters:
  convergence: {bands: occupied,
                density: 0.0001,
                eigenstates: 4e-08,
                energy: 0.0005,
                forces: 1e-06}
  kpts: [6 6 4]
  mode: {ecut: 600.0,
         gammacentered: False,
         name: pw}
  occupations: {fixmagmom: False,
                name: fermi-dirac,
                width: 0.001}
  setups: {Mn: :d,3.0}
  symmetry: {point_group: False,
             time_reversal: False}

System changes: positions, numbers, cell, pbc, initial_charges, initial_magmoms 

Initialize ...

O-setup:
  name: Oxygen
  id: 9b9d51c344dea68c822856295a461509
  Z: 8.0
  valence: 6
  core: 2
  charge: 0.0
  file: /home/modules/software/GPAW-setups/0.9.20000/O.LDA.gz
  compensation charges: gauss, rc=0.21, lmax=2
  cutoffs: 1.17(filt), 0.83(core),
  valence states:
                energy  radius
    2s(2.00)   -23.752   0.688
    2p(4.00)    -9.195   0.598
    *s           3.459   0.688
    *p          18.016   0.598
    *d           0.000   0.619

  Using partial waves for O as LCAO basis

Mn-setup:
  name: Manganese
  id: 0d715a8018be061a6e9ea6f2d364ac92
  Z: 25.0
  valence: 15
  core: 10
  charge: 0.0
  Hubbard U: 3.000000 eV (l=2, scale=True)
  file: /home/modules/software/GPAW-setups/0.9.20000/Mn.LDA.gz
  compensation charges: gauss, rc=0.38, lmax=2
  cutoffs: 2.14(filt), 0.86(core),
  valence states:
                energy  radius
    3s(2.00)   -85.387   1.275
    4s(2.00)    -5.282   1.275
    3p(6.00)   -54.493   1.281
    4p(0.00)    -1.471   1.281
    3d(5.00)    -7.009   1.138
    *d          20.203   1.138

  Using partial waves for Mn as LCAO basis

P-setup:
  name: Phosphorus
  id: a5561c299094968922a179ab894d2e2d
  Z: 15.0
  valence: 5
  core: 10
  charge: 0.0
  file: /home/modules/software/GPAW-setups/0.9.20000/P.LDA.gz
  compensation charges: gauss, rc=0.30, lmax=2
  cutoffs: 1.69(filt), 1.81(core),
  valence states:
                energy  radius
    3s(2.00)   -14.015   0.953
    3p(3.00)    -5.596   0.953
    *s          13.197   0.953
    *p          21.615   0.953
    *d           0.000   0.953

  Using partial waves for P as LCAO basis

Li-setup:
  name: Lithium
  id: b73562207f97a71b6967473b66fe8b65
  Z: 3.0
  valence: 1
  core: 2
  charge: 0.0
  file: /home/modules/software/GPAW-setups/0.9.20000/Li.LDA.gz
  compensation charges: gauss, rc=0.33, lmax=2
  cutoffs: 1.91(filt), 2.55(core),
  valence states:
                energy  radius
    2s(1.00)    -2.874   1.058
    2p(0.00)    -1.126   1.058
    *s          24.338   1.058

  Using partial waves for Li as LCAO basis

Reference energy: -196157.275402

Spin-polarized calculation.
Magnetic moment: 0.000000

Convergence criteria:
  Maximum total energy change: 0.0005 eV / electron
  Maximum integral of absolute density change: 0.0001 electrons
  Maximum integral of absolute eigenstate change: 4e-08 eV^2
  Maximum change in atomic force: 1e-06 eV / Ang
  Maximum number of iterations: 333

Symmetries present (total): 1

  ( 1  0  0)
  ( 0  1  0)
  ( 0  0  1)

144 k-points: 6 x 6 x 4 Monkhorst-Pack grid
144 k-points in the irreducible part of the Brillouin zone
       k-points in crystal coordinates                weights
   0:    -0.41666667   -0.41666667   -0.37500000          1/144
   1:    -0.41666667   -0.41666667   -0.12500000          1/144
   2:    -0.41666667   -0.41666667    0.12500000          1/144
   3:    -0.41666667   -0.41666667    0.37500000          1/144
   4:    -0.41666667   -0.25000000   -0.37500000          1/144
   5:    -0.41666667   -0.25000000   -0.12500000          1/144
   6:    -0.41666667   -0.25000000    0.12500000          1/144
   7:    -0.41666667   -0.25000000    0.37500000          1/144
   8:    -0.41666667   -0.08333333   -0.37500000          1/144
   9:    -0.41666667   -0.08333333   -0.12500000          1/144
          ...
 143:     0.41666667    0.41666667    0.37500000          1/144

Wave functions: Plane wave expansion
  Cutoff energy: 600.000 eV
  Number of coefficients (min, max): 10068, 10125
  Pulay-stress correction: 0.000000 eV/Ang^3 (de/decut=0.000000)
  Using FFTW library
  ScaLapack parameters: grid=1x1, blocksize=None
  Wavefunction extrapolation:
    Improved wavefunction reuse through dual PAW basis 

  Fermi-Dirac: width=0.0010 eV

Eigensolver
   Davidson(niter=2, smin=None, normalize=True) 

Densities:
  Coarse grid: 60*35*27 grid
  Fine grid: 120*70*54 grid
  Total Charge: 0.000000 

Density mixing:
  Method: difference
  Backend: pulay
  Linear mixing parameter: 0.05
  Mixing with 5 old densities
  Damping of long wave oscillations: 50 

Hamiltonian:
  XC and Coulomb potentials evaluated on a 120*70*54 grid
  Using the LDA Exchange-Correlation functional
 

Memory estimate:
  Process memory now: 13216.90 MiB
  Calculator: 375.55 MiB
    Density: 20.02 MiB
      Arrays: 7.57 MiB
      Localized functions: 9.42 MiB
      Mixer: 3.03 MiB
    Hamiltonian: 5.90 MiB
      Arrays: 5.62 MiB
      XC: 0.00 MiB
      Poisson: 0.00 MiB
      vbar: 0.27 MiB
    Wavefunctions: 349.64 MiB
      Arrays psit_nG: 311.46 MiB
      Eigensolver: 19.99 MiB
      Projections: 5.41 MiB
      Projectors: 9.73 MiB
      PW-descriptor: 3.03 MiB

Total number of cores used: 32
Parallelization over k-points: 16
Domain decomposition: 2 x 1 x 1

Number of atoms: 28
Number of atomic orbitals: 148
Number of bands in calculation: 112
Number of valence electrons: 180
Bands to converge: occupied

... initialized

Initializing position-dependent things.

Density initialized from atomic densities
Creating initial wave functions:
  112 bands from LCAO basis set

     .-------------------------.  
    /|         OP              |  
   / |O            O        O  |  
  /  |       O            O  P |  
 *   |O    Mn      O           |  
 |   |          OLi          O |  
 |   P--O--------------Mn------.  
 |  /          Li    O  Mn  O /   
 | /LiO           PO         /    
 |/       Mn                /     
 *Li-----------------------*      

Positions:
   0 O     -1.330281   -2.539252   -1.168500    ( 0.0000,  0.0000,  0.0000)
   1 O     -3.152392    2.974909    1.200956    ( 0.0000,  0.0000,  0.0000)
   2 O      2.077234    0.510133    1.506966    ( 0.0000,  0.0000,  0.0000)
   3 O      3.899724   -0.074476   -0.862491    ( 0.0000,  0.0000,  0.0000)
   4 O      2.077424    2.974966    1.507072    ( 0.0000,  0.0000,  0.0000)
   5 O      3.899535   -2.539195   -0.862384    ( 0.0000,  0.0000,  0.0000)
   6 O     -1.330092   -0.074418   -1.168395    ( 0.0000,  0.0000,  0.0000)
   7 O     -3.152581    0.510191    1.201063    ( 0.0000,  0.0000,  0.0000)
   8 O     -4.399675   -1.306969   -0.813152    ( 0.0000,  0.0000,  0.0000)
   9 O     -0.093301    1.742683    1.556268    ( 0.0000,  0.0000,  0.0000)
  10 O      5.136817    1.742683    1.151723    ( 0.0000,  0.0000,  0.0000)
  11 O      0.840444   -1.306969   -1.217697    ( 0.0000,  0.0000,  0.0000)
  12 Mn    -2.557192   -1.307258    0.273595    ( 0.0000,  0.0000,  1.0000)
  13 Mn    -1.925535    1.742972   -2.096623    ( 0.0000,  0.0000, -1.0000)
  14 Mn     3.304335    1.742972    0.064976    ( 0.0000,  0.0000, -1.0000)
  15 Mn     2.672678   -1.307258    2.435195    ( 0.0000,  0.0000,  1.0000)
  16 P     -0.597175   -1.306854   -1.801474    ( 0.0000,  0.0000,  0.0000)
  17 P     -3.885565    1.742568    0.568028    ( 0.0000,  0.0000,  0.0000)
  18 P      1.344318    1.742568    2.140045    ( 0.0000,  0.0000,  0.0000)
  19 P      4.632708   -1.306854   -0.229456    ( 0.0000,  0.0000,  0.0000)
  20 O     -0.636957   -1.306861    1.403074    ( 0.0000,  0.0000,  0.0000)
  21 O     -3.845824    1.742575   -0.967462    ( 0.0000,  0.0000,  0.0000)
  22 O      1.384100    1.742576   -1.064503    ( 0.0000,  0.0000,  0.0000)
  23 O      4.592967   -1.306861    1.306033    ( 0.0000,  0.0000,  0.0000)
  24 Li    -4.856429   -2.832143   -2.200714    ( 0.0000,  0.0000,  0.0000)
  25 Li     0.373571   -2.832143    0.169286    ( 0.0000,  0.0000,  0.0000)
  26 Li    -4.856429    0.217857   -2.200714    ( 0.0000,  0.0000,  0.0000)
  27 Li     0.373571    0.217857    0.169286    ( 0.0000,  0.0000,  0.0000)

Unit cell:
           periodic     x           y           z      points  spacing
  1. axis:    yes   10.460000    0.000000    0.000000    60     0.1743
  2. axis:    yes    0.000000    6.100000    0.000000    35     0.1743
  3. axis:    yes    0.000000    0.000000    4.740000    27     0.1756

  Lengths:  10.460000   6.100000   4.740000
  Angles:   90.000000  90.000000  90.000000

Effective grid spacing dv^(1/3) = 0.1747

                     log10-error:           total        iterations:
           time      wfs    density  force  energy       poisson  magmom
iter:   1  17:17:26                       -220.696317             +0.0000
iter:   2  17:18:06  -0.64  -0.92         -235.516494             +0.0000
iter:   3  17:18:45  -0.40  -0.96         -226.167548             -0.0000
iter:   4  17:19:25  -1.41  -1.29         -225.885950             +0.0000
iter:   5  17:20:04  -1.19  -1.38         -227.592674             +0.0000
iter:   6  17:20:44  -1.39  -1.51         -225.827462             +0.0000
iter:   7  17:21:24  -2.57  -2.06         -225.899831             +0.0000
iter:   8  17:22:03  -2.23  -2.01         -225.633607             -0.0000
iter:   9  17:22:43  -2.69  -2.10         -225.545051             +0.0000
iter:  10  17:23:22  -3.56  -2.95         -225.544711             +0.0000
iter:  11  17:24:01  -3.95  -2.99         -225.545764             +0.0000
iter:  12  17:24:41  -4.31  -3.23         -225.545906             +0.0000
iter:  13  17:25:20  -5.45  -3.37         -225.545813             -0.0000
iter:  14  17:26:00  -5.28  -3.44         -225.545660             -0.0000
iter:  15  17:26:39  -5.50  -3.61         -225.545614             -0.0000
iter:  16  17:27:19  -6.38  -3.66         -225.545588             +0.0000
iter:  17  17:27:58  -6.03  -3.72         -225.545612             -0.0000
iter:  18  17:28:38  -6.55  -3.79         -225.545611             -0.0000
iter:  19  17:29:17  -6.18  -3.83         -225.545565             -0.0000
iter:  20  17:29:56  -6.78  -4.07         -225.545563             -0.0000
iter:  21  17:30:36  -6.19  -4.21         -225.545572             -0.0000
iter:  22  17:31:15  -6.67  -4.44         -225.545557             -0.0000
iter:  23  17:32:05  -7.41  -4.75         -225.545565             -0.0000
iter:  24  17:32:55  -8.44  -4.80    -3.58-225.545564             -0.0000
iter:  25  17:33:45  -7.65  -4.84    -3.02-225.545562             -0.0000
iter:  26  17:34:35  -8.25  -5.02    -3.21-225.545561             -0.0000
iter:  27  17:35:25  -9.12  -5.06    -3.54-225.545562             +0.0000
iter:  28  17:36:15  -9.10  -5.09    -3.81-225.545561             +0.0000
iter:  29  17:37:05  -7.78  -5.13    -3.12-225.545561             +0.0000
iter:  30  17:37:55  -9.05  -5.45    -3.64-225.545561             +0.0000
iter:  31  17:38:45  -9.65  -5.63    -3.64-225.545561             +0.0000
iter:  32  17:39:36 -10.06  -5.85    -3.88-225.545561             -0.0000
iter:  33  17:40:25 -11.35  -6.01    -4.52-225.545561             -0.0000
iter:  34  17:41:15 -10.01  -6.05    -3.87-225.545561             -0.0000
iter:  35  17:42:05 -11.26  -6.36    -4.49-225.545561             -0.0000
iter:  36  17:42:55 -11.92  -6.38    -4.92-225.545561             -0.0000
iter:  37  17:43:45 -10.38  -6.42    -4.20-225.545561             -0.0000
iter:  38  17:44:35 -11.80  -6.70    -4.91-225.545561             -0.0000
iter:  39  17:45:25 -12.25  -6.79    -4.80-225.545561             -0.0000
iter:  40  17:46:16 -12.05  -6.94    -4.76-225.545561             -0.0000
iter:  41  17:47:06 -12.40  -6.99    -5.22-225.545561             -0.0000
iter:  42  17:47:56 -12.74  -7.04    -5.24-225.545561             -0.0000
iter:  43  17:48:46 -12.98  -7.08    -5.06-225.545561             -0.0000
iter:  44  17:49:36 -13.24  -7.36    -5.48-225.545561             -0.0000
iter:  45  17:50:26 -13.02  -7.48    -5.41-225.545561             -0.0000
iter:  46  17:51:16 -13.73  -7.61    -6.13-225.545561             -0.0000

Converged after 46 iterations.

Dipole moment: (13.168555, 1.717229, -5.517461) |e|*Ang

Total magnetic moment: (0.000000, 0.000000, -0.000000)
Local magnetic moments:
   0 O  ( 0.000000,  0.000000,  0.001067)
   1 O  ( 0.000000,  0.000000, -0.001097)
   2 O  ( 0.000000,  0.000000, -0.001057)
   3 O  ( 0.000000,  0.000000,  0.000991)
   4 O  ( 0.000000,  0.000000, -0.001065)
   5 O  ( 0.000000,  0.000000,  0.000999)
   6 O  ( 0.000000,  0.000000,  0.001059)
   7 O  ( 0.000000,  0.000000, -0.001089)
   8 O  ( 0.000000,  0.000000,  0.019551)
   9 O  ( 0.000000,  0.000000, -0.019817)
  10 O  ( 0.000000,  0.000000, -0.019743)
  11 O  ( 0.000000,  0.000000,  0.019728)
  12 Mn ( 0.000000,  0.000000,  4.602280)
  13 Mn ( 0.000000,  0.000000, -4.601607)
  14 Mn ( 0.000000,  0.000000, -4.601519)
  15 Mn ( 0.000000,  0.000000,  4.601580)
  16 P  ( 0.000000,  0.000000,  0.001296)
  17 P  ( 0.000000,  0.000000, -0.001317)
  18 P  ( 0.000000,  0.000000, -0.001292)
  19 P  ( 0.000000,  0.000000,  0.001169)
  20 O  ( 0.000000,  0.000000,  0.018192)
  21 O  ( 0.000000,  0.000000, -0.018066)
  22 O  ( 0.000000,  0.000000, -0.018078)
  23 O  ( 0.000000,  0.000000,  0.018094)
  24 Li ( 0.000000,  0.000000, -0.000018)
  25 Li ( 0.000000,  0.000000, -0.000000)
  26 Li ( 0.000000,  0.000000, -0.000018)
  27 Li ( 0.000000,  0.000000, -0.000000)

Energy contributions relative to reference atoms: (reference = -196157.275402)

Kinetic:       +243.586186
Potential:     -215.939358
External:        +0.000000
XC:            -255.106464
Entropy (-ST):   -0.000000
Local:           +1.914075
--------------------------
Free energy:   -225.545561
Extrapolated:  -225.545561

Spin contamination: 9.747583 electrons
Showing only first 2 kpts
                      Up                     Down
 Kpt  Band  Eigenvalues  Occupancy  Eigenvalues  Occupancy
  0    88      3.90527    0.00694      3.92292    0.00694
  0    89      3.96716    0.00694      3.97448    0.00694
  0    90      8.66957    0.00000      8.65401    0.00000
  0    91      8.68602    0.00000      8.69273    0.00000

  1    88      3.90149    0.00694      3.91953    0.00694
  1    89      3.96980    0.00694      3.97817    0.00694
  1    90      8.51361    0.00000      8.49890    0.00000
  1    91      8.53125    0.00000      8.53534    0.00000


Fermi level: 5.31821

Gap: 3.777 eV
Transition (v -> c):
  (s=1, k=74, n=89, [0.08, -0.42, 0.12]) -> (s=0, k=58, n=90, [-0.08, -0.08, 0.12])
Writing to born-0.01-8x-.gpw (mode='all')

Timing:                              incl.     excl.
-----------------------------------------------------------
Hamiltonian:                         0.417     0.002   0.0% |
 Atomic:                             0.058     0.058   0.0% |
  XC Correction:                     0.000     0.000   0.0% |
 Calculate atomic Hamiltonians:      0.181     0.181   0.0% |
 Communicate:                        0.002     0.002   0.0% |
 Initialize Hamiltonian:             0.000     0.000   0.0% |
 Poisson:                            0.002     0.002   0.0% |
 XC 3D grid:                         0.172     0.172   0.0% |
LCAO initialization:               135.095     0.676   0.0% |
 LCAO eigensolver:                  33.932     0.002   0.0% |
  Calculate projections:             0.056     0.056   0.0% |
  DenseAtomicCorrection:             0.082     0.082   0.0% |
  Distribute overlap matrix:         0.183     0.183   0.0% |
  Orbital Layouts:                   0.361     0.361   0.0% |
  Potential matrix:                 33.157    33.157   0.6% |
  Sum over cells:                    0.090     0.090   0.0% |
 LCAO to grid:                      98.217    98.217   1.8% ||
 Set positions (LCAO WFS):           2.269     0.344   0.0% |
  Basic WFS set positions:           0.001     0.001   0.0% |
  Basis functions set positions:     0.000     0.000   0.0% |
  P tci:                             1.056     1.056   0.0% |
  ST tci:                            0.661     0.661   0.0% |
  mktci:                             0.206     0.206   0.0% |
PWDescriptor:                        0.025     0.025   0.0% |
SCF-cycle:                        2074.597     6.133   0.1% |
 Davidson:                        1721.548   560.224  10.2% |---|
  Apply H:                         121.725   117.891   2.2% ||
   HMM T:                            3.834     3.834   0.1% |
  Subspace diag:                   254.568     0.149   0.0% |
   calc_h_matrix:                  165.400    45.522   0.8% |
    Apply H:                       119.879   116.155   2.1% ||
     HMM T:                          3.724     3.724   0.1% |
   diagonalize:                      5.635     5.635   0.1% |
   rotate_psi:                      83.385    83.385   1.5% ||
  calc. matrices:                  538.718   303.838   5.6% |-|
   Apply H:                        234.880   227.852   4.2% |-|
    HMM T:                           7.029     7.029   0.1% |
  diagonalize:                      76.751    76.751   1.4% ||
  rotate_psi:                      169.561   169.561   3.1% ||
 Density:                           68.559     0.001   0.0% |
  Atomic density matrices:           1.185     1.185   0.0% |
  Mix:                              11.118    11.118   0.2% |
  Multipole moments:                 0.026     0.026   0.0% |
  Pseudo density:                   56.228    56.227   1.0% |
   Symmetrize density:               0.001     0.001   0.0% |
 Forces:                           254.658   254.658   4.7% |-|
 Hamiltonian:                       19.278     0.114   0.0% |
  Atomic:                            2.640     2.640   0.0% |
   XC Correction:                    0.000     0.000   0.0% |
  Calculate atomic Hamiltonians:     8.362     8.362   0.2% |
  Communicate:                       0.066     0.066   0.0% |
  Poisson:                           0.076     0.076   0.0% |
  XC 3D grid:                        8.020     8.020   0.1% |
 Orthonormalize:                     4.420     0.004   0.0% |
  calc_s_matrix:                     0.524     0.524   0.0% |
  inverse-cholesky:                  0.054     0.054   0.0% |
  projections:                       2.903     2.903   0.1% |
  rotate_psi_s:                      0.934     0.934   0.0% |
Set symmetry:                        0.000     0.000   0.0% |
Other:                            3259.125  3259.125  59.6% |-----------------------|
-----------------------------------------------------------
Total:                                      5469.258 100.0%

Memory usage: 12.91 GiB
Date: Mon Mar 22 18:45:33 2021
