
  ___ ___ ___ _ _ _  
 |   |   |_  | | | | 
 | | | | | . | | | | 
 |__ |  _|___|_____|  21.1.1b1
 |___|_|             

User:   madkru@g031.nifl.fysik.dtu.dk
Date:   Mon Mar 29 21:20:09 2021
Arch:   x86_64
Pid:    42907
Python: 3.8.6
gpaw:   /home/niflheim/madkru/venv_madkru/gpaw/gpaw (e6f0d78a31)
_gpaw:  /home/niflheim/madkru/venv_madkru/gpaw/build/lib.linux-x86_64-sandybridge-3.8/
        _gpaw.cpython-38-x86_64-linux-gnu.so (e6f0d78a31)
ase:    /home/niflheim/madkru/venv_madkru/ase/ase (version 3.22.0b1-4d5a73cb29)
numpy:  /home/modules/software/SciPy-bundle/2020.11-foss-2020b/lib/python3.8/site-packages/numpy (version 1.19.4)
scipy:  /home/modules/software/SciPy-bundle/2020.11-foss-2020b/lib/python3.8/site-packages/scipy (version 1.5.4)
libxc:  4.3.4
units:  Angstrom and eV
cores: 64
OpenMP: False
OMP_NUM_THREADS: 1

Input parameters:
  convergence: {bands: occupied,
                density: 0.0001,
                eigenstates: 4e-08,
                energy: 0.0005,
                forces: 1e-06}
  kpts: [6 6 4]
  mode: {ecut: 600.0,
         gammacentered: False,
         name: pw}
  occupations: {fixmagmom: False,
                name: fermi-dirac,
                width: 0.001}
  setups: {Mn: :d,3.0}
  symmetry: {point_group: False,
             time_reversal: False}

System changes: positions, numbers, cell, pbc, initial_charges, initial_magmoms 

Initialize ...

O-setup:
  name: Oxygen
  id: 9b9d51c344dea68c822856295a461509
  Z: 8.0
  valence: 6
  core: 2
  charge: 0.0
  file: /home/modules/software/GPAW-setups/0.9.20000/O.LDA.gz
  compensation charges: gauss, rc=0.21, lmax=2
  cutoffs: 1.17(filt), 0.83(core),
  valence states:
                energy  radius
    2s(2.00)   -23.752   0.688
    2p(4.00)    -9.195   0.598
    *s           3.459   0.688
    *p          18.016   0.598
    *d           0.000   0.619

  Using partial waves for O as LCAO basis

Mn-setup:
  name: Manganese
  id: 0d715a8018be061a6e9ea6f2d364ac92
  Z: 25.0
  valence: 15
  core: 10
  charge: 0.0
  Hubbard U: 3.000000 eV (l=2, scale=True)
  file: /home/modules/software/GPAW-setups/0.9.20000/Mn.LDA.gz
  compensation charges: gauss, rc=0.38, lmax=2
  cutoffs: 2.14(filt), 0.86(core),
  valence states:
                energy  radius
    3s(2.00)   -85.387   1.275
    4s(2.00)    -5.282   1.275
    3p(6.00)   -54.493   1.281
    4p(0.00)    -1.471   1.281
    3d(5.00)    -7.009   1.138
    *d          20.203   1.138

  Using partial waves for Mn as LCAO basis

P-setup:
  name: Phosphorus
  id: a5561c299094968922a179ab894d2e2d
  Z: 15.0
  valence: 5
  core: 10
  charge: 0.0
  file: /home/modules/software/GPAW-setups/0.9.20000/P.LDA.gz
  compensation charges: gauss, rc=0.30, lmax=2
  cutoffs: 1.69(filt), 1.81(core),
  valence states:
                energy  radius
    3s(2.00)   -14.015   0.953
    3p(3.00)    -5.596   0.953
    *s          13.197   0.953
    *p          21.615   0.953
    *d           0.000   0.953

  Using partial waves for P as LCAO basis

Li-setup:
  name: Lithium
  id: b73562207f97a71b6967473b66fe8b65
  Z: 3.0
  valence: 1
  core: 2
  charge: 0.0
  file: /home/modules/software/GPAW-setups/0.9.20000/Li.LDA.gz
  compensation charges: gauss, rc=0.33, lmax=2
  cutoffs: 1.91(filt), 2.55(core),
  valence states:
                energy  radius
    2s(1.00)    -2.874   1.058
    2p(0.00)    -1.126   1.058
    *s          24.338   1.058

  Using partial waves for Li as LCAO basis

Reference energy: -196157.275402

Spin-polarized calculation.
Magnetic moment: 0.000000

Convergence criteria:
  Maximum total energy change: 0.0005 eV / electron
  Maximum integral of absolute density change: 0.0001 electrons
  Maximum integral of absolute eigenstate change: 4e-08 eV^2
  Maximum change in atomic force: 1e-06 eV / Ang
  Maximum number of iterations: 333

Symmetries present (total): 1

  ( 1  0  0)
  ( 0  1  0)
  ( 0  0  1)

144 k-points: 6 x 6 x 4 Monkhorst-Pack grid
144 k-points in the irreducible part of the Brillouin zone
       k-points in crystal coordinates                weights
   0:    -0.41666667   -0.41666667   -0.37500000          1/144
   1:    -0.41666667   -0.41666667   -0.12500000          1/144
   2:    -0.41666667   -0.41666667    0.12500000          1/144
   3:    -0.41666667   -0.41666667    0.37500000          1/144
   4:    -0.41666667   -0.25000000   -0.37500000          1/144
   5:    -0.41666667   -0.25000000   -0.12500000          1/144
   6:    -0.41666667   -0.25000000    0.12500000          1/144
   7:    -0.41666667   -0.25000000    0.37500000          1/144
   8:    -0.41666667   -0.08333333   -0.37500000          1/144
   9:    -0.41666667   -0.08333333   -0.12500000          1/144
          ...
 143:     0.41666667    0.41666667    0.37500000          1/144

Wave functions: Plane wave expansion
  Cutoff energy: 600.000 eV
  Number of coefficients (min, max): 10068, 10125
  Pulay-stress correction: 0.000000 eV/Ang^3 (de/decut=0.000000)
  Using FFTW library
  ScaLapack parameters: grid=1x1, blocksize=None
  Wavefunction extrapolation:
    Improved wavefunction reuse through dual PAW basis 

  Fermi-Dirac: width=0.0010 eV

Eigensolver
   Davidson(niter=2) 

Densities:
  Coarse grid: 60*35*27 grid
  Fine grid: 120*70*54 grid
  Total Charge: 0.000000 

Density mixing:
  Method: difference
  Backend: pulay
  Linear mixing parameter: 0.05
  Mixing with 5 old densities
  Damping of long wave oscillations: 50 

Hamiltonian:
  XC and Coulomb potentials evaluated on a 120*70*54 grid
  Using the LDA Exchange-Correlation functional
 

Memory estimate:
  Process memory now: 12182.41 MiB
  Calculator: 354.82 MiB
    Density: 10.06 MiB
      Arrays: 3.79 MiB
      Localized functions: 4.71 MiB
      Mixer: 1.56 MiB
    Hamiltonian: 2.95 MiB
      Arrays: 2.82 MiB
      XC: 0.00 MiB
      Poisson: 0.00 MiB
      vbar: 0.14 MiB
    Wavefunctions: 341.80 MiB
      Arrays psit_nG: 311.46 MiB
      Eigensolver: 19.99 MiB
      Projections: 2.71 MiB
      Projectors: 4.87 MiB
      PW-descriptor: 2.77 MiB

Total number of cores used: 64
Parallelization over k-points: 16
Domain decomposition: 2 x 2 x 1

Number of atoms: 28
Number of atomic orbitals: 148
Number of bands in calculation: 112
Number of valence electrons: 180
Bands to converge: occupied

... initialized

Initializing position-dependent things.

Density initialized from atomic densities
Creating initial wave functions:
  112 bands from LCAO basis set

     .-------------------------.  
    /|         OP              |  
   / |O            O        O  |  
  /  |       O            O  P |  
 *   |O    Mn      O           |  
 |   |          OLi          O |  
 |   P--O--------------Mn------.  
 |  /          Li    O  Mn  O /   
 | /LiO           PO         /    
 |/       Mn                /     
 *Li-----------------------*      

Positions:
   0 O     -1.330281   -2.539252   -1.168500    ( 0.0000,  0.0000,  0.0000)
   1 O     -3.152392    2.974909    1.200956    ( 0.0000,  0.0000,  0.0000)
   2 O      2.077234    0.510133    1.506966    ( 0.0000,  0.0000,  0.0000)
   3 O      3.899724   -0.074476   -0.862491    ( 0.0000,  0.0000,  0.0000)
   4 O      2.077424    2.974966    1.507072    ( 0.0000,  0.0000,  0.0000)
   5 O      3.899535   -2.539195   -0.862384    ( 0.0000,  0.0000,  0.0000)
   6 O     -1.330092   -0.074418   -1.168395    ( 0.0000,  0.0000,  0.0000)
   7 O     -3.152581    0.510191    1.201063    ( 0.0000,  0.0000,  0.0000)
   8 O     -4.389675   -1.306969   -0.813152    ( 0.0000,  0.0000,  0.0000)
   9 O     -0.093301    1.742683    1.556268    ( 0.0000,  0.0000,  0.0000)
  10 O      5.136817    1.742683    1.151723    ( 0.0000,  0.0000,  0.0000)
  11 O      0.840444   -1.306969   -1.217697    ( 0.0000,  0.0000,  0.0000)
  12 Mn    -2.557192   -1.307258    0.273595    ( 0.0000,  0.0000,  1.0000)
  13 Mn    -1.925535    1.742972   -2.096623    ( 0.0000,  0.0000, -1.0000)
  14 Mn     3.304335    1.742972    0.064976    ( 0.0000,  0.0000, -1.0000)
  15 Mn     2.672678   -1.307258    2.435195    ( 0.0000,  0.0000,  1.0000)
  16 P     -0.597175   -1.306854   -1.801474    ( 0.0000,  0.0000,  0.0000)
  17 P     -3.885565    1.742568    0.568028    ( 0.0000,  0.0000,  0.0000)
  18 P      1.344318    1.742568    2.140045    ( 0.0000,  0.0000,  0.0000)
  19 P      4.632708   -1.306854   -0.229456    ( 0.0000,  0.0000,  0.0000)
  20 O     -0.636957   -1.306861    1.403074    ( 0.0000,  0.0000,  0.0000)
  21 O     -3.845824    1.742575   -0.967462    ( 0.0000,  0.0000,  0.0000)
  22 O      1.384100    1.742576   -1.064503    ( 0.0000,  0.0000,  0.0000)
  23 O      4.592967   -1.306861    1.306033    ( 0.0000,  0.0000,  0.0000)
  24 Li    -4.856429   -2.832143   -2.200714    ( 0.0000,  0.0000,  0.0000)
  25 Li     0.373571   -2.832143    0.169286    ( 0.0000,  0.0000,  0.0000)
  26 Li    -4.856429    0.217857   -2.200714    ( 0.0000,  0.0000,  0.0000)
  27 Li     0.373571    0.207857    0.169286    ( 0.0000,  0.0000,  0.0000)

Unit cell:
           periodic     x           y           z      points  spacing
  1. axis:    yes   10.460000    0.000000    0.000000    60     0.1743
  2. axis:    yes    0.000000    6.100000    0.000000    35     0.1743
  3. axis:    yes    0.000000    0.000000    4.740000    27     0.1756

  Lengths:  10.460000   6.100000   4.740000
  Angles:   90.000000  90.000000  90.000000

Effective grid spacing dv^(1/3) = 0.1747

                     log10-error:           total        iterations:
           time      wfs    density  force  energy       poisson  magmom
iter:   1  21:21:44                       -220.688538             +0.0000
iter:   2  21:22:06  -0.64  -0.92         -235.503994             +0.0000
iter:   3  21:22:27  -0.40  -0.96         -226.168971             -0.0000
iter:   4  21:22:48  -1.41  -1.29         -225.888387             +0.0000
iter:   5  21:23:09  -1.19  -1.38         -227.589316             +0.0000
iter:   6  21:23:31  -1.39  -1.51         -225.829242             +0.0000
iter:   7  21:23:52  -2.57  -2.06         -225.899276             +0.0000
iter:   8  21:24:13  -2.23  -2.01         -225.642024             -0.0000
iter:   9  21:24:34  -2.68  -2.09         -225.546871             +0.0000
iter:  10  21:24:56  -3.55  -2.95         -225.546107             +0.0000
iter:  11  21:25:17  -3.95  -3.00         -225.547658             +0.0000
iter:  12  21:25:38  -4.29  -3.22         -225.547836             +0.0000
iter:  13  21:25:59  -5.37  -3.36         -225.547726             -0.0000
iter:  14  21:26:20  -5.18  -3.44         -225.547578             -0.0000
iter:  15  21:26:42  -5.36  -3.60         -225.547493             -0.0000
iter:  16  21:27:03  -6.31  -3.68         -225.547478             +0.0000
iter:  17  21:27:24  -6.27  -3.75         -225.547497             -0.0000
iter:  18  21:27:45  -6.76  -3.81         -225.547498             -0.0000
iter:  19  21:28:07  -5.82  -3.83         -225.547462             -0.0000
iter:  20  21:28:28  -7.01  -4.42         -225.547458             -0.0000
iter:  21  21:28:55  -7.81  -4.70         -225.547456             -0.0000
iter:  22  21:29:16  -7.22  -4.80         -225.547455             +0.0000
iter:  23  21:29:43  -7.89  -4.77    -3.04-225.547454             +0.0000
iter:  24  21:30:09  -8.51  -4.93    -3.06-225.547454             +0.0000
iter:  25  21:30:36  -7.44  -4.96    -2.57-225.547455             +0.0000
iter:  26  21:31:03  -8.08  -4.95    -2.83-225.547454             +0.0000
iter:  27  21:31:29  -7.85  -5.06    -3.20-225.547454             +0.0000
iter:  28  21:31:56  -8.01  -5.04    -2.86-225.547454             +0.0000
iter:  29  21:32:23  -8.16  -5.23    -2.89-225.547454             +0.0000
iter:  30  21:32:50  -9.57  -5.55    -3.70-225.547454             +0.0000
iter:  31  21:33:16  -9.20  -5.62    -3.73-225.547454             +0.0000
iter:  32  21:33:43  -9.70  -5.74    -3.78-225.547454             +0.0000
iter:  33  21:34:10  -8.90  -5.80    -3.30-225.547454             +0.0000
iter:  34  21:34:37  -9.77  -5.75    -3.75-225.547454             +0.0000
iter:  35  21:35:03 -10.07  -5.98    -3.77-225.547454             +0.0000
iter:  36  21:35:30 -10.29  -6.08    -4.31-225.547454             +0.0000
iter:  37  21:35:57 -10.61  -6.20    -4.16-225.547454             +0.0000
iter:  38  21:36:23 -10.61  -6.33    -4.22-225.547454             +0.0000
iter:  39  21:36:50 -11.17  -6.59    -4.94-225.547454             +0.0000
iter:  40  21:37:17 -11.10  -6.67    -4.66-225.547454             +0.0000
iter:  41  21:37:44 -11.20  -7.06    -4.68-225.547454             +0.0000
iter:  42  21:38:10 -12.34  -7.10    -5.43-225.547454             +0.0000
iter:  43  21:38:37 -12.55  -7.13    -5.29-225.547454             +0.0000
iter:  44  21:39:04 -13.06  -7.32    -5.59-225.547454             +0.0000
iter:  45  21:39:30 -12.76  -7.39    -5.38-225.547454             +0.0000
iter:  46  21:39:57 -13.52  -7.52    -5.71-225.547454             +0.0000
iter:  47  21:40:24 -14.02  -7.57    -5.36-225.547454             +0.0000
iter:  48  21:40:51 -13.96  -7.76    -5.68-225.547454             +0.0000
iter:  49  21:41:17 -14.94  -7.98    -6.54-225.547454             +0.0000

Converged after 49 iterations.

Dipole moment: (13.159817, 1.767451, -5.512822) |e|*Ang

Total magnetic moment: (0.000000, 0.000000, 0.000000)
Local magnetic moments:
   0 O  ( 0.000000,  0.000000,  0.001082)
   1 O  ( 0.000000,  0.000000, -0.001044)
   2 O  ( 0.000000,  0.000000, -0.001025)
   3 O  ( 0.000000,  0.000000,  0.001055)
   4 O  ( 0.000000,  0.000000, -0.001050)
   5 O  ( 0.000000,  0.000000,  0.001061)
   6 O  ( 0.000000,  0.000000,  0.001091)
   7 O  ( 0.000000,  0.000000, -0.001034)
   8 O  ( 0.000000,  0.000000,  0.019792)
   9 O  ( 0.000000,  0.000000, -0.019808)
  10 O  ( 0.000000,  0.000000, -0.019765)
  11 O  ( 0.000000,  0.000000,  0.019744)
  12 Mn ( 0.000000,  0.000000,  4.601516)
  13 Mn ( 0.000000,  0.000000, -4.601627)
  14 Mn ( 0.000000,  0.000000, -4.601533)
  15 Mn ( 0.000000,  0.000000,  4.601556)
  16 P  ( 0.000000,  0.000000,  0.001298)
  17 P  ( 0.000000,  0.000000, -0.001296)
  18 P  ( 0.000000,  0.000000, -0.001301)
  19 P  ( 0.000000,  0.000000,  0.001291)
  20 O  ( 0.000000,  0.000000,  0.018061)
  21 O  ( 0.000000,  0.000000, -0.018059)
  22 O  ( 0.000000,  0.000000, -0.018083)
  23 O  ( 0.000000,  0.000000,  0.018076)
  24 Li ( 0.000000,  0.000000,  0.000000)
  25 Li ( 0.000000,  0.000000, -0.000001)
  26 Li ( 0.000000,  0.000000,  0.000000)
  27 Li ( 0.000000,  0.000000,  0.000004)

Energy contributions relative to reference atoms: (reference = -196157.275402)

Kinetic:       +242.942926
Potential:     -215.439177
External:        +0.000000
XC:            -254.966491
Entropy (-ST):   -0.000000
Local:           +1.915287
--------------------------
Free energy:   -225.547454
Extrapolated:  -225.547454

Spin contamination: 9.747498 electrons
Showing only first 2 kpts
                      Up                     Down
 Kpt  Band  Eigenvalues  Occupancy  Eigenvalues  Occupancy
  0    88      3.92095    1.00000      3.92481    1.00000
  0    89      3.96962    1.00000      3.97361    1.00000
  0    90      8.66948    0.00000      8.66524    0.00000
  0    91      8.68824    0.00000      8.68539    0.00000

  1    88      3.91736    1.00000      3.92137    1.00000
  1    89      3.97345    1.00000      3.97741    1.00000
  1    90      8.51495    0.00000      8.51121    0.00000
  1    91      8.53111    0.00000      8.52813    0.00000


Fermi level: 5.31841

Gap: 3.776 eV
Transition (v -> c):
  (s=1, k=50, n=89, [-0.08, -0.42, 0.12]) -> (s=1, k=82, n=90, [0.08, -0.08, 0.12])
Writing to born-0.01-27y-.gpw (mode='all')

Timing:                              incl.     excl.
-----------------------------------------------------------
Hamiltonian:                         0.268     0.003   0.0% |
 Atomic:                             0.085     0.085   0.0% |
  XC Correction:                     0.000     0.000   0.0% |
 Calculate atomic Hamiltonians:      0.088     0.088   0.0% |
 Communicate:                        0.000     0.000   0.0% |
 Initialize Hamiltonian:             0.000     0.000   0.0% |
 Poisson:                            0.001     0.001   0.0% |
 XC 3D grid:                         0.090     0.090   0.0% |
LCAO initialization:                70.649     0.675   0.0% |
 LCAO eigensolver:                  18.030     0.003   0.0% |
  Calculate projections:             0.029     0.029   0.0% |
  DenseAtomicCorrection:             0.043     0.043   0.0% |
  Distribute overlap matrix:         0.005     0.005   0.0% |
  Orbital Layouts:                   0.278     0.278   0.0% |
  Potential matrix:                 17.588    17.588   0.6% |
  Sum over cells:                    0.085     0.085   0.0% |
 LCAO to grid:                      50.665    50.665   1.6% ||
 Set positions (LCAO WFS):           1.279     0.179   0.0% |
  Basic WFS set positions:           0.002     0.002   0.0% |
  Basis functions set positions:     0.000     0.000   0.0% |
  P tci:                             0.515     0.515   0.0% |
  ST tci:                            0.368     0.368   0.0% |
  mktci:                             0.214     0.214   0.0% |
PWDescriptor:                        0.025     0.025   0.0% |
SCF-cycle:                        1196.606     7.049   0.2% |
 Davidson:                         982.445   314.099  10.2% |---|
  Apply H:                          65.700    63.751   2.1% ||
   HMM T:                            1.949     1.949   0.1% |
  Subspace diag:                   141.329     0.140   0.0% |
   calc_h_matrix:                   89.867    24.668   0.8% |
    Apply H:                        65.199    63.375   2.1% ||
     HMM T:                          1.824     1.824   0.1% |
   diagonalize:                      5.049     5.049   0.2% |
   rotate_psi:                      46.273    46.273   1.5% ||
  calc. matrices:                  293.287   163.953   5.3% |-|
   Apply H:                        129.334   125.630   4.1% |-|
    HMM T:                           3.704     3.704   0.1% |
  diagonalize:                      76.171    76.171   2.5% ||
  rotate_psi:                       91.860    91.860   3.0% ||
 Density:                           39.151     0.001   0.0% |
  Atomic density matrices:           0.640     0.640   0.0% |
  Mix:                               6.704     6.704   0.2% |
  Multipole moments:                 0.017     0.017   0.0% |
  Pseudo density:                   31.788    31.787   1.0% |
   Symmetrize density:               0.001     0.001   0.0% |
 Forces:                           153.600   153.600   5.0% |-|
 Hamiltonian:                       12.055     0.100   0.0% |
  Atomic:                            2.909     2.909   0.1% |
   XC Correction:                    0.000     0.000   0.0% |
  Calculate atomic Hamiltonians:     4.587     4.587   0.1% |
  Communicate:                       0.010     0.010   0.0% |
  Poisson:                           0.044     0.044   0.0% |
  XC 3D grid:                        4.405     4.405   0.1% |
 Orthonormalize:                     2.305     0.003   0.0% |
  calc_s_matrix:                     0.269     0.269   0.0% |
  inverse-cholesky:                  0.041     0.041   0.0% |
  projections:                       1.499     1.499   0.0% |
  rotate_psi_s:                      0.492     0.492   0.0% |
Set symmetry:                        0.000     0.000   0.0% |
Other:                            1803.845  1803.845  58.7% |----------------------|
-----------------------------------------------------------
Total:                                      3071.393 100.0%

Memory usage: 11.93 GiB
Date: Mon Mar 29 22:11:20 2021
