
  ___ ___ ___ _ _ _  
 |   |   |_  | | | | 
 | | | | | . | | | | 
 |__ |  _|___|_____|  20.10.1b1
 |___|_|             

User:   madkru@i025.nifl.fysik.dtu.dk
Date:   Thu Mar 18 08:36:26 2021
Arch:   x86_64
Pid:    9773
Python: 3.7.4
gpaw:   /home/niflheim/madkru/venv_folder/gpaw/gpaw (d0d1ca1c71)
_gpaw:  /home/niflheim/madkru/venv_folder/gpaw/build/lib.linux-x86_64-ivybridge-3.7/
        _gpaw.cpython-37m-x86_64-linux-gnu.so (4fd39e8b1e)
ase:    /home/niflheim/madkru/venv_folder/ase/ase (version 3.21.0b1-7e6c206a91)
numpy:  /home/niflheim/madkru/venv_folder/lib/python3.7/site-packages/numpy (version 1.19.4)
scipy:  /home/niflheim/madkru/venv_folder/lib/python3.7/site-packages/scipy (version 1.5.4)
libxc:  4.3.4
units:  Angstrom and eV
cores: 32
OMP_NUM_THREADS: 1

Input parameters:
  convergence: {forces: 1e-06}
  kpts: [6 6 4]
  mode: {ecut: 600.0,
         gammacentered: False,
         name: pw}
  occupations: {fixmagmom: False,
                name: fermi-dirac,
                width: 0.001}
  setups: {Mn: :d,3.0}
  symmetry: {point_group: False}

System changes: positions, numbers, cell, pbc, initial_charges, initial_magmoms 

Initialize ...

O-setup:
  name: Oxygen
  id: 9b9d51c344dea68c822856295a461509
  Z: 8.0
  valence: 6
  core: 2
  charge: 0.0
  file: /home/modules/software/GPAW-setups/0.9.20000/O.LDA.gz
  compensation charges: gauss, rc=0.21, lmax=2
  cutoffs: 1.17(filt), 0.83(core),
  valence states:
                energy  radius
    2s(2.00)   -23.752   0.688
    2p(4.00)    -9.195   0.598
    *s           3.459   0.688
    *p          18.016   0.598
    *d           0.000   0.619

  Using partial waves for O as LCAO basis

Mn-setup:
  name: Manganese
  id: 0d715a8018be061a6e9ea6f2d364ac92
  Z: 25.0
  valence: 15
  core: 10
  charge: 0.0
  Hubbard U: 3.000000 eV (l=2, scale=True)
  file: /home/modules/software/GPAW-setups/0.9.20000/Mn.LDA.gz
  compensation charges: gauss, rc=0.38, lmax=2
  cutoffs: 2.14(filt), 0.86(core),
  valence states:
                energy  radius
    3s(2.00)   -85.387   1.275
    4s(2.00)    -5.282   1.275
    3p(6.00)   -54.493   1.281
    4p(0.00)    -1.471   1.281
    3d(5.00)    -7.009   1.138
    *d          20.203   1.138

  Using partial waves for Mn as LCAO basis

P-setup:
  name: Phosphorus
  id: a5561c299094968922a179ab894d2e2d
  Z: 15.0
  valence: 5
  core: 10
  charge: 0.0
  file: /home/modules/software/GPAW-setups/0.9.20000/P.LDA.gz
  compensation charges: gauss, rc=0.30, lmax=2
  cutoffs: 1.69(filt), 1.81(core),
  valence states:
                energy  radius
    3s(2.00)   -14.015   0.953
    3p(3.00)    -5.596   0.953
    *s          13.197   0.953
    *p          21.615   0.953
    *d           0.000   0.953

  Using partial waves for P as LCAO basis

Li-setup:
  name: Lithium
  id: b73562207f97a71b6967473b66fe8b65
  Z: 3.0
  valence: 1
  core: 2
  charge: 0.0
  file: /home/modules/software/GPAW-setups/0.9.20000/Li.LDA.gz
  compensation charges: gauss, rc=0.33, lmax=2
  cutoffs: 1.91(filt), 2.55(core),
  valence states:
                energy  radius
    2s(1.00)    -2.874   1.058
    2p(0.00)    -1.126   1.058
    *s          24.338   1.058

  Using partial waves for Li as LCAO basis

Reference energy: -196157.275402

Spin-polarized calculation.
Magnetic moment: 0.000000

Convergence criteria:
  Maximum total energy change: 0.0005 eV / electron
  Maximum integral of absolute density change: 0.0001 electrons
  Maximum integral of absolute eigenstate change: 4e-08 eV^2
  Maximum change in atomic force: 1e-06 eV / Ang
  Maximum number of iterations: 333

Symmetries present (total): 1

  ( 1  0  0)
  ( 0  1  0)
  ( 0  0  1)

144 k-points: 6 x 6 x 4 Monkhorst-Pack grid
72 k-points in the irreducible part of the Brillouin zone
       k-points in crystal coordinates                weights
   0:     0.08333333   -0.41666667   -0.37500000          2/144
   1:     0.08333333   -0.41666667   -0.12500000          2/144
   2:     0.08333333   -0.41666667    0.12500000          2/144
   3:     0.08333333   -0.41666667    0.37500000          2/144
   4:     0.08333333   -0.25000000   -0.37500000          2/144
   5:     0.08333333   -0.25000000   -0.12500000          2/144
   6:     0.08333333   -0.25000000    0.12500000          2/144
   7:     0.08333333   -0.25000000    0.37500000          2/144
   8:     0.08333333   -0.08333333   -0.37500000          2/144
   9:     0.08333333   -0.08333333   -0.12500000          2/144
          ...
  71:     0.41666667    0.41666667    0.37500000          2/144

Wave functions: Plane wave expansion
  Cutoff energy: 600.000 eV
  Number of coefficients (min, max): 10068, 10125
  Pulay-stress correction: 0.000000 eV/Ang^3 (de/decut=0.000000)
  Using FFTW library
  ScaLapack parameters: grid=1x1, blocksize=None
  Wavefunction extrapolation:
    Improved wavefunction reuse through dual PAW basis 

  Fermi-Dirac: width=0.0010 eV

Eigensolver
   Davidson(niter=2, smin=None, normalize=True) 

Densities:
  Coarse grid: 60*35*27 grid
  Fine grid: 120*70*54 grid
  Total Charge: 0.000000 

Density mixing:
  Method: difference
  Backend: pulay
  Linear mixing parameter: 0.05
  Mixing with 5 old densities
  Damping of long wave oscillations: 50 

Hamiltonian:
  XC and Coulomb potentials evaluated on a 120*70*54 grid
  Using the LDA Exchange-Correlation functional
 

Memory estimate:
  Process memory now: 103.72 MiB
  Calculator: 150.23 MiB
    Density: 40.04 MiB
      Arrays: 15.14 MiB
      Localized functions: 18.84 MiB
      Mixer: 6.06 MiB
    Hamiltonian: 11.79 MiB
      Arrays: 11.25 MiB
      XC: 0.00 MiB
      Poisson: 0.00 MiB
      vbar: 0.54 MiB
    Wavefunctions: 98.40 MiB
      Arrays psit_nG: 69.21 MiB
      Eigensolver: 19.99 MiB
      Projections: 2.41 MiB
      Projectors: 4.31 MiB
      PW-descriptor: 2.47 MiB

Total number of cores used: 32
Parallelization over k-points: 32

Number of atoms: 28
Number of atomic orbitals: 148
Number of bands in calculation: 112
Number of valence electrons: 180
Bands to converge: occupied

... initialized

Initializing position-dependent things.

Density initialized from atomic densities
Creating initial wave functions:
  112 bands from LCAO basis set

     .-------------------------Li 
    /|                O        |  
   Li|   O      O  P           |  
  /  |P           LiOMn      O |  
 *   | O    O           Mn     |  
 |   | O        Li       O     |  
 |   .--Mn----------O----O-----.  
 | O/      MO             P   /   
 | /         P  O      O     /    
 |/       O                 /     
 *-------------------------*      

Positions:
   0 O      3.526148    0.292891    1.032214    ( 0.0000,  0.0000,  0.0000)
   1 O      1.704036    5.807052    3.401670    ( 0.0000,  0.0000,  0.0000)
   2 O      6.933663    3.342276    3.707680    ( 0.0000,  0.0000,  0.0000)
   3 O      8.756153    2.757667    1.338223    ( 0.0000,  0.0000,  0.0000)
   4 O      6.933852    5.807109    3.707786    ( 0.0000,  0.0000,  0.0000)
   5 O      8.755964    0.292948    1.338330    ( 0.0000,  0.0000,  0.0000)
   6 O      3.526337    2.757724    1.032320    ( 0.0000,  0.0000,  0.0000)
   7 O      1.703847    3.342333    3.401777    ( 0.0000,  0.0000,  0.0000)
   8 O      0.466754    1.525174    1.387562    ( 0.0000,  0.0000,  0.0000)
   9 O      4.763127    4.574826    3.756983    ( 0.0000,  0.0000,  0.0000)
  10 O      9.993246    4.574826    3.352438    ( 0.0000,  0.0000,  0.0000)
  11 O      5.696873    1.525174    0.983017    ( 0.0000,  0.0000,  0.0000)
  12 Mn     2.299237    1.524885    2.474309    ( 0.0000,  0.0000,  1.0000)
  13 Mn     2.930893    4.575115    0.104091    ( 0.0000,  0.0000, -1.0000)
  14 Mn     8.160763    4.575115    2.265691    ( 0.0000,  0.0000, -1.0000)
  15 Mn     7.529107    1.524885    4.635909    ( 0.0000,  0.0000,  1.0000)
  16 P      4.259254    1.525289    0.399241    ( 0.0000,  0.0000,  0.0000)
  17 P      0.970863    4.574711    2.768742    ( 0.0000,  0.0000,  0.0000)
  18 P      6.200746    4.574711    4.340759    ( 0.0000,  0.0000,  0.0000)
  19 P      9.489137    1.525289    1.971258    ( 0.0000,  0.0000,  0.0000)
  20 O      4.219472    1.525281    3.603789    ( 0.0000,  0.0000,  0.0000)
  21 O      1.010604    4.574718    1.233252    ( 0.0000,  0.0000,  0.0000)
  22 O      6.240528    4.574719    1.136211    ( 0.0000,  0.0000,  0.0000)
  23 O      9.449396    1.525282    3.506748    ( 0.0000,  0.0000,  0.0000)
  24 Li    -0.000000   -0.000000   -0.000000    ( 0.0000,  0.0000,  0.0000)
  25 Li     5.230000   -0.000000    2.370000    ( 0.0000,  0.0000,  0.0000)
  26 Li     0.000000    3.050000   -0.000000    ( 0.0000,  0.0000,  0.0000)
  27 Li     5.230000    3.050000    2.370000    ( 0.0000,  0.0000,  0.0000)

Unit cell:
           periodic     x           y           z      points  spacing
  1. axis:    yes   10.460000    0.000000    0.000000    60     0.1743
  2. axis:    yes    0.000000    6.100000    0.000000    35     0.1743
  3. axis:    yes    0.000000    0.000000    4.740000    27     0.1756

  Lengths:  10.460000   6.100000   4.740000
  Angles:   90.000000  90.000000  90.000000

Effective grid spacing dv^(1/3) = 0.1747

                     log10-error:           total        iterations:
           time      wfs    density  force  energy       poisson  magmom
iter:   1  08:38:14                       -220.688584             +0.0000
iter:   2  08:38:39  -0.64  -0.92         -235.504051             -0.0000
iter:   3  08:39:04  -0.40  -0.96         -226.168972             +0.0000
iter:   4  08:39:29  -1.41  -1.29         -225.888539             -0.0000
iter:   5  08:39:53  -1.19  -1.38         -227.589672             -0.0000
iter:   6  08:40:18  -1.39  -1.51         -225.829397             -0.0000
iter:   7  08:40:43  -2.57  -2.06         -225.899435             -0.0000
iter:   8  08:41:08  -2.23  -2.01         -225.642120             -0.0000
iter:   9  08:41:33  -2.68  -2.09         -225.547027             +0.0000
iter:  10  08:41:58  -3.55  -2.95         -225.546253             -0.0000
iter:  11  08:42:23  -3.95  -3.00         -225.547815             -0.0000
iter:  12  08:42:48  -4.29  -3.22         -225.547993             +0.0000
iter:  13  08:43:13  -5.37  -3.36         -225.547883             +0.0000
iter:  14  08:43:38  -5.18  -3.44         -225.547735             +0.0000
iter:  15  08:44:03  -5.36  -3.60         -225.547649             +0.0000
iter:  16  08:44:27  -6.31  -3.68         -225.547634             +0.0000
iter:  17  08:44:52  -6.27  -3.76         -225.547653             +0.0000
iter:  18  08:45:17  -6.76  -3.81         -225.547654             +0.0000
iter:  19  08:45:42  -5.82  -3.83         -225.547618             +0.0000
iter:  20  08:46:07  -7.02  -4.42         -225.547615             +0.0000
iter:  21  08:46:39  -7.83  -4.69         -225.547613             +0.0000
iter:  22  08:47:05  -7.22  -4.78         -225.547611             +0.0000
iter:  23  08:47:37  -7.89  -4.77    -3.03-225.547610             +0.0000
iter:  24  08:48:09  -8.53  -4.92    -3.02-225.547611             +0.0000
iter:  25  08:48:42  -7.42  -4.94    -2.56-225.547611             +0.0000
iter:  26  08:49:15  -8.05  -4.94    -2.83-225.547610             +0.0000
iter:  27  08:49:47  -7.80  -5.05    -3.17-225.547611             +0.0000
iter:  28  08:50:20  -8.06  -5.02    -2.87-225.547610             +0.0000
iter:  29  08:50:52  -8.22  -5.25    -2.88-225.547611             +0.0000
iter:  30  08:51:25  -9.41  -5.60    -3.59-225.547610             +0.0000
iter:  31  08:51:58  -9.55  -5.71    -3.88-225.547610             +0.0000
iter:  32  08:52:30 -10.00  -5.81    -3.85-225.547610             +0.0000
iter:  33  08:53:03  -9.13  -5.91    -3.40-225.547610             +0.0000
iter:  34  08:53:35 -10.51  -6.06    -4.00-225.547610             +0.0000
iter:  35  08:54:08 -10.37  -6.26    -3.88-225.547610             +0.0000
iter:  36  08:54:40 -10.06  -6.31    -3.91-225.547610             +0.0000
iter:  37  08:55:13 -11.57  -6.77    -4.78-225.547610             +0.0000
iter:  38  08:55:46 -11.23  -6.86    -4.46-225.547610             +0.0000
iter:  39  08:56:18 -11.51  -6.85    -4.50-225.547610             +0.0000
iter:  40  08:56:51 -12.33  -7.49    -5.92-225.547610             +0.0000
iter:  41  08:57:23 -13.29  -7.46    -5.96-225.547610             +0.0000
iter:  42  08:57:56 -14.40  -7.48    -6.15-225.547610             +0.0000

Converged after 42 iterations.

Dipole moment: (0.000000, -0.000000, 0.000000) |e|*Ang

Total magnetic moment: (0.000000, 0.000000, 0.000000)
Local magnetic moments:
   0 O  ( 0.000000,  0.000000,  0.001066)
   1 O  ( 0.000000,  0.000000, -0.001053)
   2 O  ( 0.000000,  0.000000, -0.001058)
   3 O  ( 0.000000,  0.000000,  0.001045)
   4 O  ( 0.000000,  0.000000, -0.001066)
   5 O  ( 0.000000,  0.000000,  0.001053)
   6 O  ( 0.000000,  0.000000,  0.001058)
   7 O  ( 0.000000,  0.000000, -0.001045)
   8 O  ( 0.000000,  0.000000,  0.019779)
   9 O  ( 0.000000,  0.000000, -0.019776)
  10 O  ( 0.000000,  0.000000, -0.019779)
  11 O  ( 0.000000,  0.000000,  0.019776)
  12 Mn ( 0.000000,  0.000000,  4.601526)
  13 Mn ( 0.000000,  0.000000, -4.601591)
  14 Mn ( 0.000000,  0.000000, -4.601526)
  15 Mn ( 0.000000,  0.000000,  4.601591)
  16 P  ( 0.000000,  0.000000,  0.001300)
  17 P  ( 0.000000,  0.000000, -0.001293)
  18 P  ( 0.000000,  0.000000, -0.001300)
  19 P  ( 0.000000,  0.000000,  0.001293)
  20 O  ( 0.000000,  0.000000,  0.018072)
  21 O  ( 0.000000,  0.000000, -0.018068)
  22 O  ( 0.000000,  0.000000, -0.018072)
  23 O  ( 0.000000,  0.000000,  0.018068)
  24 Li ( 0.000000,  0.000000, -0.000000)
  25 Li ( 0.000000,  0.000000, -0.000000)
  26 Li ( 0.000000,  0.000000,  0.000000)
  27 Li ( 0.000000,  0.000000,  0.000000)

Energy contributions relative to reference atoms: (reference = -196157.275402)

Kinetic:       +242.941718
Potential:     -215.438171
External:        +0.000000
XC:            -254.966300
Entropy (-ST):   -0.000000
Local:           +1.915142
--------------------------
Free energy:   -225.547610
Extrapolated:  -225.547610

Spin contamination: 9.747301 electrons
Showing only first 2 kpts
                      Up                     Down
 Kpt  Band  Eigenvalues  Occupancy  Eigenvalues  Occupancy
  0    88      3.85191    0.01389      3.85191    0.01389
  0    89      4.03512    0.01389      4.03512    0.01389
  0    90      8.63502    0.00000      8.63502    0.00000
  0    91      8.69684    0.00000      8.69684    0.00000

  1    88      3.83351    0.01389      3.83351    0.01389
  1    89      4.04346    0.01389      4.04346    0.01389
  1    90      8.47803    0.00000      8.47803    0.00000
  1    91      8.54209    0.00000      8.54209    0.00000


Fermi level: 5.31838

Gap: 3.778 eV
Transition (v -> c):
  (s=0, k=1, n=89, [0.08, -0.42, -0.12]) -> (s=0, k=14, n=90, [0.08, 0.08, 0.12])
Writing to LiMnPO4.gpw (mode='')


Forces in eV/Ang:
  0 O    -0.00007   -0.00032   -0.00006
  1 O     0.00006    0.00034   -0.00004
  2 O     0.00009   -0.00032    0.00004
  3 O    -0.00008    0.00034    0.00002
  4 O     0.00007    0.00032    0.00006
  5 O    -0.00006   -0.00034    0.00004
  6 O    -0.00009    0.00032   -0.00004
  7 O     0.00008   -0.00034   -0.00002
  8 O     0.00002    0.00002   -0.00007
  9 O     0.00003   -0.00002    0.00010
 10 O    -0.00002   -0.00002    0.00007
 11 O    -0.00003    0.00002   -0.00010
 12 Mn    0.00002    0.00000   -0.00007
 13 Mn    0.00006   -0.00000    0.00012
 14 Mn   -0.00002   -0.00000    0.00007
 15 Mn   -0.00006    0.00000   -0.00012
 16 P     0.00001    0.00001   -0.00002
 17 P    -0.00007   -0.00000    0.00010
 18 P    -0.00001   -0.00001    0.00002
 19 P     0.00007    0.00000   -0.00010
 20 O    -0.00002   -0.00001    0.00010
 21 O    -0.00011    0.00001    0.00022
 22 O     0.00002    0.00001   -0.00010
 23 O     0.00011   -0.00001   -0.00022
 24 Li   -0.00000    0.00000    0.00000
 25 Li   -0.00000   -0.00000    0.00000
 26 Li   -0.00000   -0.00000    0.00000
 27 Li    0.00000    0.00000    0.00000

System changes: positions 

Initializing position-dependent things.

Density initialized from wave functions
     .-------------------------Li 
    /|                O        |  
   Li|   O      O  P           |  
  /  |P           LiOMn      O |  
 *   | O    O           Mn     |  
 |   | O        Li       O     |  
 |   .--Mn----------O----O-----.  
 | O/      MO             P   /   
 | /         P  O      O     /    
 |/       O                 /     
 *-------------------------*      

Positions:
   0 O      3.516148    0.292891    1.032214    ( 0.0000,  0.0000,  0.0000)
   1 O      1.704036    5.807052    3.401670    ( 0.0000,  0.0000,  0.0000)
   2 O      6.933663    3.342276    3.707680    ( 0.0000,  0.0000,  0.0000)
   3 O      8.756153    2.757667    1.338223    ( 0.0000,  0.0000,  0.0000)
   4 O      6.933852    5.807109    3.707786    ( 0.0000,  0.0000,  0.0000)
   5 O      8.755964    0.292948    1.338330    ( 0.0000,  0.0000,  0.0000)
   6 O      3.526337    2.757724    1.032320    ( 0.0000,  0.0000,  0.0000)
   7 O      1.703847    3.342333    3.401777    ( 0.0000,  0.0000,  0.0000)
   8 O      0.466754    1.525174    1.387562    ( 0.0000,  0.0000,  0.0000)
   9 O      4.763127    4.574826    3.756983    ( 0.0000,  0.0000,  0.0000)
  10 O      9.993246    4.574826    3.352438    ( 0.0000,  0.0000,  0.0000)
  11 O      5.696873    1.525174    0.983017    ( 0.0000,  0.0000,  0.0000)
  12 Mn     2.299237    1.524885    2.474309    ( 0.0000,  0.0000,  1.0000)
  13 Mn     2.930893    4.575115    0.104091    ( 0.0000,  0.0000, -1.0000)
  14 Mn     8.160763    4.575115    2.265691    ( 0.0000,  0.0000, -1.0000)
  15 Mn     7.529107    1.524885    4.635909    ( 0.0000,  0.0000,  1.0000)
  16 P      4.259254    1.525289    0.399241    ( 0.0000,  0.0000,  0.0000)
  17 P      0.970863    4.574711    2.768742    ( 0.0000,  0.0000,  0.0000)
  18 P      6.200746    4.574711    4.340759    ( 0.0000,  0.0000,  0.0000)
  19 P      9.489137    1.525289    1.971258    ( 0.0000,  0.0000,  0.0000)
  20 O      4.219472    1.525281    3.603789    ( 0.0000,  0.0000,  0.0000)
  21 O      1.010604    4.574718    1.233252    ( 0.0000,  0.0000,  0.0000)
  22 O      6.240528    4.574719    1.136211    ( 0.0000,  0.0000,  0.0000)
  23 O      9.449396    1.525282    3.506748    ( 0.0000,  0.0000,  0.0000)
  24 Li    -0.000000   -0.000000   -0.000000    ( 0.0000,  0.0000,  0.0000)
  25 Li     5.230000   -0.000000    2.370000    ( 0.0000,  0.0000,  0.0000)
  26 Li     0.000000    3.050000   -0.000000    ( 0.0000,  0.0000,  0.0000)
  27 Li     5.230000    3.050000    2.370000    ( 0.0000,  0.0000,  0.0000)

Unit cell:
           periodic     x           y           z      points  spacing
  1. axis:    yes   10.460000    0.000000    0.000000    60     0.1743
  2. axis:    yes    0.000000    6.100000    0.000000    35     0.1743
  3. axis:    yes    0.000000    0.000000    4.740000    27     0.1756

  Lengths:  10.460000   6.100000   4.740000
  Angles:   90.000000  90.000000  90.000000

Effective grid spacing dv^(1/3) = 0.1747

                     log10-error:           total        iterations:
           time      wfs    density  force  energy       poisson  magmom
iter:   1  08:58:38  -3.90                -225.547555             -0.0001
iter:   2  08:59:03  -5.25  -3.61         -225.547439             -0.0000
iter:   3  08:59:27  -4.11  -3.63         -225.547139             +0.0000
iter:   4  08:59:52  -5.63  -3.75         -225.546961             -0.0000
iter:   5  09:00:17  -6.33  -3.95         -225.546997             -0.0000
iter:   6  09:00:41  -5.33  -3.88         -225.546914             -0.0000
iter:   7  09:01:06  -6.78  -4.49         -225.546914             -0.0000
iter:   8  09:01:30  -6.22  -4.48         -225.546917             -0.0000
iter:   9  09:01:55  -6.37  -4.45         -225.546911             -0.0000
iter:  10  09:02:27  -7.77  -4.86         -225.546911             -0.0000
iter:  11  09:02:52  -6.85  -4.93         -225.546913             +0.0000
iter:  12  09:03:16  -7.39  -4.73         -225.546911             -0.0000
iter:  13  09:03:48  -7.99  -5.12    -2.43-225.546910             -0.0000
iter:  14  09:04:20  -7.80  -5.33    -2.66-225.546910             -0.0000
iter:  15  09:04:53  -8.89  -5.58    -2.88-225.546910             -0.0000
iter:  16  09:05:25  -9.82  -5.60    -3.70-225.546910             -0.0000
iter:  17  09:05:57 -10.20  -5.63    -3.87-225.546910             -0.0000
iter:  18  09:06:29  -9.76  -5.70    -2.70-225.546910             -0.0000
iter:  19  09:07:02 -10.12  -5.77    -3.56-225.546910             -0.0000
iter:  20  09:07:34 -10.26  -5.85    -3.39-225.546910             -0.0000
iter:  21  09:08:06 -10.42  -5.94    -3.56-225.546910             -0.0000
iter:  22  09:08:38  -9.99  -6.00    -3.03-225.546910             -0.0000
iter:  23  09:09:10 -10.88  -6.34    -4.46-225.546910             -0.0000
iter:  24  09:09:43 -10.38  -6.42    -3.85-225.546910             -0.0000
iter:  25  09:10:15 -10.66  -6.68    -3.52-225.546910             -0.0000
iter:  26  09:10:47 -11.89  -7.00    -4.36-225.546910             +0.0000
iter:  27  09:11:19 -12.46  -6.99    -4.08-225.546910             +0.0000
iter:  28  09:11:51 -12.37  -7.15    -4.82-225.546910             +0.0000
iter:  29  09:12:23 -11.80  -7.16    -4.11-225.546910             +0.0000
iter:  30  09:12:56 -12.81  -7.33    -5.31-225.546910             +0.0000
iter:  31  09:13:28 -12.64  -7.49    -4.49-225.546910             +0.0000
iter:  32  09:14:00 -12.70  -7.68    -4.95-225.546910             +0.0000
iter:  33  09:14:32 -13.03  -7.67    -4.42-225.546910             +0.0000
iter:  34  09:15:04 -14.15  -8.53    -6.25-225.546910             -0.0000

Converged after 34 iterations.

Dipole moment: (0.004568, -0.004217, -0.001825) |e|*Ang

Total magnetic moment: (0.000000, 0.000000, -0.000000)
Local magnetic moments:
   0 O  ( 0.000000,  0.000000,  0.001103)
   1 O  ( 0.000000,  0.000000, -0.001065)
   2 O  ( 0.000000,  0.000000, -0.001050)
   3 O  ( 0.000000,  0.000000,  0.001057)
   4 O  ( 0.000000,  0.000000, -0.001055)
   5 O  ( 0.000000,  0.000000,  0.001066)
   6 O  ( 0.000000,  0.000000,  0.001082)
   7 O  ( 0.000000,  0.000000, -0.001085)
   8 O  ( 0.000000,  0.000000,  0.019793)
   9 O  ( 0.000000,  0.000000, -0.019760)
  10 O  ( 0.000000,  0.000000, -0.019811)
  11 O  ( 0.000000,  0.000000,  0.019699)
  12 Mn ( 0.000000,  0.000000,  4.601214)
  13 Mn ( 0.000000,  0.000000, -4.601192)
  14 Mn ( 0.000000,  0.000000, -4.601524)
  15 Mn ( 0.000000,  0.000000,  4.601586)
  16 P  ( 0.000000,  0.000000,  0.001325)
  17 P  ( 0.000000,  0.000000, -0.001286)
  18 P  ( 0.000000,  0.000000, -0.001307)
  19 P  ( 0.000000,  0.000000,  0.001300)
  20 O  ( 0.000000,  0.000000,  0.018061)
  21 O  ( 0.000000,  0.000000, -0.018105)
  22 O  ( 0.000000,  0.000000, -0.018057)
  23 O  ( 0.000000,  0.000000,  0.018094)
  24 Li ( 0.000000,  0.000000,  0.000000)
  25 Li ( 0.000000,  0.000000,  0.000003)
  26 Li ( 0.000000,  0.000000,  0.000000)
  27 Li ( 0.000000,  0.000000, -0.000002)

Energy contributions relative to reference atoms: (reference = -196157.275402)

Kinetic:       +242.684499
Potential:     -215.242856
External:        +0.000000
XC:            -254.903983
Entropy (-ST):   -0.000000
Local:           +1.915430
--------------------------
Free energy:   -225.546910
Extrapolated:  -225.546910

Spin contamination: 9.746880 electrons
Showing only first 2 kpts
                      Up                     Down
 Kpt  Band  Eigenvalues  Occupancy  Eigenvalues  Occupancy
  0    88      3.85288    0.01389      3.85539    0.01389
  0    89      4.03579    0.01389      4.03865    0.01389
  0    90      8.63797    0.00000      8.63557    0.00000
  0    91      8.69899    0.00000      8.70071    0.00000

  1    88      3.83460    0.01389      3.83727    0.01389
  1    89      4.04397    0.01389      4.04682    0.01389
  1    90      8.48050    0.00000      8.47995    0.00000
  1    91      8.54462    0.00000      8.54768    0.00000


Fermi level: 5.31838

Gap: 3.775 eV
Transition (v -> c):
  (s=1, k=1, n=89, [0.08, -0.42, -0.12]) -> (s=0, k=14, n=90, [0.08, 0.08, 0.12])

Forces in eV/Ang:
  0 O     0.13985    0.12079   -0.05299
  1 O    -0.00558   -0.00448   -0.00051
  2 O    -0.00146   -0.00170    0.00170
  3 O    -0.00579    0.00150   -0.00113
  4 O    -0.00160    0.00153    0.00086
  5 O    -0.00504   -0.00129   -0.00093
  6 O     0.01714    0.00135   -0.00072
  7 O    -0.00007   -0.00153    0.00043
  8 O    -0.01018    0.00118    0.00129
  9 O     0.00428    0.00217    0.00100
 10 O    -0.00610   -0.00076    0.00082
 11 O    -0.03115   -0.03015    0.00677
 12 Mn   -0.01069   -0.00262    0.00109
 13 Mn   -0.01077   -0.00375   -0.00246
 14 Mn    0.00661    0.00007    0.00029
 15 Mn    0.01052   -0.00056   -0.00306
 16 P    -0.10969   -0.07717    0.03913
 17 P     0.00744    0.00564   -0.00280
 18 P    -0.00089   -0.00061   -0.00407
 19 P     0.01140    0.00007   -0.00101
 20 O     0.01242   -0.00658    0.00693
 21 O    -0.00523   -0.00364    0.00207
 22 O    -0.00248    0.00112    0.00105
 23 O    -0.00405    0.00005    0.00068
 24 Li    0.00368   -0.00037    0.00019
 25 Li   -0.00230   -0.00305    0.00394
 26 Li    0.00219    0.00045    0.00029
 27 Li   -0.00240    0.00236    0.00117

System changes: positions 

Initializing position-dependent things.

Density initialized from wave functions
     .-------------------------Li 
    /|                O        |  
   Li|   O      O  P           |  
  /  |P           LiOMn      O |  
 *   | O    O           Mn     |  
 |   | O        Li       O     |  
 |   .--Mn----------O----O-----.  
 | O/      MO             P   /   
 | /         P  O      O     /    
 |/       O                 /     
 *-------------------------*      

Positions:
   0 O      3.536148    0.292891    1.032214    ( 0.0000,  0.0000,  0.0000)
   1 O      1.704036    5.807052    3.401670    ( 0.0000,  0.0000,  0.0000)
   2 O      6.933663    3.342276    3.707680    ( 0.0000,  0.0000,  0.0000)
   3 O      8.756153    2.757667    1.338223    ( 0.0000,  0.0000,  0.0000)
   4 O      6.933852    5.807109    3.707786    ( 0.0000,  0.0000,  0.0000)
   5 O      8.755964    0.292948    1.338330    ( 0.0000,  0.0000,  0.0000)
   6 O      3.526337    2.757724    1.032320    ( 0.0000,  0.0000,  0.0000)
   7 O      1.703847    3.342333    3.401777    ( 0.0000,  0.0000,  0.0000)
   8 O      0.466754    1.525174    1.387562    ( 0.0000,  0.0000,  0.0000)
   9 O      4.763127    4.574826    3.756983    ( 0.0000,  0.0000,  0.0000)
  10 O      9.993246    4.574826    3.352438    ( 0.0000,  0.0000,  0.0000)
  11 O      5.696873    1.525174    0.983017    ( 0.0000,  0.0000,  0.0000)
  12 Mn     2.299237    1.524885    2.474309    ( 0.0000,  0.0000,  1.0000)
  13 Mn     2.930893    4.575115    0.104091    ( 0.0000,  0.0000, -1.0000)
  14 Mn     8.160763    4.575115    2.265691    ( 0.0000,  0.0000, -1.0000)
  15 Mn     7.529107    1.524885    4.635909    ( 0.0000,  0.0000,  1.0000)
  16 P      4.259254    1.525289    0.399241    ( 0.0000,  0.0000,  0.0000)
  17 P      0.970863    4.574711    2.768742    ( 0.0000,  0.0000,  0.0000)
  18 P      6.200746    4.574711    4.340759    ( 0.0000,  0.0000,  0.0000)
  19 P      9.489137    1.525289    1.971258    ( 0.0000,  0.0000,  0.0000)
  20 O      4.219472    1.525281    3.603789    ( 0.0000,  0.0000,  0.0000)
  21 O      1.010604    4.574718    1.233252    ( 0.0000,  0.0000,  0.0000)
  22 O      6.240528    4.574719    1.136211    ( 0.0000,  0.0000,  0.0000)
  23 O      9.449396    1.525282    3.506748    ( 0.0000,  0.0000,  0.0000)
  24 Li    -0.000000   -0.000000   -0.000000    ( 0.0000,  0.0000,  0.0000)
  25 Li     5.230000   -0.000000    2.370000    ( 0.0000,  0.0000,  0.0000)
  26 Li     0.000000    3.050000   -0.000000    ( 0.0000,  0.0000,  0.0000)
  27 Li     5.230000    3.050000    2.370000    ( 0.0000,  0.0000,  0.0000)

Unit cell:
           periodic     x           y           z      points  spacing
  1. axis:    yes   10.460000    0.000000    0.000000    60     0.1743
  2. axis:    yes    0.000000    6.100000    0.000000    35     0.1743
  3. axis:    yes    0.000000    0.000000    4.740000    27     0.1756

  Lengths:  10.460000   6.100000   4.740000
  Angles:   90.000000  90.000000  90.000000

Effective grid spacing dv^(1/3) = 0.1747

                     log10-error:           total        iterations:
           time      wfs    density  force  energy       poisson  magmom
iter:   1  09:15:45  -3.30                -225.549503             +0.0003
iter:   2  09:16:09  -4.66  -3.31         -225.549023             +0.0001
iter:   3  09:16:34  -3.50  -3.34         -225.547829             -0.0000
iter:   4  09:16:58  -5.02  -3.45         -225.547118             +0.0000
iter:   5  09:17:23  -5.14  -3.65         -225.547445             +0.0000
iter:   6  09:17:47  -4.55  -3.51         -225.546916             +0.0000
iter:   7  09:18:12  -6.06  -4.19         -225.546919             +0.0000
iter:   8  09:18:36  -5.73  -4.19         -225.546922             +0.0000
iter:   9  09:19:01  -5.91  -4.24         -225.546908             +0.0000
iter:  10  09:19:25  -6.82  -4.56         -225.546908             +0.0000
iter:  11  09:19:50  -6.88  -4.63         -225.546905             +0.0000
iter:  12  09:20:22  -8.05  -5.12         -225.546905             +0.0000
iter:  13  09:20:54  -8.28  -5.21    -2.42-225.546905             +0.0000
iter:  14  09:21:26  -8.99  -5.52    -3.18-225.546905             +0.0000
iter:  15  09:21:58 -10.08  -5.56    -3.57-225.546905             +0.0000
iter:  16  09:22:30  -9.49  -5.63    -3.06-225.546905             +0.0000
iter:  17  09:23:02  -9.62  -5.85    -3.61-225.546905             +0.0000
iter:  18  09:23:35 -10.25  -6.00    -3.47-225.546905             -0.0000
iter:  19  09:24:07 -10.60  -6.04    -3.61-225.546905             +0.0000
iter:  20  09:24:39 -10.71  -6.12    -3.68-225.546905             +0.0000
iter:  21  09:25:11 -10.54  -6.17    -3.39-225.546905             +0.0000
iter:  22  09:25:43 -11.02  -6.36    -4.65-225.546905             +0.0000
iter:  23  09:26:15 -10.87  -6.36    -4.21-225.546905             +0.0000
iter:  24  09:26:47 -11.56  -6.40    -4.24-225.546905             +0.0000
iter:  25  09:27:19 -10.67  -6.42    -3.86-225.546905             +0.0000
iter:  26  09:27:52 -11.61  -6.61    -3.97-225.546905             +0.0000
iter:  27  09:28:24 -11.74  -6.87    -4.58-225.546905             +0.0000
iter:  28  09:28:56 -12.31  -7.01    -4.21-225.546905             -0.0000
iter:  29  09:29:28 -12.06  -7.04    -4.04-225.546905             -0.0000
iter:  30  09:30:00 -13.09  -7.43    -5.25-225.546905             -0.0000
iter:  31  09:30:32 -12.38  -7.44    -4.59-225.546905             -0.0000
iter:  32  09:31:04 -12.76  -7.37    -4.62-225.546905             -0.0000
iter:  33  09:31:36 -13.73  -7.86    -5.62-225.546905             -0.0000
iter:  34  09:32:09 -13.84  -7.88    -5.39-225.546905             -0.0000
iter:  35  09:32:41 -14.37  -8.07    -5.62-225.546905             -0.0000
iter:  36  09:33:13 -14.15  -8.07    -4.96-225.546905             -0.0000
iter:  37  09:33:45 -14.51  -8.32    -6.01-225.546905             -0.0000

Converged after 37 iterations.

Dipole moment: (-0.004577, 0.004199, 0.001831) |e|*Ang

Total magnetic moment: (0.000000, 0.000000, -0.000000)
Local magnetic moments:
   0 O  ( 0.000000,  0.000000,  0.001029)
   1 O  ( 0.000000,  0.000000, -0.001040)
   2 O  ( 0.000000,  0.000000, -0.001066)
   3 O  ( 0.000000,  0.000000,  0.001032)
   4 O  ( 0.000000,  0.000000, -0.001077)
   5 O  ( 0.000000,  0.000000,  0.001039)
   6 O  ( 0.000000,  0.000000,  0.001035)
   7 O  ( 0.000000,  0.000000, -0.001006)
   8 O  ( 0.000000,  0.000000,  0.019765)
   9 O  ( 0.000000,  0.000000, -0.019792)
  10 O  ( 0.000000,  0.000000, -0.019746)
  11 O  ( 0.000000,  0.000000,  0.019853)
  12 Mn ( 0.000000,  0.000000,  4.601825)
  13 Mn ( 0.000000,  0.000000, -4.601983)
  14 Mn ( 0.000000,  0.000000, -4.601527)
  15 Mn ( 0.000000,  0.000000,  4.601594)
  16 P  ( 0.000000,  0.000000,  0.001276)
  17 P  ( 0.000000,  0.000000, -0.001300)
  18 P  ( 0.000000,  0.000000, -0.001292)
  19 P  ( 0.000000,  0.000000,  0.001287)
  20 O  ( 0.000000,  0.000000,  0.018083)
  21 O  ( 0.000000,  0.000000, -0.018030)
  22 O  ( 0.000000,  0.000000, -0.018087)
  23 O  ( 0.000000,  0.000000,  0.018041)
  24 Li ( 0.000000,  0.000000, -0.000000)
  25 Li ( 0.000000,  0.000000, -0.000003)
  26 Li ( 0.000000,  0.000000, -0.000000)
  27 Li ( 0.000000,  0.000000,  0.000002)

Energy contributions relative to reference atoms: (reference = -196157.275402)

Kinetic:       +243.205892
Potential:     -215.638822
External:        +0.000000
XC:            -255.028827
Entropy (-ST):   -0.000000
Local:           +1.914853
--------------------------
Free energy:   -225.546905
Extrapolated:  -225.546905

Spin contamination: 9.747709 electrons
Showing only first 2 kpts
                      Up                     Down
 Kpt  Band  Eigenvalues  Occupancy  Eigenvalues  Occupancy
  0    88      3.85045    0.01389      3.84820    0.01389
  0    89      4.03507    0.01389      4.03181    0.01389
  0    90      8.63160    0.00000      8.63332    0.00000
  0    91      8.69492    0.00000      8.69350    0.00000

  1    88      3.83198    0.01389      3.82956    0.01389
  1    89      4.04353    0.01389      4.04030    0.01389
  1    90      8.47499    0.00000      8.47385    0.00000
  1    91      8.54003    0.00000      8.53854    0.00000


Fermi level: 5.31838

Gap: 3.777 eV
Transition (v -> c):
  (s=0, k=1, n=89, [0.08, -0.42, -0.12]) -> (s=1, k=10, n=90, [0.08, -0.08, 0.12])

Forces in eV/Ang:
  0 O    -0.14126   -0.12520    0.05408
  1 O     0.00569    0.00514    0.00045
  2 O     0.00162    0.00108   -0.00163
  3 O     0.00562   -0.00080    0.00117
  4 O     0.00173   -0.00091   -0.00075
  5 O     0.00490    0.00060    0.00099
  6 O    -0.01737   -0.00095    0.00066
  7 O     0.00026    0.00082   -0.00046
  8 O     0.01016   -0.00112   -0.00142
  9 O    -0.00430   -0.00222   -0.00080
 10 O     0.00607    0.00071   -0.00068
 11 O     0.03194    0.03090   -0.00700
 12 Mn    0.01048    0.00282   -0.00096
 13 Mn    0.01090    0.00372    0.00268
 14 Mn   -0.00665   -0.00007   -0.00017
 15 Mn   -0.01065    0.00057    0.00284
 16 P     0.11045    0.08042   -0.04077
 17 P    -0.00759   -0.00563    0.00298
 18 P     0.00096    0.00061    0.00414
 19 P    -0.01125   -0.00006    0.00080
 20 O    -0.01261    0.00653   -0.00674
 21 O     0.00500    0.00362   -0.00164
 22 O     0.00252   -0.00112   -0.00126
 23 O     0.00427   -0.00006   -0.00110
 24 Li   -0.00367    0.00037   -0.00018
 25 Li    0.00254    0.00302   -0.00379
 26 Li   -0.00220   -0.00045   -0.00028
 27 Li    0.00244   -0.00236   -0.00118

System changes: positions 

Initializing position-dependent things.

Density initialized from wave functions
     .-------------------------Li 
    /|                O        |  
   Li|   O      O  P           |  
  /  |P           LiOMn      O |  
 *   | O    O           Mn     |  
 |   | O        Li       O     |  
 |   .--Mn----------O----O-----.  
 | O/      MO             P   /   
 | /         P  O      O     /    
 |/       O                 /     
 *-------------------------*      

Positions:
   0 O      3.526148    0.282891    1.032214    ( 0.0000,  0.0000,  0.0000)
   1 O      1.704036    5.807052    3.401670    ( 0.0000,  0.0000,  0.0000)
   2 O      6.933663    3.342276    3.707680    ( 0.0000,  0.0000,  0.0000)
   3 O      8.756153    2.757667    1.338223    ( 0.0000,  0.0000,  0.0000)
   4 O      6.933852    5.807109    3.707786    ( 0.0000,  0.0000,  0.0000)
   5 O      8.755964    0.292948    1.338330    ( 0.0000,  0.0000,  0.0000)
   6 O      3.526337    2.757724    1.032320    ( 0.0000,  0.0000,  0.0000)
   7 O      1.703847    3.342333    3.401777    ( 0.0000,  0.0000,  0.0000)
   8 O      0.466754    1.525174    1.387562    ( 0.0000,  0.0000,  0.0000)
   9 O      4.763127    4.574826    3.756983    ( 0.0000,  0.0000,  0.0000)
  10 O      9.993246    4.574826    3.352438    ( 0.0000,  0.0000,  0.0000)
  11 O      5.696873    1.525174    0.983017    ( 0.0000,  0.0000,  0.0000)
  12 Mn     2.299237    1.524885    2.474309    ( 0.0000,  0.0000,  1.0000)
  13 Mn     2.930893    4.575115    0.104091    ( 0.0000,  0.0000, -1.0000)
  14 Mn     8.160763    4.575115    2.265691    ( 0.0000,  0.0000, -1.0000)
  15 Mn     7.529107    1.524885    4.635909    ( 0.0000,  0.0000,  1.0000)
  16 P      4.259254    1.525289    0.399241    ( 0.0000,  0.0000,  0.0000)
  17 P      0.970863    4.574711    2.768742    ( 0.0000,  0.0000,  0.0000)
  18 P      6.200746    4.574711    4.340759    ( 0.0000,  0.0000,  0.0000)
  19 P      9.489137    1.525289    1.971258    ( 0.0000,  0.0000,  0.0000)
  20 O      4.219472    1.525281    3.603789    ( 0.0000,  0.0000,  0.0000)
  21 O      1.010604    4.574718    1.233252    ( 0.0000,  0.0000,  0.0000)
  22 O      6.240528    4.574719    1.136211    ( 0.0000,  0.0000,  0.0000)
  23 O      9.449396    1.525282    3.506748    ( 0.0000,  0.0000,  0.0000)
  24 Li    -0.000000   -0.000000   -0.000000    ( 0.0000,  0.0000,  0.0000)
  25 Li     5.230000   -0.000000    2.370000    ( 0.0000,  0.0000,  0.0000)
  26 Li     0.000000    3.050000   -0.000000    ( 0.0000,  0.0000,  0.0000)
  27 Li     5.230000    3.050000    2.370000    ( 0.0000,  0.0000,  0.0000)

Unit cell:
           periodic     x           y           z      points  spacing
  1. axis:    yes   10.460000    0.000000    0.000000    60     0.1743
  2. axis:    yes    0.000000    6.100000    0.000000    35     0.1743
  3. axis:    yes    0.000000    0.000000    4.740000    27     0.1756

  Lengths:  10.460000   6.100000   4.740000
  Angles:   90.000000  90.000000  90.000000

Effective grid spacing dv^(1/3) = 0.1747

                     log10-error:           total        iterations:
           time      wfs    density  force  energy       poisson  magmom
iter:   1  09:34:26  -3.36                -225.549963             +0.0008
iter:   2  09:34:50  -4.76  -3.26         -225.549147             +0.0003
iter:   3  09:35:15  -3.45  -3.29         -225.547148             -0.0000
iter:   4  09:35:39  -4.82  -3.41         -225.546360             +0.0001
iter:   5  09:36:04  -5.26  -3.66         -225.546335             +0.0000
iter:   6  09:36:28  -5.19  -3.80         -225.546167             +0.0000
iter:   7  09:36:53  -6.15  -4.09         -225.546161             +0.0000
iter:   8  09:37:17  -6.01  -4.24         -225.546147             +0.0000
iter:   9  09:37:42  -6.68  -4.53         -225.546147             +0.0000
iter:  10  09:38:07  -6.69  -4.56         -225.546147             +0.0000
iter:  11  09:38:31  -7.23  -4.79         -225.546145             +0.0000
iter:  12  09:39:03  -7.98  -5.09         -225.546145             +0.0000
iter:  13  09:39:35  -8.09  -5.13    -2.47-225.546145             -0.0000
iter:  14  09:40:07  -8.45  -5.17    -2.99-225.546145             +0.0000
iter:  15  09:40:39  -8.83  -5.31    -2.64-225.546145             +0.0000
iter:  16  09:41:11  -9.32  -5.41    -3.17-225.546145             +0.0000
iter:  17  09:41:44  -9.63  -5.52    -2.77-225.546145             +0.0000
iter:  18  09:42:16  -9.56  -5.67    -3.45-225.546145             -0.0000
iter:  19  09:42:48  -9.61  -5.83    -3.44-225.546145             -0.0000
iter:  20  09:43:20 -10.12  -5.99    -3.87-225.546145             -0.0000
iter:  21  09:43:52 -10.15  -6.07    -2.90-225.546145             -0.0000
iter:  22  09:44:24 -10.41  -6.20    -3.70-225.546145             -0.0000
iter:  23  09:44:56 -10.46  -6.34    -3.50-225.546145             -0.0000
iter:  24  09:45:28 -11.15  -6.34    -3.73-225.546145             -0.0000
iter:  25  09:46:00 -12.13  -6.44    -4.35-225.546145             -0.0000
iter:  26  09:46:32 -11.95  -6.48    -4.00-225.546145             -0.0000
iter:  27  09:47:05 -10.90  -6.59    -3.86-225.546145             -0.0000
iter:  28  09:47:37 -11.58  -6.66    -4.13-225.546145             -0.0000
iter:  29  09:48:09 -12.36  -6.81    -4.57-225.546145             -0.0000
iter:  30  09:48:41 -11.74  -6.83    -3.84-225.546145             -0.0000
iter:  31  09:49:13 -12.07  -7.07    -4.66-225.546145             -0.0000
iter:  32  09:49:45 -12.47  -7.07    -4.44-225.546145             -0.0000
iter:  33  09:50:17 -12.57  -7.25    -4.71-225.546145             -0.0000
iter:  34  09:50:49 -13.10  -7.36    -5.15-225.546145             -0.0000
iter:  35  09:51:21 -13.35  -7.43    -5.08-225.546145             -0.0000
iter:  36  09:51:53 -13.89  -7.54    -5.43-225.546145             -0.0000
iter:  37  09:52:25 -14.02  -7.64    -5.56-225.546145             -0.0000
iter:  38  09:52:57 -13.88  -7.70    -5.13-225.546145             -0.0000
iter:  39  09:53:29 -14.58  -7.80    -5.34-225.546145             -0.0000
iter:  40  09:54:01 -14.87  -7.89    -5.36-225.546145             -0.0000
iter:  41  09:54:34 -13.83  -7.99    -5.13-225.546145             -0.0000
iter:  42  09:55:06 -14.89  -8.09    -5.66-225.546145             -0.0000
iter:  43  09:55:38 -15.54  -8.13    -6.20-225.546145             +0.0000

Converged after 43 iterations.

Dipole moment: (0.001617, -0.142554, -0.002249) |e|*Ang

Total magnetic moment: (0.000000, 0.000000, 0.000000)
Local magnetic moments:
   0 O  ( 0.000000,  0.000000,  0.000830)
   1 O  ( 0.000000,  0.000000, -0.001101)
   2 O  ( 0.000000,  0.000000, -0.001057)
   3 O  ( 0.000000,  0.000000,  0.001049)
   4 O  ( 0.000000,  0.000000, -0.001059)
   5 O  ( 0.000000,  0.000000,  0.001059)
   6 O  ( 0.000000,  0.000000,  0.001117)
   7 O  ( 0.000000,  0.000000, -0.000911)
   8 O  ( 0.000000,  0.000000,  0.019786)
   9 O  ( 0.000000,  0.000000, -0.019809)
  10 O  ( 0.000000,  0.000000, -0.019792)
  11 O  ( 0.000000,  0.000000,  0.019634)
  12 Mn ( 0.000000,  0.000000,  4.601574)
  13 Mn ( 0.000000,  0.000000, -4.600765)
  14 Mn ( 0.000000,  0.000000, -4.601530)
  15 Mn ( 0.000000,  0.000000,  4.601556)
  16 P  ( 0.000000,  0.000000,  0.001072)
  17 P  ( 0.000000,  0.000000, -0.001305)
  18 P  ( 0.000000,  0.000000, -0.001312)
  19 P  ( 0.000000,  0.000000,  0.001288)
  20 O  ( 0.000000,  0.000000,  0.017989)
  21 O  ( 0.000000,  0.000000, -0.018117)
  22 O  ( 0.000000,  0.000000, -0.018070)
  23 O  ( 0.000000,  0.000000,  0.018083)
  24 Li ( 0.000000,  0.000000, -0.000000)
  25 Li ( 0.000000,  0.000000, -0.000016)
  26 Li ( 0.000000,  0.000000, -0.000001)
  27 Li ( 0.000000,  0.000000, -0.000001)

Energy contributions relative to reference atoms: (reference = -196157.275402)

Kinetic:       +242.435504
Potential:     -215.046105
External:        +0.000000
XC:            -254.851763
Entropy (-ST):   -0.000000
Local:           +1.916218
--------------------------
Free energy:   -225.546145
Extrapolated:  -225.546145

Spin contamination: 9.746831 electrons
Showing only first 2 kpts
                      Up                     Down
 Kpt  Band  Eigenvalues  Occupancy  Eigenvalues  Occupancy
  0    88      3.84863    0.01389      3.85859    0.01389
  0    89      4.03143    0.01389      4.04188    0.01389
  0    90      8.64072    0.00000      8.63128    0.00000
  0    91      8.70203    0.00000      8.69340    0.00000

  1    88      3.83052    0.01389      3.84041    0.01389
  1    89      4.03951    0.01389      4.05037    0.01389
  1    90      8.48320    0.00000      8.47419    0.00000
  1    91      8.54725    0.00000      8.53712    0.00000


Fermi level: 5.31838

Gap: 3.770 eV
Transition (v -> c):
  (s=1, k=1, n=89, [0.08, -0.42, -0.12]) -> (s=1, k=14, n=90, [0.08, 0.08, 0.12])

Forces in eV/Ang:
  0 O     0.11981    0.29179   -0.06425
  1 O    -0.00474    0.00186   -0.00236
  2 O     0.00148   -0.00378    0.00004
  3 O    -0.00122   -0.00053   -0.00044
  4 O     0.00130    0.00276    0.00038
  5 O    -0.00100    0.00055   -0.00036
  6 O    -0.00125   -0.06126    0.00442
  7 O     0.00125   -0.00526   -0.00034
  8 O     0.00116    0.00055    0.00010
  9 O     0.00941   -0.00594   -0.00358
 10 O    -0.00212   -0.00083    0.00122
 11 O    -0.02089   -0.00311    0.00450
 12 Mn   -0.00217   -0.01394   -0.00346
 13 Mn   -0.00835   -0.00975   -0.01211
 14 Mn    0.00097    0.00008   -0.00001
 15 Mn    0.00520   -0.00037   -0.00231
 16 P    -0.08539   -0.19147    0.07063
 17 P     0.00243    0.00602   -0.00470
 18 P    -0.00875    0.00144    0.00002
 19 P     0.00106   -0.00007    0.00043
 20 O    -0.00543   -0.00033    0.00900
 21 O    -0.00587   -0.00416    0.00347
 22 O     0.00368   -0.00201   -0.00027
 23 O    -0.00065    0.00006   -0.00022
 24 Li    0.00144   -0.00112   -0.00010
 25 Li   -0.00385   -0.00730   -0.00179
 26 Li    0.00026    0.00110    0.00013
 27 Li    0.00224    0.00491    0.00194

System changes: positions 

Initializing position-dependent things.

Density initialized from wave functions
     .-------------------------Li 
    /|                O        |  
   Li|   O      O  P           |  
  /  |P           LiOMn      O |  
 *   | O    O           Mn     |  
 |   | O        Li       O     |  
 |   .--Mn----------O----O-----.  
 | O/      MO             P   /   
 | /      O  P  O      O     /    
 |/                         /     
 *-------------------------*      

Positions:
   0 O      3.526148    0.302891    1.032214    ( 0.0000,  0.0000,  0.0000)
   1 O      1.704036    5.807052    3.401670    ( 0.0000,  0.0000,  0.0000)
   2 O      6.933663    3.342276    3.707680    ( 0.0000,  0.0000,  0.0000)
   3 O      8.756153    2.757667    1.338223    ( 0.0000,  0.0000,  0.0000)
   4 O      6.933852    5.807109    3.707786    ( 0.0000,  0.0000,  0.0000)
   5 O      8.755964    0.292948    1.338330    ( 0.0000,  0.0000,  0.0000)
   6 O      3.526337    2.757724    1.032320    ( 0.0000,  0.0000,  0.0000)
   7 O      1.703847    3.342333    3.401777    ( 0.0000,  0.0000,  0.0000)
   8 O      0.466754    1.525174    1.387562    ( 0.0000,  0.0000,  0.0000)
   9 O      4.763127    4.574826    3.756983    ( 0.0000,  0.0000,  0.0000)
  10 O      9.993246    4.574826    3.352438    ( 0.0000,  0.0000,  0.0000)
  11 O      5.696873    1.525174    0.983017    ( 0.0000,  0.0000,  0.0000)
  12 Mn     2.299237    1.524885    2.474309    ( 0.0000,  0.0000,  1.0000)
  13 Mn     2.930893    4.575115    0.104091    ( 0.0000,  0.0000, -1.0000)
  14 Mn     8.160763    4.575115    2.265691    ( 0.0000,  0.0000, -1.0000)
  15 Mn     7.529107    1.524885    4.635909    ( 0.0000,  0.0000,  1.0000)
  16 P      4.259254    1.525289    0.399241    ( 0.0000,  0.0000,  0.0000)
  17 P      0.970863    4.574711    2.768742    ( 0.0000,  0.0000,  0.0000)
  18 P      6.200746    4.574711    4.340759    ( 0.0000,  0.0000,  0.0000)
  19 P      9.489137    1.525289    1.971258    ( 0.0000,  0.0000,  0.0000)
  20 O      4.219472    1.525281    3.603789    ( 0.0000,  0.0000,  0.0000)
  21 O      1.010604    4.574718    1.233252    ( 0.0000,  0.0000,  0.0000)
  22 O      6.240528    4.574719    1.136211    ( 0.0000,  0.0000,  0.0000)
  23 O      9.449396    1.525282    3.506748    ( 0.0000,  0.0000,  0.0000)
  24 Li    -0.000000   -0.000000   -0.000000    ( 0.0000,  0.0000,  0.0000)
  25 Li     5.230000   -0.000000    2.370000    ( 0.0000,  0.0000,  0.0000)
  26 Li     0.000000    3.050000   -0.000000    ( 0.0000,  0.0000,  0.0000)
  27 Li     5.230000    3.050000    2.370000    ( 0.0000,  0.0000,  0.0000)

Unit cell:
           periodic     x           y           z      points  spacing
  1. axis:    yes   10.460000    0.000000    0.000000    60     0.1743
  2. axis:    yes    0.000000    6.100000    0.000000    35     0.1743
  3. axis:    yes    0.000000    0.000000    4.740000    27     0.1756

  Lengths:  10.460000   6.100000   4.740000
  Angles:   90.000000  90.000000  90.000000

Effective grid spacing dv^(1/3) = 0.1747

                     log10-error:           total        iterations:
           time      wfs    density  force  energy       poisson  magmom
iter:   1  09:56:19  -3.11                -225.552672             -0.0019
iter:   2  09:56:44  -4.50  -3.14         -225.551255             -0.0006
iter:   3  09:57:09  -3.29  -3.18         -225.547448             +0.0000
iter:   4  09:57:33  -4.63  -3.35         -225.546500             -0.0001
iter:   5  09:57:58  -4.43  -3.57         -225.546941             -0.0001
iter:   6  09:58:23  -4.46  -3.62         -225.546131             -0.0000
iter:   7  09:58:48  -5.37  -3.98         -225.546126             -0.0000
iter:   8  09:59:12  -6.25  -4.14         -225.546109             -0.0000
iter:   9  09:59:37  -6.88  -4.45         -225.546112             +0.0000
iter:  10  10:00:02  -6.56  -4.49         -225.546109             +0.0000
iter:  11  10:00:34  -7.55  -4.80         -225.546108             +0.0000
iter:  12  10:01:06  -8.02  -4.97    -2.40-225.546108             +0.0000
iter:  13  10:01:38  -8.07  -5.02    -2.14-225.546108             +0.0000
iter:  14  10:02:11  -8.09  -5.16    -2.81-225.546108             +0.0000
iter:  15  10:02:43  -9.24  -5.22    -3.19-225.546108             +0.0000
iter:  16  10:03:15  -8.32  -5.30    -2.25-225.546108             +0.0000
iter:  17  10:03:47  -8.73  -5.45    -3.28-225.546108             +0.0000
iter:  18  10:04:20  -9.52  -5.63    -3.51-225.546108             +0.0000
iter:  19  10:04:52 -10.14  -5.65    -3.26-225.546108             -0.0000
iter:  20  10:05:24  -9.75  -5.76    -3.15-225.546108             -0.0000
iter:  21  10:05:57  -9.74  -5.78    -3.57-225.546108             -0.0000
iter:  22  10:06:29  -9.83  -5.86    -2.92-225.546108             -0.0000
iter:  23  10:07:02 -10.05  -6.07    -3.84-225.546108             -0.0000
iter:  24  10:07:34 -11.10  -6.19    -3.76-225.546108             +0.0000
iter:  25  10:08:06 -10.86  -6.29    -3.81-225.546108             +0.0000
iter:  26  10:08:39 -11.47  -6.50    -4.15-225.546108             +0.0000
iter:  27  10:09:11 -11.47  -6.54    -3.89-225.546108             +0.0000
iter:  28  10:09:43 -11.50  -6.62    -4.02-225.546108             +0.0000
iter:  29  10:10:16 -12.29  -6.68    -4.62-225.546108             -0.0000
iter:  30  10:10:48 -11.87  -6.69    -4.15-225.546108             -0.0000
iter:  31  10:11:20 -11.60  -6.70    -4.08-225.546108             -0.0000
iter:  32  10:11:53 -12.13  -6.81    -4.56-225.546108             -0.0000
iter:  33  10:12:25 -12.84  -6.83    -4.58-225.546108             -0.0000
iter:  34  10:12:57 -12.42  -6.88    -4.42-225.546108             -0.0000
iter:  35  10:13:30 -12.67  -6.94    -4.28-225.546108             -0.0000
iter:  36  10:14:02 -12.55  -6.98    -4.50-225.546108             -0.0000
iter:  37  10:14:34 -13.46  -7.09    -5.44-225.546108             -0.0000
iter:  38  10:15:06 -12.45  -7.15    -4.73-225.546108             -0.0000
iter:  39  10:15:39 -12.93  -7.30    -4.98-225.546108             -0.0000
iter:  40  10:16:11 -12.57  -7.35    -4.61-225.546108             -0.0000
iter:  41  10:16:43 -13.00  -7.41    -5.27-225.546108             -0.0000
iter:  42  10:17:15 -13.57  -7.51    -5.34-225.546108             -0.0000
iter:  43  10:17:48 -13.57  -7.56    -5.11-225.546108             -0.0000
iter:  44  10:18:20 -13.71  -7.68    -5.55-225.546108             -0.0000
iter:  45  10:18:52 -14.42  -7.67    -5.53-225.546108             -0.0000
iter:  46  10:19:24 -14.22  -7.73    -5.72-225.546108             -0.0000
iter:  47  10:19:57 -14.26  -7.79    -5.53-225.546108             -0.0000
iter:  48  10:20:29 -14.03  -7.86    -5.37-225.546108             -0.0000
iter:  49  10:21:01 -14.85  -8.04    -5.85-225.546108             -0.0000
iter:  50  10:21:33 -14.69  -8.10    -5.33-225.546108             -0.0000
iter:  51  10:22:06 -15.65  -8.21    -5.91-225.546108             -0.0000
iter:  52  10:22:38 -14.62  -8.27    -5.41-225.546108             -0.0000
iter:  53  10:23:10 -15.80  -8.62    -6.09-225.546108             -0.0000

Converged after 53 iterations.

Dipole moment: (-0.001613, 0.154510, 0.002284) |e|*Ang

Total magnetic moment: (0.000000, 0.000000, -0.000000)
Local magnetic moments:
   0 O  ( 0.000000,  0.000000,  0.001299)
   1 O  ( 0.000000,  0.000000, -0.001005)
   2 O  ( 0.000000,  0.000000, -0.001059)
   3 O  ( 0.000000,  0.000000,  0.001041)
   4 O  ( 0.000000,  0.000000, -0.001072)
   5 O  ( 0.000000,  0.000000,  0.001046)
   6 O  ( 0.000000,  0.000000,  0.000997)
   7 O  ( 0.000000,  0.000000, -0.001177)
   8 O  ( 0.000000,  0.000000,  0.019772)
   9 O  ( 0.000000,  0.000000, -0.019743)
  10 O  ( 0.000000,  0.000000, -0.019765)
  11 O  ( 0.000000,  0.000000,  0.019916)
  12 Mn ( 0.000000,  0.000000,  4.601469)
  13 Mn ( 0.000000,  0.000000, -4.602373)
  14 Mn ( 0.000000,  0.000000, -4.601521)
  15 Mn ( 0.000000,  0.000000,  4.601625)
  16 P  ( 0.000000,  0.000000,  0.001522)
  17 P  ( 0.000000,  0.000000, -0.001281)
  18 P  ( 0.000000,  0.000000, -0.001288)
  19 P  ( 0.000000,  0.000000,  0.001299)
  20 O  ( 0.000000,  0.000000,  0.018153)
  21 O  ( 0.000000,  0.000000, -0.018018)
  22 O  ( 0.000000,  0.000000, -0.018074)
  23 O  ( 0.000000,  0.000000,  0.018053)
  24 Li ( 0.000000,  0.000000,  0.000000)
  25 Li ( 0.000000,  0.000000,  0.000015)
  26 Li ( 0.000000,  0.000000,  0.000001)
  27 Li ( 0.000000,  0.000000,  0.000001)

Energy contributions relative to reference atoms: (reference = -196157.275402)

Kinetic:       +243.472466
Potential:     -215.849220
External:        +0.000000
XC:            -255.083358
Entropy (-ST):   -0.000000
Local:           +1.914005
--------------------------
Free energy:   -225.546108
Extrapolated:  -225.546108

Spin contamination: 9.747774 electrons
Showing only first 2 kpts
                      Up                     Down
 Kpt  Band  Eigenvalues  Occupancy  Eigenvalues  Occupancy
  0    88      3.85515    0.01389      3.84525    0.01389
  0    89      4.03877    0.01389      4.02894    0.01389
  0    90      8.62890    0.00000      8.63868    0.00000
  0    91      8.69176    0.00000      8.70022    0.00000

  1    88      3.83647    0.01389      3.82670    0.01389
  1    89      4.04739    0.01389      4.03711    0.01389
  1    90      8.47222    0.00000      8.48166    0.00000
  1    91      8.53746    0.00000      8.54707    0.00000


Fermi level: 5.31838

Gap: 3.775 eV
Transition (v -> c):
  (s=0, k=2, n=89, [0.08, -0.42, 0.12]) -> (s=0, k=13, n=90, [0.08, 0.08, -0.12])

Forces in eV/Ang:
  0 O    -0.12629   -0.30182    0.07077
  1 O     0.00488   -0.00109    0.00231
  2 O    -0.00129    0.00311    0.00004
  3 O     0.00107    0.00121    0.00048
  4 O    -0.00114   -0.00210   -0.00028
  5 O     0.00088   -0.00122    0.00042
  6 O     0.00108    0.06348   -0.00455
  7 O    -0.00110    0.00455    0.00030
  8 O    -0.00109   -0.00053   -0.00025
  9 O    -0.00926    0.00587    0.00371
 10 O     0.00208    0.00080   -0.00106
 11 O     0.02097    0.00300   -0.00473
 12 Mn    0.00198    0.01416    0.00357
 13 Mn    0.00792    0.00816    0.01153
 14 Mn   -0.00101   -0.00008    0.00014
 15 Mn   -0.00529    0.00037    0.00205
 16 P     0.09225    0.20090   -0.07649
 17 P    -0.00256   -0.00607    0.00484
 18 P     0.00865   -0.00145    0.00002
 19 P    -0.00093    0.00008   -0.00062
 20 O     0.00541    0.00016   -0.00888
 21 O     0.00558    0.00418   -0.00301
 22 O    -0.00359    0.00202    0.00007
 23 O     0.00086   -0.00007   -0.00021
 24 Li   -0.00145    0.00111    0.00010
 25 Li    0.00391    0.00723    0.00183
 26 Li   -0.00025   -0.00109   -0.00013
 27 Li   -0.00227   -0.00486   -0.00196

System changes: positions 

Initializing position-dependent things.

Density initialized from wave functions
     .-------------------------Li 
    /|                O        |  
   Li|   O      O  P           |  
  /  |P           LiOMn      O |  
 *   | O    O           Mn     |  
 |   | O        Li       O     |  
 |   .--Mn----------O----O-----.  
 | O/      MO             P   /   
 | /         P  O      O     /    
 |/       O                 /     
 *-------------------------*      

Positions:
   0 O      3.526148    0.292891    1.022214    ( 0.0000,  0.0000,  0.0000)
   1 O      1.704036    5.807052    3.401670    ( 0.0000,  0.0000,  0.0000)
   2 O      6.933663    3.342276    3.707680    ( 0.0000,  0.0000,  0.0000)
   3 O      8.756153    2.757667    1.338223    ( 0.0000,  0.0000,  0.0000)
   4 O      6.933852    5.807109    3.707786    ( 0.0000,  0.0000,  0.0000)
   5 O      8.755964    0.292948    1.338330    ( 0.0000,  0.0000,  0.0000)
   6 O      3.526337    2.757724    1.032320    ( 0.0000,  0.0000,  0.0000)
   7 O      1.703847    3.342333    3.401777    ( 0.0000,  0.0000,  0.0000)
   8 O      0.466754    1.525174    1.387562    ( 0.0000,  0.0000,  0.0000)
   9 O      4.763127    4.574826    3.756983    ( 0.0000,  0.0000,  0.0000)
  10 O      9.993246    4.574826    3.352438    ( 0.0000,  0.0000,  0.0000)
  11 O      5.696873    1.525174    0.983017    ( 0.0000,  0.0000,  0.0000)
  12 Mn     2.299237    1.524885    2.474309    ( 0.0000,  0.0000,  1.0000)
  13 Mn     2.930893    4.575115    0.104091    ( 0.0000,  0.0000, -1.0000)
  14 Mn     8.160763    4.575115    2.265691    ( 0.0000,  0.0000, -1.0000)
  15 Mn     7.529107    1.524885    4.635909    ( 0.0000,  0.0000,  1.0000)
  16 P      4.259254    1.525289    0.399241    ( 0.0000,  0.0000,  0.0000)
  17 P      0.970863    4.574711    2.768742    ( 0.0000,  0.0000,  0.0000)
  18 P      6.200746    4.574711    4.340759    ( 0.0000,  0.0000,  0.0000)
  19 P      9.489137    1.525289    1.971258    ( 0.0000,  0.0000,  0.0000)
  20 O      4.219472    1.525281    3.603789    ( 0.0000,  0.0000,  0.0000)
  21 O      1.010604    4.574718    1.233252    ( 0.0000,  0.0000,  0.0000)
  22 O      6.240528    4.574719    1.136211    ( 0.0000,  0.0000,  0.0000)
  23 O      9.449396    1.525282    3.506748    ( 0.0000,  0.0000,  0.0000)
  24 Li    -0.000000   -0.000000   -0.000000    ( 0.0000,  0.0000,  0.0000)
  25 Li     5.230000   -0.000000    2.370000    ( 0.0000,  0.0000,  0.0000)
  26 Li     0.000000    3.050000   -0.000000    ( 0.0000,  0.0000,  0.0000)
  27 Li     5.230000    3.050000    2.370000    ( 0.0000,  0.0000,  0.0000)

Unit cell:
           periodic     x           y           z      points  spacing
  1. axis:    yes   10.460000    0.000000    0.000000    60     0.1743
  2. axis:    yes    0.000000    6.100000    0.000000    35     0.1743
  3. axis:    yes    0.000000    0.000000    4.740000    27     0.1756

  Lengths:  10.460000   6.100000   4.740000
  Angles:   90.000000  90.000000  90.000000

Effective grid spacing dv^(1/3) = 0.1747

                     log10-error:           total        iterations:
           time      wfs    density  force  energy       poisson  magmom
iter:   1  10:23:51  -3.67                -225.547802             +0.0017
iter:   2  10:24:16  -5.09  -3.58         -225.547695             +0.0005
iter:   3  10:24:41  -4.33  -3.61         -225.547186             -0.0001
iter:   4  10:25:06  -5.71  -3.83         -225.547076             +0.0001
iter:   5  10:25:30  -4.85  -4.00         -225.547356             +0.0001
iter:   6  10:25:55  -4.99  -3.74         -225.547024             +0.0000
iter:   7  10:26:20  -5.94  -4.43         -225.547031             +0.0000
iter:   8  10:26:45  -6.73  -4.35         -225.547021             +0.0000
iter:   9  10:27:17  -8.10  -4.89         -225.547020             +0.0000
iter:  10  10:27:49  -7.93  -4.93    -1.90-225.547020             +0.0000
iter:  11  10:28:21  -8.30  -5.09    -2.47-225.547020             +0.0000
iter:  12  10:28:54  -9.42  -5.29    -3.22-225.547020             +0.0000
iter:  13  10:29:26  -8.90  -5.36    -2.89-225.547020             +0.0000
iter:  14  10:29:58  -9.22  -5.51    -3.17-225.547020             +0.0000
iter:  15  10:30:31  -8.58  -5.59    -2.42-225.547020             +0.0000
iter:  16  10:31:03  -8.75  -5.45    -2.96-225.547020             +0.0000
iter:  17  10:31:35  -9.85  -5.66    -2.82-225.547020             +0.0000
iter:  18  10:32:08  -9.88  -5.75    -3.69-225.547020             -0.0000
iter:  19  10:32:40  -9.11  -5.82    -3.27-225.547020             -0.0000
iter:  20  10:33:12  -9.49  -5.90    -3.27-225.547020             -0.0000
iter:  21  10:33:45 -10.81  -6.63    -4.52-225.547020             -0.0000
iter:  22  10:34:17 -10.50  -6.64    -3.65-225.547020             +0.0000
iter:  23  10:34:49 -10.67  -6.44    -3.72-225.547020             +0.0000
iter:  24  10:35:22 -11.69  -7.03    -4.58-225.547020             +0.0000
iter:  25  10:35:54 -12.27  -7.15    -4.39-225.547020             +0.0000
iter:  26  10:36:27 -12.34  -7.21    -4.70-225.547020             +0.0000
iter:  27  10:36:59 -12.89  -7.43    -5.04-225.547020             +0.0000
iter:  28  10:37:31 -13.23  -7.54    -5.04-225.547020             +0.0000
iter:  29  10:38:04 -13.81  -7.54    -5.63-225.547020             +0.0000
iter:  30  10:38:36 -13.59  -7.61    -5.52-225.547020             +0.0000
iter:  31  10:39:08 -12.85  -7.68    -4.90-225.547020             -0.0000
iter:  32  10:39:40 -13.01  -7.49    -4.98-225.547020             -0.0000
iter:  33  10:40:13 -14.17  -7.92    -5.76-225.547020             -0.0000
iter:  34  10:40:45 -13.40  -7.97    -5.28-225.547020             -0.0000
iter:  35  10:41:17 -13.97  -8.06    -5.53-225.547020             -0.0000
iter:  36  10:41:50 -14.95  -8.50    -5.85-225.547020             +0.0000
iter:  37  10:42:22 -15.50  -8.62    -6.34-225.547020             +0.0000

Converged after 37 iterations.

Dipole moment: (-0.000645, 0.002236, -0.009475) |e|*Ang

Total magnetic moment: (0.000000, 0.000000, 0.000000)
Local magnetic moments:
   0 O  ( 0.000000,  0.000000,  0.000874)
   1 O  ( 0.000000,  0.000000, -0.001105)
   2 O  ( 0.000000,  0.000000, -0.001068)
   3 O  ( 0.000000,  0.000000,  0.001039)
   4 O  ( 0.000000,  0.000000, -0.001073)
   5 O  ( 0.000000,  0.000000,  0.001050)
   6 O  ( 0.000000,  0.000000,  0.001031)
   7 O  ( 0.000000,  0.000000, -0.000960)
   8 O  ( 0.000000,  0.000000,  0.019765)
   9 O  ( 0.000000,  0.000000, -0.019817)
  10 O  ( 0.000000,  0.000000, -0.019776)
  11 O  ( 0.000000,  0.000000,  0.019717)
  12 Mn ( 0.000000,  0.000000,  4.601817)
  13 Mn ( 0.000000,  0.000000, -4.601320)
  14 Mn ( 0.000000,  0.000000, -4.601528)
  15 Mn ( 0.000000,  0.000000,  4.601593)
  16 P  ( 0.000000,  0.000000,  0.001172)
  17 P  ( 0.000000,  0.000000, -0.001299)
  18 P  ( 0.000000,  0.000000, -0.001304)
  19 P  ( 0.000000,  0.000000,  0.001286)
  20 O  ( 0.000000,  0.000000,  0.018076)
  21 O  ( 0.000000,  0.000000, -0.018079)
  22 O  ( 0.000000,  0.000000, -0.018077)
  23 O  ( 0.000000,  0.000000,  0.018066)
  24 Li ( 0.000000,  0.000000,  0.000001)
  25 Li ( 0.000000,  0.000000, -0.000006)
  26 Li ( 0.000000,  0.000000, -0.000000)
  27 Li ( 0.000000,  0.000000,  0.000000)

Energy contributions relative to reference atoms: (reference = -196157.275402)

Kinetic:       +243.191970
Potential:     -215.629652
External:        +0.000000
XC:            -255.023870
Entropy (-ST):   -0.000000
Local:           +1.914532
--------------------------
Free energy:   -225.547020
Extrapolated:  -225.547020

Spin contamination: 9.747356 electrons
Showing only first 2 kpts
                      Up                     Down
 Kpt  Band  Eigenvalues  Occupancy  Eigenvalues  Occupancy
  0    88      3.84896    0.01389      3.85336    0.01389
  0    89      4.03369    0.01389      4.03648    0.01389
  0    90      8.63483    0.00000      8.63228    0.00000
  0    91      8.69673    0.00000      8.69445    0.00000

  1    88      3.83114    0.01389      3.83487    0.01389
  1    89      4.04095    0.01389      4.04465    0.01389
  1    90      8.47685    0.00000      8.47717    0.00000
  1    91      8.54201    0.00000      8.54030    0.00000


Fermi level: 5.31838

Gap: 3.778 eV
Transition (v -> c):
  (s=1, k=2, n=89, [0.08, -0.42, 0.12]) -> (s=0, k=13, n=90, [0.08, 0.08, -0.12])

Forces in eV/Ang:
  0 O    -0.05410   -0.06882    0.11810
  1 O     0.00051    0.00266   -0.00736
  2 O     0.00176   -0.00032    0.00067
  3 O     0.00106   -0.00012    0.00012
  4 O     0.00088    0.00065   -0.00028
  5 O     0.00089    0.00004    0.00017
  6 O    -0.00080   -0.00428    0.00948
  7 O    -0.00037   -0.00067   -0.00067
  8 O     0.00332   -0.00028    0.00024
  9 O     0.00384   -0.00204   -0.00364
 10 O     0.00089    0.00011    0.00035
 11 O    -0.00400   -0.00011    0.00717
 12 Mn    0.00627    0.00092   -0.00122
 13 Mn   -0.00219   -0.01371   -0.00966
 14 Mn   -0.00110   -0.00013    0.00043
 15 Mn   -0.00191    0.00015   -0.00040
 16 P     0.04085    0.06723   -0.08048
 17 P    -0.00206   -0.00093   -0.00036
 18 P    -0.00329   -0.00046   -0.00264
 19 P    -0.00254   -0.00002    0.00060
 20 O     0.00905    0.02014   -0.03473
 21 O     0.00020    0.00040    0.00039
 22 O    -0.00049    0.00072    0.00082
 23 O     0.00093   -0.00003   -0.00046
 24 Li   -0.00032   -0.00001   -0.00005
 25 Li    0.00376    0.00084    0.00210
 26 Li   -0.00023    0.00008   -0.00011
 27 Li   -0.00089   -0.00201    0.00171

System changes: positions 

Initializing position-dependent things.

Density initialized from wave functions
     .-------------------------Li 
    /|                O        |  
   Li|   O      O  P           |  
  /  |P           LiOMn      O |  
 *   | O    O           Mn     |  
 |   | O        Li       O     |  
 |   .--Mn----------O----O-----.  
 | O/      MO             P   /   
 | /      O  P  O      O     /    
 |/                         /     
 *-------------------------*      

Positions:
   0 O      3.526148    0.292891    1.042214    ( 0.0000,  0.0000,  0.0000)
   1 O      1.704036    5.807052    3.401670    ( 0.0000,  0.0000,  0.0000)
   2 O      6.933663    3.342276    3.707680    ( 0.0000,  0.0000,  0.0000)
   3 O      8.756153    2.757667    1.338223    ( 0.0000,  0.0000,  0.0000)
   4 O      6.933852    5.807109    3.707786    ( 0.0000,  0.0000,  0.0000)
   5 O      8.755964    0.292948    1.338330    ( 0.0000,  0.0000,  0.0000)
   6 O      3.526337    2.757724    1.032320    ( 0.0000,  0.0000,  0.0000)
   7 O      1.703847    3.342333    3.401777    ( 0.0000,  0.0000,  0.0000)
   8 O      0.466754    1.525174    1.387562    ( 0.0000,  0.0000,  0.0000)
   9 O      4.763127    4.574826    3.756983    ( 0.0000,  0.0000,  0.0000)
  10 O      9.993246    4.574826    3.352438    ( 0.0000,  0.0000,  0.0000)
  11 O      5.696873    1.525174    0.983017    ( 0.0000,  0.0000,  0.0000)
  12 Mn     2.299237    1.524885    2.474309    ( 0.0000,  0.0000,  1.0000)
  13 Mn     2.930893    4.575115    0.104091    ( 0.0000,  0.0000, -1.0000)
  14 Mn     8.160763    4.575115    2.265691    ( 0.0000,  0.0000, -1.0000)
  15 Mn     7.529107    1.524885    4.635909    ( 0.0000,  0.0000,  1.0000)
  16 P      4.259254    1.525289    0.399241    ( 0.0000,  0.0000,  0.0000)
  17 P      0.970863    4.574711    2.768742    ( 0.0000,  0.0000,  0.0000)
  18 P      6.200746    4.574711    4.340759    ( 0.0000,  0.0000,  0.0000)
  19 P      9.489137    1.525289    1.971258    ( 0.0000,  0.0000,  0.0000)
  20 O      4.219472    1.525281    3.603789    ( 0.0000,  0.0000,  0.0000)
  21 O      1.010604    4.574718    1.233252    ( 0.0000,  0.0000,  0.0000)
  22 O      6.240528    4.574719    1.136211    ( 0.0000,  0.0000,  0.0000)
  23 O      9.449396    1.525282    3.506748    ( 0.0000,  0.0000,  0.0000)
  24 Li    -0.000000   -0.000000   -0.000000    ( 0.0000,  0.0000,  0.0000)
  25 Li     5.230000   -0.000000    2.370000    ( 0.0000,  0.0000,  0.0000)
  26 Li     0.000000    3.050000   -0.000000    ( 0.0000,  0.0000,  0.0000)
  27 Li     5.230000    3.050000    2.370000    ( 0.0000,  0.0000,  0.0000)

Unit cell:
           periodic     x           y           z      points  spacing
  1. axis:    yes   10.460000    0.000000    0.000000    60     0.1743
  2. axis:    yes    0.000000    6.100000    0.000000    35     0.1743
  3. axis:    yes    0.000000    0.000000    4.740000    27     0.1756

  Lengths:  10.460000   6.100000   4.740000
  Angles:   90.000000  90.000000  90.000000

Effective grid spacing dv^(1/3) = 0.1747

                     log10-error:           total        iterations:
           time      wfs    density  force  energy       poisson  magmom
iter:   1  10:43:03  -3.39                -225.549230             -0.0014
iter:   2  10:43:28  -4.73  -3.34         -225.548826             -0.0004
iter:   3  10:43:53  -3.77  -3.37         -225.547464             +0.0000
iter:   4  10:44:17  -5.29  -3.56         -225.547193             -0.0001
iter:   5  10:44:42  -5.15  -3.70         -225.547147             -0.0001
iter:   6  10:45:07  -5.37  -3.93         -225.547032             -0.0000
iter:   7  10:45:32  -6.70  -4.15         -225.547022             -0.0000
iter:   8  10:45:56  -6.72  -4.39         -225.547019             -0.0000
iter:   9  10:46:21  -7.04  -4.65         -225.547020             -0.0000
iter:  10  10:46:46  -6.75  -4.63         -225.547018             -0.0000
iter:  11  10:47:18  -7.58  -4.93         -225.547019             -0.0000
iter:  12  10:47:43  -7.04  -4.81         -225.547018             -0.0000
iter:  13  10:48:15  -8.04  -4.99    -2.10-225.547018             -0.0000
iter:  14  10:48:47  -8.82  -5.49    -3.28-225.547018             -0.0000
iter:  15  10:49:19  -9.66  -5.63    -2.65-225.547018             +0.0000
iter:  16  10:49:52  -9.84  -5.71    -3.54-225.547018             +0.0000
iter:  17  10:50:24 -10.18  -5.84    -2.93-225.547018             +0.0000
iter:  18  10:50:56 -10.00  -6.05    -3.32-225.547018             +0.0000
iter:  19  10:51:29 -10.09  -6.23    -3.42-225.547018             +0.0000
iter:  20  10:52:01 -10.83  -6.39    -3.88-225.547018             +0.0000
iter:  21  10:52:33 -11.89  -6.58    -4.74-225.547018             +0.0000
iter:  22  10:53:06 -11.00  -6.62    -3.73-225.547018             -0.0000
iter:  23  10:53:38 -11.92  -6.86    -4.53-225.547018             -0.0000
iter:  24  10:54:10 -12.17  -7.19    -4.47-225.547018             -0.0000
iter:  25  10:54:43 -12.84  -7.29    -4.80-225.547018             -0.0000
iter:  26  10:55:15 -13.27  -7.36    -4.57-225.547018             -0.0000
iter:  27  10:55:47 -13.18  -7.51    -5.07-225.547018             -0.0000
iter:  28  10:56:20 -14.10  -7.62    -5.73-225.547018             -0.0000
iter:  29  10:56:52 -13.77  -7.67    -5.33-225.547018             -0.0000
iter:  30  10:57:24 -14.30  -7.77    -5.31-225.547018             -0.0000
iter:  31  10:57:57 -14.54  -7.79    -5.58-225.547018             -0.0000
iter:  32  10:58:29 -13.84  -7.84    -5.33-225.547018             -0.0000
iter:  33  10:59:01 -14.96  -7.95    -5.97-225.547018             -0.0000
iter:  34  10:59:34 -14.17  -8.01    -5.47-225.547018             -0.0000
iter:  35  11:00:06 -15.06  -8.11    -5.94-225.547018             -0.0000
iter:  36  11:00:38 -14.20  -8.15    -5.13-225.547018             -0.0000
iter:  37  11:01:11 -15.20  -8.44    -5.84-225.547018             -0.0000
iter:  38  11:01:43 -15.50  -8.67    -6.17-225.547018             -0.0000

Converged after 38 iterations.

Dipole moment: (0.000654, -0.002262, 0.008858) |e|*Ang

Total magnetic moment: (0.000000, 0.000000, -0.000000)
Local magnetic moments:
   0 O  ( 0.000000,  0.000000,  0.001256)
   1 O  ( 0.000000,  0.000000, -0.001000)
   2 O  ( 0.000000,  0.000000, -0.001048)
   3 O  ( 0.000000,  0.000000,  0.001051)
   4 O  ( 0.000000,  0.000000, -0.001058)
   5 O  ( 0.000000,  0.000000,  0.001055)
   6 O  ( 0.000000,  0.000000,  0.001085)
   7 O  ( 0.000000,  0.000000, -0.001131)
   8 O  ( 0.000000,  0.000000,  0.019792)
   9 O  ( 0.000000,  0.000000, -0.019735)
  10 O  ( 0.000000,  0.000000, -0.019781)
  11 O  ( 0.000000,  0.000000,  0.019835)
  12 Mn ( 0.000000,  0.000000,  4.601221)
  13 Mn ( 0.000000,  0.000000, -4.601857)
  14 Mn ( 0.000000,  0.000000, -4.601523)
  15 Mn ( 0.000000,  0.000000,  4.601589)
  16 P  ( 0.000000,  0.000000,  0.001428)
  17 P  ( 0.000000,  0.000000, -0.001288)
  18 P  ( 0.000000,  0.000000, -0.001295)
  19 P  ( 0.000000,  0.000000,  0.001301)
  20 O  ( 0.000000,  0.000000,  0.018068)
  21 O  ( 0.000000,  0.000000, -0.018056)
  22 O  ( 0.000000,  0.000000, -0.018067)
  23 O  ( 0.000000,  0.000000,  0.018070)
  24 Li ( 0.000000,  0.000000, -0.000001)
  25 Li ( 0.000000,  0.000000,  0.000006)
  26 Li ( 0.000000,  0.000000,  0.000000)
  27 Li ( 0.000000,  0.000000, -0.000000)

Energy contributions relative to reference atoms: (reference = -196157.275402)

Kinetic:       +242.696814
Potential:     -215.250794
External:        +0.000000
XC:            -254.908815
Entropy (-ST):   -0.000000
Local:           +1.915777
--------------------------
Free energy:   -225.547018
Extrapolated:  -225.547018

Spin contamination: 9.747243 electrons
Showing only first 2 kpts
                      Up                     Down
 Kpt  Band  Eigenvalues  Occupancy  Eigenvalues  Occupancy
  0    88      3.85488    0.01389      3.85041    0.01389
  0    89      4.03663    0.01389      4.03377    0.01389
  0    90      8.63518    0.00000      8.63755    0.00000
  0    91      8.69692    0.00000      8.69930    0.00000

  1    88      3.83588    0.01389      3.83212    0.01389
  1    89      4.04608    0.01389      4.04228    0.01389
  1    90      8.47914    0.00000      8.47874    0.00000
  1    91      8.54215    0.00000      8.54389    0.00000


Fermi level: 5.31838

Gap: 3.774 eV
Transition (v -> c):
  (s=0, k=22, n=89, [0.08, 0.42, 0.12]) -> (s=1, k=9, n=90, [0.08, -0.08, -0.12])

Forces in eV/Ang:
  0 O     0.05297    0.06611   -0.11855
  1 O    -0.00048   -0.00203    0.00731
  2 O    -0.00157   -0.00033   -0.00059
  3 O    -0.00123    0.00081   -0.00009
  4 O    -0.00073   -0.00001    0.00040
  5 O    -0.00103   -0.00073   -0.00010
  6 O     0.00059    0.00471   -0.00954
  7 O     0.00053   -0.00003    0.00064
  8 O    -0.00330    0.00032   -0.00039
  9 O    -0.00373    0.00193    0.00384
 10 O    -0.00094   -0.00015   -0.00021
 11 O     0.00379    0.00002   -0.00730
 12 Mn   -0.00650   -0.00062    0.00145
 13 Mn    0.00218    0.01343    0.00992
 14 Mn    0.00108    0.00013   -0.00029
 15 Mn    0.00182   -0.00015    0.00013
 16 P    -0.03966   -0.06522    0.08043
 17 P     0.00195    0.00095    0.00059
 18 P     0.00324    0.00045    0.00263
 19 P     0.00269    0.00002   -0.00079
 20 O    -0.00878   -0.01961    0.03457
 21 O    -0.00042   -0.00040    0.00001
 22 O     0.00051   -0.00071   -0.00102
 23 O    -0.00072    0.00002    0.00003
 24 Li    0.00032    0.00000    0.00005
 25 Li   -0.00364   -0.00085   -0.00195
 26 Li    0.00023   -0.00008    0.00010
 27 Li    0.00088    0.00201   -0.00168

System changes: positions 

Initializing position-dependent things.

Density initialized from wave functions
     .-------------------------Li 
    /|                O        |  
   Li|   O      O  P           |  
  /  |P           LiOMn      O |  
 *   | O    O           Mn     |  
 |   | O        Li       O     |  
 |   .--Mn----------O----O-----.  
 | O/      MO             P   /   
 | /         P  O      O     /    
 |/       O                 /     
 *-------------------------*      

Positions:
   0 O      3.526148    0.292891    1.032214    ( 0.0000,  0.0000,  0.0000)
   1 O      1.694036    5.807052    3.401670    ( 0.0000,  0.0000,  0.0000)
   2 O      6.933663    3.342276    3.707680    ( 0.0000,  0.0000,  0.0000)
   3 O      8.756153    2.757667    1.338223    ( 0.0000,  0.0000,  0.0000)
   4 O      6.933852    5.807109    3.707786    ( 0.0000,  0.0000,  0.0000)
   5 O      8.755964    0.292948    1.338330    ( 0.0000,  0.0000,  0.0000)
   6 O      3.526337    2.757724    1.032320    ( 0.0000,  0.0000,  0.0000)
   7 O      1.703847    3.342333    3.401777    ( 0.0000,  0.0000,  0.0000)
   8 O      0.466754    1.525174    1.387562    ( 0.0000,  0.0000,  0.0000)
   9 O      4.763127    4.574826    3.756983    ( 0.0000,  0.0000,  0.0000)
  10 O      9.993246    4.574826    3.352438    ( 0.0000,  0.0000,  0.0000)
  11 O      5.696873    1.525174    0.983017    ( 0.0000,  0.0000,  0.0000)
  12 Mn     2.299237    1.524885    2.474309    ( 0.0000,  0.0000,  1.0000)
  13 Mn     2.930893    4.575115    0.104091    ( 0.0000,  0.0000, -1.0000)
  14 Mn     8.160763    4.575115    2.265691    ( 0.0000,  0.0000, -1.0000)
  15 Mn     7.529107    1.524885    4.635909    ( 0.0000,  0.0000,  1.0000)
  16 P      4.259254    1.525289    0.399241    ( 0.0000,  0.0000,  0.0000)
  17 P      0.970863    4.574711    2.768742    ( 0.0000,  0.0000,  0.0000)
  18 P      6.200746    4.574711    4.340759    ( 0.0000,  0.0000,  0.0000)
  19 P      9.489137    1.525289    1.971258    ( 0.0000,  0.0000,  0.0000)
  20 O      4.219472    1.525281    3.603789    ( 0.0000,  0.0000,  0.0000)
  21 O      1.010604    4.574718    1.233252    ( 0.0000,  0.0000,  0.0000)
  22 O      6.240528    4.574719    1.136211    ( 0.0000,  0.0000,  0.0000)
  23 O      9.449396    1.525282    3.506748    ( 0.0000,  0.0000,  0.0000)
  24 Li    -0.000000   -0.000000   -0.000000    ( 0.0000,  0.0000,  0.0000)
  25 Li     5.230000   -0.000000    2.370000    ( 0.0000,  0.0000,  0.0000)
  26 Li     0.000000    3.050000   -0.000000    ( 0.0000,  0.0000,  0.0000)
  27 Li     5.230000    3.050000    2.370000    ( 0.0000,  0.0000,  0.0000)

Unit cell:
           periodic     x           y           z      points  spacing
  1. axis:    yes   10.460000    0.000000    0.000000    60     0.1743
  2. axis:    yes    0.000000    6.100000    0.000000    35     0.1743
  3. axis:    yes    0.000000    0.000000    4.740000    27     0.1756

  Lengths:  10.460000   6.100000   4.740000
  Angles:   90.000000  90.000000  90.000000

Effective grid spacing dv^(1/3) = 0.1747

                     log10-error:           total        iterations:
           time      wfs    density  force  energy       poisson  magmom
iter:   1  11:02:24  -3.58                -225.548015             +0.0006
iter:   2  11:02:49  -4.88  -3.40         -225.547817             +0.0002
iter:   3  11:03:13  -3.97  -3.43         -225.547218             -0.0000
iter:   4  11:03:38  -5.38  -3.60         -225.546996             +0.0000
iter:   5  11:04:03  -6.12  -3.77         -225.546977             +0.0000
iter:   6  11:04:28  -5.65  -3.84         -225.546916             +0.0000
iter:   7  11:04:52  -6.16  -4.16         -225.546909             +0.0000
iter:   8  11:05:17  -6.40  -4.34         -225.546908             +0.0000
iter:   9  11:05:42  -7.14  -4.52         -225.546905             +0.0000
iter:  10  11:06:07  -6.82  -4.78         -225.546907             +0.0000
iter:  11  11:06:32  -7.09  -4.65         -225.546905             +0.0000
iter:  12  11:07:04  -8.15  -5.26         -225.546905             +0.0000
iter:  13  11:07:36  -8.05  -5.27    -2.87-225.546905             +0.0000
iter:  14  11:08:09  -8.18  -5.34    -3.02-225.546905             +0.0000
iter:  15  11:08:41  -8.87  -5.44    -3.15-225.546905             +0.0000
iter:  16  11:09:14  -8.36  -5.41    -2.89-225.546905             +0.0000
iter:  17  11:09:46  -8.29  -5.63    -2.70-225.546905             +0.0000
iter:  18  11:10:19  -8.98  -5.56    -3.23-225.546905             +0.0000
iter:  19  11:10:51  -9.74  -6.20    -4.31-225.546905             +0.0000
iter:  20  11:11:23 -10.48  -6.36    -3.99-225.546905             +0.0000
iter:  21  11:11:56 -10.32  -6.28    -3.88-225.546905             +0.0000
iter:  22  11:12:28 -10.44  -6.61    -4.27-225.546905             +0.0000
iter:  23  11:13:01 -10.57  -6.49    -4.14-225.546905             +0.0000
iter:  24  11:13:33 -11.75  -6.83    -4.74-225.546905             +0.0000
iter:  25  11:14:05 -11.07  -7.04    -4.76-225.546905             -0.0000
iter:  26  11:14:38 -11.95  -6.91    -4.61-225.546905             -0.0000
iter:  27  11:15:10 -12.70  -7.26    -4.78-225.546905             -0.0000
iter:  28  11:15:43 -12.61  -7.44    -5.02-225.546905             -0.0000
[...]
  18 P      6.200746    4.574711    4.340759    ( 0.0000,  0.0000,  0.0000)
  19 P      9.489137    1.525289    1.971258    ( 0.0000,  0.0000,  0.0000)
  20 O      4.219472    1.525281    3.603789    ( 0.0000,  0.0000,  0.0000)
  21 O      1.010604    4.574718    1.233252    ( 0.0000,  0.0000,  0.0000)
  22 O      6.240528    4.574719    1.136211    ( 0.0000,  0.0000,  0.0000)
  23 O      9.449396    1.525282    3.506748    ( 0.0000,  0.0000,  0.0000)
  24 Li    -0.000000   -0.000000   -0.010000    ( 0.0000,  0.0000,  0.0000)
  25 Li     5.230000   -0.000000    2.370000    ( 0.0000,  0.0000,  0.0000)
  26 Li     0.000000    3.050000   -0.000000    ( 0.0000,  0.0000,  0.0000)
  27 Li     5.230000    3.050000    2.370000    ( 0.0000,  0.0000,  0.0000)

Unit cell:
           periodic     x           y           z      points  spacing
  1. axis:    yes   10.460000    0.000000    0.000000    60     0.1743
  2. axis:    yes    0.000000    6.100000    0.000000    35     0.1743
  3. axis:    yes    0.000000    0.000000    4.740000    27     0.1756

  Lengths:  10.460000   6.100000   4.740000
  Angles:   90.000000  90.000000  90.000000

Effective grid spacing dv^(1/3) = 0.1747

                     log10-error:           total        iterations:
           time      wfs    density  force  energy       poisson  magmom
iter:   1  08:01:42  -4.29                -225.547538             +0.0000
iter:   2  08:02:07  -5.51  -3.88         -225.547542             +0.0000
iter:   3  08:02:32  -5.45  -3.90         -225.547482             -0.0000
iter:   4  08:02:56  -6.61  -4.35         -225.547482             +0.0000
iter:   5  08:03:28  -7.71  -4.35         -225.547480             +0.0000
iter:   6  08:03:53  -7.08  -4.39         -225.547476             -0.0000
iter:   7  08:04:18  -7.11  -4.66         -225.547475             +0.0000
iter:   8  08:04:50  -7.81  -4.94    -1.76-225.547475             -0.0000
iter:   9  08:05:23  -8.93  -5.10    -2.45-225.547475             -0.0000
iter:  10  08:05:55  -8.10  -5.22    -2.65-225.547475             +0.0000
iter:  11  08:06:27  -8.96  -5.40    -2.66-225.547475             +0.0000
iter:  12  08:07:00  -9.52  -5.81    -3.50-225.547475             +0.0000
iter:  13  08:07:32 -10.39  -5.83    -3.73-225.547475             +0.0000
iter:  14  08:08:04 -10.24  -5.95    -3.40-225.547475             +0.0000
iter:  15  08:08:37 -10.73  -6.06    -3.84-225.547475             +0.0000
iter:  16  08:09:09 -10.51  -6.18    -3.99-225.547475             +0.0000
iter:  17  08:09:42 -11.55  -6.33    -4.15-225.547475             +0.0000
iter:  18  08:10:14 -11.19  -6.44    -3.82-225.547475             +0.0000
iter:  19  08:10:47 -11.98  -6.53    -4.63-225.547475             +0.0000
iter:  20  08:11:19 -11.54  -6.60    -4.06-225.547475             +0.0000
iter:  21  08:11:52 -12.13  -6.83    -4.25-225.547475             +0.0000
iter:  22  08:12:24 -12.16  -6.89    -4.12-225.547475             +0.0000
iter:  23  08:12:56 -12.69  -7.06    -4.71-225.547475             +0.0000
iter:  24  08:13:29 -12.43  -7.12    -4.98-225.547475             +0.0000
iter:  25  08:14:01 -13.46  -7.14    -5.21-225.547475             +0.0000
iter:  26  08:14:33 -12.70  -7.18    -4.25-225.547475             +0.0000
iter:  27  08:15:06 -13.44  -7.39    -5.24-225.547475             +0.0000
iter:  28  08:15:38 -13.68  -7.43    -5.11-225.547475             +0.0000
iter:  29  08:16:10 -13.43  -7.49    -5.14-225.547475             +0.0000
iter:  30  08:16:43 -13.96  -7.71    -5.36-225.547475             +0.0000
iter:  31  08:17:15 -13.41  -7.78    -5.07-225.547475             +0.0000
iter:  32  08:17:47 -13.83  -7.98    -5.25-225.547475             +0.0000
iter:  33  08:18:20 -15.24  -8.27    -6.11-225.547475             +0.0000

Converged after 33 iterations.

Dipole moment: (-0.000726, -0.000272, 0.069880) |e|*Ang

Total magnetic moment: (0.000000, 0.000000, 0.000000)
Local magnetic moments:
   0 O  ( 0.000000,  0.000000,  0.001064)
   1 O  ( 0.000000,  0.000000, -0.001046)
   2 O  ( 0.000000,  0.000000, -0.001059)
   3 O  ( 0.000000,  0.000000,  0.001043)
   4 O  ( 0.000000,  0.000000, -0.001068)
   5 O  ( 0.000000,  0.000000,  0.001059)
   6 O  ( 0.000000,  0.000000,  0.001057)
   7 O  ( 0.000000,  0.000000, -0.001047)
   8 O  ( 0.000000,  0.000000,  0.019802)
   9 O  ( 0.000000,  0.000000, -0.019775)
  10 O  ( 0.000000,  0.000000, -0.019755)
  11 O  ( 0.000000,  0.000000,  0.019778)
  12 Mn ( 0.000000,  0.000000,  4.601516)
  13 Mn ( 0.000000,  0.000000, -4.601604)
  14 Mn ( 0.000000,  0.000000, -4.601535)
  15 Mn ( 0.000000,  0.000000,  4.601579)
  16 P  ( 0.000000,  0.000000,  0.001300)
  17 P  ( 0.000000,  0.000000, -0.001294)
  18 P  ( 0.000000,  0.000000, -0.001300)
  19 P  ( 0.000000,  0.000000,  0.001293)
  20 O  ( 0.000000,  0.000000,  0.018067)
  21 O  ( 0.000000,  0.000000, -0.018078)
  22 O  ( 0.000000,  0.000000, -0.018077)
  23 O  ( 0.000000,  0.000000,  0.018058)
  24 Li ( 0.000000,  0.000000, -0.000008)
  25 Li ( 0.000000,  0.000000, -0.000000)
  26 Li ( 0.000000,  0.000000,  0.000001)
  27 Li ( 0.000000,  0.000000, -0.000000)

Energy contributions relative to reference atoms: (reference = -196157.275402)

Kinetic:       +242.943630
Potential:     -215.439643
External:        +0.000000
XC:            -254.966602
Entropy (-ST):   -0.000000
Local:           +1.915140
--------------------------
Free energy:   -225.547475
Extrapolated:  -225.547475

Spin contamination: 9.747301 electrons
Showing only first 2 kpts
                      Up                     Down
 Kpt  Band  Eigenvalues  Occupancy  Eigenvalues  Occupancy
  0    88      3.85190    0.01389      3.85190    0.01389
  0    89      4.03527    0.01389      4.03496    0.01389
  0    90      8.63501    0.00000      8.63503    0.00000
  0    91      8.69715    0.00000      8.69653    0.00000

  1    88      3.83347    0.01389      3.83354    0.01389
  1    89      4.04370    0.01389      4.04322    0.01389
  1    90      8.47813    0.00000      8.47791    0.00000
  1    91      8.54206    0.00000      8.54210    0.00000


Fermi level: 5.31838

Gap: 3.778 eV
Transition (v -> c):
  (s=0, k=2, n=89, [0.08, -0.42, 0.12]) -> (s=1, k=14, n=90, [0.08, 0.08, 0.12])

Forces in eV/Ang:
  0 O     0.00011   -0.00042   -0.00010
  1 O    -0.00378    0.00214    0.00193
  2 O     0.00037   -0.00045   -0.00007
  3 O    -0.00125    0.00229    0.00171
  4 O     0.00026    0.00022    0.00000
  5 O    -0.00397    0.00148    0.00213
  6 O     0.00019    0.00019   -0.00015
  7 O    -0.00109    0.00161    0.00169
  8 O    -0.00049    0.00187    0.00155
  9 O    -0.00024    0.00003   -0.00010
 10 O    -0.00055    0.00168    0.00148
 11 O    -0.00030    0.00007   -0.00030
 12 Mn   -0.00087    0.00166   -0.00400
 13 Mn   -0.00048   -0.00074    0.00276
 14 Mn   -0.00093    0.00164   -0.00387
 15 Mn   -0.00058   -0.00075    0.00251
 16 P     0.00021    0.00019    0.00083
 17 P     0.00794   -0.01125   -0.02402
 18 P     0.00019    0.00018    0.00087
 19 P     0.00794   -0.01103   -0.02417
 20 O    -0.00038   -0.00019   -0.00022
 21 O     0.00194   -0.00201    0.00534
 22 O    -0.00035   -0.00018   -0.00042
 23 O     0.00212   -0.00198    0.00481
 24 Li   -0.00701    0.01380    0.02714
 25 Li    0.00025    0.00005   -0.00018
 26 Li    0.00067   -0.00007    0.00300
 27 Li    0.00006   -0.00003   -0.00016

System changes: positions 

Initializing position-dependent things.

Density initialized from wave functions
     .-------------------------.  
    /|                O        |  
   Li|   O      O  P           |  
  /  |P           LiOMn      O |  
 *   | O    O           Mn     |  
 |   | O        Li       O     |  
 |   .--Mn----------O----O-----Li 
 | O/      MO             P   /   
 | /         P  O      O     /    
 |/       O                 /     
 *-------------------------*      

Positions:
   0 O      3.526148    0.292891    1.032214    ( 0.0000,  0.0000,  0.0000)
   1 O      1.704036    5.807052    3.401670    ( 0.0000,  0.0000,  0.0000)
   2 O      6.933663    3.342276    3.707680    ( 0.0000,  0.0000,  0.0000)
   3 O      8.756153    2.757667    1.338223    ( 0.0000,  0.0000,  0.0000)
   4 O      6.933852    5.807109    3.707786    ( 0.0000,  0.0000,  0.0000)
   5 O      8.755964    0.292948    1.338330    ( 0.0000,  0.0000,  0.0000)
   6 O      3.526337    2.757724    1.032320    ( 0.0000,  0.0000,  0.0000)
   7 O      1.703847    3.342333    3.401777    ( 0.0000,  0.0000,  0.0000)
   8 O      0.466754    1.525174    1.387562    ( 0.0000,  0.0000,  0.0000)
   9 O      4.763127    4.574826    3.756983    ( 0.0000,  0.0000,  0.0000)
  10 O      9.993246    4.574826    3.352438    ( 0.0000,  0.0000,  0.0000)
  11 O      5.696873    1.525174    0.983017    ( 0.0000,  0.0000,  0.0000)
  12 Mn     2.299237    1.524885    2.474309    ( 0.0000,  0.0000,  1.0000)
  13 Mn     2.930893    4.575115    0.104091    ( 0.0000,  0.0000, -1.0000)
  14 Mn     8.160763    4.575115    2.265691    ( 0.0000,  0.0000, -1.0000)
  15 Mn     7.529107    1.524885    4.635909    ( 0.0000,  0.0000,  1.0000)
  16 P      4.259254    1.525289    0.399241    ( 0.0000,  0.0000,  0.0000)
  17 P      0.970863    4.574711    2.768742    ( 0.0000,  0.0000,  0.0000)
  18 P      6.200746    4.574711    4.340759    ( 0.0000,  0.0000,  0.0000)
  19 P      9.489137    1.525289    1.971258    ( 0.0000,  0.0000,  0.0000)
  20 O      4.219472    1.525281    3.603789    ( 0.0000,  0.0000,  0.0000)
  21 O      1.010604    4.574718    1.233252    ( 0.0000,  0.0000,  0.0000)
  22 O      6.240528    4.574719    1.136211    ( 0.0000,  0.0000,  0.0000)
  23 O      9.449396    1.525282    3.506748    ( 0.0000,  0.0000,  0.0000)
  24 Li    -0.000000   -0.000000    0.010000    ( 0.0000,  0.0000,  0.0000)
  25 Li     5.230000   -0.000000    2.370000    ( 0.0000,  0.0000,  0.0000)
  26 Li     0.000000    3.050000   -0.000000    ( 0.0000,  0.0000,  0.0000)
  27 Li     5.230000    3.050000    2.370000    ( 0.0000,  0.0000,  0.0000)

Unit cell:
           periodic     x           y           z      points  spacing
  1. axis:    yes   10.460000    0.000000    0.000000    60     0.1743
  2. axis:    yes    0.000000    6.100000    0.000000    35     0.1743
  3. axis:    yes    0.000000    0.000000    4.740000    27     0.1756

  Lengths:  10.460000   6.100000   4.740000
  Angles:   90.000000  90.000000  90.000000

Effective grid spacing dv^(1/3) = 0.1747

                     log10-error:           total        iterations:
           time      wfs    density  force  energy       poisson  magmom
iter:   1  08:19:01  -4.03                -225.547587             -0.0000
iter:   2  08:19:26  -5.22  -3.75         -225.547593             -0.0000
iter:   3  08:19:50  -5.13  -3.77         -225.547489             -0.0000
iter:   4  08:20:15  -6.36  -4.22         -225.547486             -0.0000
iter:   5  08:20:40  -5.55  -4.22         -225.547514             -0.0000
iter:   6  08:21:04  -5.86  -4.07         -225.547475             -0.0000
iter:   7  08:21:29  -6.81  -4.69         -225.547476             -0.0000
iter:   8  08:22:01  -7.61  -4.64         -225.547475             +0.0000
iter:   9  08:22:33  -8.74  -5.17    -2.59-225.547475             +0.0000
iter:  10  08:23:06  -7.99  -5.14    -2.36-225.547475             -0.0000
iter:  11  08:23:38  -8.91  -5.64    -3.05-225.547475             +0.0000
iter:  12  08:24:10  -9.90  -5.74    -3.75-225.547475             +0.0000
iter:  13  08:24:43  -9.92  -5.75    -3.30-225.547475             +0.0000
iter:  14  08:25:15  -9.49  -5.80    -3.22-225.547475             +0.0000
iter:  15  08:25:47  -9.78  -5.86    -3.40-225.547475             +0.0000
iter:  16  08:26:20 -10.91  -6.16    -4.01-225.547475             +0.0000
iter:  17  08:26:52  -9.92  -6.22    -3.37-225.547475             -0.0000
iter:  18  08:27:24 -10.24  -6.15    -3.73-225.547475             +0.0000
iter:  19  08:27:57 -11.52  -6.63    -4.27-225.547475             -0.0000
iter:  20  08:28:29 -11.15  -6.76    -4.16-225.547475             -0.0000
iter:  21  08:29:01 -11.06  -6.62    -4.11-225.547475             +0.0000
iter:  22  08:29:33 -12.27  -7.02    -4.85-225.547475             +0.0000
iter:  23  08:30:06 -12.57  -7.16    -5.15-225.547475             -0.0000
iter:  24  08:30:38 -11.63  -7.14    -4.44-225.547475             -0.0000
iter:  25  08:31:10 -12.04  -7.07    -4.62-225.547475             +0.0000
iter:  26  08:31:43 -13.24  -7.40    -5.32-225.547475             -0.0000
iter:  27  08:32:15 -12.73  -7.44    -4.82-225.547475             -0.0000
iter:  28  08:32:47 -13.07  -7.53    -5.12-225.547475             -0.0000
iter:  29  08:33:20 -14.40  -7.68    -6.17-225.547475             -0.0000

Converged after 29 iterations.

Dipole moment: (0.000725, 0.000272, -0.069880) |e|*Ang

Total magnetic moment: (0.000000, 0.000000, -0.000000)
Local magnetic moments:
   0 O  ( 0.000000,  0.000000,  0.001068)
   1 O  ( 0.000000,  0.000000, -0.001059)
   2 O  ( 0.000000,  0.000000, -0.001057)
   3 O  ( 0.000000,  0.000000,  0.001047)
   4 O  ( 0.000000,  0.000000, -0.001064)
   5 O  ( 0.000000,  0.000000,  0.001046)
   6 O  ( 0.000000,  0.000000,  0.001059)
   7 O  ( 0.000000,  0.000000, -0.001043)
   8 O  ( 0.000000,  0.000000,  0.019755)
   9 O  ( 0.000000,  0.000000, -0.019778)
  10 O  ( 0.000000,  0.000000, -0.019802)
  11 O  ( 0.000000,  0.000000,  0.019775)
  12 Mn ( 0.000000,  0.000000,  4.601535)
  13 Mn ( 0.000000,  0.000000, -4.601579)
  14 Mn ( 0.000000,  0.000000, -4.601516)
  15 Mn ( 0.000000,  0.000000,  4.601604)
  16 P  ( 0.000000,  0.000000,  0.001300)
  17 P  ( 0.000000,  0.000000, -0.001293)
  18 P  ( 0.000000,  0.000000, -0.001300)
  19 P  ( 0.000000,  0.000000,  0.001294)
  20 O  ( 0.000000,  0.000000,  0.018077)
  21 O  ( 0.000000,  0.000000, -0.018058)
  22 O  ( 0.000000,  0.000000, -0.018067)
  23 O  ( 0.000000,  0.000000,  0.018078)
  24 Li ( 0.000000,  0.000000,  0.000008)
  25 Li ( 0.000000,  0.000000,  0.000000)
  26 Li ( 0.000000,  0.000000, -0.000001)
  27 Li ( 0.000000,  0.000000,  0.000000)

Energy contributions relative to reference atoms: (reference = -196157.275402)

Kinetic:       +242.943629
Potential:     -215.439642
External:        +0.000000
XC:            -254.966602
Entropy (-ST):   -0.000000
Local:           +1.915140
--------------------------
Free energy:   -225.547475
Extrapolated:  -225.547475

Spin contamination: 9.747301 electrons
Showing only first 2 kpts
                      Up                     Down
 Kpt  Band  Eigenvalues  Occupancy  Eigenvalues  Occupancy
  0    88      3.85190    0.01389      3.85190    0.01389
  0    89      4.03495    0.01389      4.03527    0.01389
  0    90      8.63503    0.00000      8.63501    0.00000
  0    91      8.69653    0.00000      8.69715    0.00000

  1    88      3.83354    0.01389      3.83347    0.01389
  1    89      4.04322    0.01389      4.04370    0.01389
  1    90      8.47791    0.00000      8.47813    0.00000
  1    91      8.54210    0.00000      8.54206    0.00000


Fermi level: 5.31838

Gap: 3.778 eV
Transition (v -> c):
  (s=1, k=2, n=89, [0.08, -0.42, 0.12]) -> (s=0, k=14, n=90, [0.08, 0.08, 0.12])

Forces in eV/Ang:
  0 O    -0.00026   -0.00022   -0.00000
  1 O     0.00397   -0.00148   -0.00213
  2 O    -0.00019   -0.00019    0.00015
  3 O     0.00110   -0.00160   -0.00168
  4 O    -0.00012    0.00041    0.00011
  5 O     0.00378   -0.00214   -0.00193
  6 O    -0.00037    0.00045    0.00007
  7 O     0.00125   -0.00229   -0.00171
  8 O     0.00054   -0.00168   -0.00148
  9 O     0.00030   -0.00007    0.00030
 10 O     0.00048   -0.00187   -0.00155
 11 O     0.00024   -0.00003    0.00010
 12 Mn    0.00093   -0.00164    0.00387
 13 Mn    0.00058    0.00075   -0.00251
 14 Mn    0.00087   -0.00166    0.00400
 15 Mn    0.00048    0.00075   -0.00276
 16 P    -0.00019   -0.00018   -0.00086
 17 P    -0.00794    0.01103    0.02417
 18 P    -0.00021   -0.00019   -0.00083
 19 P    -0.00793    0.01125    0.02401
 20 O     0.00035    0.00018    0.00042
 21 O    -0.00213    0.00198   -0.00480
 22 O     0.00038    0.00019    0.00022
 23 O    -0.00194    0.00202   -0.00534
 24 Li    0.00701   -0.01380   -0.02714
 25 Li   -0.00025   -0.00005    0.00018
 26 Li   -0.00067    0.00007   -0.00300
 27 Li   -0.00006    0.00003    0.00016

System changes: positions 

Initializing position-dependent things.

Density initialized from wave functions
     .-------------------------Li 
    /|                O        |  
   Li|   O      O  P           |  
  /  |P           LiOMn      O |  
 *   | O    O           Mn     |  
 |   | O        Li       O     |  
 |   .--Mn----------O----O-----.  
 | O/      MO             P   /   
 | /         P  O      O     /    
 |/       O                 /     
 *-------------------------*      

Positions:
   0 O      3.526148    0.292891    1.032214    ( 0.0000,  0.0000,  0.0000)
   1 O      1.704036    5.807052    3.401670    ( 0.0000,  0.0000,  0.0000)
   2 O      6.933663    3.342276    3.707680    ( 0.0000,  0.0000,  0.0000)
   3 O      8.756153    2.757667    1.338223    ( 0.0000,  0.0000,  0.0000)
   4 O      6.933852    5.807109    3.707786    ( 0.0000,  0.0000,  0.0000)
   5 O      8.755964    0.292948    1.338330    ( 0.0000,  0.0000,  0.0000)
   6 O      3.526337    2.757724    1.032320    ( 0.0000,  0.0000,  0.0000)
   7 O      1.703847    3.342333    3.401777    ( 0.0000,  0.0000,  0.0000)
   8 O      0.466754    1.525174    1.387562    ( 0.0000,  0.0000,  0.0000)
   9 O      4.763127    4.574826    3.756983    ( 0.0000,  0.0000,  0.0000)
  10 O      9.993246    4.574826    3.352438    ( 0.0000,  0.0000,  0.0000)
  11 O      5.696873    1.525174    0.983017    ( 0.0000,  0.0000,  0.0000)
  12 Mn     2.299237    1.524885    2.474309    ( 0.0000,  0.0000,  1.0000)
  13 Mn     2.930893    4.575115    0.104091    ( 0.0000,  0.0000, -1.0000)
  14 Mn     8.160763    4.575115    2.265691    ( 0.0000,  0.0000, -1.0000)
  15 Mn     7.529107    1.524885    4.635909    ( 0.0000,  0.0000,  1.0000)
  16 P      4.259254    1.525289    0.399241    ( 0.0000,  0.0000,  0.0000)
  17 P      0.970863    4.574711    2.768742    ( 0.0000,  0.0000,  0.0000)
  18 P      6.200746    4.574711    4.340759    ( 0.0000,  0.0000,  0.0000)
  19 P      9.489137    1.525289    1.971258    ( 0.0000,  0.0000,  0.0000)
  20 O      4.219472    1.525281    3.603789    ( 0.0000,  0.0000,  0.0000)
  21 O      1.010604    4.574718    1.233252    ( 0.0000,  0.0000,  0.0000)
  22 O      6.240528    4.574719    1.136211    ( 0.0000,  0.0000,  0.0000)
  23 O      9.449396    1.525282    3.506748    ( 0.0000,  0.0000,  0.0000)
  24 Li    -0.000000   -0.000000   -0.000000    ( 0.0000,  0.0000,  0.0000)
  25 Li     5.220000   -0.000000    2.370000    ( 0.0000,  0.0000,  0.0000)
  26 Li     0.000000    3.050000   -0.000000    ( 0.0000,  0.0000,  0.0000)
  27 Li     5.230000    3.050000    2.370000    ( 0.0000,  0.0000,  0.0000)

Unit cell:
           periodic     x           y           z      points  spacing
  1. axis:    yes   10.460000    0.000000    0.000000    60     0.1743
  2. axis:    yes    0.000000    6.100000    0.000000    35     0.1743
  3. axis:    yes    0.000000    0.000000    4.740000    27     0.1756

  Lengths:  10.460000   6.100000   4.740000
  Angles:   90.000000  90.000000  90.000000

Effective grid spacing dv^(1/3) = 0.1747

                     log10-error:           total        iterations:
           time      wfs    density  force  energy       poisson  magmom
iter:   1  08:34:01  -4.21                -225.547554             +0.0001
iter:   2  08:34:26  -5.36  -3.80         -225.547565             +0.0000
iter:   3  08:34:50  -5.54  -3.82         -225.547520             +0.0000
iter:   4  08:35:15  -6.32  -4.27         -225.547521             +0.0000
iter:   5  08:35:40  -5.92  -4.30         -225.547534             +0.0000
iter:   6  08:36:05  -6.16  -4.13         -225.547515             +0.0000
