
  ___ ___ ___ _ _ _  
 |   |   |_  | | | | 
 | | | | | . | | | | 
 |__ |  _|___|_____|  21.1.1b1
 |___|_|             

User:   madkru@a091.nifl.fysik.dtu.dk
Date:   Wed May  5 22:00:52 2021
Arch:   x86_64
Pid:    237986
Python: 3.8.6
gpaw:   /home/niflheim2/cmr/WIP/stacking/venv/gpaw/gpaw (393e8a163a)
_gpaw:  /home/niflheim2/cmr/WIP/stacking/venv/gpaw/build/lib.linux-x86_64-skylake-3.8/
        _gpaw.cpython-38-x86_64-linux-gnu.so (393e8a163a)
ase:    /home/niflheim2/cmr/WIP/stacking/venv/ase/ase (version 3.22.0b1-5e85d35a81)
numpy:  /home/modules/software/SciPy-bundle/2020.11-intel-2020b/lib/python3.8/site-packages/numpy (version 1.19.4)
scipy:  /home/modules/software/SciPy-bundle/2020.11-intel-2020b/lib/python3.8/site-packages/scipy (version 1.5.4)
libxc:  4.3.4
units:  Angstrom and eV
cores: 40
OpenMP: False
OMP_NUM_THREADS: 1

Input parameters:
  convergence: {density: 1e-09}
  experimental: {magmoms: [[0. 0. 0.]
 [0. 0. 0.]
 [0. 0. 0.]
 ...
 [0. 0. 0.]
 [0. 0. 0.]
 [0. 0. 0.]],
                 soc: True}
  kpts: [4 4 6]
  maxiter: 5000
  mixer: {backend: pulay,
          beta: 0.05,
          method: difference,
          nmaxold: 3,
          weight: 100}
  mode: {ecut: 600.0,
         gammacentered: False,
         name: pw}
  occupations: {fixmagmom: False,
                name: fermi-dirac,
                width: 0.001}
  symmetry: off

System changes: positions, numbers, cell, pbc, initial_charges, initial_magmoms 

Initialize ...

O-setup:
  name: Oxygen
  id: 9b9d51c344dea68c822856295a461509
  Z: 8.0
  valence: 6
  core: 2
  charge: 0.0
  file: /home/modules/software/GPAW-setups/0.9.20000/O.LDA.gz
  compensation charges: gauss, rc=0.21, lmax=2
  cutoffs: 1.17(filt), 0.83(core),
  valence states:
                energy  radius
    2s(2.00)   -23.752   0.688
    2p(4.00)    -9.195   0.598
    *s           3.459   0.688
    *p          18.016   0.598
    *d           0.000   0.619

  Using partial waves for O as LCAO basis

Mn-setup:
  name: Manganese
  id: 0d715a8018be061a6e9ea6f2d364ac92
  Z: 25.0
  valence: 15
  core: 10
  charge: 0.0
  file: /home/modules/software/GPAW-setups/0.9.20000/Mn.LDA.gz
  compensation charges: gauss, rc=0.38, lmax=2
  cutoffs: 2.14(filt), 0.86(core),
  valence states:
                energy  radius
    3s(2.00)   -85.387   1.275
    4s(2.00)    -5.282   1.275
    3p(6.00)   -54.493   1.281
    4p(0.00)    -1.471   1.281
    3d(5.00)    -7.009   1.138
    *d          20.203   1.138

  Using partial waves for Mn as LCAO basis

P-setup:
  name: Phosphorus
  id: a5561c299094968922a179ab894d2e2d
  Z: 15.0
  valence: 5
  core: 10
  charge: 0.0
  file: /home/modules/software/GPAW-setups/0.9.20000/P.LDA.gz
  compensation charges: gauss, rc=0.30, lmax=2
  cutoffs: 1.69(filt), 1.81(core),
  valence states:
                energy  radius
    3s(2.00)   -14.015   0.953
    3p(3.00)    -5.596   0.953
    *s          13.197   0.953
    *p          21.615   0.953
    *d           0.000   0.953

  Using partial waves for P as LCAO basis

Li-setup:
  name: Lithium
  id: b73562207f97a71b6967473b66fe8b65
  Z: 3.0
  valence: 1
  core: 2
  charge: 0.0
  file: /home/modules/software/GPAW-setups/0.9.20000/Li.LDA.gz
  compensation charges: gauss, rc=0.33, lmax=2
  cutoffs: 1.91(filt), 2.55(core),
  valence states:
                energy  radius
    2s(1.00)    -2.874   1.058
    2p(0.00)    -1.126   1.058
    *s          24.338   1.058

  Using partial waves for Li as LCAO basis

Reference energy: -196157.275402

Non-collinear calculation.
Magnetic moment: (0.000000, 0.000000, 0.000000)

Convergence criteria:
  Maximum total energy change: 0.0005 eV / electron
  Maximum integral of absolute density change: 1e-09 electrons
  Maximum integral of absolute eigenstate change: 4e-08 eV^2
  Maximum number of iterations: 5000

Symmetries present (total): 1

  ( 1  0  0)
  ( 0  1  0)
  ( 0  0  1)

96 k-points: 4 x 4 x 6 Monkhorst-Pack grid
96 k-points in the irreducible part of the Brillouin zone
       k-points in crystal coordinates                weights
   0:    -0.37500000   -0.37500000   -0.41666667          1/96
   1:    -0.37500000   -0.37500000   -0.25000000          1/96
   2:    -0.37500000   -0.37500000   -0.08333333          1/96
   3:    -0.37500000   -0.37500000    0.08333333          1/96
   4:    -0.37500000   -0.37500000    0.25000000          1/96
   5:    -0.37500000   -0.37500000    0.41666667          1/96
   6:    -0.37500000   -0.12500000   -0.41666667          1/96
   7:    -0.37500000   -0.12500000   -0.25000000          1/96
   8:    -0.37500000   -0.12500000   -0.08333333          1/96
   9:    -0.37500000   -0.12500000    0.08333333          1/96
          ...
  95:     0.37500000    0.37500000    0.41666667          1/96

Wave functions: Plane wave expansion
  Cutoff energy: 600.000 eV
  Number of coefficients (min, max): 10065, 10119
  Pulay-stress correction: 0.000000 eV/Ang^3 (de/decut=0.000000)
  Using FFTW library
  ScaLapack parameters: grid=1x1, blocksize=None
  Wavefunction extrapolation:
    Improved wavefunction reuse through dual PAW basis 

  Fermi-Dirac: width=0.0010 eV

Eigensolver
   Davidson(niter=2) 

Densities:
  Coarse grid: 60*35*27 grid
  Fine grid: 120*70*54 grid
  Total Charge: 0.000000 

Density mixing:
  Method: difference
  Backend: pulay
  Linear mixing parameter: 0.05
  Mixing with 3 old densities
  Damping of long wave oscillations: 100 

Hamiltonian:
  XC and Coulomb potentials evaluated on a 120*70*54 grid
  Using the LDA Exchange-Correlation functional
 

Memory estimate:
  Process memory now: 222.05 MiB
  Calculator: 167.16 MiB
    Density: 37.88 MiB
      Arrays: 11.25 MiB
      Localized functions: 18.84 MiB
      Mixer: 7.79 MiB
    Hamiltonian: 7.90 MiB
      Arrays: 7.35 MiB
      XC: 0.00 MiB
      Poisson: 0.00 MiB
      vbar: 0.54 MiB
    Wavefunctions: 121.39 MiB
      Arrays psit_nG: 69.17 MiB
      Eigensolver: 43.02 MiB
      Projections: 2.41 MiB
      Projectors: 4.31 MiB
      PW-descriptor: 2.47 MiB

Total number of cores used: 40
Parallelization over k-points: 40

Number of atoms: 28
Number of atomic orbitals: 148
Number of bands in calculation: 224
Number of valence electrons: 180
Bands to converge: occupied

... initialized

Initializing position-dependent things.

Density initialized from atomic densities
Creating initial wave functions:
  148 bands from LCAO basis set
  76 bands from random numbers

     .-------------------------.  
    /|             P  O        |  
   / |   O      O            Li|  
  /  |              OMn      O |  
 *   |PO     O          Mn Li  |  
 |   | O        Li        O    |  
 |   .--Mn----------O----------.  
 | O/      MO Li         OP   /   
 | /      O  P  O      O     /    
 |/                         /     
 *-------------------------*      

Positions:
   0 O      3.553408    0.289339    1.041391    ( 0.0000,  0.0000,  0.0000)
   1 O      1.731289    5.803543    3.392440    ( 0.0000,  0.0000,  0.0000)
   2 O      6.960913    3.345834    3.716782    ( 0.0000,  0.0000,  0.0000)
   3 O      8.783373    2.761147    1.329059    ( 0.0000,  0.0000,  0.0000)
   4 O      6.961067    5.803623    3.716968    ( 0.0000,  0.0000,  0.0000)
   5 O      8.783257    0.289377    1.329105    ( 0.0000,  0.0000,  0.0000)
   6 O      3.553531    2.761196    1.041432    ( 0.0000,  0.0000,  0.0000)
   7 O      1.731121    3.345897    3.392625    ( 0.0000,  0.0000,  0.0000)
   8 O      0.484573    1.525197    1.374690    ( 0.0000,  0.0000,  0.0000)
   9 O      4.780951    4.574839    3.769897    ( 0.0000,  0.0000,  0.0000)
  10 O     10.011065    4.574836    3.339559    ( 0.0000,  0.0000,  0.0000)
  11 O      5.714696    1.525203    0.995928    ( 0.0000,  0.0000,  0.0000)
  12 Mn     2.266260    1.524887    2.468368    ( 0.0000,  0.0000,  0.0000)
  13 Mn     2.897915    4.575084    0.109979    ( 5.0000,  0.0000,  0.0000)
  14 Mn     8.127789    4.575083    2.259743    (-5.0000,  0.0000,  0.0000)
  15 Mn     7.496126    1.524892    4.641790    (-5.0000,  0.0000,  0.0000)
  16 P      4.272386    1.525255    0.408860    ( 5.0000,  0.0000,  0.0000)
  17 P      0.983980    4.574717    2.759111    ( 0.0000,  0.0000,  0.0000)
  18 P      6.213879    4.574720    4.350380    ( 0.0000,  0.0000,  0.0000)
  19 P      9.502251    1.525253    1.961629    ( 0.0000,  0.0000,  0.0000)
  20 O      4.244557    1.525217    3.611969    ( 0.0000,  0.0000,  0.0000)
  21 O      1.035589    4.574650    1.225049    ( 0.0000,  0.0000,  0.0000)
  22 O      6.265617    4.574646    1.144394    ( 0.0000,  0.0000,  0.0000)
  23 O      9.474375    1.525223    3.498545    ( 0.0000,  0.0000,  0.0000)
  24 Li    -0.077675    0.009537   -0.034935    ( 0.0000,  0.0000,  0.0000)
  25 Li     5.152396    0.009711    2.405146    ( 0.0000,  0.0000,  0.0000)
  26 Li    -0.077389    3.040564   -0.034757    ( 0.0000,  0.0000,  0.0000)
  27 Li     5.152701    3.040484    2.404876    ( 0.0000,  0.0000,  0.0000)

Unit cell:
           periodic     x           y           z      points  spacing
  1. axis:    yes   10.460000    0.000000    0.000000    60     0.1743
  2. axis:    yes    0.000000    6.100000    0.000000    35     0.1743
  3. axis:    yes    0.000000    0.000000    4.740000    27     0.1756

  Lengths:  10.460000   6.100000   4.740000
  Angles:   90.000000  90.000000  90.000000

Effective grid spacing dv^(1/3) = 0.1747

                     log10-error:    total        iterations:
           time      wfs    density  energy       poisson
iter:   1  22:03:08                -248.788983            -1.0,+0.0,+0.0
iter:   2  22:03:39  -0.43  -0.91  -254.874866            +0.5,+0.0,-0.0
iter:   3  22:04:09  -1.03  -0.96  -241.797488            +0.0,+0.0,-0.0
iter:   4  22:04:39  -1.03  -1.00  -235.565070            -0.0,+0.0,-0.0
iter:   5  22:05:09  -0.72  -1.10  -230.808796            -0.0,+0.0,+0.0
iter:   6  22:05:39  -1.69  -1.29  -222.023059            -0.0,+0.0,-0.0
iter:   7  22:06:09  -2.54  -1.39  -222.016260            -0.1,+0.0,-0.0
iter:   8  22:06:39  -2.54  -1.39  -221.971949            -0.1,+0.0,-0.1
iter:   9  22:07:09  -2.11  -1.40  -221.818914            -0.6,+0.0,-0.0
iter:  10  22:07:39  -1.97  -1.51  -226.363955            -0.8,+0.0,+0.1
iter:  11  22:08:09  -2.25  -1.38  -221.209966            -0.5,+0.0,+0.1
iter:  12  22:08:40  -2.81  -1.66  -221.081743            -0.5,+0.0,+0.0
iter:  13  22:09:10  -3.52  -1.70  -221.214575            -0.9,+0.0,+0.1
iter:  14  22:09:40  -2.42  -1.69  -221.591838            -1.0,+0.0,+0.1
iter:  15  22:10:10  -2.97  -1.82  -222.049333            -2.0,+0.0,+0.1
iter:  16  22:10:40  -3.03  -1.86  -222.430865            -3.2,+0.0,+0.1
iter:  17  22:11:10  -3.19  -1.98  -223.193188            -4.1,+0.0,+0.0
iter:  18  22:11:40  -2.69  -1.94  -225.006790            -6.7,+0.0,+0.0
iter:  19  22:12:10  -3.40  -1.90  -225.758431            -7.6,+0.0,+0.1
iter:  20  22:12:40  -2.74  -1.88  -226.519514            -10.3,+0.0,+0.1
iter:  21  22:13:10  -2.66  -1.89  -226.318796            -9.9,+0.0,+0.2
iter:  22  22:13:40  -2.91  -2.14  -226.281512            -10.0,-0.0,+0.3
iter:  23  22:14:10  -2.70  -2.29  -226.185028            -10.0,-0.0,+0.4
iter:  24  22:14:40  -4.03  -2.40  -226.172251            -10.0,-0.0,+0.4
iter:  25  22:15:10  -3.18  -2.42  -226.152906            -10.0,-0.0,+0.4
iter:  26  22:15:40  -3.74  -2.43  -226.138698            -10.0,-0.0,+0.4
iter:  27  22:16:10  -4.37  -2.46  -226.132910            -10.0,-0.0,+0.4
iter:  28  22:16:40  -3.91  -2.48  -226.130548            -10.0,-0.0,+0.4
iter:  29  22:17:10  -4.43  -2.51  -226.128570            -10.0,-0.0,+0.4
iter:  30  22:17:40  -4.33  -2.63  -226.127753            -10.0,-0.0,+0.4
iter:  31  22:18:10  -3.75  -2.85  -226.119685            -10.0,-0.0,+0.4
iter:  32  22:18:40  -4.73  -3.54  -226.119682            -10.0,-0.0,+0.4
iter:  33  22:19:10  -5.30  -3.54  -226.119475            -10.0,-0.0,+0.4
iter:  34  22:19:40  -5.55  -3.67  -226.119382            -10.0,-0.0,+0.4
iter:  35  22:20:10  -5.92  -3.65  -226.119245            -10.0,-0.0,+0.4
iter:  36  22:20:40  -6.44  -3.66  -226.119235            -10.0,-0.0,+0.4
iter:  37  22:21:09  -5.87  -3.68  -226.119146            -10.0,-0.0,+0.4
iter:  38  22:21:39  -6.26  -4.18  -226.119150            -10.0,-0.0,+0.4
iter:  39  22:22:09  -6.59  -4.27  -226.119166            -10.0,-0.0,+0.4
iter:  40  22:22:39  -6.60  -4.33  -226.119161            -10.0,-0.0,+0.4
iter:  41  22:23:09  -7.11  -4.46  -226.119160            -10.0,-0.0,+0.4
iter:  42  22:23:39  -7.21  -4.49  -226.119152            -10.0,-0.0,+0.4
iter:  43  22:24:08  -7.03  -4.53  -226.119137            -10.0,-0.0,+0.4
iter:  44  22:24:38  -5.32  -4.59  -226.119275            -10.0,-0.0,+0.4
iter:  45  22:25:08  -5.56  -4.68  -226.119370            -10.0,-0.0,+0.5
iter:  46  22:25:38  -6.25  -4.71  -226.119324            -10.0,-0.0,+0.5
iter:  47  22:26:08  -5.09  -4.80  -226.119471            -10.0,-0.0,+0.5
iter:  48  22:26:37  -6.20  -4.80  -226.119479            -10.0,-0.0,+0.5
iter:  49  22:27:07  -6.18  -4.87  -226.119595            -10.0,-0.0,+0.5
iter:  50  22:27:37  -5.56  -4.94  -226.119424            -9.9,-0.0,+0.5
iter:  51  22:28:07  -5.12  -4.80  -226.119741            -9.9,-0.0,+0.5
iter:  52  22:28:37  -5.00  -4.95  -226.120028            -9.9,-0.0,+0.5
iter:  53  22:29:06  -5.43  -4.97  -226.120058            -9.9,-0.0,+0.5
iter:  54  22:29:36  -6.03  -4.98  -226.120170            -9.9,-0.0,+0.5
iter:  55  22:30:06  -6.17  -5.33  -226.120332            -9.9,-0.0,+0.5
iter:  56  22:30:36  -5.31  -5.19  -226.119935            -9.9,-0.0,+0.5
iter:  57  22:31:05  -4.67  -4.79  -226.120678            -9.9,-0.0,+0.5
iter:  58  22:31:35  -4.99  -5.30  -226.120992            -9.9,-0.0,+0.5
iter:  59  22:32:05  -5.55  -5.16  -226.120766            -9.9,-0.0,+0.5
iter:  60  22:32:34  -6.00  -4.86  -226.121284            -9.9,-0.0,+0.5
iter:  61  22:33:04  -6.32  -5.14  -226.121459            -9.8,-0.0,+0.5
iter:  62  22:33:34  -5.50  -5.03  -226.121051            -9.8,-0.0,+0.5
iter:  63  22:34:04  -4.59  -4.72  -226.121991            -9.8,-0.0,+0.5
iter:  64  22:34:33  -5.10  -5.11  -226.122248            -9.8,-0.0,+0.5
iter:  65  22:35:03  -5.96  -4.93  -226.121852            -9.9,-0.0,+0.5
iter:  66  22:35:33  -6.06  -4.78  -226.122749            -9.8,-0.0,+0.5
iter:  67  22:36:02  -6.62  -4.88  -226.122859            -9.8,-0.0,+0.5
iter:  68  22:36:32  -5.69  -4.81  -226.122465            -9.7,-0.0,+0.5
iter:  69  22:37:02  -4.40  -4.70  -226.123576            -9.8,-0.0,+0.4
iter:  70  22:37:31  -5.54  -4.76  -226.123678            -9.8,-0.0,+0.4
iter:  71  22:38:01  -5.69  -4.81  -226.120101            -9.9,-0.0,+0.4
iter:  72  22:38:31  -5.31  -4.35  -226.124370            -9.7,-0.0,+0.4
iter:  73  22:39:00  -6.62  -4.60  -226.124374            -9.7,-0.0,+0.4
iter:  74  22:39:30  -6.91  -4.58  -226.124374            -9.7,-0.0,+0.4
iter:  75  22:40:00  -6.28  -4.61  -226.124442            -9.7,-0.0,+0.4
iter:  76  22:40:30  -4.62  -4.81  -226.124864            -9.7,-0.0,+0.5
iter:  77  22:40:59  -4.91  -4.95  -226.124949            -9.7,-0.0,+0.6
iter:  78  22:41:29  -5.74  -5.10  -226.124953            -9.7,-0.0,+0.6
iter:  79  22:41:59  -6.14  -5.00  -226.125179            -9.6,-0.0,+0.6
iter:  80  22:42:28  -5.86  -5.11  -226.125587            -9.5,-0.0,+0.6
iter:  81  22:42:58  -6.39  -4.54  -226.125732            -9.6,-0.0,+0.6
iter:  82  22:43:28  -5.24  -4.71  -226.126033            -9.6,-0.0,+0.6
iter:  83  22:43:57  -4.14  -4.81  -226.125786            -9.6,-0.0,+0.8
iter:  84  22:44:27  -4.86  -4.63  -226.126255            -9.6,-0.0,+0.7
iter:  85  22:44:57  -6.73  -4.89  -226.126380            -9.6,-0.0,+0.7
iter:  86  22:45:27  -6.05  -4.87  -226.126899            -9.5,-0.0,+0.7
iter:  87  22:45:56  -6.29  -4.66  -226.127029            -9.5,-0.0,+0.7
iter:  88  22:46:26  -4.67  -4.63  -226.127597            -9.4,-0.0,+0.8
iter:  89  22:46:56  -5.36  -4.84  -226.127386            -9.5,-0.0,+0.8
iter:  90  22:47:25  -6.14  -4.81  -226.127930            -9.4,-0.0,+0.8
iter:  91  22:47:55  -6.21  -4.86  -226.128289            -9.4,-0.0,+0.8
iter:  92  22:48:25  -6.28  -4.61  -226.128142            -9.3,-0.0,+0.8
iter:  93  22:48:54  -5.30  -4.46  -226.128602            -9.4,-0.0,+0.8
iter:  94  22:49:24  -5.01  -4.68  -226.128893            -9.3,-0.0,+0.8
iter:  95  22:49:54  -5.81  -4.96  -226.128712            -9.4,-0.0,+0.8
iter:  96  22:50:23  -6.35  -5.00  -226.129309            -9.3,-0.0,+0.8
iter:  97  22:50:53  -6.28  -4.84  -226.129632            -9.3,-0.0,+0.8
iter:  98  22:51:23  -6.58  -4.55  -226.129511            -9.2,-0.0,+0.8
iter:  99  22:51:52  -5.35  -4.45  -226.129994            -9.2,-0.0,+0.8
iter: 100  22:52:22  -5.13  -4.65  -226.130258            -9.2,-0.0,+0.8
iter: 101  22:52:52  -6.09  -4.91  -226.130121            -9.2,-0.0,+0.8
iter: 102  22:53:21  -6.36  -5.07  -226.130732            -9.2,-0.0,+0.8
iter: 103  22:53:51  -6.36  -4.74  -226.131011            -9.1,-0.0,+0.8
iter: 104  22:54:21  -6.86  -4.48  -226.130918            -9.1,-0.0,+0.8
iter: 105  22:54:50  -5.45  -4.44  -226.131414            -9.1,-0.0,+0.8
iter: 106  22:55:20  -5.23  -4.64  -226.131669            -9.1,-0.0,+0.8
iter: 107  22:55:50  -6.35  -4.99  -226.131577            -9.1,-0.0,+0.8
iter: 108  22:56:19  -6.33  -5.16  -226.132213            -9.1,-0.0,+0.8
iter: 109  22:56:49  -6.44  -4.64  -226.132428            -9.0,-0.0,+0.8
iter: 110  22:57:19  -7.36  -4.43  -226.132373            -9.0,-0.0,+0.8
iter: 111  22:57:49  -5.61  -4.40  -226.132854            -9.0,-0.0,+0.8
iter: 112  22:58:18  -5.36  -4.58  -226.133109            -9.0,-0.0,+0.8
iter: 113  22:58:48  -6.53  -4.93  -226.133063            -9.0,-0.0,+0.8
iter: 114  22:59:18  -6.44  -5.06  -226.133609            -9.0,-0.0,+0.8
iter: 115  22:59:47  -6.39  -4.65  -226.133855            -8.9,-0.0,+0.8
iter: 116  23:00:17  -7.45  -4.40  -226.133859            -8.9,-0.0,+0.8
iter: 117  23:00:47  -5.89  -4.40  -226.133844            -8.9,-0.0,+0.8
iter: 118  23:01:16  -5.30  -4.45  -226.133834            -8.9,-0.0,+1.0
iter: 119  23:01:46  -5.40  -4.48  -226.133701            -8.9,-0.0,+1.1
iter: 120  23:02:16  -6.34  -4.52  -226.133828            -8.9,-0.0,+1.1
iter: 121  23:02:45  -5.49  -4.60  -226.134559            -8.9,-0.0,+1.1
iter: 122  23:03:15  -5.56  -4.83  -226.135092            -8.8,-0.0,+1.1
iter: 123  23:03:44  -5.93  -5.03  -226.133416            -8.9,-0.0,+1.1
iter: 124  23:04:14  -5.60  -4.60  -226.135820            -8.7,-0.0,+1.1
iter: 125  23:04:44  -6.33  -4.59  -226.136067            -8.7,-0.0,+1.1
iter: 126  23:05:13  -5.47  -4.51  -226.134473            -8.7,-0.0,+1.1
iter: 127  23:05:43  -4.99  -4.26  -226.136587            -8.7,-0.0,+1.1
iter: 128  23:06:13  -5.80  -4.67  -226.136834            -8.7,-0.0,+1.1
iter: 129  23:06:42  -5.87  -4.75  -226.135166            -8.8,-0.0,+1.1
iter: 130  23:07:12  -5.67  -4.63  -226.137374            -8.6,-0.0,+1.1
iter: 131  23:07:42  -6.34  -4.51  -226.137616            -8.6,-0.0,+1.1
iter: 132  23:08:11  -5.50  -4.46  -226.136056            -8.6,-0.0,+1.1
iter: 133  23:08:41  -4.98  -4.24  -226.138178            -8.6,-0.0,+1.0
iter: 134  23:09:11  -5.76  -4.62  -226.138430            -8.6,-0.0,+1.0
iter: 135  23:09:40  -5.86  -4.76  -226.136704            -8.7,-0.0,+1.0
iter: 136  23:10:10  -5.58  -4.79  -226.138998            -8.5,-0.0,+1.0
iter: 137  23:10:40  -6.33  -4.50  -226.139228            -8.5,-0.0,+1.0
iter: 138  23:11:09  -5.44  -4.44  -226.137590            -8.5,-0.0,+1.1
iter: 139  23:11:39  -4.90  -4.20  -226.139817            -8.5,-0.0,+1.0
iter: 140  23:12:09  -5.75  -4.64  -226.140056            -8.5,-0.0,+0.9
iter: 141  23:12:38  -5.84  -4.71  -226.138279            -8.6,-0.0,+0.9
iter: 142  23:13:08  -5.53  -4.91  -226.140643            -8.4,-0.0,+0.9
iter: 143  23:13:38  -6.32  -4.43  -226.140857            -8.4,-0.0,+0.9
iter: 144  23:14:07  -5.40  -4.38  -226.139214            -8.4,-0.0,+1.0
iter: 145  23:14:37  -4.85  -4.16  -226.141467            -8.4,-0.0,+0.9
iter: 146  23:15:07  -5.74  -4.56  -226.141689            -8.4,-0.0,+0.8
iter: 147  23:15:36  -5.84  -4.62  -226.139898            -8.5,-0.0,+0.8
iter: 148  23:16:06  -5.48  -5.08  -226.142297            -8.4,-0.0,+0.8
iter: 149  23:16:36  -6.32  -4.37  -226.142493            -8.3,-0.0,+0.8
iter: 150  23:17:05  -5.40  -4.32  -226.140890            -8.3,-0.0,+0.9
iter: 151  23:17:35  -4.82  -4.13  -226.143119            -8.3,-0.0,+0.8
iter: 152  23:18:04  -5.75  -4.48  -226.143320            -8.3,-0.0,+0.7
iter: 153  23:18:34  -5.86  -4.53  -226.141523            -8.4,-0.0,+0.7
iter: 154  23:19:03  -5.45  -5.16  -226.143951            -8.3,-0.0,+0.7
iter: 155  23:19:33  -6.35  -4.31  -226.144123            -8.2,-0.0,+0.7
iter: 156  23:20:03  -5.38  -4.26  -226.142472            -8.2,-0.0,+0.8
iter: 157  23:20:32  -4.78  -4.10  -226.144764            -8.2,+0.0,+0.7
iter: 158  23:21:02  -5.76  -4.47  -226.144945            -8.2,+0.0,+0.6
iter: 159  23:21:31  -5.89  -4.51  -226.143201            -8.3,+0.0,+0.6
iter: 160  23:22:01  -5.41  -5.04  -226.145607            -8.2,+0.0,+0.6
iter: 161  23:22:30  -6.39  -4.28  -226.145743            -8.1,+0.0,+0.6
iter: 162  23:23:00  -5.38  -4.24  -226.144063            -8.1,-0.0,+0.7
iter: 163  23:23:29  -4.76  -4.08  -226.146409            -8.1,+0.0,+0.6
iter: 164  23:23:59  -5.83  -4.43  -226.146555            -8.1,+0.0,+0.5
iter: 165  23:24:28  -5.83  -4.46  -226.144546            -8.2,+0.0,+0.5
iter: 166  23:24:58  -5.33  -5.04  -226.147244            -8.1,+0.0,+0.5
iter: 167  23:25:27  -6.40  -4.22  -226.147351            -8.0,+0.0,+0.5
iter: 168  23:25:57  -5.47  -4.19  -226.145838            -8.0,+0.0,+0.6
iter: 169  23:26:27  -4.80  -4.07  -226.148045            -8.0,+0.0,+0.5
iter: 170  23:26:56  -5.95  -4.33  -226.148153            -8.0,+0.0,+0.4
iter: 171  23:27:26  -5.74  -4.35  -226.145859            -8.1,+0.0,+0.4
iter: 172  23:27:55  -5.23  -4.74  -226.148869            -7.9,+0.0,+0.4
iter: 173  23:28:25  -6.40  -4.15  -226.148951            -7.9,+0.0,+0.4
iter: 174  23:28:54  -5.34  -4.14  -226.146985            -7.9,+0.0,+0.5
iter: 175  23:29:24  -4.70  -4.00  -226.149676            -7.9,+0.0,+0.4
iter: 176  23:29:53  -5.96  -4.34  -226.149763            -7.9,+0.0,+0.4
iter: 177  23:30:23  -4.73  -4.36  -226.147419            -7.6,+0.0,+0.4
iter: 178  23:30:53  -5.11  -3.87  -226.150537            -7.8,+0.0,+0.4
iter: 179  23:31:22  -6.51  -4.11  -226.150515            -7.8,+0.0,+0.4
iter: 180  23:31:52  -5.16  -4.12  -226.148388            -7.8,+0.0,+0.5
iter: 181  23:32:21  -4.64  -3.98  -226.151301            -7.8,+0.0,+0.3
iter: 182  23:32:51  -5.93  -4.25  -226.151317            -7.8,+0.0,+0.3
iter: 183  23:33:20  -6.35  -4.28  -226.151409            -7.8,+0.0,+0.3
iter: 184  23:33:50  -6.48  -4.22  -226.151795            -7.8,+0.0,+0.3
iter: 185  23:34:19  -6.17  -4.22  -226.152128            -7.7,+0.0,+0.3
iter: 186  23:34:49  -6.29  -4.08  -226.152009            -7.7,+0.0,+0.3
iter: 187  23:35:18  -6.02  -4.13  -226.152478            -7.7,+0.0,+0.3
iter: 188  23:35:48  -5.51  -4.17  -226.152906            -7.7,+0.0,+0.3
iter: 189  23:36:17  -6.37  -4.25  -226.152820            -7.7,+0.0,+0.3
iter: 190  23:36:47  -6.28  -4.29  -226.153280            -7.7,+0.0,+0.3
iter: 191  23:37:17  -5.99  -4.35  -226.153701            -7.6,+0.0,+0.3
iter: 192  23:37:46  -6.51  -4.24  -226.153639            -7.6,+0.0,+0.3
iter: 193  23:38:16  -6.22  -4.06  -226.154059            -7.6,+0.0,+0.3
iter: 194  23:38:45  -5.52  -4.24  -226.154516            -7.6,+0.0,+0.3
iter: 195  23:39:15  -6.53  -4.40  -226.154415            -7.6,+0.0,+0.3
iter: 196  23:39:44  -6.31  -4.54  -226.154968            -7.6,+0.0,+0.3
iter: 197  23:40:14  -6.14  -4.46  -226.155351            -7.5,+0.0,+0.3
iter: 198  23:40:43  -6.65  -4.34  -226.155265            -7.5,+0.0,+0.3
iter: 199  23:41:13  -6.26  -4.19  -226.155706            -7.5,+0.0,+0.3
iter: 200  23:41:42  -5.64  -4.20  -226.156162            -7.5,+0.0,+0.2
iter: 201  23:42:12  -6.57  -4.43  -226.156072            -7.5,+0.0,+0.2
iter: 202  23:42:42  -6.03  -4.49  -226.156610            -7.4,+0.0,+0.2
iter: 203  23:43:11  -5.99  -4.72  -226.156965            -7.4,+0.0,+0.2
iter: 204  23:43:41  -6.87  -4.65  -226.156866            -7.4,+0.0,+0.2
iter: 205  23:44:10  -6.19  -4.58  -226.157374            -7.4,+0.0,+0.2
iter: 206  23:44:40  -5.75  -4.66  -226.157779            -7.4,+0.0,+0.2
iter: 207  23:45:09  -6.72  -4.84  -226.157693            -7.4,+0.0,+0.2
iter: 208  23:45:39  -6.37  -4.86  -226.158214            -7.3,+0.0,+0.2
iter: 209  23:46:08  -6.03  -4.86  -226.158576            -7.2,+0.0,+0.2
iter: 210  23:46:38  -6.99  -4.59  -226.158490            -7.2,+0.0,+0.2
iter: 211  23:47:07  -6.20  -4.53  -226.159013            -7.2,+0.0,+0.2
iter: 212  23:47:37  -5.79  -4.69  -226.159392            -7.2,+0.0,+0.2
iter: 213  23:48:07  -6.70  -5.02  -226.159317            -7.2,+0.0,+0.2
iter: 214  23:48:36  -6.42  -5.10  -226.159815            -7.2,+0.0,+0.2
iter: 215  23:49:06  -6.01  -4.69  -226.160190            -7.1,+0.0,+0.2
iter: 216  23:49:35  -6.95  -4.43  -226.160116            -7.1,+0.0,+0.2
iter: 217  23:50:05  -6.34  -4.38  -226.160582            -7.1,+0.0,+0.2
iter: 218  23:50:34  -5.77  -4.47  -226.161007            -7.1,+0.0,+0.2
iter: 219  23:51:04  -6.76  -4.74  -226.160943            -7.1,+0.0,+0.2
iter: 220  23:51:33  -6.42  -4.86  -226.161402            -7.1,+0.0,+0.2
iter: 221  23:52:03  -5.99  -4.60  -226.161810            -7.0,+0.0,+0.2
iter: 222  23:52:32  -6.88  -4.37  -226.161745            -7.0,+0.0,+0.2
iter: 223  23:53:02  -6.50  -4.32  -226.162150            -7.0,+0.0,+0.2
iter: 224  23:53:31  -5.77  -4.41  -226.162628            -7.0,+0.0,+0.2
iter: 225  23:54:01  -6.71  -4.64  -226.162572            -7.0,+0.0,+0.2
iter: 226  23:54:30  -6.56  -4.70  -226.162978            -6.9,+0.0,+0.2
iter: 227  23:55:00  -5.92  -4.52  -226.163438            -6.9,+0.0,+0.2
iter: 228  23:55:30  -6.80  -4.33  -226.163380            -6.8,+0.0,+0.2
iter: 229  23:55:59  -6.64  -4.28  -226.163743            -6.8,+0.0,+0.2
iter: 230  23:56:29  -5.78  -4.34  -226.164257            -6.8,+0.0,+0.2
iter: 231  23:56:58  -6.69  -4.54  -226.164205            -6.8,+0.0,+0.2
iter: 232  23:57:28  -6.59  -4.57  -226.164593            -6.8,+0.0,+0.2
iter: 233  23:57:57  -5.81  -4.47  -226.165074            -6.7,+0.0,+0.2
iter: 234  23:58:27  -6.68  -4.24  -226.165027            -6.7,+0.0,+0.2
iter: 235  23:58:56  -6.56  -4.23  -226.165363            -6.7,+0.0,+0.2
iter: 236  23:59:26  -5.86  -4.29  -226.165844            -6.7,+0.0,+0.2
iter: 237  23:59:55  -6.66  -4.52  -226.165838            -6.7,+0.0,+0.2
iter: 238  00:00:25  -6.87  -4.52  -226.166053            -6.7,+0.0,+0.2
iter: 239  00:00:54  -5.61  -4.52  -226.166618            -6.6,+0.0,+0.2
iter: 240  00:01:24  -6.97  -4.32  -226.166632            -6.6,+0.0,+0.2
iter: 241  00:01:53  -5.90  -4.34  -226.166820            -6.6,+0.0,+0.2
iter: 242  00:02:23  -6.31  -4.40  -226.167221            -6.6,+0.0,+0.2
iter: 243  00:02:52  -6.10  -4.55  -226.167487            -6.6,+0.0,+0.2
iter: 244  00:03:22  -7.05  -4.69  -226.167501            -6.6,+0.0,+0.2
iter: 245  00:03:51  -6.53  -4.73  -226.167570            -6.6,+0.0,+0.2
iter: 246  00:04:21  -6.56  -4.70  -226.167903            -6.5,+0.0,+0.2
iter: 247  00:04:50  -6.00  -4.68  -226.168281            -6.4,+0.0,+0.2
iter: 248  00:05:20  -6.88  -4.52  -226.168311            -6.4,+0.0,+0.2
iter: 249  00:05:49  -6.47  -4.47  -226.168653            -6.4,+0.0,+0.2
iter: 250  00:06:19  -6.09  -4.49  -226.169052            -6.4,+0.0,+0.2
iter: 251  00:06:48  -6.71  -4.68  -226.169183            -6.4,+0.0,+0.2
iter: 252  00:07:18  -6.21  -4.75  -226.168498            -6.5,+0.0,+0.2
iter: 253  00:07:47  -5.43  -4.76  -226.169773            -6.3,+0.0,+0.2
iter: 254  00:08:17  -6.18  -4.55  -226.169936            -6.3,+0.0,+0.2
iter: 255  00:08:46  -6.37  -4.48  -226.169428            -6.3,+0.0,+0.2
iter: 256  00:09:16  -5.72  -4.34  -226.170570            -6.3,+0.0,+0.2
iter: 257  00:09:45  -6.01  -4.58  -226.170874            -6.3,+0.0,+0.2
iter: 258  00:10:15  -6.46  -4.68  -226.170498            -6.3,+0.0,+0.3
iter: 259  00:10:44  -5.71  -4.81  -226.171444            -6.2,+0.0,+0.3
iter: 260  00:11:14  -6.02  -4.57  -226.171724            -6.1,+0.0,+0.3
iter: 261  00:11:43  -6.43  -4.42  -226.171337            -6.1,+0.0,+0.2
iter: 262  00:12:13  -5.74  -4.32  -226.172282            -6.1,+0.0,+0.3
iter: 263  00:12:42  -5.95  -4.56  -226.172585            -6.1,+0.0,+0.3
iter: 264  00:13:12  -6.42  -4.71  -226.172237            -6.1,+0.0,+0.3
iter: 265  00:13:41  -5.73  -4.96  -226.173130            -6.0,+0.0,+0.3
iter: 266  00:14:10  -5.97  -4.49  -226.173423            -6.0,+0.0,+0.3
iter: 267  00:14:40  -6.29  -4.36  -226.173047            -5.9,+0.0,+0.3
iter: 268  00:15:09  -5.69  -4.29  -226.173968            -6.0,+0.0,+0.3
iter: 269  00:15:39  -5.82  -4.50  -226.174314            -5.9,+0.0,+0.3
iter: 270  00:16:08  -6.29  -4.61  -226.173986            -6.0,+0.0,+0.3
iter: 271  00:16:38  -5.73  -4.90  -226.174844            -5.9,+0.0,+0.3
iter: 272  00:17:07  -5.91  -4.51  -226.175161            -5.8,+0.0,+0.3
iter: 273  00:17:37  -6.25  -4.35  -226.174797            -5.8,+0.0,+0.3
iter: 274  00:18:06  -5.66  -4.25  -226.175699            -5.8,-0.0,+0.3
iter: 275  00:18:35  -5.73  -4.45  -226.176071            -5.8,-0.0,+0.3
iter: 276  00:19:05  -6.21  -4.57  -226.175758            -5.8,-0.0,+0.3
iter: 277  00:19:34  -5.71  -4.81  -226.176592            -5.7,-0.0,+0.3
iter: 278  00:20:04  -5.85  -4.48  -226.176929            -5.6,-0.0,+0.3
iter: 279  00:20:33  -6.18  -4.36  -226.176582            -5.6,-0.0,+0.3
iter: 280  00:21:03  -5.60  -4.20  -226.177461            -5.6,-0.0,+0.4
iter: 281  00:21:32  -5.64  -4.45  -226.177859            -5.6,-0.0,+0.4
iter: 282  00:22:01  -6.10  -4.67  -226.177564            -5.6,-0.0,+0.4
iter: 283  00:22:31  -5.71  -4.71  -226.178363            -5.5,-0.0,+0.4
iter: 284  00:23:00  -5.78  -4.52  -226.178731            -5.5,-0.0,+0.4
iter: 285  00:23:30  -6.09  -4.41  -226.178400            -5.4,-0.0,+0.4
iter: 286  00:23:59  -5.56  -4.25  -226.179264            -5.4,-0.0,+0.4
iter: 287  00:24:28  -5.55  -4.45  -226.179686            -5.4,-0.0,+0.4
iter: 288  00:24:58  -6.05  -4.78  -226.179412            -5.5,-0.0,+0.4
iter: 289  00:25:27  -5.69  -4.71  -226.180188            -5.4,-0.0,+0.4
iter: 290  00:25:57  -5.76  -4.61  -226.180562            -5.3,-0.0,+0.4
iter: 291  00:26:26  -6.01  -4.50  -226.180229            -5.2,-0.0,+0.4
iter: 292  00:26:56  -5.56  -4.40  -226.181065            -5.3,-0.0,+0.4
iter: 293  00:27:25  -5.46  -4.31  -226.181529            -5.2,-0.0,+0.4
iter: 294  00:27:54  -5.94  -4.88  -226.181289            -5.3,-0.0,+0.4
iter: 295  00:28:24  -5.73  -4.86  -226.182000            -5.2,-0.0,+0.4
iter: 296  00:28:53  -5.68  -4.64  -226.182421            -5.1,-0.0,+0.4
iter: 297  00:29:23  -5.95  -4.49  -226.182132            -5.0,-0.0,+0.4
iter: 298  00:29:52  -5.59  -4.40  -226.182906            -5.1,-0.0,+0.4
iter: 299  00:30:22  -5.38  -4.36  -226.183413            -5.1,-0.0,+0.5
iter: 300  00:30:51  -5.91  -4.94  -226.183207            -5.1,-0.0,+0.5
iter: 301  00:31:20  -5.73  -4.75  -226.183875            -5.0,-0.0,+0.5
iter: 302  00:31:50  -5.65  -4.74  -226.184311            -4.9,-0.0,+0.5
iter: 303  00:32:19  -5.92  -4.58  -226.184069            -4.8,-0.0,+0.5
iter: 304  00:32:49  -5.67  -4.44  -226.184763            -4.9,-0.0,+0.5
iter: 305  00:33:18  -5.34  -4.40  -226.185314            -4.9,-0.0,+0.5
iter: 306  00:33:48  -5.86  -5.18  -226.185146            -4.9,-0.0,+0.5
iter: 307  00:34:17  -5.80  -4.74  -226.185754            -4.8,-0.0,+0.5
iter: 308  00:34:46  -5.54  -4.95  -226.186254            -4.7,-0.0,+0.5
iter: 309  00:35:16  -5.88  -4.62  -226.186059            -4.6,-0.0,+0.5
iter: 310  00:35:45  -5.74  -4.47  -226.186691            -4.7,-0.0,+0.5
iter: 311  00:36:15  -5.32  -4.59  -226.187281            -4.6,-0.0,+0.5
iter: 312  00:36:44  -5.83  -4.78  -226.187131            -4.7,-0.0,+0.5
iter: 313  00:37:14  -5.73  -4.80  -226.187714            -4.6,-0.0,+0.5
iter: 314  00:37:43  -5.43  -4.92  -226.188262            -4.5,-0.0,+0.5
iter: 315  00:38:13  -5.88  -4.77  -226.188125            -4.4,-0.0,+0.5
iter: 316  00:38:42  -5.73  -4.38  -226.188703            -4.4,-0.0,+0.5
iter: 317  00:39:11  -5.30  -4.85  -226.189296            -4.4,-0.0,+0.5
iter: 318  00:39:41  -5.92  -4.54  -226.189159            -4.4,-0.0,+0.5
iter: 319  00:40:10  -5.79  -4.53  -226.189746            -4.4,-0.0,+0.5
iter: 320  00:40:40  -5.35  -4.71  -226.190319            -4.2,-0.0,+0.5
iter: 321  00:41:09  -5.86  -4.91  -226.190206            -4.2,-0.0,+0.5
iter: 322  00:41:39  -5.81  -5.04  -226.190754            -4.2,-0.0,+0.5
iter: 323  00:42:08  -5.26  -4.97  -226.191361            -4.2,-0.0,+0.5
iter: 324  00:42:38  -6.01  -4.68  -226.191247            -4.2,-0.0,+0.5
iter: 325  00:43:07  -5.79  -4.50  -226.191807            -4.1,-0.0,+0.5
iter: 326  00:43:36  -5.31  -4.99  -226.192417            -4.0,-0.0,+0.5
iter: 327  00:44:06  -5.85  -4.86  -226.192367            -3.9,-0.0,+0.5
iter: 328  00:44:35  -5.99  -4.60  -226.192832            -3.9,-0.0,+0.5
iter: 329  00:45:05  -5.25  -4.73  -226.193422            -3.9,-0.0,+0.5
iter: 330  00:45:34  -6.17  -4.81  -226.193335            -3.9,-0.0,+0.5
iter: 331  00:46:04  -5.80  -4.68  -226.193867            -3.9,-0.0,+0.5
iter: 332  00:46:33  -5.37  -5.07  -226.194449            -3.7,-0.0,+0.5
iter: 333  00:47:03  -6.00  -4.66  -226.194470            -3.7,-0.0,+0.5
iter: 334  00:47:32  -6.13  -4.52  -226.194832            -3.7,-0.0,+0.5
iter: 335  00:48:02  -5.28  -4.66  -226.195282            -3.7,-0.0,+0.5
iter: 336  00:48:31  -6.67  -4.91  -226.195291            -3.7,-0.0,+0.5
iter: 337  00:49:01  -6.18  -4.92  -226.195363            -3.7,-0.0,+0.5
iter: 338  00:49:30  -6.85  -4.85  -226.195482            -3.6,-0.0,+0.5
iter: 339  00:49:59  -5.27  -4.85  -226.196126            -3.5,-0.0,+0.5
iter: 340  00:50:29  -5.94  -4.54  -226.196263            -3.4,-0.0,+0.5
iter: 341  00:50:58  -6.32  -4.48  -226.196264            -3.4,-0.0,+0.5
iter: 342  00:51:28  -5.76  -4.44  -226.197055            -3.4,-0.0,+0.5
iter: 343  00:51:57  -5.77  -4.56  -226.196911            -3.4,-0.0,+0.5
iter: 344  00:52:27  -5.72  -4.85  -226.197474            -3.3,-0.0,+0.5
iter: 345  00:52:56  -4.94  -4.83  -226.198382            -3.1,-0.0,+0.5
iter: 346  00:53:26  -4.28  -4.54  -226.199185            -2.7,-0.0,+0.5
iter: 347  00:53:55  -4.85  -4.24  -226.200022            -2.6,-0.0,+0.5
iter: 348  00:54:25  -4.69  -4.21  -226.198802            -2.8,-0.0,+0.6
iter: 349  00:54:54  -4.66  -4.55  -226.201888            -2.6,-0.0,+0.6
iter: 350  00:55:23  -4.61  -4.54  -226.203097            -2.3,-0.0,+0.6
iter: 351  00:55:53  -3.39  -4.44  -226.206313            -1.2,-0.0,+0.6
iter: 352  00:56:22  -4.20  -4.34  -226.205673            -1.7,-0.0,+0.6
iter: 353  00:56:52  -4.92  -4.37  -226.206253            -1.5,-0.0,+0.6
iter: 354  00:57:21  -4.86  -4.44  -226.206538            -1.4,-0.0,+0.5
iter: 355  00:57:51  -5.80  -4.36  -226.206175            -1.4,-0.0,+0.6
iter: 356  00:58:20  -5.59  -4.50  -226.206821            -1.4,-0.0,+0.5
iter: 357  00:58:50  -6.36  -4.39  -226.206955            -1.4,-0.0,+0.5
iter: 358  00:59:19  -6.60  -4.53  -226.206903            -1.4,-0.0,+0.5
iter: 359  00:59:49  -5.20  -4.59  -226.207165            -1.3,-0.0,+0.5
iter: 360  01:00:18  -5.70  -4.62  -226.207070            -1.4,-0.0,+0.5
iter: 361  01:00:48  -7.15  -4.69  -226.207109            -1.4,-0.0,+0.5
iter: 362  01:01:17  -7.09  -4.90  -226.207119            -1.4,-0.0,+0.5
iter: 363  01:01:47  -7.25  -5.01  -226.207112            -1.4,-0.0,+0.5
iter: 364  01:02:17  -7.13  -5.11  -226.207152            -1.3,-0.0,+0.5
iter: 365  01:02:46  -7.03  -5.33  -226.207196            -1.3,-0.0,+0.5
iter: 366  01:03:15  -6.81  -5.36  -226.207246            -1.3,-0.0,+0.5
iter: 367  01:03:45  -6.81  -5.21  -226.207308            -1.3,-0.0,+0.5
iter: 368  01:04:15  -5.77  -5.19  -226.207398            -1.2,-0.0,+0.5
iter: 369  01:04:44  -6.53  -4.91  -226.207426            -1.2,-0.0,+0.5
iter: 370  01:05:14  -6.68  -5.09  -226.207517            -1.2,-0.0,+0.5
iter: 371  01:05:43  -6.35  -5.23  -226.207537            -1.2,-0.0,+0.4
iter: 372  01:06:13  -6.83  -5.19  -226.207596            -1.2,-0.0,+0.4
iter: 373  01:06:43  -5.73  -5.30  -226.207792            -1.1,-0.0,+0.4
iter: 374  01:07:12  -5.38  -5.33  -226.207865            -1.0,-0.0,+0.4
iter: 375  01:07:42  -6.61  -4.86  -226.207913            -1.0,-0.0,+0.4
iter: 376  01:08:11  -6.42  -4.93  -226.208062            -1.0,-0.0,+0.4
iter: 377  01:08:41  -5.87  -5.16  -226.208129            -1.0,-0.0,+0.4
iter: 378  01:09:10  -6.72  -5.19  -226.208185            -1.0,-0.0,+0.4
iter: 379  01:09:40  -5.86  -5.56  -226.208336            -1.0,-0.0,+0.4
iter: 380  01:10:09  -5.35  -5.37  -226.208337            -0.8,-0.0,+0.4
iter: 381  01:10:39  -6.40  -4.78  -226.208419            -0.9,-0.0,+0.4
iter: 382  01:11:08  -6.55  -4.92  -226.208538            -0.9,-0.0,+0.4
iter: 383  01:11:38  -5.77  -5.10  -226.208636            -0.9,-0.0,+0.3
iter: 384  01:12:07  -7.04  -5.15  -226.208667            -0.9,-0.0,+0.3
iter: 385  01:12:37  -6.27  -5.37  -226.208767            -0.8,-0.0,+0.3
iter: 386  01:13:06  -5.68  -5.53  -226.208810            -0.8,-0.0,+0.3
iter: 387  01:13:36  -6.99  -4.89  -226.208841            -0.8,-0.0,+0.3
iter: 388  01:14:05  -6.52  -5.00  -226.208935            -0.8,-0.0,+0.3
iter: 389  01:14:35  -5.95  -5.28  -226.208988            -0.8,-0.0,+0.3
iter: 390  01:15:04  -7.18  -5.20  -226.209012            -0.8,-0.0,+0.3
iter: 391  01:15:34  -6.32  -5.41  -226.209097            -0.7,-0.0,+0.3
iter: 392  01:16:03  -5.80  -5.67  -226.209116            -0.7,-0.0,+0.3
iter: 393  01:16:33  -7.00  -4.94  -226.209147            -0.7,-0.0,+0.3
iter: 394  01:17:02  -6.61  -5.07  -226.209224            -0.7,-0.0,+0.3
iter: 395  01:17:31  -5.89  -5.31  -226.209278            -0.7,-0.0,+0.3
iter: 396  01:18:01  -7.24  -5.15  -226.209297            -0.7,-0.0,+0.3
iter: 397  01:18:31  -6.57  -5.31  -226.209364            -0.6,-0.0,+0.3
iter: 398  01:19:00  -5.94  -5.70  -226.209391            -0.6,-0.0,+0.3
iter: 399  01:19:30  -7.20  -5.00  -226.209412            -0.6,-0.0,+0.3
iter: 400  01:19:59  -6.67  -5.13  -226.209475            -0.6,-0.0,+0.3
iter: 401  01:20:29  -5.96  -5.38  -226.209518            -0.6,-0.0,+0.2
iter: 402  01:20:58  -7.33  -5.14  -226.209533            -0.6,-0.0,+0.2
iter: 403  01:21:28  -6.71  -5.26  -226.209588            -0.6,-0.0,+0.2
iter: 404  01:21:57  -6.04  -5.57  -226.209613            -0.5,-0.0,+0.2
iter: 405  01:22:27  -7.32  -5.05  -226.209630            -0.5,-0.0,+0.2
iter: 406  01:22:56  -6.75  -5.17  -226.209682            -0.5,-0.0,+0.2
iter: 407  01:23:25  -5.97  -5.41  -226.209720            -0.5,-0.0,+0.2
iter: 408  01:23:55  -7.39  -5.12  -226.209732            -0.5,-0.0,+0.2
iter: 409  01:24:24  -6.86  -5.24  -226.209779            -0.5,-0.0,+0.2
iter: 410  01:24:54  -6.14  -5.49  -226.209805            -0.5,-0.0,+0.2
iter: 411  01:25:23  -7.42  -5.09  -226.209819            -0.5,-0.0,+0.2
iter: 412  01:25:53  -6.84  -5.21  -226.209862            -0.5,-0.0,+0.2
iter: 413  01:26:22  -6.02  -5.43  -226.209895            -0.5,-0.0,+0.2
iter: 414  01:26:52  -7.44  -5.10  -226.209906            -0.5,-0.0,+0.2
iter: 415  01:27:21  -6.99  -5.21  -226.209947            -0.4,-0.0,+0.2
iter: 416  01:27:50  -6.25  -5.41  -226.209972            -0.4,-0.0,+0.2
iter: 417  01:28:20  -7.60  -5.14  -226.209982            -0.4,-0.0,+0.2
iter: 418  01:28:49  -6.87  -5.26  -226.210020            -0.4,-0.0,+0.2
iter: 419  01:29:19  -6.14  -5.47  -226.210050            -0.4,-0.0,+0.2
iter: 420  01:29:48  -7.64  -5.15  -226.210057            -0.4,-0.0,+0.2
iter: 421  01:30:18  -7.02  -5.23  -226.210094            -0.4,-0.0,+0.2
iter: 422  01:30:47  -6.40  -5.45  -226.210115            -0.4,-0.0,+0.2
iter: 423  01:31:17  -7.76  -5.20  -226.210123            -0.4,-0.0,+0.2
iter: 424  01:31:46  -6.90  -5.30  -226.210159            -0.4,-0.0,+0.2
iter: 425  01:32:16  -6.21  -5.55  -226.210183            -0.4,-0.0,+0.2
iter: 426  01:32:45  -7.69  -5.12  -226.210189            -0.4,-0.0,+0.2
iter: 427  01:33:15  -7.09  -5.19  -226.210223            -0.4,-0.0,+0.2
iter: 428  01:33:44  -6.43  -5.37  -226.210242            -0.3,-0.0,+0.2
iter: 429  01:34:14  -7.82  -5.27  -226.210249            -0.3,-0.0,+0.2
iter: 430  01:34:44  -6.99  -5.37  -226.210280            -0.3,-0.0,+0.2
iter: 431  01:35:13  -6.22  -5.60  -226.210304            -0.3,-0.0,+0.2
iter: 432  01:35:43  -7.76  -5.13  -226.210310            -0.3,-0.0,+0.2
iter: 433  01:36:13  -7.24  -5.20  -226.210338            -0.3,-0.0,+0.2
iter: 434  01:36:42  -6.48  -5.38  -226.210358            -0.3,-0.0,+0.2
iter: 435  01:37:12  -7.90  -5.29  -226.210364            -0.3,-0.0,+0.2
iter: 436  01:37:41  -7.06  -5.39  -226.210390            -0.3,-0.0,+0.2
iter: 437  01:38:11  -6.31  -5.62  -226.210415            -0.3,-0.0,+0.1
iter: 438  01:38:41  -7.85  -5.20  -226.210419            -0.3,-0.0,+0.1
iter: 439  01:39:10  -7.18  -5.24  -226.210447            -0.3,-0.0,+0.1
iter: 440  01:39:40  -6.73  -5.50  -226.210464            -0.3,-0.0,+0.1
iter: 441  01:40:10  -8.00  -5.38  -226.210467            -0.3,-0.0,+0.1
iter: 442  01:40:39  -6.97  -5.39  -226.210498            -0.3,-0.0,+0.1
iter: 443  01:41:09  -6.81  -5.53  -226.210510            -0.3,-0.0,+0.1
iter: 444  01:41:38  -7.89  -5.27  -226.210513            -0.3,-0.0,+0.1
iter: 445  01:42:08  -7.65  -5.27  -226.210531            -0.3,-0.0,+0.1
iter: 446  01:42:38  -7.76  -5.39  -226.210537            -0.3,-0.0,+0.1
iter: 447  01:43:07  -7.97  -5.33  -226.210543            -0.3,-0.0,+0.1
iter: 448  01:43:37  -7.20  -5.41  -226.210557            -0.3,-0.0,+0.1
iter: 449  01:44:06  -7.91  -5.42  -226.210557            -0.3,-0.0,+0.1
iter: 450  01:44:36  -7.77  -5.33  -226.210569            -0.3,-0.0,+0.1
iter: 451  01:45:06  -7.23  -5.46  -226.210578            -0.2,-0.0,+0.1
iter: 452  01:45:35  -8.07  -5.53  -226.210582            -0.2,-0.0,+0.1
iter: 453  01:46:05  -6.99  -5.77  -226.210599            -0.2,-0.0,+0.1
iter: 454  01:46:34  -6.13  -5.71  -226.210601            -0.2,-0.0,+0.1
iter: 455  01:47:04  -7.14  -5.07  -226.210612            -0.2,-0.0,+0.1
iter: 456  01:47:33  -7.57  -5.20  -226.210628            -0.2,-0.0,+0.1
iter: 457  01:48:03  -5.90  -5.28  -226.210615            -0.2,-0.0,+0.1
iter: 458  01:48:32  -6.82  -5.02  -226.210657            -0.2,-0.0,+0.1
iter: 459  01:49:02  -7.55  -5.19  -226.210669            -0.2,-0.0,+0.1
iter: 460  01:49:31  -6.47  -5.34  -226.210712            -0.2,-0.0,+0.1
iter: 461  01:50:01  -6.66  -5.56  -226.210714            -0.2,-0.0,+0.1
iter: 462  01:50:30  -7.91  -5.13  -226.210725            -0.2,-0.0,+0.1
iter: 463  01:51:00  -7.01  -5.24  -226.210763            -0.2,-0.0,+0.1
iter: 464  01:51:29  -7.40  -5.67  -226.210767            -0.2,-0.0,+0.1
iter: 465  01:51:59  -8.30  -5.60  -226.210771            -0.2,-0.0,+0.1
iter: 466  01:52:28  -6.44  -5.69  -226.210796            -0.2,-0.0,+0.1
iter: 467  01:52:58  -7.70  -5.20  -226.210796            -0.2,-0.0,+0.1
iter: 468  01:53:27  -8.74  -5.32  -226.210797            -0.2,-0.0,+0.1
iter: 469  01:53:57  -7.68  -5.33  -226.210798            -0.2,-0.0,+0.1
iter: 470  01:54:26  -8.08  -5.37  -226.210800            -0.2,-0.0,+0.1
iter: 471  01:54:56  -8.27  -5.30  -226.210806            -0.2,-0.0,+0.1
iter: 472  01:55:25  -7.55  -5.39  -226.210816            -0.2,-0.0,+0.1
iter: 473  01:55:55  -6.85  -5.56  -226.210822            -0.2,-0.0,+0.1
iter: 474  01:56:24  -8.03  -5.34  -226.210826            -0.2,-0.0,+0.1
iter: 475  01:56:54  -7.38  -5.46  -226.210842            -0.2,-0.0,+0.1
iter: 476  01:57:24  -6.29  -5.61  -226.210857            -0.2,-0.0,+0.1
iter: 477  01:57:53  -7.58  -5.20  -226.210862            -0.2,-0.0,+0.1
iter: 478  01:58:23  -7.74  -5.25  -226.210873            -0.2,-0.0,+0.1
iter: 479  01:58:52  -6.17  -5.32  -226.210880            -0.1,-0.0,+0.1
iter: 480  01:59:22  -7.34  -5.38  -226.210894            -0.1,-0.0,+0.1
iter: 481  01:59:52  -7.59  -5.49  -226.210907            -0.2,-0.0,+0.1
iter: 482  02:00:21  -6.82  -5.48  -226.210936            -0.2,-0.0,+0.1
iter: 483  02:00:51  -6.58  -5.48  -226.210937            -0.2,-0.0,+0.1
iter: 484  02:01:20  -7.86  -5.07  -226.210948            -0.2,-0.0,+0.1
iter: 485  02:01:50  -7.23  -5.14  -226.210975            -0.1,-0.0,+0.1
iter: 486  02:02:19  -7.19  -5.44  -226.210982            -0.1,-0.0,+0.1
iter: 487  02:02:49  -8.21  -5.46  -226.210987            -0.1,-0.0,+0.1
iter: 488  02:03:19  -6.82  -5.50  -226.211009            -0.1,-0.0,+0.1
iter: 489  02:03:48  -7.35  -5.69  -226.211011            -0.1,-0.0,+0.1
iter: 490  02:04:18  -8.27  -5.43  -226.211017            -0.1,-0.0,+0.1
iter: 491  02:04:47  -7.07  -5.57  -226.211037            -0.1,-0.0,+0.1
iter: 492  02:05:17  -8.00  -5.59  -226.211037            -0.1,-0.0,+0.1
iter: 493  02:05:46  -8.09  -5.42  -226.211043            -0.1,-0.0,+0.1
iter: 494  02:06:16  -6.73  -5.42  -226.211061            -0.1,-0.0,+0.1
iter: 495  02:06:45  -8.23  -5.66  -226.211061            -0.1,-0.0,+0.1
iter: 496  02:07:15  -8.11  -5.72  -226.211065            -0.1,-0.0,+0.1
iter: 497  02:07:44  -6.98  -5.69  -226.211046            -0.1,-0.0,+0.1
iter: 498  02:08:14  -8.05  -5.35  -226.211056            -0.1,-0.0,+0.1
iter: 499  02:08:44  -7.29  -5.33  -226.211074            -0.1,-0.0,+0.1
iter: 500  02:09:13  -7.14  -5.37  -226.211084            -0.1,-0.0,+0.1
iter: 501  02:09:43  -8.45  -5.21  -226.211085            -0.1,-0.0,+0.1
iter: 502  02:10:13  -7.80  -5.26  -226.211092            -0.1,-0.0,+0.1
iter: 503  02:10:42  -6.45  -5.28  -226.211109            -0.1,-0.0,+0.1
iter: 504  02:11:12  -7.84  -5.44  -226.211108            -0.1,-0.0,+0.1
iter: 505  02:11:42  -7.38  -5.68  -226.211123            -0.1,-0.0,+0.1
iter: 506  02:12:11  -8.30  -5.18  -226.211127            -0.1,-0.0,+0.1
iter: 507  02:12:41  -7.59  -5.21  -226.211136            -0.1,-0.0,+0.1
iter: 508  02:13:10  -7.46  -5.20  -226.211141            -0.1,-0.0,+0.1
iter: 509  02:13:40  -7.73  -5.15  -226.211143            -0.1,-0.0,+0.1
iter: 510  02:14:10  -8.20  -5.15  -226.211142            -0.1,-0.0,+0.1
iter: 511  02:14:39  -6.79  -5.14  -226.211158            -0.1,-0.0,+0.1
iter: 512  02:15:09  -6.86  -5.09  -226.211169            -0.1,-0.0,+0.1
iter: 513  02:15:38  -7.15  -5.14  -226.211167            -0.1,-0.0,+0.1
iter: 514  02:16:08  -7.36  -5.12  -226.211180            -0.1,-0.0,+0.1
iter: 515  02:16:37  -6.65  -5.60  -226.211200            -0.1,-0.0,+0.1
iter: 516  02:17:07  -7.22  -5.23  -226.211191            -0.1,-0.0,+0.1
iter: 517  02:17:37  -7.32  -5.06  -226.211219            -0.1,-0.0,+0.1
iter: 518  02:18:06  -6.84  -5.51  -226.211247            -0.1,-0.0,+0.1
iter: 519  02:18:36  -7.38  -5.67  -226.211246            -0.1,-0.0,+0.1
iter: 520  02:19:06  -7.86  -5.42  -226.211257            -0.1,-0.0,+0.1
iter: 521  02:19:35  -7.07  -5.72  -226.211273            -0.1,-0.0,+0.1
iter: 522  02:20:05  -7.82  -5.90  -226.211271            -0.1,-0.0,+0.1
iter: 523  02:20:35  -7.73  -5.56  -226.211282            -0.1,-0.0,+0.1
iter: 524  02:21:04  -7.04  -5.93  -226.211297            -0.1,-0.0,+0.1
iter: 525  02:21:34  -7.80  -5.47  -226.211296            -0.1,-0.0,+0.1
iter: 526  02:22:04  -7.88  -5.33  -226.211305            -0.1,-0.0,+0.1
iter: 527  02:22:33  -7.12  -5.60  -226.211317            -0.1,-0.0,+0.1
iter: 528  02:23:03  -8.12  -5.72  -226.211316            -0.1,-0.0,+0.1
iter: 529  02:23:33  -7.78  -5.58  -226.211326            -0.1,-0.0,+0.1
iter: 530  02:24:02  -7.18  -6.03  -226.211339            -0.1,-0.0,+0.1
iter: 531  02:24:32  -8.09  -5.52  -226.211338            -0.1,-0.0,+0.1
iter: 532  02:25:02  -7.99  -5.47  -226.211346            -0.1,-0.0,+0.1
iter: 533  02:25:31  -7.03  -5.75  -226.211356            -0.1,-0.0,+0.1
iter: 534  02:26:01  -8.59  -5.58  -226.211356            -0.1,-0.0,+0.1
iter: 535  02:26:31  -7.17  -5.66  -226.211353            -0.1,-0.0,+0.1
iter: 536  02:27:00  -6.54  -5.51  -226.211349            -0.1,-0.0,+0.1
iter: 537  02:27:30  -8.12  -5.43  -226.211354            -0.1,-0.0,+0.1
iter: 538  02:28:00  -7.19  -5.46  -226.211372            -0.1,-0.0,+0.1
iter: 539  02:28:30  -6.84  -5.63  -226.211384            -0.1,-0.0,+0.1
iter: 540  02:28:59  -8.10  -5.51  -226.211384            -0.1,-0.0,+0.1
iter: 541  02:29:29  -8.57  -5.13  -226.211381            -0.1,-0.0,+0.1
iter: 542  02:29:59  -7.39  -5.07  -226.211390            -0.1,-0.0,+0.1
iter: 543  02:30:29  -8.32  -5.07  -226.211392            -0.1,-0.0,+0.1
iter: 544  02:30:59  -7.74  -5.26  -226.211398            -0.1,-0.0,+0.1
iter: 545  02:31:28  -7.63  -5.70  -226.211403            -0.1,-0.0,+0.1
iter: 546  02:31:58  -8.39  -5.68  -226.211399            -0.1,-0.0,+0.1
iter: 547  02:32:28  -7.93  -5.55  -226.211410            -0.1,-0.0,+0.1
iter: 548  02:32:57  -8.38  -5.70  -226.211412            -0.1,-0.0,+0.1
iter: 549  02:33:27  -8.46  -5.61  -226.211414            -0.1,-0.0,+0.1
iter: 550  02:33:57  -7.52  -5.54  -226.211423            -0.1,-0.0,+0.1
iter: 551  02:34:26  -6.70  -5.43  -226.211409            -0.1,-0.0,+0.1
iter: 552  02:34:56  -6.99  -5.05  -226.211430            -0.1,-0.0,+0.1
iter: 553  02:35:26  -7.64  -5.39  -226.211440            -0.1,-0.0,+0.1
iter: 554  02:35:55  -6.45  -5.46  -226.211402            -0.0,-0.0,+0.1
iter: 555  02:36:25  -6.69  -5.02  -226.211450            -0.0,-0.0,+0.1
iter: 556  02:36:54  -7.56  -5.70  -226.211458            -0.0,-0.0,+0.1
iter: 557  02:37:24  -7.26  -5.62  -226.211459            -0.0,-0.0,+0.1
iter: 558  02:37:54  -7.64  -5.59  -226.211470            -0.0,-0.0,+0.1
iter: 559  02:38:23  -7.39  -5.64  -226.211478            -0.0,-0.0,+0.1
iter: 560  02:38:53  -8.34  -5.33  -226.211477            -0.0,-0.0,+0.1
iter: 561  02:39:22  -7.91  -5.48  -226.211486            -0.0,-0.0,+0.1
iter: 562  02:39:52  -7.51  -5.91  -226.211493            -0.0,-0.0,+0.1
iter: 563  02:40:21  -8.58  -5.53  -226.211494            -0.0,-0.0,+0.1
iter: 564  02:40:51  -7.82  -5.60  -226.211502            -0.0,-0.0,+0.1
iter: 565  02:41:21  -7.59  -5.76  -226.211504            -0.0,-0.0,+0.1
iter: 566  02:41:50  -8.35  -5.75  -226.211508            -0.0,-0.0,+0.1
iter: 567  02:42:20  -7.15  -5.71  -226.211521            -0.0,-0.0,+0.1
iter: 568  02:42:50  -7.72  -5.91  -226.211522            -0.0,-0.0,+0.1
iter: 569  02:43:19  -8.32  -5.79  -226.211527            -0.0,-0.0,+0.1
iter: 570  02:43:49  -7.14  -5.94  -226.211539            -0.0,-0.0,+0.1
iter: 571  02:44:18  -8.46  -5.33  -226.211539            -0.0,-0.0,+0.1
iter: 572  02:44:48  -8.04  -5.34  -226.211546            -0.0,-0.0,+0.1
iter: 573  02:45:18  -8.16  -5.60  -226.211549            -0.0,-0.0,+0.1
iter: 574  02:45:47  -8.43  -5.66  -226.211551            -0.0,-0.0,+0.1
iter: 575  02:46:17  -8.51  -5.67  -226.211554            -0.0,-0.0,+0.1
iter: 576  02:46:47  -7.74  -5.74  -226.211549            -0.0,-0.0,+0.1
iter: 577  02:47:16  -7.35  -5.52  -226.211561            -0.0,-0.0,+0.1
iter: 578  02:47:46  -7.08  -5.69  -226.211570            -0.0,-0.0,+0.1
iter: 579  02:48:15  -7.38  -5.40  -226.211565            -0.0,-0.0,+0.1
iter: 580  02:48:45  -7.80  -5.38  -226.211578            -0.0,-0.0,+0.1
iter: 581  02:49:15  -7.57  -5.89  -226.211589            -0.0,-0.0,+0.1
iter: 582  02:49:44  -7.62  -5.93  -226.211586            -0.0,-0.0,+0.1
iter: 583  02:50:14  -7.49  -5.41  -226.211597            -0.0,-0.0,+0.1
iter: 584  02:50:44  -6.98  -5.76  -226.211608            -0.0,-0.0,+0.1
iter: 585  02:51:13  -7.26  -5.70  -226.211603            -0.0,-0.0,+0.1
iter: 586  02:51:43  -7.71  -5.19  -226.211617            -0.0,-0.0,+0.1
iter: 587  02:52:13  -7.41  -5.48  -226.211630            -0.0,-0.0,+0.1
iter: 588  02:52:43  -7.57  -5.95  -226.211627            -0.0,-0.0,+0.1
iter: 589  02:53:12  -7.55  -5.49  -226.211638            -0.0,-0.0,+0.1
iter: 590  02:53:42  -7.05  -6.02  -226.211650            -0.0,-0.0,+0.1
iter: 591  02:54:12  -7.33  -5.55  -226.211645            -0.0,-0.0,+0.1
iter: 592  02:54:41  -7.75  -5.24  -226.211658            -0.0,-0.0,+0.1
iter: 593  02:55:11  -7.39  -5.56  -226.211671            -0.0,-0.0,+0.1
iter: 594  02:55:41  -7.60  -6.07  -226.211667            -0.0,-0.0,+0.1
iter: 595  02:56:10  -7.58  -5.57  -226.211678            -0.0,-0.0,+0.1
iter: 596  02:56:40  -7.09  -6.18  -226.211690            -0.0,-0.0,+0.1
iter: 597  02:57:10  -7.40  -5.59  -226.211686            -0.0,-0.0,+0.1
iter: 598  02:57:39  -7.77  -5.21  -226.211698            -0.0,-0.0,+0.1
iter: 599  02:58:09  -7.39  -5.57  -226.211710            -0.0,-0.0,+0.1
iter: 600  02:58:38  -7.65  -6.15  -226.211706            -0.0,-0.0,+0.1
iter: 601  02:59:08  -7.60  -5.49  -226.211717            -0.0,-0.0,+0.1
iter: 602  02:59:38  -7.12  -6.31  -226.211729            -0.0,-0.0,+0.0
iter: 603  03:00:07  -7.45  -5.59  -226.211725            -0.0,-0.0,+0.0
iter: 604  03:00:37  -7.78  -5.29  -226.211736            -0.0,-0.0,+0.0
iter: 605  03:01:07  -7.38  -5.59  -226.211748            -0.0,-0.0,+0.0
iter: 606  03:01:37  -7.68  -6.28  -226.211744            -0.0,-0.0,+0.0
iter: 607  03:02:06  -7.61  -5.50  -226.211755            -0.0,-0.0,+0.0
iter: 608  03:02:36  -7.14  -6.16  -226.211766            -0.0,-0.0,+0.0
iter: 609  03:03:06  -7.48  -5.65  -226.211763            -0.0,-0.0,+0.0
iter: 610  03:03:35  -7.79  -5.28  -226.211774            -0.0,-0.0,+0.0
iter: 611  03:04:05  -7.38  -5.59  -226.211785            -0.0,-0.0,+0.0
iter: 612  03:04:35  -7.69  -6.25  -226.211781            -0.0,-0.0,+0.0
iter: 613  03:05:05  -7.62  -5.51  -226.211792            -0.0,-0.0,+0.0
iter: 614  03:05:34  -7.16  -6.18  -226.211803            -0.0,-0.0,+0.0
iter: 615  03:06:04  -7.51  -5.63  -226.211800            -0.0,-0.0,+0.0
iter: 616  03:06:34  -7.79  -5.28  -226.211810            -0.0,-0.0,+0.0
iter: 617  03:07:04  -7.38  -5.58  -226.211821            -0.0,-0.0,+0.0
iter: 618  03:07:33  -7.72  -6.21  -226.211818            -0.0,-0.0,+0.0
iter: 619  03:08:03  -7.63  -5.51  -226.211828            -0.0,-0.0,+0.0
iter: 620  03:08:33  -7.18  -6.19  -226.211839            -0.0,-0.0,+0.0
iter: 621  03:09:02  -7.55  -5.60  -226.211836            -0.0,-0.0,+0.0
iter: 622  03:09:32  -7.81  -5.29  -226.211846            -0.0,-0.0,+0.0
iter: 623  03:10:02  -7.40  -5.58  -226.211856            -0.0,-0.0,+0.0
iter: 624  03:10:32  -7.76  -6.18  -226.211853            +0.0,-0.0,+0.0
iter: 625  03:11:01  -7.65  -5.54  -226.211863            +0.0,-0.0,+0.0
iter: 626  03:11:31  -7.20  -6.37  -226.211874            +0.0,-0.0,+0.0
iter: 627  03:12:01  -7.60  -5.57  -226.211871            +0.0,-0.0,+0.0
iter: 628  03:12:30  -7.82  -5.29  -226.211881            +0.0,-0.0,+0.0
iter: 629  03:13:00  -7.41  -5.57  -226.211891            +0.0,-0.0,+0.0
iter: 630  03:13:30  -7.80  -6.65  -226.211888            +0.0,-0.0,+0.0
iter: 631  03:13:59  -7.66  -5.60  -226.211898            +0.0,-0.0,+0.0
iter: 632  03:14:29  -7.21  -6.52  -226.211908            +0.0,-0.0,+0.0
iter: 633  03:14:59  -7.63  -5.56  -226.211905            +0.0,-0.0,+0.0
iter: 634  03:15:29  -7.84  -5.28  -226.211915            +0.0,-0.0,+0.0
iter: 635  03:15:58  -7.41  -5.57  -226.211924            +0.0,-0.0,+0.0
iter: 636  03:16:28  -7.83  -6.38  -226.211921            +0.0,-0.0,+0.0
iter: 637  03:16:58  -7.66  -5.59  -226.211931            +0.0,-0.0,+0.0
iter: 638  03:17:28  -7.22  -6.74  -226.211941            +0.0,-0.0,+0.0
iter: 639  03:17:57  -7.67  -5.55  -226.211938            +0.0,-0.0,+0.0
iter: 640  03:18:27  -7.84  -5.29  -226.211948            +0.0,-0.0,+0.0
iter: 641  03:18:57  -7.42  -5.58  -226.211957            +0.0,-0.0,+0.0
iter: 642  03:19:26  -7.86  -6.69  -226.211954            +0.0,-0.0,+0.0
iter: 643  03:19:56  -7.67  -5.63  -226.211964            +0.0,-0.0,+0.0
iter: 644  03:20:26  -7.23  -6.72  -226.211974            +0.0,-0.0,+0.0
iter: 645  03:20:55  -7.70  -5.54  -226.211971            +0.0,-0.0,+0.0
iter: 646  03:21:25  -7.85  -5.29  -226.211980            +0.0,-0.0,+0.0
iter: 647  03:21:55  -7.43  -5.58  -226.211989            +0.0,-0.0,+0.0
iter: 648  03:22:24  -7.89  -6.56  -226.211986            +0.0,-0.0,+0.0
iter: 649  03:22:54  -7.68  -5.64  -226.211996            +0.0,-0.0,+0.0
iter: 650  03:23:24  -7.24  -6.51  -226.212005            +0.0,-0.0,+0.0
iter: 651  03:23:53  -7.74  -5.53  -226.212002            +0.0,-0.0,+0.0
iter: 652  03:24:23  -7.85  -5.29  -226.212012            +0.0,-0.0,+0.0
iter: 653  03:24:53  -7.44  -5.57  -226.212021            +0.0,-0.0,+0.0
iter: 654  03:25:22  -7.93  -6.55  -226.212018            +0.0,-0.0,+0.0
iter: 655  03:25:52  -7.69  -5.67  -226.212028            +0.0,-0.0,+0.0
iter: 656  03:26:22  -7.25  -6.36  -226.212036            +0.0,-0.0,+0.0
iter: 657  03:26:51  -7.77  -5.52  -226.212034            +0.0,-0.0,+0.0
iter: 658  03:27:21  -7.86  -5.29  -226.212043            +0.0,-0.0,+0.0
iter: 659  03:27:51  -7.45  -5.56  -226.212052            +0.0,-0.0,+0.0
iter: 660  03:28:20  -7.96  -6.49  -226.212049            +0.0,-0.0,+0.0
iter: 661  03:28:50  -7.69  -5.70  -226.212058            +0.0,-0.0,+0.0
iter: 662  03:29:19  -7.27  -6.29  -226.212067            +0.0,-0.0,+0.0
iter: 663  03:29:49  -7.80  -5.49  -226.212064            +0.0,-0.0,+0.0
iter: 664  03:30:19  -7.88  -5.29  -226.212073            +0.0,-0.0,+0.0
iter: 665  03:30:49  -7.45  -5.58  -226.212082            +0.0,-0.0,+0.0
iter: 666  03:31:18  -7.99  -6.38  -226.212079            +0.0,-0.0,+0.0
iter: 667  03:31:48  -7.70  -5.70  -226.212088            +0.0,-0.0,+0.0
iter: 668  03:32:17  -7.28  -6.33  -226.212097            +0.0,-0.0,+0.0
iter: 669  03:32:47  -7.84  -5.52  -226.212094            +0.0,-0.0,+0.0
iter: 670  03:33:17  -7.88  -5.30  -226.212103            +0.0,-0.0,+0.0
iter: 671  03:33:47  -7.47  -5.58  -226.212111            +0.0,-0.0,+0.0
iter: 672  03:34:16  -8.02  -6.51  -226.212109            +0.0,-0.0,+0.0
iter: 673  03:34:46  -7.72  -5.70  -226.212118            +0.0,-0.0,+0.0
iter: 674  03:35:16  -7.29  -6.29  -226.212126            +0.0,-0.0,+0.0
iter: 675  03:35:45  -7.88  -5.50  -226.212123            +0.0,-0.0,+0.0
iter: 676  03:36:15  -7.89  -5.31  -226.212132            +0.0,-0.0,+0.0
iter: 677  03:36:45  -7.48  -5.58  -226.212140            +0.0,-0.0,+0.0
iter: 678  03:37:15  -8.05  -6.49  -226.212138            +0.0,-0.0,+0.0
iter: 679  03:37:44  -7.72  -5.73  -226.212147            +0.0,-0.0,+0.0
iter: 680  03:38:14  -7.30  -6.25  -226.212155            +0.0,-0.0,+0.0
iter: 681  03:38:44  -7.91  -5.49  -226.212152            +0.0,-0.0,+0.0
iter: 682  03:39:13  -7.89  -5.31  -226.212161            +0.0,-0.0,+0.0
iter: 683  03:39:43  -7.49  -5.58  -226.212169            +0.0,-0.0,+0.0
iter: 684  03:40:13  -8.09  -6.53  -226.212166            +0.0,-0.0,+0.0
iter: 685  03:40:42  -7.73  -5.73  -226.212175            +0.0,-0.0,+0.0
iter: 686  03:41:12  -7.31  -6.29  -226.212183            +0.0,-0.0,+0.0
iter: 687  03:41:42  -7.95  -5.51  -226.212180            +0.0,-0.0,+0.0
iter: 688  03:42:12  -7.90  -5.32  -226.212189            +0.0,-0.0,+0.0
iter: 689  03:42:41  -7.50  -5.60  -226.212197            +0.0,-0.0,+0.0
iter: 690  03:43:11  -8.13  -6.48  -226.212194            +0.0,-0.0,+0.0
iter: 691  03:43:41  -7.75  -5.72  -226.212203            +0.0,-0.0,+0.0
iter: 692  03:44:10  -7.32  -6.31  -226.212210            +0.0,-0.0,+0.0
iter: 693  03:44:40  -7.99  -5.50  -226.212208            +0.0,-0.0,+0.0
iter: 694  03:45:10  -7.91  -5.32  -226.212217            +0.0,-0.0,+0.0
iter: 695  03:45:40  -7.51  -5.61  -226.212224            +0.0,-0.0,+0.0
iter: 696  03:46:10  -8.16  -6.53  -226.212222            +0.0,-0.0,+0.0
iter: 697  03:46:39  -7.75  -5.75  -226.212230            +0.0,-0.0,+0.0
iter: 698  03:47:09  -7.33  -6.28  -226.212237            +0.0,-0.0,+0.0
iter: 699  03:47:39  -8.02  -5.50  -226.212235            +0.0,-0.0,+0.0
iter: 700  03:48:08  -7.92  -5.33  -226.212244            +0.0,-0.0,+0.0
iter: 701  03:48:38  -7.51  -5.61  -226.212251            +0.0,-0.0,+0.0
iter: 702  03:49:08  -8.20  -6.48  -226.212248            +0.0,-0.0,+0.0
iter: 703  03:49:38  -7.76  -5.74  -226.212257            +0.0,-0.0,+0.0
iter: 704  03:50:07  -7.34  -6.31  -226.212264            +0.0,-0.0,+0.0
iter: 705  03:50:37  -8.06  -5.51  -226.212262            +0.0,-0.0,+0.0
iter: 706  03:51:07  -7.93  -5.34  -226.212270            +0.0,-0.0,+0.0
iter: 707  03:51:37  -7.52  -5.63  -226.212277            +0.0,-0.0,+0.0
iter: 708  03:52:06  -8.23  -6.38  -226.212275            +0.0,-0.0,+0.0
iter: 709  03:52:36  -7.78  -5.75  -226.212283            +0.0,-0.0,+0.0
iter: 710  03:53:06  -7.35  -6.31  -226.212290            +0.0,-0.0,+0.0
iter: 711  03:53:36  -8.10  -5.51  -226.212288            +0.0,-0.0,+0.0
iter: 712  03:54:06  -7.94  -5.35  -226.212296            +0.0,-0.0,+0.0
iter: 713  03:54:35  -7.53  -5.63  -226.212303            +0.0,-0.0,+0.0
iter: 714  03:55:05  -8.26  -6.36  -226.212301            +0.0,-0.0,+0.0
iter: 715  03:55:35  -7.79  -5.77  -226.212309            +0.0,-0.0,+0.0
iter: 716  03:56:05  -7.36  -6.29  -226.212315            +0.0,-0.0,+0.0
iter: 717  03:56:34  -8.13  -5.50  -226.212313            +0.0,-0.0,+0.0
iter: 718  03:57:04  -7.95  -5.35  -226.212321            +0.0,-0.0,+0.0
iter: 719  03:57:34  -7.54  -5.64  -226.212328            +0.0,-0.0,+0.0
iter: 720  03:58:04  -8.30  -6.36  -226.212326            +0.0,-0.0,+0.0
iter: 721  03:58:34  -7.80  -5.78  -226.212334            +0.0,-0.0,+0.0
iter: 722  03:59:04  -7.37  -6.33  -226.212340            +0.0,-0.0,+0.0
iter: 723  03:59:33  -8.16  -5.51  -226.212339            +0.0,-0.0,+0.0
iter: 724  04:00:03  -7.97  -5.36  -226.212346            +0.0,-0.0,+0.0
iter: 725  04:00:33  -7.54  -5.65  -226.212353            +0.0,-0.0,+0.0
iter: 726  04:01:03  -8.33  -6.30  -226.212351            +0.0,-0.0,+0.0
iter: 727  04:01:33  -7.82  -5.77  -226.212359            +0.0,-0.0,+0.0
iter: 728  04:02:02  -7.38  -6.35  -226.212365            +0.0,-0.0,+0.0
iter: 729  04:02:32  -8.19  -5.51  -226.212363            +0.0,-0.0,+0.0
iter: 730  04:03:02  -7.98  -5.37  -226.212371            +0.0,-0.0,+0.0
iter: 731  04:03:32  -7.55  -5.66  -226.212377            +0.0,-0.0,+0.0
iter: 732  04:04:02  -8.36  -6.30  -226.212375            +0.0,-0.0,+0.0
iter: 733  04:04:31  -7.84  -5.80  -226.212383            +0.0,-0.0,+0.0
iter: 734  04:05:01  -7.39  -6.32  -226.212389            +0.0,-0.0,+0.0
iter: 735  04:05:31  -8.22  -5.51  -226.212388            +0.0,-0.0,+0.0
iter: 736  04:06:00  -8.00  -5.38  -226.212395            +0.0,-0.0,+0.0
iter: 737  04:06:30  -7.55  -5.65  -226.212401            +0.0,-0.0,+0.0
iter: 738  04:07:00  -8.39  -6.26  -226.212399            +0.0,-0.0,+0.0
iter: 739  04:07:29  -7.86  -5.81  -226.212407            +0.0,-0.0,+0.0
iter: 740  04:07:59  -7.39  -6.36  -226.212413            +0.0,-0.0,+0.0
iter: 741  04:08:29  -8.25  -5.51  -226.212411            +0.0,-0.0,+0.0
iter: 742  04:08:58  -8.02  -5.39  -226.212418            +0.0,-0.0,+0.0
iter: 743  04:09:28  -7.56  -5.66  -226.212424            +0.0,-0.0,+0.0
iter: 744  04:09:57  -8.42  -6.26  -226.212423            +0.0,-0.0,+0.0
iter: 745  04:10:27  -7.88  -5.82  -226.212430            +0.0,-0.0,+0.0
iter: 746  04:10:57  -7.40  -6.41  -226.212436            +0.0,-0.0,+0.0
iter: 747  04:11:26  -8.28  -5.51  -226.212435            +0.0,-0.0,+0.0
iter: 748  04:11:56  -8.04  -5.39  -226.212442            +0.0,-0.0,+0.0
iter: 749  04:12:26  -7.56  -5.66  -226.212448            +0.0,-0.0,+0.0
iter: 750  04:12:55  -8.45  -6.24  -226.212446            +0.0,-0.0,+0.0
iter: 751  04:13:25  -7.91  -5.82  -226.212453            +0.0,-0.0,+0.0
iter: 752  04:13:55  -7.41  -6.48  -226.212459            +0.0,-0.0,+0.0
iter: 753  04:14:24  -8.31  -5.52  -226.212458            +0.0,-0.0,+0.0
iter: 754  04:14:54  -8.08  -5.40  -226.212464            +0.0,-0.0,+0.0
iter: 755  04:15:24  -7.56  -5.67  -226.212470            +0.0,-0.0,+0.0
iter: 756  04:15:54  -8.48  -6.18  -226.212469            +0.0,-0.0,+0.0
iter: 757  04:16:23  -7.95  -5.82  -226.212475            +0.0,+0.0,+0.0
iter: 758  04:16:53  -7.41  -6.48  -226.212481            +0.0,+0.0,+0.0
iter: 759  04:17:23  -8.34  -5.52  -226.212480            +0.0,+0.0,+0.0
iter: 760  04:17:53  -8.11  -5.41  -226.212487            +0.0,+0.0,+0.0
iter: 761  04:18:22  -7.56  -5.66  -226.212492            +0.0,+0.0,+0.0
iter: 762  04:18:52  -8.51  -6.18  -226.212491            +0.0,+0.0,+0.0
iter: 763  04:19:22  -7.98  -5.84  -226.212497            +0.0,+0.0,+0.0
iter: 764  04:19:52  -7.41  -6.59  -226.212503            +0.0,+0.0,+0.0
iter: 765  04:20:21  -8.37  -5.53  -226.212502            +0.0,+0.0,+0.0
iter: 766  04:20:51  -8.16  -5.43  -226.212508            +0.0,+0.0,+0.0
iter: 767  04:21:21  -7.56  -5.67  -226.212514            +0.0,+0.0,+0.0
iter: 768  04:21:50  -8.54  -6.14  -226.212513            +0.0,+0.0,+0.0
iter: 769  04:22:20  -8.05  -5.84  -226.212519            +0.0,+0.0,+0.0
iter: 770  04:22:50  -7.41  -6.80  -226.212525            +0.0,+0.0,+0.0
iter: 771  04:23:19  -8.41  -5.53  -226.212524            +0.0,+0.0,+0.0
iter: 772  04:23:49  -8.22  -5.44  -226.212530            +0.0,+0.0,+0.0
iter: 773  04:24:19  -7.55  -5.67  -226.212535            +0.0,+0.0,+0.0
iter: 774  04:24:49  -8.58  -6.09  -226.212535            +0.0,+0.0,+0.0
iter: 775  04:25:18  -8.13  -5.85  -226.212540            +0.0,+0.0,+0.0
iter: 776  04:25:48  -7.41  -7.22  -226.212546            +0.0,+0.0,+0.0
iter: 777  04:26:18  -8.46  -5.53  -226.212545            +0.0,+0.0,+0.0
iter: 778  04:26:48  -8.30  -5.46  -226.212550            +0.0,+0.0,+0.0
iter: 779  04:27:17  -7.55  -5.66  -226.212556            +0.0,+0.0,+0.0
iter: 780  04:27:47  -8.65  -6.10  -226.212556            +0.0,+0.0,+0.0
iter: 781  04:28:17  -8.27  -5.91  -226.212560            +0.0,+0.0,+0.0
iter: 782  04:28:46  -7.46  -6.71  -226.212566            +0.0,+0.0,+0.0
iter: 783  04:29:16  -8.54  -5.55  -226.212566            +0.0,+0.0,+0.0
iter: 784  04:29:46  -8.55  -5.50  -226.212569            +0.0,+0.0,+0.0
iter: 785  04:30:15  -7.43  -5.60  -226.212575            +0.0,+0.0,+0.0
iter: 786  04:30:45  -8.99  -5.92  -226.212575            +0.0,+0.0,+0.0
iter: 787  04:31:15  -8.15  -6.04  -226.212579            +0.0,+0.0,+0.0
iter: 788  04:31:45  -7.97  -6.23  -226.212583            +0.0,+0.0,+0.0
iter: 789  04:32:14  -8.06  -5.76  -226.212585            +0.0,+0.0,+0.0
iter: 790  04:32:44  -8.91  -5.54  -226.212584            +0.0,+0.0,+0.0
iter: 791  04:33:14  -7.89  -5.47  -226.212590            +0.0,+0.0,+0.0
iter: 792  04:33:44  -8.30  -5.87  -226.212592            +0.0,+0.0,+0.0
iter: 793  04:34:14  -8.74  -5.83  -226.212593            +0.0,+0.0,+0.0
iter: 794  04:34:43  -8.31  -5.93  -226.212596            +0.0,+0.0,+0.0
iter: 795  04:35:13  -7.71  -6.12  -226.212599            +0.0,+0.0,+0.0
iter: 796  04:35:43  -8.73  -5.59  -226.212601            +0.0,+0.0,+0.0
iter: 797  04:36:13  -8.24  -5.79  -226.212604            +0.0,+0.0,+0.0
iter: 798  04:36:43  -7.47  -6.05  -226.212605            +0.0,+0.0,+0.0
iter: 799  04:37:13  -8.25  -5.57  -226.212608            +0.0,+0.0,+0.0
iter: 800  04:37:42  -8.08  -5.94  -226.212612            +0.0,+0.0,+0.0
iter: 801  04:38:12  -6.94  -6.17  -226.212612            +0.0,+0.0,+0.0
iter: 802  04:38:42  -7.70  -5.26  -226.212618            +0.0,+0.0,+0.0
iter: 803  04:39:12  -8.34  -5.52  -226.212622            +0.0,+0.0,+0.0
iter: 804  04:39:41  -6.97  -5.63  -226.212623            +0.0,+0.0,+0.0
iter: 805  04:40:11  -7.82  -5.38  -226.212629            +0.0,+0.0,+0.0
iter: 806  04:40:41  -8.41  -5.77  -226.212632            +0.0,+0.0,+0.0
iter: 807  04:41:11  -7.12  -5.97  -226.212639            +0.0,-0.0,+0.0
iter: 808  04:41:41  -8.77  -5.43  -226.212640            +0.0,-0.0,+0.0
iter: 809  04:42:11  -8.55  -5.52  -226.212644            +0.0,-0.0,+0.0
iter: 810  04:42:40  -7.63  -5.68  -226.212650            +0.0,-0.0,+0.0
iter: 811  04:43:10  -8.90  -5.84  -226.212650            +0.0,-0.0,+0.0
iter: 812  04:43:40  -8.11  -5.87  -226.212655            +0.0,-0.0,+0.0
iter: 813  04:44:10  -8.09  -5.67  -226.212656            +0.0,-0.0,+0.0
iter: 814  04:44:40  -8.53  -5.47  -226.212658            +0.0,-0.0,+0.0
iter: 815  04:45:09  -8.17  -5.74  -226.212661            +0.0,-0.0,+0.0
iter: 816  04:45:39  -8.12  -6.04  -226.212662            +0.0,-0.0,+0.0
iter: 817  04:46:09  -8.61  -5.82  -226.212665            +0.0,-0.0,+0.0
iter: 818  04:46:39  -7.50  -6.02  -226.212671            +0.0,-0.0,+0.0
iter: 819  04:47:09  -8.41  -5.71  -226.212671            +0.0,-0.0,+0.0
iter: 820  04:47:38  -8.50  -5.58  -226.212674            +0.0,-0.0,+0.0
iter: 821  04:48:08  -7.67  -5.75  -226.212679            +0.0,-0.0,+0.0
iter: 822  04:48:38  -8.99  -5.84  -226.212679            +0.0,-0.0,+0.0
iter: 823  04:49:08  -8.46  -5.88  -226.212683            +0.0,-0.0,+0.0
iter: 824  04:49:37  -8.05  -6.16  -226.212685            +0.0,-0.0,+0.0
iter: 825  04:50:07  -8.84  -5.76  -226.212686            +0.0,-0.0,+0.0
iter: 826  04:50:37  -8.16  -5.87  -226.212690            +0.0,-0.0,+0.0
iter: 827  04:51:07  -8.04  -6.27  -226.212691            +0.0,-0.0,+0.0
iter: 828  04:51:37  -8.68  -5.73  -226.212693            +0.0,-0.0,+0.0
iter: 829  04:52:07  -7.59  -5.96  -226.212699            +0.0,-0.0,+0.0
iter: 830  04:52:36  -8.02  -5.89  -226.212699            +0.0,-0.0,+0.0
iter: 831  04:53:06  -8.72  -5.55  -226.212702            +0.0,-0.0,+0.0
iter: 832  04:53:36  -7.66  -5.74  -226.212708            +0.0,-0.0,+0.0
iter: 833  04:54:06  -8.27  -6.11  -226.212708            +0.0,-0.0,+0.0
iter: 834  04:54:36  -8.57  -5.72  -226.212711            +0.0,-0.0,+0.0
iter: 835  04:55:05  -7.46  -5.97  -226.212717            +0.0,-0.0,+0.0
iter: 836  04:55:35  -8.23  -5.77  -226.212717            +0.0,-0.0,+0.0
iter: 837  04:56:05  -8.64  -5.56  -226.212720            +0.0,-0.0,+0.0
iter: 838  04:56:35  -7.61  -5.75  -226.212727            +0.0,-0.0,+0.0
iter: 839  04:57:05  -8.45  -5.96  -226.212726            +0.0,-0.0,+0.0
iter: 840  04:57:34  -8.30  -5.73  -226.212729            +0.0,-0.0,+0.0
iter: 841  04:58:04  -7.40  -6.00  -226.212735            +0.0,-0.0,+0.0
iter: 842  04:58:34  -8.43  -5.70  -226.212735            +0.0,-0.0,+0.0
iter: 843  04:59:03  -8.59  -5.58  -226.212738            +0.0,-0.0,+0.0
iter: 844  04:59:33  -7.64  -5.78  -226.212744            +0.0,-0.0,+0.0
iter: 845  05:00:03  -8.68  -5.90  -226.212744            +0.0,-0.0,+0.0
iter: 846  05:00:33  -8.58  -5.78  -226.212747            +0.0,-0.0,+0.0
iter: 847  05:01:02  -7.31  -6.01  -226.212753            +0.0,-0.0,+0.0
iter: 848  05:01:32  -8.86  -5.59  -226.212753            +0.0,-0.0,+0.0
iter: 849  05:02:02  -8.45  -5.62  -226.212753            +0.0,-0.0,+0.0
iter: 850  05:02:32  -7.67  -5.64  -226.212753            +0.0,-0.0,+0.0
iter: 851  05:03:02  -8.55  -5.68  -226.212756            +0.0,-0.0,+0.0
iter: 852  05:03:31  -7.98  -5.72  -226.212760            +0.0,-0.0,+0.0
iter: 853  05:04:01  -8.24  -5.85  -226.212762            +0.0,-0.0,+0.0
iter: 854  05:04:31  -7.92  -5.86  -226.212757            +0.0,-0.0,+0.0
iter: 855  05:05:01  -8.01  -5.44  -226.212765            +0.0,-0.0,+0.0
iter: 856  05:05:30  -8.08  -5.96  -226.212769            +0.0,-0.0,+0.0
iter: 857  05:06:00  -7.65  -6.19  -226.212767            +0.0,-0.0,+0.0
iter: 858  05:06:30  -7.93  -5.44  -226.212773            +0.0,-0.0,+0.0
iter: 859  05:07:00  -7.89  -5.96  -226.212777            +0.0,-0.0,+0.0
iter: 860  05:07:30  -7.52  -6.04  -226.212772            +0.0,-0.0,+0.0
iter: 861  05:07:59  -7.84  -5.39  -226.212781            +0.0,-0.0,+0.0
iter: 862  05:08:29  -7.86  -5.92  -226.212786            +0.0,-0.0,+0.0
iter: 863  05:08:59  -7.39  -6.15  -226.212783            +0.0,-0.0,+0.0
iter: 864  05:09:29  -7.87  -5.35  -226.212790            +0.0,-0.0,+0.0
iter: 865  05:09:59  -7.93  -5.81  -226.212795            +0.0,-0.0,+0.0
iter: 866  05:10:28  -7.51  -6.20  -226.212791            +0.0,-0.0,+0.0
iter: 867  05:10:58  -7.88  -5.41  -226.212799            +0.0,-0.0,+0.0
iter: 868  05:11:28  -7.85  -6.02  -226.212804            +0.0,-0.0,+0.0
iter: 869  05:11:58  -7.42  -6.32  -226.212801            +0.0,-0.0,+0.0
iter: 870  05:12:28  -7.91  -5.36  -226.212808            +0.0,-0.0,+0.0
iter: 871  05:12:57  -7.94  -5.79  -226.212813            +0.0,-0.0,+0.0
iter: 872  05:13:27  -7.55  -6.24  -226.212809            +0.0,-0.0,+0.0
iter: 873  05:13:57  -7.92  -5.43  -226.212816            +0.0,-0.0,+0.0
iter: 874  05:14:27  -7.85  -6.05  -226.212821            +0.0,-0.0,+0.0
iter: 875  05:14:56  -7.44  -6.34  -226.212818            +0.0,-0.0,+0.0
iter: 876  05:15:26  -7.92  -5.36  -226.212825            +0.0,-0.0,+0.0
iter: 877  05:15:56  -7.95  -5.78  -226.212830            +0.0,-0.0,+0.0
iter: 878  05:16:26  -7.57  -6.27  -226.212827            +0.0,-0.0,+0.0
iter: 879  05:16:55  -7.94  -5.45  -226.212834            +0.0,-0.0,+0.0
iter: 880  05:17:25  -7.85  -6.08  -226.212839            +0.0,-0.0,+0.0
iter: 881  05:17:54  -7.46  -6.35  -226.212836            +0.0,-0.0,+0.0
iter: 882  05:18:24  -7.95  -5.36  -226.212842            +0.0,-0.0,+0.0
iter: 883  05:18:54  -7.96  -5.78  -226.212847            +0.0,-0.0,+0.0
iter: 884  05:19:24  -7.59  -6.27  -226.212844            +0.0,-0.0,+0.0
iter: 885  05:19:53  -7.96  -5.46  -226.212851            +0.0,-0.0,+0.0
iter: 886  05:20:23  -7.86  -6.08  -226.212856            +0.0,-0.0,+0.0
iter: 887  05:20:53  -7.48  -6.32  -226.212853            +0.0,-0.0,+0.0
iter: 888  05:21:22  -7.97  -5.37  -226.212859            +0.0,-0.0,+0.0
iter: 889  05:21:52  -7.96  -5.78  -226.212864            +0.0,-0.0,+0.0
iter: 890  05:22:22  -7.61  -6.27  -226.212861            +0.0,-0.0,+0.0
iter: 891  05:22:51  -7.99  -5.47  -226.212868            +0.0,-0.0,+0.0
iter: 892  05:23:21  -7.86  -6.08  -226.212873            +0.0,-0.0,+0.0
iter: 893  05:23:51  -7.50  -6.30  -226.212870            +0.0,-0.0,+0.0
iter: 894  05:24:21  -8.00  -5.38  -226.212876            +0.0,-0.0,+0.0
iter: 895  05:24:50  -7.97  -5.78  -226.212881            +0.0,-0.0,+0.0
iter: 896  05:25:20  -7.63  -6.27  -226.212878            +0.0,-0.0,+0.0
iter: 897  05:25:50  -8.01  -5.48  -226.212884            +0.0,-0.0,+0.0
iter: 898  05:26:20  -7.87  -6.08  -226.212889            +0.0,-0.0,+0.0
iter: 899  05:26:49  -7.52  -6.27  -226.212887            +0.0,-0.0,+0.0
iter: 900  05:27:19  -8.02  -5.38  -226.212893            +0.0,-0.0,+0.0
iter: 901  05:27:49  -7.97  -5.78  -226.212897            +0.0,-0.0,+0.0
iter: 902  05:28:19  -7.65  -6.27  -226.212895            +0.0,-0.0,+0.0
iter: 903  05:28:48  -8.04  -5.49  -226.212901            +0.0,-0.0,+0.0
iter: 904  05:29:18  -7.87  -6.08  -226.212906            +0.0,-0.0,+0.0
iter: 905  05:29:48  -7.54  -6.25  -226.212903            +0.0,-0.0,+0.0
iter: 906  05:30:18  -8.05  -5.39  -226.212909            +0.0,-0.0,+0.0
iter: 907  05:30:48  -7.97  -5.77  -226.212914            +0.0,-0.0,+0.0
iter: 908  05:31:18  -7.67  -6.27  -226.212911            +0.0,-0.0,+0.0
iter: 909  05:31:47  -8.06  -5.50  -226.212917            +0.0,-0.0,+0.0
iter: 910  05:32:17  -7.87  -6.07  -226.212922            +0.0,-0.0,+0.0
iter: 911  05:32:47  -7.57  -6.22  -226.212919            +0.0,-0.0,+0.0
iter: 912  05:33:16  -8.08  -5.40  -226.212925            +0.0,-0.0,+0.0
iter: 913  05:33:46  -7.97  -5.78  -226.212930            +0.0,-0.0,+0.0
iter: 914  05:34:16  -7.69  -6.26  -226.212927            +0.0,-0.0,+0.0
iter: 915  05:34:46  -8.09  -5.51  -226.212933            +0.0,-0.0,+0.0
iter: 916  05:35:15  -7.88  -6.06  -226.212938            +0.0,-0.0,+0.0
iter: 917  05:35:45  -7.59  -6.20  -226.212935            +0.0,-0.0,+0.0
iter: 918  05:36:15  -8.10  -5.41  -226.212941            +0.0,-0.0,+0.0
iter: 919  05:36:44  -7.98  -5.78  -226.212945            +0.0,-0.0,+0.0
iter: 920  05:37:14  -7.71  -6.26  -226.212943            +0.0,-0.0,+0.0
iter: 921  05:37:44  -8.11  -5.52  -226.212949            +0.0,-0.0,+0.0
iter: 922  05:38:13  -7.88  -6.05  -226.212953            +0.0,-0.0,+0.0
iter: 923  05:38:43  -7.61  -6.18  -226.212951            +0.0,-0.0,+0.0
iter: 924  05:39:13  -8.13  -5.42  -226.212956            +0.0,-0.0,+0.0
iter: 925  05:39:42  -7.98  -5.78  -226.212961            +0.0,-0.0,+0.0
iter: 926  05:40:12  -7.74  -6.26  -226.212959            +0.0,-0.0,+0.0
iter: 927  05:40:42  -8.13  -5.52  -226.212964            +0.0,-0.0,+0.0
iter: 928  05:41:11  -7.88  -6.05  -226.212969            +0.0,-0.0,+0.0
iter: 929  05:41:41  -7.63  -6.17  -226.212967            +0.0,-0.0,+0.0
iter: 930  05:42:11  -8.15  -5.42  -226.212972            +0.0,-0.0,+0.0
iter: 931  05:42:40  -7.98  -5.78  -226.212976            +0.0,-0.0,+0.0
iter: 932  05:43:10  -7.75  -6.26  -226.212974            +0.0,-0.0,+0.0
iter: 933  05:43:40  -8.15  -5.53  -226.212979            +0.0,-0.0,+0.0
iter: 934  05:44:09  -7.89  -6.04  -226.212984            +0.0,-0.0,+0.0
iter: 935  05:44:39  -7.65  -6.15  -226.212982            +0.0,-0.0,+0.0
iter: 936  05:45:09  -8.18  -5.43  -226.212987            +0.0,-0.0,+0.0
iter: 937  05:45:38  -7.99  -5.77  -226.212991            +0.0,-0.0,+0.0
iter: 938  05:46:08  -7.78  -6.25  -226.212990            +0.0,-0.0,+0.0
iter: 939  05:46:38  -8.17  -5.54  -226.212994            +0.0,-0.0,+0.0
iter: 940  05:47:07  -7.89  -6.04  -226.212999            +0.0,-0.0,+0.0
iter: 941  05:47:37  -7.67  -6.14  -226.212997            +0.0,-0.0,+0.0
iter: 942  05:48:06  -8.19  -5.43  -226.213002            +0.0,-0.0,+0.0
iter: 943  05:48:36  -7.99  -5.78  -226.213006            +0.0,-0.0,+0.0
iter: 944  05:49:06  -7.79  -6.25  -226.213005            +0.0,-0.0,+0.0
iter: 945  05:49:35  -8.19  -5.54  -226.213009            +0.0,-0.0,+0.0
iter: 946  05:50:05  -7.89  -6.05  -226.213014            +0.0,-0.0,+0.0
iter: 947  05:50:34  -7.69  -6.12  -226.213012            +0.0,-0.0,+0.0
iter: 948  05:51:04  -8.21  -5.44  -226.213017            +0.0,-0.0,+0.0
iter: 949  05:51:34  -7.99  -5.77  -226.213021            +0.0,-0.0,+0.0
iter: 950  05:52:03  -7.81  -6.25  -226.213019            +0.0,-0.0,+0.0
iter: 951  05:52:33  -8.20  -5.55  -226.213024            +0.0,-0.0,+0.0
iter: 952  05:53:03  -7.90  -6.05  -226.213028            +0.0,-0.0,+0.0
iter: 953  05:53:32  -7.71  -6.11  -226.213027            +0.0,-0.0,+0.0
iter: 954  05:54:02  -8.23  -5.44  -226.213031            +0.0,-0.0,+0.0
iter: 955  05:54:32  -7.99  -5.77  -226.213036            +0.0,-0.0,+0.0
iter: 956  05:55:01  -7.83  -6.25  -226.213034            +0.0,-0.0,+0.0
iter: 957  05:55:31  -8.22  -5.56  -226.213038            +0.0,-0.0,+0.0
iter: 958  05:56:00  -7.90  -6.06  -226.213043            +0.0,-0.0,+0.0
iter: 959  05:56:30  -7.73  -6.10  -226.213041            +0.0,-0.0,+0.0
iter: 960  05:57:00  -8.25  -5.45  -226.213046            +0.0,-0.0,+0.0
iter: 961  05:57:29  -8.00  -5.77  -226.213050            +0.0,-0.0,+0.0
iter: 962  05:57:59  -7.85  -6.25  -226.213048            +0.0,-0.0,+0.0
iter: 963  05:58:29  -8.23  -5.57  -226.213053            +0.0,-0.0,+0.0
iter: 964  05:58:59  -7.90  -6.06  -226.213057            +0.0,-0.0,+0.0
iter: 965  05:59:28  -7.75  -6.09  -226.213055            +0.0,-0.0,+0.0
[...]
iter: 4731  13:03:37 -11.28  -7.13  -226.214359            +0.0,-0.0,+0.0
iter: 4732  13:04:07  -9.66  -7.30  -226.214359            +0.0,-0.0,+0.0
iter: 4733  13:04:36 -10.37  -6.54  -226.214359            +0.0,-0.0,+0.0
iter: 4734  13:05:06 -11.36  -6.90  -226.214359            +0.0,-0.0,+0.0
iter: 4735  13:05:36  -9.71  -6.98  -226.214359            +0.0,-0.0,+0.0
iter: 4736  13:06:06 -10.42  -6.63  -226.214359            +0.0,-0.0,+0.0
iter: 4737  13:06:35 -11.39  -7.12  -226.214359            +0.0,-0.0,+0.0
iter: 4738  13:07:05  -9.63  -7.26  -226.214359            +0.0,-0.0,+0.0
iter: 4739  13:07:35 -10.35  -6.54  -226.214359            +0.0,-0.0,+0.0
iter: 4740  13:08:05 -11.49  -6.89  -226.214359            +0.0,-0.0,+0.0
iter: 4741  13:08:34  -9.68  -6.96  -226.214359            +0.0,-0.0,+0.0
iter: 4742  13:09:04 -10.40  -6.63  -226.214359            +0.0,-0.0,+0.0
iter: 4743  13:09:34 -11.54  -7.11  -226.214359            +0.0,-0.0,+0.0
iter: 4744  13:10:04  -9.59  -7.21  -226.214359            +0.0,-0.0,+0.0
iter: 4745  13:10:34 -10.32  -6.54  -226.214359            +0.0,-0.0,+0.0
iter: 4746  13:11:04 -11.65  -6.88  -226.214359            +0.0,-0.0,+0.0
iter: 4747  13:11:34  -9.64  -6.93  -226.214359            +0.0,-0.0,+0.0
iter: 4748  13:12:03 -10.36  -6.62  -226.214359            +0.0,-0.0,+0.0
iter: 4749  13:12:33 -11.73  -7.09  -226.214359            +0.0,-0.0,+0.0
iter: 4750  13:13:03  -9.55  -7.17  -226.214359            +0.0,-0.0,+0.0
iter: 4751  13:13:33 -10.27  -6.53  -226.214359            +0.0,-0.0,+0.0
iter: 4752  13:14:03 -11.83  -6.87  -226.214359            +0.0,-0.0,+0.0
iter: 4753  13:14:32  -9.59  -6.91  -226.214359            +0.0,-0.0,+0.0
iter: 4754  13:15:02 -10.31  -6.61  -226.214359            +0.0,-0.0,+0.0
iter: 4755  13:15:32 -11.91  -7.08  -226.214359            +0.0,-0.0,+0.0
iter: 4756  13:16:02  -9.50  -7.12  -226.214359            +0.0,-0.0,+0.0
iter: 4757  13:16:32 -10.20  -6.52  -226.214359            +0.0,-0.0,+0.0
iter: 4758  13:17:01 -11.77  -6.86  -226.214359            +0.0,-0.0,+0.0
iter: 4759  13:17:31  -9.61  -6.88  -226.214359            +0.0,-0.0,+0.0
iter: 4760  13:18:01 -10.33  -6.68  -226.214360            +0.0,-0.0,+0.0
iter: 4761  13:18:31 -11.47  -7.14  -226.214360            +0.0,-0.0,+0.0
iter: 4762  13:19:01  -9.56  -7.18  -226.214360            +0.0,-0.0,+0.0
iter: 4763  13:19:31  -9.75  -6.54  -226.214360            +0.0,-0.0,+0.0
iter: 4764  13:20:01 -10.69  -7.23  -226.214360            +0.0,-0.0,+0.0
iter: 4765  13:20:30 -10.43  -7.47  -226.214360            +0.0,-0.0,+0.0
iter: 4766  13:21:00 -10.87  -7.56  -226.214360            +0.0,-0.0,+0.0
iter: 4767  13:21:30 -10.64  -7.85  -226.214360            +0.0,-0.0,+0.0
iter: 4768  13:22:00 -10.50  -6.77  -226.214360            +0.0,-0.0,+0.0
iter: 4769  13:22:30 -10.50  -8.06  -226.214360            +0.0,-0.0,+0.0
iter: 4770  13:22:59 -10.63  -7.20  -226.214360            +0.0,-0.0,+0.0
iter: 4771  13:23:29 -10.55  -6.67  -226.214360            +0.0,-0.0,+0.0
iter: 4772  13:23:59 -10.54  -7.30  -226.214360            +0.0,-0.0,+0.0
iter: 4773  13:24:29 -10.67  -7.64  -226.214360            +0.0,-0.0,+0.0
iter: 4774  13:24:59 -10.52  -6.77  -226.214360            +0.0,-0.0,+0.0
iter: 4775  13:25:29 -10.49  -7.89  -226.214360            +0.0,-0.0,+0.0
iter: 4776  13:25:58 -10.65  -7.22  -226.214360            +0.0,-0.0,+0.0
iter: 4777  13:26:28 -10.57  -6.69  -226.214360            +0.0,-0.0,+0.0
iter: 4778  13:26:58 -10.54  -7.30  -226.214360            +0.0,-0.0,+0.0
iter: 4779  13:27:28 -10.70  -7.68  -226.214360            +0.0,-0.0,+0.0
iter: 4780  13:27:58 -10.54  -6.78  -226.214360            +0.0,-0.0,+0.0
iter: 4781  13:28:27 -10.49  -8.07  -226.214360            +0.0,-0.0,+0.0
iter: 4782  13:28:57 -10.66  -7.20  -226.214360            +0.0,-0.0,+0.0
iter: 4783  13:29:27 -10.59  -6.69  -226.214360            +0.0,-0.0,+0.0
iter: 4784  13:29:56 -10.54  -7.29  -226.214360            +0.0,-0.0,+0.0
iter: 4785  13:30:26 -10.71  -7.68  -226.214360            +0.0,-0.0,+0.0
iter: 4786  13:30:56 -10.55  -6.79  -226.214360            +0.0,-0.0,+0.0
iter: 4787  13:31:26 -10.49  -8.08  -226.214360            +0.0,-0.0,+0.0
iter: 4788  13:31:56 -10.68  -7.20  -226.214360            +0.0,-0.0,+0.0
iter: 4789  13:32:26 -10.60  -6.69  -226.214360            +0.0,-0.0,+0.0
iter: 4790  13:32:56 -10.55  -7.29  -226.214360            +0.0,-0.0,+0.0
iter: 4791  13:33:25 -10.73  -7.67  -226.214360            +0.0,-0.0,+0.0
iter: 4792  13:33:55 -10.56  -6.80  -226.214360            +0.0,-0.0,+0.0
iter: 4793  13:34:25 -10.50  -8.09  -226.214360            +0.0,-0.0,+0.0
iter: 4794  13:34:55 -10.70  -7.19  -226.214360            +0.0,-0.0,+0.0
iter: 4795  13:35:25 -10.61  -6.70  -226.214360            +0.0,-0.0,+0.0
iter: 4796  13:35:55 -10.55  -7.29  -226.214360            +0.0,-0.0,+0.0
iter: 4797  13:36:25 -10.75  -7.66  -226.214360            +0.0,-0.0,+0.0
iter: 4798  13:36:54 -10.57  -6.81  -226.214360            +0.0,-0.0,+0.0
iter: 4799  13:37:24 -10.50  -8.09  -226.214360            +0.0,-0.0,+0.0
iter: 4800  13:37:54 -10.71  -7.19  -226.214360            +0.0,-0.0,+0.0
iter: 4801  13:38:24 -10.62  -6.70  -226.214360            +0.0,-0.0,+0.0
iter: 4802  13:38:54 -10.55  -7.29  -226.214360            +0.0,-0.0,+0.0
iter: 4803  13:39:23 -10.76  -7.65  -226.214360            +0.0,-0.0,+0.0
iter: 4804  13:39:53 -10.58  -6.81  -226.214360            +0.0,-0.0,+0.0
iter: 4805  13:40:23 -10.50  -8.09  -226.214360            +0.0,-0.0,+0.0
iter: 4806  13:40:53 -10.73  -7.19  -226.214360            +0.0,-0.0,+0.0
iter: 4807  13:41:23 -10.63  -6.71  -226.214360            +0.0,-0.0,+0.0
iter: 4808  13:41:53 -10.55  -7.29  -226.214360            +0.0,-0.0,+0.0
iter: 4809  13:42:22 -10.78  -7.64  -226.214360            +0.0,-0.0,+0.0
iter: 4810  13:42:52 -10.59  -6.82  -226.214360            +0.0,-0.0,+0.0
iter: 4811  13:43:22 -10.50  -8.09  -226.214360            +0.0,-0.0,+0.0
iter: 4812  13:43:52 -10.74  -7.18  -226.214360            +0.0,-0.0,+0.0
iter: 4813  13:44:22 -10.64  -6.72  -226.214360            +0.0,-0.0,+0.0
iter: 4814  13:44:51 -10.55  -7.29  -226.214360            +0.0,-0.0,+0.0
iter: 4815  13:45:21 -10.80  -7.64  -226.214360            +0.0,-0.0,+0.0
iter: 4816  13:45:51 -10.60  -6.83  -226.214360            +0.0,-0.0,+0.0
iter: 4817  13:46:21 -10.50  -8.09  -226.214360            +0.0,-0.0,+0.0
iter: 4818  13:46:51 -10.76  -7.18  -226.214360            +0.0,-0.0,+0.0
iter: 4819  13:47:21 -10.66  -6.72  -226.214360            +0.0,-0.0,+0.0
iter: 4820  13:47:50 -10.56  -7.29  -226.214360            +0.0,-0.0,+0.0
iter: 4821  13:48:20 -10.81  -7.63  -226.214360            +0.0,-0.0,+0.0
iter: 4822  13:48:50 -10.61  -6.84  -226.214360            +0.0,-0.0,+0.0
iter: 4823  13:49:20 -10.51  -8.10  -226.214360            +0.0,-0.0,+0.0
iter: 4824  13:49:49 -10.78  -7.18  -226.214360            +0.0,-0.0,+0.0
iter: 4825  13:50:19 -10.67  -6.73  -226.214360            +0.0,-0.0,+0.0
iter: 4826  13:50:49 -10.56  -7.29  -226.214360            +0.0,-0.0,+0.0
iter: 4827  13:51:19 -10.83  -7.62  -226.214360            +0.0,-0.0,+0.0
iter: 4828  13:51:49 -10.62  -6.84  -226.214360            +0.0,-0.0,+0.0
iter: 4829  13:52:19 -10.51  -8.10  -226.214360            +0.0,-0.0,+0.0
iter: 4830  13:52:48 -10.79  -7.17  -226.214360            +0.0,-0.0,+0.0
iter: 4831  13:53:18 -10.68  -6.73  -226.214360            +0.0,-0.0,+0.0
iter: 4832  13:53:48 -10.56  -7.29  -226.214360            +0.0,-0.0,+0.0
iter: 4833  13:54:18 -10.84  -7.61  -226.214360            +0.0,-0.0,+0.0
iter: 4834  13:54:48 -10.63  -6.85  -226.214360            +0.0,-0.0,+0.0
iter: 4835  13:55:18 -10.51  -8.10  -226.214360            +0.0,-0.0,+0.0
iter: 4836  13:55:48 -10.81  -7.17  -226.214360            +0.0,-0.0,+0.0
iter: 4837  13:56:18 -10.69  -6.74  -226.214360            +0.0,-0.0,+0.0
iter: 4838  13:56:48 -10.56  -7.29  -226.214360            +0.0,-0.0,+0.0
iter: 4839  13:57:17 -10.86  -7.61  -226.214360            +0.0,-0.0,+0.0
iter: 4840  13:57:47 -10.64  -6.86  -226.214360            +0.0,-0.0,+0.0
iter: 4841  13:58:17 -10.51  -8.10  -226.214360            +0.0,-0.0,+0.0
iter: 4842  13:58:47 -10.82  -7.17  -226.214360            +0.0,-0.0,+0.0
iter: 4843  13:59:17 -10.70  -6.74  -226.214360            +0.0,-0.0,+0.0
iter: 4844  13:59:47 -10.57  -7.29  -226.214360            +0.0,-0.0,+0.0
iter: 4845  14:00:17 -10.88  -7.60  -226.214360            +0.0,-0.0,+0.0
iter: 4846  14:00:47 -10.66  -6.86  -226.214360            +0.0,-0.0,+0.0
iter: 4847  14:01:17 -10.51  -8.10  -226.214360            +0.0,-0.0,+0.0
iter: 4848  14:01:47 -10.84  -7.16  -226.214360            +0.0,-0.0,+0.0
iter: 4849  14:02:17 -10.71  -6.75  -226.214360            +0.0,-0.0,+0.0
iter: 4850  14:02:46 -10.57  -7.29  -226.214360            +0.0,-0.0,+0.0
iter: 4851  14:03:16 -10.89  -7.59  -226.214360            +0.0,-0.0,+0.0
iter: 4852  14:03:46 -10.67  -6.87  -226.214360            +0.0,-0.0,+0.0
iter: 4853  14:04:16 -10.52  -8.10  -226.214360            +0.0,-0.0,+0.0
iter: 4854  14:04:46 -10.85  -7.16  -226.214360            +0.0,-0.0,+0.0
iter: 4855  14:05:15 -10.72  -6.75  -226.214360            +0.0,-0.0,+0.0
iter: 4856  14:05:45 -10.57  -7.29  -226.214360            +0.0,-0.0,+0.0
iter: 4857  14:06:15 -10.91  -7.59  -226.214360            +0.0,-0.0,+0.0
iter: 4858  14:06:45 -10.68  -6.88  -226.214360            +0.0,-0.0,+0.0
iter: 4859  14:07:15 -10.52  -8.10  -226.214360            +0.0,-0.0,+0.0
iter: 4860  14:07:44 -10.87  -7.16  -226.214360            +0.0,-0.0,+0.0
iter: 4861  14:08:14 -10.73  -6.75  -226.214360            +0.0,-0.0,+0.0
iter: 4862  14:08:44 -10.57  -7.29  -226.214360            +0.0,-0.0,+0.0
iter: 4863  14:09:14 -10.92  -7.58  -226.214360            +0.0,-0.0,+0.0
iter: 4864  14:09:43 -10.69  -6.88  -226.214360            +0.0,-0.0,+0.0
iter: 4865  14:10:13 -10.52  -8.10  -226.214360            +0.0,-0.0,+0.0
iter: 4866  14:10:43 -10.89  -7.15  -226.214360            +0.0,-0.0,+0.0
iter: 4867  14:11:13 -10.74  -6.76  -226.214360            +0.0,-0.0,+0.0
iter: 4868  14:11:43 -10.57  -7.29  -226.214360            +0.0,-0.0,+0.0
iter: 4869  14:12:13 -10.94  -7.57  -226.214360            +0.0,-0.0,+0.0
iter: 4870  14:12:43 -10.70  -6.89  -226.214360            +0.0,-0.0,+0.0
iter: 4871  14:13:13 -10.52  -8.10  -226.214360            +0.0,-0.0,+0.0
iter: 4872  14:13:42 -10.90  -7.15  -226.214360            +0.0,-0.0,+0.0
iter: 4873  14:14:12 -10.75  -6.76  -226.214360            +0.0,-0.0,+0.0
iter: 4874  14:14:42 -10.57  -7.29  -226.214360            +0.0,-0.0,+0.0
iter: 4875  14:15:12 -10.96  -7.57  -226.214360            +0.0,-0.0,+0.0
iter: 4876  14:15:42 -10.71  -6.90  -226.214360            +0.0,-0.0,+0.0
iter: 4877  14:16:12 -10.52  -8.10  -226.214360            +0.0,-0.0,+0.0
iter: 4878  14:16:42 -10.92  -7.15  -226.214360            +0.0,-0.0,+0.0
iter: 4879  14:17:12 -10.76  -6.77  -226.214360            +0.0,-0.0,+0.0
iter: 4880  14:17:42 -10.58  -7.29  -226.214360            +0.0,-0.0,+0.0
iter: 4881  14:18:11 -10.97  -7.56  -226.214360            +0.0,-0.0,+0.0
iter: 4882  14:18:41 -10.72  -6.90  -226.214360            +0.0,-0.0,+0.0
iter: 4883  14:19:11 -10.52  -8.10  -226.214360            +0.0,-0.0,+0.0
iter: 4884  14:19:41 -10.93  -7.14  -226.214360            +0.0,-0.0,+0.0
iter: 4885  14:20:11 -10.77  -6.77  -226.214360            +0.0,-0.0,+0.0
iter: 4886  14:20:41 -10.58  -7.29  -226.214360            +0.0,-0.0,+0.0
iter: 4887  14:21:11 -10.99  -7.56  -226.214360            +0.0,-0.0,+0.0
iter: 4888  14:21:41 -10.73  -6.91  -226.214360            +0.0,-0.0,+0.0
iter: 4889  14:22:10 -10.53  -8.11  -226.214360            +0.0,-0.0,+0.0
iter: 4890  14:22:40 -10.95  -7.14  -226.214360            +0.0,-0.0,+0.0
iter: 4891  14:23:10 -10.78  -6.78  -226.214360            +0.0,-0.0,+0.0
iter: 4892  14:23:40 -10.58  -7.29  -226.214360            +0.0,-0.0,+0.0
iter: 4893  14:24:10 -11.00  -7.55  -226.214360            +0.0,-0.0,+0.0
iter: 4894  14:24:40 -10.74  -6.92  -226.214360            +0.0,-0.0,+0.0
iter: 4895  14:25:10 -10.53  -8.11  -226.214360            +0.0,-0.0,+0.0
iter: 4896  14:25:40 -10.96  -7.14  -226.214360            +0.0,-0.0,+0.0
iter: 4897  14:26:10 -10.79  -6.78  -226.214360            +0.0,-0.0,+0.0
iter: 4898  14:26:40 -10.58  -7.28  -226.214360            +0.0,-0.0,+0.0
iter: 4899  14:27:10 -11.02  -7.54  -226.214360            +0.0,-0.0,+0.0
iter: 4900  14:27:39 -10.75  -6.92  -226.214360            +0.0,-0.0,+0.0
iter: 4901  14:28:09 -10.53  -8.11  -226.214361            +0.0,-0.0,+0.0
iter: 4902  14:28:39 -10.98  -7.14  -226.214360            +0.0,-0.0,+0.0
iter: 4903  14:29:09 -10.80  -6.79  -226.214361            +0.0,-0.0,+0.0
iter: 4904  14:29:39 -10.58  -7.28  -226.214361            +0.0,-0.0,+0.0
iter: 4905  14:30:09 -11.04  -7.54  -226.214361            +0.0,-0.0,+0.0
iter: 4906  14:30:38 -10.76  -6.93  -226.214361            +0.0,-0.0,+0.0
iter: 4907  14:31:08 -10.53  -8.11  -226.214361            +0.0,-0.0,+0.0
iter: 4908  14:31:38 -10.99  -7.13  -226.214361            +0.0,-0.0,+0.0
iter: 4909  14:32:08 -10.81  -6.79  -226.214361            +0.0,-0.0,+0.0
iter: 4910  14:32:38 -10.59  -7.28  -226.214361            +0.0,-0.0,+0.0
iter: 4911  14:33:08 -11.05  -7.53  -226.214361            +0.0,-0.0,+0.0
iter: 4912  14:33:37 -10.77  -6.94  -226.214361            +0.0,-0.0,+0.0
iter: 4913  14:34:07 -10.53  -8.11  -226.214361            +0.0,-0.0,+0.0
iter: 4914  14:34:37 -11.01  -7.13  -226.214361            +0.0,-0.0,+0.0
iter: 4915  14:35:07 -10.82  -6.80  -226.214361            +0.0,-0.0,+0.0
iter: 4916  14:35:37 -10.59  -7.28  -226.214361            +0.0,-0.0,+0.0
iter: 4917  14:36:07 -11.07  -7.53  -226.214361            +0.0,-0.0,+0.0
iter: 4918  14:36:36 -10.78  -6.94  -226.214361            +0.0,-0.0,+0.0
iter: 4919  14:37:06 -10.53  -8.11  -226.214361            +0.0,-0.0,+0.0
iter: 4920  14:37:36 -11.03  -7.13  -226.214361            +0.0,-0.0,+0.0
iter: 4921  14:38:06 -10.84  -6.80  -226.214361            +0.0,-0.0,+0.0
iter: 4922  14:38:36 -10.59  -7.28  -226.214361            +0.0,-0.0,+0.0
iter: 4923  14:39:06 -11.08  -7.52  -226.214361            +0.0,-0.0,+0.0
iter: 4924  14:39:36 -10.79  -6.95  -226.214361            +0.0,-0.0,+0.0
iter: 4925  14:40:05 -10.53  -8.11  -226.214361            +0.0,-0.0,+0.0
iter: 4926  14:40:35 -11.04  -7.13  -226.214361            +0.0,-0.0,+0.0
iter: 4927  14:41:05 -10.85  -6.81  -226.214361            +0.0,-0.0,+0.0
iter: 4928  14:41:35 -10.59  -7.28  -226.214361            +0.0,-0.0,+0.0
iter: 4929  14:42:05 -11.10  -7.52  -226.214361            +0.0,-0.0,+0.0
iter: 4930  14:42:35 -10.80  -6.96  -226.214361            +0.0,-0.0,+0.0
iter: 4931  14:43:05 -10.53  -8.11  -226.214361            +0.0,-0.0,+0.0
iter: 4932  14:43:34 -11.06  -7.12  -226.214361            +0.0,-0.0,+0.0
iter: 4933  14:44:04 -10.86  -6.81  -226.214361            +0.0,-0.0,+0.0
iter: 4934  14:44:34 -10.59  -7.28  -226.214361            +0.0,-0.0,+0.0
iter: 4935  14:45:04 -11.11  -7.51  -226.214361            +0.0,-0.0,+0.0
iter: 4936  14:45:34 -10.81  -6.96  -226.214361            +0.0,-0.0,+0.0
iter: 4937  14:46:04 -10.54  -8.11  -226.214361            +0.0,-0.0,+0.0
iter: 4938  14:46:33 -11.07  -7.12  -226.214361            +0.0,-0.0,+0.0
iter: 4939  14:47:03 -10.87  -6.82  -226.214361            +0.0,-0.0,+0.0
iter: 4940  14:47:33 -10.59  -7.28  -226.214361            +0.0,-0.0,+0.0
iter: 4941  14:48:03 -11.13  -7.51  -226.214361            +0.0,-0.0,+0.0
iter: 4942  14:48:33 -10.82  -6.97  -226.214361            +0.0,-0.0,+0.0
iter: 4943  14:49:02 -10.54  -8.10  -226.214361            +0.0,-0.0,+0.0
iter: 4944  14:49:32 -11.08  -7.12  -226.214361            +0.0,-0.0,+0.0
iter: 4945  14:50:02 -10.88  -6.82  -226.214361            +0.0,-0.0,+0.0
iter: 4946  14:50:32 -10.59  -7.28  -226.214361            +0.0,-0.0,+0.0
iter: 4947  14:51:02 -11.14  -7.50  -226.214361            +0.0,-0.0,+0.0
iter: 4948  14:51:32 -10.83  -6.98  -226.214361            +0.0,-0.0,+0.0
iter: 4949  14:52:01 -10.54  -8.10  -226.214361            +0.0,-0.0,+0.0
iter: 4950  14:52:31 -11.10  -7.12  -226.214361            +0.0,-0.0,+0.0
iter: 4951  14:53:01 -10.89  -6.82  -226.214361            +0.0,-0.0,+0.0
iter: 4952  14:53:31 -10.60  -7.28  -226.214361            +0.0,-0.0,+0.0
iter: 4953  14:54:00 -11.16  -7.50  -226.214361            +0.0,-0.0,+0.0
iter: 4954  14:54:30 -10.84  -6.98  -226.214361            +0.0,-0.0,+0.0
iter: 4955  14:55:00 -10.54  -8.09  -226.214361            +0.0,-0.0,+0.0
iter: 4956  14:55:30 -11.11  -7.11  -226.214361            +0.0,-0.0,+0.0
iter: 4957  14:56:00 -10.90  -6.83  -226.214361            +0.0,-0.0,+0.0
iter: 4958  14:56:29 -10.60  -7.28  -226.214361            +0.0,-0.0,+0.0
iter: 4959  14:56:59 -11.17  -7.49  -226.214361            +0.0,-0.0,+0.0
iter: 4960  14:57:29 -10.85  -6.99  -226.214361            +0.0,-0.0,+0.0
iter: 4961  14:57:59 -10.54  -8.08  -226.214361            +0.0,-0.0,+0.0
iter: 4962  14:58:29 -11.13  -7.11  -226.214361            +0.0,-0.0,+0.0
iter: 4963  14:58:59 -10.91  -6.83  -226.214361            +0.0,-0.0,+0.0
iter: 4964  14:59:29 -10.60  -7.28  -226.214361            +0.0,-0.0,+0.0
iter: 4965  14:59:58 -11.19  -7.49  -226.214361            +0.0,-0.0,+0.0
iter: 4966  15:00:28 -10.86  -6.99  -226.214361            +0.0,-0.0,+0.0
iter: 4967  15:00:58 -10.54  -8.07  -226.214361            +0.0,-0.0,+0.0
iter: 4968  15:01:28 -11.14  -7.11  -226.214361            +0.0,-0.0,+0.0
iter: 4969  15:01:58 -10.92  -6.84  -226.214361            +0.0,-0.0,+0.0
iter: 4970  15:02:28 -10.60  -7.27  -226.214361            +0.0,-0.0,+0.0
iter: 4971  15:02:58 -11.20  -7.49  -226.214361            +0.0,-0.0,+0.0
iter: 4972  15:03:28 -10.87  -7.00  -226.214361            +0.0,-0.0,+0.0
iter: 4973  15:03:57 -10.54  -8.06  -226.214361            +0.0,-0.0,+0.0
iter: 4974  15:04:27 -11.15  -7.11  -226.214361            +0.0,-0.0,+0.0
iter: 4975  15:04:57 -10.94  -6.84  -226.214361            +0.0,-0.0,+0.0
iter: 4976  15:05:27 -10.60  -7.27  -226.214361            +0.0,-0.0,+0.0
iter: 4977  15:05:57 -11.22  -7.48  -226.214361            +0.0,-0.0,+0.0
iter: 4978  15:06:27 -10.89  -7.01  -226.214361            +0.0,-0.0,+0.0
iter: 4979  15:06:57 -10.54  -8.05  -226.214361            +0.0,-0.0,+0.0
iter: 4980  15:07:27 -11.17  -7.11  -226.214361            +0.0,-0.0,+0.0
iter: 4981  15:07:56 -10.95  -6.85  -226.214361            +0.0,-0.0,+0.0
iter: 4982  15:08:26 -10.60  -7.27  -226.214361            +0.0,-0.0,+0.0
iter: 4983  15:08:56 -11.23  -7.48  -226.214361            +0.0,-0.0,+0.0
iter: 4984  15:09:26 -10.90  -7.01  -226.214361            +0.0,-0.0,+0.0
iter: 4985  15:09:56 -10.54  -8.04  -226.214361            +0.0,-0.0,+0.0
iter: 4986  15:10:26 -11.18  -7.11  -226.214361            +0.0,-0.0,+0.0
iter: 4987  15:10:56 -10.96  -6.85  -226.214361            +0.0,-0.0,+0.0
iter: 4988  15:11:26 -10.60  -7.27  -226.214361            +0.0,-0.0,+0.0
iter: 4989  15:11:56 -11.24  -7.47  -226.214361            +0.0,-0.0,+0.0
iter: 4990  15:12:26 -10.91  -7.02  -226.214361            +0.0,-0.0,+0.0
iter: 4991  15:12:55 -10.54  -8.03  -226.214361            +0.0,-0.0,+0.0
iter: 4992  15:13:25 -11.19  -7.11  -226.214361            +0.0,-0.0,+0.0
iter: 4993  15:13:55 -10.97  -6.85  -226.214361            +0.0,-0.0,+0.0
iter: 4994  15:14:25 -10.60  -7.27  -226.214361            +0.0,-0.0,+0.0
iter: 4995  15:14:55 -11.26  -7.47  -226.214361            +0.0,-0.0,+0.0
iter: 4996  15:15:24 -10.92  -7.02  -226.214361            +0.0,-0.0,+0.0
iter: 4997  15:15:54 -10.54  -8.02  -226.214361            +0.0,-0.0,+0.0
iter: 4998  15:16:24 -11.21  -7.10  -226.214361            +0.0,-0.0,+0.0
iter: 4999  15:16:54 -10.99  -6.86  -226.214361            +0.0,-0.0,+0.0
iter: 5000  15:17:24 -10.60  -7.26  -226.214361            +0.0,-0.0,+0.0
