
  ___ ___ ___ _ _ _  
 |   |   |_  | | | | 
 | | | | | . | | | | 
 |__ |  _|___|_____|  21.6.1b1
 |___|_|             

User:   madkru@c097.nifl.fysik.dtu.dk
Date:   Thu Jul 14 09:44:16 2022
Arch:   x86_64
Pid:    179296
Python: 3.8.6
gpaw:   /home/niflheim/madkru/new_venv/gpaw/gpaw (1f0dfc9eae)
_gpaw:  /home/niflheim/madkru/new_venv/gpaw/build/lib.linux-x86_64-skylake-3.8/
        _gpaw.cpython-38-x86_64-linux-gnu.so (c1e45bfab3)
ase:    /home/niflheim/madkru/new_venv/ase/ase (version 3.23.0b1-ca38c75a67)
numpy:  /home/modules/software/SciPy-bundle/2020.11-foss-2020b/lib/python3.8/site-packages/numpy (version 1.19.4)
scipy:  /home/modules/software/SciPy-bundle/2020.11-foss-2020b/lib/python3.8/site-packages/scipy (version 1.5.4)
libxc:  4.3.4
units:  Angstrom and eV
cores: 40
OpenMP: False
OMP_NUM_THREADS: 1

Input parameters:
  convergence: {density: 1e-09}
  experimental: {magmoms: [[0. 0. 0.]
 [0. 0. 0.]
 [0. 0. 0.]
 ...
 [0. 0. 0.]
 [0. 0. 0.]
 [0. 0. 0.]],
                 soc: True}
  kpts: {gamma: True,
         size: (4, 4, 6)}
  maxiter: 5000
  mixer: {backend: pulay,
          beta: 0.05,
          method: difference,
          nmaxold: 3,
          weight: 100}
  mode: {ecut: 600.0,
         gammacentered: False,
         name: pw}
  occupations: {fixmagmom: False,
                name: fermi-dirac,
                width: 0.001}
  symmetry: off

System changes: positions, numbers, cell, pbc, initial_charges, initial_magmoms 

Initialize ...

O-setup:
  name: Oxygen
  id: 9b9d51c344dea68c822856295a461509
  Z: 8.0
  valence: 6
  core: 2
  charge: 0.0
  file: /home/modules/software/GPAW-setups/0.9.20000/O.LDA.gz
  compensation charges: gauss, rc=0.21, lmax=2
  cutoffs: 1.17(filt), 0.83(core),
  valence states:
                energy  radius
    2s(2.00)   -23.752   0.688
    2p(4.00)    -9.195   0.598
    *s           3.459   0.688
    *p          18.016   0.598
    *d           0.000   0.619

  Using partial waves for O as LCAO basis

Mn-setup:
  name: Manganese
  id: 0d715a8018be061a6e9ea6f2d364ac92
  Z: 25.0
  valence: 15
  core: 10
  charge: 0.0
  file: /home/modules/software/GPAW-setups/0.9.20000/Mn.LDA.gz
  compensation charges: gauss, rc=0.38, lmax=2
  cutoffs: 2.14(filt), 0.86(core),
  valence states:
                energy  radius
    3s(2.00)   -85.387   1.275
    4s(2.00)    -5.282   1.275
    3p(6.00)   -54.493   1.281
    4p(0.00)    -1.471   1.281
    3d(5.00)    -7.009   1.138
    *d          20.203   1.138

  Using partial waves for Mn as LCAO basis

P-setup:
  name: Phosphorus
  id: a5561c299094968922a179ab894d2e2d
  Z: 15.0
  valence: 5
  core: 10
  charge: 0.0
  file: /home/modules/software/GPAW-setups/0.9.20000/P.LDA.gz
  compensation charges: gauss, rc=0.30, lmax=2
  cutoffs: 1.69(filt), 1.81(core),
  valence states:
                energy  radius
    3s(2.00)   -14.015   0.953
    3p(3.00)    -5.596   0.953
    *s          13.197   0.953
    *p          21.615   0.953
    *d           0.000   0.953

  Using partial waves for P as LCAO basis

Li-setup:
  name: Lithium
  id: b73562207f97a71b6967473b66fe8b65
  Z: 3.0
  valence: 1
  core: 2
  charge: 0.0
  file: /home/modules/software/GPAW-setups/0.9.20000/Li.LDA.gz
  compensation charges: gauss, rc=0.33, lmax=2
  cutoffs: 1.91(filt), 2.55(core),
  valence states:
                energy  radius
    2s(1.00)    -2.874   1.058
    2p(0.00)    -1.126   1.058
    *s          24.338   1.058

  Using partial waves for Li as LCAO basis

Reference energy: -196157.275402

Non-collinear calculation.
Magnetic moment: (0.000000, 0.000000, 0.000000)

Convergence criteria:
  Maximum total energy change: 0.0005 eV / electron
  Maximum integral of absolute density change: 1e-09 electrons
  Maximum integral of absolute eigenstate change: 4e-08 eV^2
  Maximum number of iterations: 5000

Symmetries present (total): 1

  ( 1  0  0)
  ( 0  1  0)
  ( 0  0  1)

96 k-points: 4 x 4 x 6 Monkhorst-Pack grid + [1/8,1/8,1/12]
96 k-points in the irreducible part of the Brillouin zone
       k-points in crystal coordinates                weights
   0:    -0.25000000   -0.25000000   -0.33333333          1/96
   1:    -0.25000000   -0.25000000   -0.16666667          1/96
   2:    -0.25000000   -0.25000000    0.00000000          1/96
   3:    -0.25000000   -0.25000000    0.16666667          1/96
   4:    -0.25000000   -0.25000000    0.33333333          1/96
   5:    -0.25000000   -0.25000000    0.50000000          1/96
   6:    -0.25000000    0.00000000   -0.33333333          1/96
   7:    -0.25000000    0.00000000   -0.16666667          1/96
   8:    -0.25000000    0.00000000    0.00000000          1/96
   9:    -0.25000000    0.00000000    0.16666667          1/96
          ...
  95:     0.50000000    0.50000000    0.50000000          1/96

Wave functions: Plane wave expansion
  Cutoff energy: 600.000 eV
  Number of coefficients (min, max): 10056, 10154
  Pulay-stress correction: 0.000000 eV/Ang^3 (de/decut=0.000000)
  Using FFTW library
  ScaLapack parameters: grid=1x1, blocksize=None
  Wavefunction extrapolation:
    Improved wavefunction reuse through dual PAW basis 

Occupation numbers: Fermi-Dirac: width=0.0010 eV
 

Eigensolver
   Davidson(niter=2) 

Densities:
  Coarse grid: 60*35*27 grid
  Fine grid: 120*70*54 grid
  Total Charge: 0.000000 

Density mixing:
  Method: difference
  Backend: pulay
  Linear mixing parameter: 0.05
  Mixing with 3 old densities
  Damping of long wave oscillations: 100 

Hamiltonian:
  XC and Coulomb potentials evaluated on a 120*70*54 grid
  Using the LDA Exchange-Correlation functional
  External potential:
    <gpaw.external.NoExternalPotential object at 0x2b1039c9ed90>
 

Memory estimate:
  Process memory now: 205.43 MiB
  Calculator: 167.52 MiB
    Density: 37.88 MiB
      Arrays: 11.25 MiB
      Localized functions: 18.84 MiB
      Mixer: 7.79 MiB
    Hamiltonian: 7.90 MiB
      Arrays: 7.35 MiB
      XC: 0.00 MiB
      Poisson: 0.00 MiB
      vbar: 0.54 MiB
    Wavefunctions: 121.75 MiB
      Arrays psit_nG: 69.41 MiB
      Eigensolver: 43.14 MiB
      Projections: 2.41 MiB
      Projectors: 4.31 MiB
      PW-descriptor: 2.47 MiB

Total number of cores used: 40
Parallelization over k-points: 40

Number of atoms: 28
Number of atomic orbitals: 148
Number of bands in calculation: 224
Number of valence electrons: 180
Bands to converge: occupied

... initialized

Initializing position-dependent things.

Density initialized from atomic densities
Creating initial wave functions:
  148 bands from LCAO basis set
  76 bands from random numbers

     .-------------------------.  
    /|             P  O        |  
   / |   O      O            Li|  
  /  |              OMn      O |  
 *   |PO     O          Mn Li  |  
 |   | O        Li        O    |  
 |   .--Mn----------O----------.  
 | O/      MO Li         OP   /   
 | /      O  P  O      O     /    
 |/                         /     
 *-------------------------*      

Positions:
   0 O      3.553389    0.289373    1.041395    ( 0.0000,  0.0000,  0.0000)
   1 O      1.731313    5.803511    3.392438    ( 0.0000,  0.0000,  0.0000)
   2 O      6.960888    3.345795    3.716798    ( 0.0000,  0.0000,  0.0000)
   3 O      8.783401    2.761189    1.329072    ( 0.0000,  0.0000,  0.0000)
   4 O      6.961089    5.803593    3.716968    ( 0.0000,  0.0000,  0.0000)
   5 O      8.783241    0.289407    1.329100    ( 0.0000,  0.0000,  0.0000)
   6 O      3.553564    2.761243    1.041437    ( 0.0000,  0.0000,  0.0000)
   7 O      1.731093    3.345856    3.392626    ( 0.0000,  0.0000,  0.0000)
   8 O      0.484575    1.525193    1.374688    ( 0.0000,  0.0000,  0.0000)
   9 O      4.780950    4.574845    3.769899    ( 0.0000,  0.0000,  0.0000)
  10 O     10.011066    4.574846    3.339564    ( 0.0000,  0.0000,  0.0000)
  11 O      5.714698    1.525194    0.995933    ( 0.0000,  0.0000,  0.0000)
  12 Mn     2.266263    1.524874    2.468369    ( 0.0000,  0.0000,  0.0000)
  13 Mn     2.897911    4.575103    0.109980    ( 5.0000,  0.0000,  0.0000)
  14 Mn     8.127788    4.575101    2.259752    (-5.0000,  0.0000,  0.0000)
  15 Mn     7.496128    1.524874    4.641797    (-5.0000,  0.0000,  0.0000)
  16 P      4.272388    1.525281    0.408865    ( 5.0000,  0.0000,  0.0000)
  17 P      0.983980    4.574694    2.759114    ( 0.0000,  0.0000,  0.0000)
  18 P      6.213878    4.574704    4.350385    ( 0.0000,  0.0000,  0.0000)
  19 P      9.502255    1.525272    1.961630    ( 0.0000,  0.0000,  0.0000)
  20 O      4.244556    1.525224    3.611975    ( 0.0000,  0.0000,  0.0000)
  21 O      1.035584    4.574646    1.225051    ( 0.0000,  0.0000,  0.0000)
  22 O      6.265611    4.574661    1.144398    ( 0.0000,  0.0000,  0.0000)
  23 O      9.474379    1.525211    3.498546    ( 0.0000,  0.0000,  0.0000)
  24 Li    -0.077690    0.009558   -0.034959    ( 0.0000,  0.0000,  0.0000)
  25 Li     5.152394    0.009669    2.405113    ( 0.0000,  0.0000,  0.0000)
  26 Li    -0.077389    3.040581   -0.034731    ( 0.0000,  0.0000,  0.0000)
  27 Li     5.152698    3.040463    2.404898    ( 0.0000,  0.0000,  0.0000)

Unit cell:
           periodic     x           y           z      points  spacing
  1. axis:    yes   10.460000    0.000000    0.000000    60     0.1743
  2. axis:    yes    0.000000    6.100000    0.000000    35     0.1743
  3. axis:    yes    0.000000    0.000000    4.740000    27     0.1756

  Lengths:  10.460000   6.100000   4.740000
  Angles:   90.000000  90.000000  90.000000

Effective grid spacing dv^(1/3) = 0.1747

                     log10-error:    total        iterations:
           time      wfs    density  energy       poisson
iter:   1  09:46:35                -248.789576            -1.0,+0.0,+0.0
iter:   2  09:47:16  -0.43  -0.91  -255.026244            +0.6,+0.0,-0.0
iter:   3  09:47:56  -1.03  -0.96  -241.666767            +0.0,+0.0,-0.0
iter:   4  09:48:37  -1.03  -1.00  -235.692065            -0.0,+0.0,-0.0
iter:   5  09:49:17  -0.71  -1.10  -230.887023            -0.0,+0.0,-0.0
iter:   6  09:49:57  -1.68  -1.29  -222.018760            -0.0,+0.0,-0.0
iter:   7  09:50:38  -2.53  -1.39  -222.021310            -0.1,+0.0,-0.0
iter:   8  09:51:18  -2.57  -1.39  -221.951506            -0.1,+0.0,-0.0
iter:   9  09:51:59  -2.16  -1.40  -223.070623            -0.1,-0.0,-0.0
iter:  10  09:52:39  -2.01  -1.45  -225.447790            -0.3,-0.0,-0.0
iter:  11  09:53:20  -2.57  -1.36  -221.227288            -0.1,-0.0,+0.0
iter:  12  09:54:00  -3.29  -1.57  -221.166098            -0.2,-0.0,-0.0
iter:  13  09:54:41  -2.71  -1.59  -221.430276            +0.1,-0.0,-0.1
iter:  14  09:55:21  -3.04  -1.63  -221.055427            +0.1,-0.0,-0.1
iter:  15  09:56:02  -3.16  -1.66  -221.006410            +0.3,-0.0,-0.1
iter:  16  09:56:42  -2.53  -1.76  -220.981788            +0.0,-0.0,-0.3
iter:  17  09:57:22  -3.49  -2.08  -221.203548            +0.1,-0.0,-0.7
iter:  18  09:58:03  -3.53  -2.04  -221.280731            +0.2,-0.0,-1.0
iter:  19  09:58:43  -3.34  -2.08  -221.599547            +0.3,-0.0,-1.8
iter:  20  09:59:23  -3.44  -2.13  -221.936534            +0.3,-0.0,-2.3
iter:  21  10:00:04  -3.19  -2.05  -222.859489            +0.4,-0.0,-3.5
iter:  22  10:00:44  -3.18  -2.04  -223.890864            +0.4,-0.1,-4.7
iter:  23  10:01:25  -2.68  -1.98  -223.764672            +0.7,-0.1,-4.5
iter:  24  10:02:05  -2.82  -2.04  -223.687830            +0.9,-0.1,-4.8
iter:  25  10:02:45  -3.40  -2.13  -223.906602            +0.9,-0.1,-5.3
iter:  26  10:03:26  -2.73  -2.14  -223.838082            +0.8,-0.1,-5.6
iter:  27  10:04:06  -3.09  -2.38  -224.191001            +0.9,-0.1,-6.3
iter:  28  10:04:47  -3.53  -2.28  -223.828904            +0.9,-0.1,-5.5
iter:  29  10:05:27  -4.01  -2.43  -223.857972            +0.9,-0.1,-5.4
iter:  30  10:06:07  -3.61  -2.45  -223.934694            +1.0,-0.2,-5.4
iter:  31  10:06:48  -3.77  -2.42  -224.049928            +1.1,-0.2,-5.8
iter:  32  10:07:28  -4.01  -2.48  -224.051466            +1.0,-0.2,-5.6
iter:  33  10:08:09  -3.80  -2.45  -223.966174            +1.1,-0.2,-5.3
iter:  34  10:08:49  -3.00  -2.49  -223.968848            +1.2,-0.3,-5.8
iter:  35  10:09:29  -3.36  -2.55  -223.718046            +1.2,-0.3,-5.1
iter:  36  10:10:10  -3.59  -2.73  -223.682961            +1.2,-0.4,-4.5
iter:  37  10:10:50  -3.94  -2.74  -223.701866            +1.3,-0.2,-4.3
iter:  38  10:11:30  -4.51  -2.70  -223.718102            +1.2,-0.1,-4.4
iter:  39  10:12:11  -3.99  -2.72  -223.761148            +1.3,-0.1,-4.5
iter:  40  10:12:51  -3.88  -2.70  -223.810730            +1.5,-0.1,-4.7
iter:  41  10:13:31  -3.95  -2.68  -223.854183            +1.7,-0.1,-4.6
iter:  42  10:14:12  -4.50  -2.65  -223.862165            +1.7,-0.1,-4.7
iter:  43  10:14:52  -3.70  -2.65  -223.897306            +1.9,-0.1,-4.5
iter:  44  10:15:32  -4.59  -2.68  -223.878559            +1.9,-0.1,-4.6
iter:  45  10:16:13  -3.79  -2.72  -223.918811            +2.1,-0.2,-4.6
iter:  46  10:16:53  -3.84  -2.74  -223.845856            +1.7,-0.1,-4.6
iter:  47  10:17:33  -3.82  -2.84  -223.772679            +1.3,-0.1,-4.6
iter:  48  10:18:14  -3.35  -2.83  -223.986522            +2.3,-0.1,-4.6
iter:  49  10:18:54  -2.87  -2.68  -223.626670            +0.5,-0.1,-4.6
iter:  50  10:19:35  -3.30  -2.58  -223.795137            +1.5,-0.2,-4.6
iter:  51  10:20:15  -4.46  -2.88  -223.793269            +1.3,-0.2,-4.7
iter:  52  10:20:55  -4.63  -2.85  -223.808142            +1.3,-0.2,-4.6
iter:  53  10:21:35  -3.64  -2.77  -223.766041            +1.3,-0.2,-4.7
iter:  54  10:22:16  -3.66  -3.12  -223.828633            +1.5,-0.2,-4.8
iter:  55  10:22:56  -3.72  -2.96  -223.856245            +1.8,-0.2,-4.9
iter:  56  10:23:37  -4.18  -2.93  -223.858347            +1.7,-0.2,-4.9
iter:  57  10:24:17  -4.05  -3.07  -223.977692            +1.8,-0.2,-5.2
iter:  58  10:24:57  -3.76  -3.04  -223.814985            +1.5,-0.2,-4.7
iter:  59  10:25:37  -3.92  -3.06  -223.755797            +1.3,-0.2,-4.5
iter:  60  10:26:18  -3.65  -3.11  -223.889407            +1.9,-0.3,-4.4
iter:  61  10:26:58  -3.35  -3.19  -223.727071            +1.2,-0.2,-4.6
iter:  62  10:27:38  -4.19  -3.07  -223.797167            +1.5,-0.3,-4.6
iter:  63  10:28:19  -4.01  -3.14  -223.875286            +1.8,-0.3,-4.7
iter:  64  10:28:59  -3.61  -3.24  -223.754925            +1.2,-0.3,-4.6
iter:  65  10:29:39  -4.00  -3.18  -223.743743            +0.9,-0.5,-4.7
iter:  66  10:30:20  -3.63  -3.21  -223.797998            +1.5,-0.2,-4.6
iter:  67  10:31:00  -3.67  -3.16  -223.894476            +2.0,-0.1,-4.6
iter:  68  10:31:40  -3.46  -3.22  -223.756852            +1.2,-0.2,-4.6
iter:  69  10:32:21  -3.22  -3.21  -223.587358            +0.1,-0.3,-4.6
iter:  70  10:33:01  -3.27  -2.74  -223.800034            +1.2,-0.3,-4.7
iter:  71  10:33:41  -4.11  -3.24  -223.867879            +1.3,-0.4,-4.9
iter:  72  10:34:22  -3.62  -3.22  -223.805623            +1.5,-0.2,-4.4
iter:  73  10:35:02  -4.52  -3.36  -223.788295            +1.4,-0.2,-4.5
iter:  74  10:35:42  -4.53  -3.33  -223.762653            +1.2,-0.2,-4.5
iter:  75  10:36:23  -4.12  -3.32  -223.839075            +1.6,-0.3,-4.5
iter:  76  10:37:03  -4.25  -3.40  -223.888585            +1.9,-0.2,-4.5
iter:  77  10:37:43  -3.68  -3.32  -223.817233            +1.2,-0.5,-4.5
iter:  78  10:38:23  -3.29  -3.42  -223.585941            +0.3,-0.4,-4.6
iter:  79  10:39:04  -3.29  -2.87  -223.866751            +1.4,-0.6,-4.6
iter:  80  10:39:44  -4.33  -3.37  -223.885118            +1.4,-0.6,-4.7
iter:  81  10:40:24  -3.71  -3.32  -224.047681            +1.8,-0.8,-4.4
iter:  82  10:41:04  -3.58  -2.98  -223.791825            +1.3,-0.3,-4.6
iter:  83  10:41:44  -4.16  -3.39  -223.747430            +1.0,-0.2,-4.5
iter:  84  10:42:25  -3.89  -3.40  -223.841324            +1.6,-0.1,-4.6
iter:  85  10:43:05  -4.26  -3.38  -223.881159            +1.8,-0.1,-4.7
iter:  86  10:43:45  -4.01  -3.40  -223.855529            +1.4,-0.0,-4.8
iter:  87  10:44:25  -4.17  -3.32  -223.807544            +1.2,+0.0,-4.8
iter:  88  10:45:06  -3.70  -3.45  -224.008530            +1.7,-0.1,-5.0
iter:  89  10:45:46  -3.58  -3.07  -223.849557            +1.1,+0.1,-4.9
iter:  90  10:46:26  -3.73  -3.30  -224.033713            +1.0,+0.1,-5.4
iter:  91  10:47:06  -3.37  -2.91  -223.801962            +1.3,+0.1,-4.6
iter:  92  10:47:46  -4.05  -3.49  -223.814212            +1.4,+0.2,-4.4
iter:  93  10:48:26  -4.41  -3.57  -223.782196            +1.3,+0.1,-4.4
iter:  94  10:49:06  -4.15  -3.56  -223.811344            +1.5,+0.1,-4.4
iter:  95  10:49:47  -4.34  -3.46  -223.876955            +1.7,+0.2,-4.5
iter:  96  10:50:27  -4.24  -3.23  -223.802637            +1.4,+0.0,-4.4
iter:  97  10:51:07  -4.60  -3.37  -223.792529            +1.3,-0.0,-4.4
iter:  98  10:51:47  -4.01  -3.38  -223.854575            +1.7,-0.0,-4.5
iter:  99  10:52:27  -3.50  -3.36  -223.754016            +0.8,-0.0,-4.6
iter: 100  10:53:07  -3.57  -3.56  -223.902212            +1.7,+0.0,-4.6
iter: 101  10:53:47  -3.67  -3.19  -223.905042            +1.0,+0.1,-4.9
iter: 102  10:54:27  -3.84  -3.17  -223.772772            +0.6,+0.2,-4.8
iter: 103  10:55:08  -3.30  -3.07  -224.345571            +1.3,+0.0,-5.6
iter: 104  10:55:48  -3.27  -2.69  -223.780112            +1.0,+0.2,-4.5
iter: 105  10:56:28  -3.55  -3.37  -223.728309            +1.4,+0.2,-3.9
iter: 106  10:57:08  -3.73  -3.16  -223.729144            +0.8,+0.4,-4.2
iter: 107  10:57:48  -3.55  -3.27  -223.671964            +0.2,+0.1,-4.3
iter: 108  10:58:28  -3.83  -2.79  -223.752905            +0.7,+0.0,-4.5
iter: 109  10:59:08  -4.15  -3.18  -223.849388            +0.8,+0.1,-4.7
iter: 110  10:59:48  -4.49  -3.10  -223.799420            +0.8,+0.1,-4.5
iter: 111  11:00:28  -3.78  -3.25  -223.677486            +0.8,-0.0,-4.0
iter: 112  11:01:08  -4.41  -3.23  -223.746551            +0.9,+0.0,-4.3
iter: 113  11:01:48  -4.15  -3.34  -223.839421            +1.2,+0.0,-4.4
iter: 114  11:02:28  -3.91  -3.33  -223.769717            +0.7,+0.0,-4.4
iter: 115  11:03:09  -4.05  -3.27  -223.820842            +0.5,+0.0,-4.6
iter: 116  11:03:49  -3.74  -3.02  -223.723397            +0.6,+0.0,-4.1
iter: 117  11:04:29  -4.55  -3.00  -223.768962            +0.5,+0.2,-4.2
iter: 118  11:05:09  -4.14  -2.96  -223.786662            +0.5,-0.0,-4.4
iter: 119  11:05:49  -4.40  -2.96  -223.752115            +0.5,-0.1,-4.3
iter: 120  11:06:29  -4.48  -3.01  -223.763425            +0.5,-0.1,-4.3
iter: 121  11:07:09  -4.75  -3.05  -223.740209            +0.5,-0.1,-4.2
iter: 122  11:07:49  -4.15  -3.08  -223.721873            +0.5,-0.1,-4.1
iter: 123  11:08:29  -4.87  -3.16  -223.729483            +0.5,-0.1,-4.1
iter: 124  11:09:08  -5.04  -3.17  -223.725979            +0.4,-0.1,-4.1
iter: 125  11:09:48  -4.80  -3.16  -223.739039            +0.3,-0.1,-4.3
iter: 126  11:10:28  -4.17  -3.14  -223.734751            +0.4,-0.1,-3.9
iter: 127  11:11:08  -4.77  -3.04  -223.743483            +0.4,-0.1,-3.9
iter: 128  11:11:48  -4.99  -3.08  -223.745585            +0.4,-0.1,-3.9
iter: 129  11:12:28  -4.66  -3.07  -223.771734            +0.4,-0.0,-3.8
iter: 130  11:13:08  -4.53  -2.98  -223.743440            +0.3,-0.1,-3.8
iter: 131  11:13:48  -4.51  -3.08  -223.739750            +0.2,-0.0,-3.8
iter: 132  11:14:28  -4.81  -3.10  -223.749899            +0.3,-0.0,-3.8
iter: 133  11:15:08  -5.04  -3.07  -223.744477            +0.2,+0.0,-3.7
iter: 134  11:15:48  -4.55  -3.10  -223.730783            +0.1,-0.0,-3.9
iter: 135  11:16:28  -5.01  -3.18  -223.735632            +0.2,-0.1,-3.8
iter: 136  11:17:08  -4.22  -3.18  -223.725991            +0.3,-0.1,-3.8
iter: 137  11:17:47  -5.11  -3.43  -223.729932            +0.3,-0.1,-3.8
iter: 138  11:18:27  -4.77  -3.42  -223.732606            +0.3,-0.1,-3.9
iter: 139  11:19:07  -5.51  -3.46  -223.734675            +0.3,-0.1,-3.9
iter: 140  11:19:47  -5.40  -3.45  -223.735934            +0.3,-0.1,-3.8
iter: 141  11:20:27  -5.32  -3.44  -223.741201            +0.3,-0.1,-3.8
iter: 142  11:21:07  -4.88  -3.34  -223.733100            +0.2,-0.1,-3.8
iter: 143  11:21:47  -5.18  -3.40  -223.736665            +0.2,-0.1,-3.8
iter: 144  11:22:26  -5.52  -3.31  -223.734164            +0.2,-0.1,-3.8
iter: 145  11:23:06  -5.33  -3.38  -223.741160            +0.2,-0.1,-3.8
iter: 146  11:23:46  -4.62  -3.24  -223.729952            +0.2,-0.1,-3.8
iter: 147  11:24:26  -5.36  -3.74  -223.731046            +0.2,-0.1,-3.8
iter: 148  11:25:06  -5.08  -3.75  -223.728304            +0.2,-0.1,-3.8
iter: 149  11:25:46  -5.81  -3.68  -223.729909            +0.2,-0.1,-3.8
iter: 150  11:26:26  -5.41  -3.73  -223.729398            +0.2,-0.1,-3.7
iter: 151  11:27:06  -5.64  -3.65  -223.732500            +0.2,-0.1,-3.7
iter: 152  11:27:46  -6.38  -3.67  -223.732463            +0.2,-0.1,-3.7
iter: 153  11:28:26  -5.47  -3.72  -223.730286            +0.1,-0.1,-3.7
iter: 154  11:29:05  -5.72  -3.71  -223.730845            +0.0,-0.1,-3.7
iter: 155  11:29:45  -5.52  -3.65  -223.731405            -0.0,-0.1,-3.7
iter: 156  11:30:25  -5.41  -3.57  -223.733496            -0.1,-0.1,-3.7
iter: 157  11:31:05  -6.18  -3.47  -223.733089            -0.1,-0.1,-3.7
iter: 158  11:31:45  -5.22  -3.52  -223.731873            -0.1,-0.1,-3.6
iter: 159  11:32:25  -5.40  -3.73  -223.733067            -0.1,-0.1,-3.6
iter: 160  11:33:05  -5.51  -3.83  -223.731309            -0.1,-0.1,-3.7
iter: 161  11:33:45  -5.88  -3.76  -223.732343            -0.1,-0.1,-3.7
iter: 162  11:34:24  -5.61  -3.80  -223.733548            -0.1,-0.1,-3.6
iter: 163  11:35:04  -5.59  -3.87  -223.732875            -0.2,-0.1,-3.6
iter: 164  11:35:44  -5.97  -3.70  -223.733656            -0.2,-0.1,-3.6
iter: 165  11:36:24  -5.58  -3.73  -223.735204            -0.2,-0.1,-3.6
iter: 166  11:37:04  -5.75  -3.67  -223.735088            -0.2,-0.1,-3.6
iter: 167  11:37:44  -5.91  -3.78  -223.736564            -0.2,-0.1,-3.6
iter: 168  11:38:24  -6.46  -3.81  -223.736295            -0.2,-0.1,-3.6
iter: 169  11:39:04  -5.36  -3.83  -223.740421            -0.2,-0.1,-3.5
iter: 170  11:39:44  -5.10  -3.64  -223.735640            -0.2,-0.1,-3.6
iter: 171  11:40:24  -5.74  -3.81  -223.736042            -0.3,-0.1,-3.6
iter: 172  11:41:04  -6.18  -3.79  -223.736454            -0.3,-0.1,-3.6
iter: 173  11:41:44  -5.86  -3.88  -223.737324            -0.3,-0.1,-3.6
iter: 174  11:42:24  -5.55  -3.99  -223.737696            -0.3,-0.1,-3.6
iter: 175  11:43:04  -5.94  -4.08  -223.738578            -0.3,-0.1,-3.6
iter: 176  11:43:44  -5.77  -4.09  -223.740167            -0.3,-0.1,-3.6
iter: 177  11:44:24  -5.86  -3.88  -223.739171            -0.3,-0.1,-3.6
iter: 178  11:45:04  -5.91  -4.07  -223.739887            -0.3,-0.1,-3.6
iter: 179  11:45:44  -5.90  -4.07  -223.741019            -0.3,-0.1,-3.6
iter: 180  11:46:24  -6.24  -3.97  -223.741158            -0.3,-0.1,-3.6
iter: 181  11:47:04  -6.28  -3.89  -223.741824            -0.3,-0.1,-3.6
iter: 182  11:47:44  -5.77  -3.87  -223.742893            -0.3,-0.1,-3.5
iter: 183  11:48:24  -5.72  -3.80  -223.744432            -0.3,-0.1,-3.5
iter: 184  11:49:04  -5.71  -3.66  -223.745087            -0.3,-0.1,-3.5
iter: 185  11:49:44  -5.53  -3.57  -223.743683            -0.4,-0.1,-3.5
iter: 186  11:50:24  -6.14  -3.96  -223.744629            -0.4,-0.1,-3.5
iter: 187  11:51:04  -5.57  -3.89  -223.745740            -0.4,-0.1,-3.5
iter: 188  11:51:44  -5.90  -3.76  -223.747446            -0.4,-0.1,-3.5
iter: 189  11:52:24  -6.32  -3.60  -223.747210            -0.4,-0.1,-3.5
iter: 190  11:53:04  -5.42  -3.68  -223.748125            -0.4,-0.1,-3.5
iter: 191  11:53:44  -5.24  -3.70  -223.752119            -0.4,-0.1,-3.4
iter: 192  11:54:24  -5.39  -3.42  -223.749615            -0.4,-0.1,-3.4
iter: 193  11:55:04  -5.64  -3.68  -223.751157            -0.5,-0.1,-3.4
iter: 194  11:55:44  -5.41  -3.55  -223.750826            -0.5,-0.1,-3.4
iter: 195  11:56:24  -6.09  -3.77  -223.750779            -0.5,-0.1,-3.4
iter: 196  11:57:04  -5.50  -3.74  -223.751782            -0.5,-0.1,-3.4
iter: 197  11:57:44  -4.74  -3.66  -223.758716            -0.5,-0.1,-3.3
iter: 198  11:58:24  -5.44  -3.31  -223.754758            -0.5,-0.1,-3.4
iter: 199  11:59:04  -5.46  -3.45  -223.752376            -0.5,-0.1,-3.4
iter: 200  11:59:44  -5.98  -3.70  -223.752459            -0.5,-0.1,-3.4
iter: 201  12:00:24  -5.18  -3.77  -223.752569            -0.5,-0.1,-3.4
iter: 202  12:01:04  -5.17  -3.74  -223.751541            -0.5,-0.1,-3.4
iter: 203  12:01:44  -5.36  -4.08  -223.750702            -0.5,-0.1,-3.4
iter: 204  12:02:24  -5.57  -4.01  -223.752756            -0.6,-0.1,-3.4
iter: 205  12:03:04  -5.99  -3.94  -223.753294            -0.6,-0.1,-3.4
iter: 206  12:03:44  -6.19  -4.03  -223.753868            -0.6,-0.1,-3.4
iter: 207  12:04:24  -5.76  -3.99  -223.754324            -0.6,-0.1,-3.4
iter: 208  12:05:04  -5.39  -3.97  -223.755783            -0.6,-0.1,-3.4
iter: 209  12:05:44  -5.24  -3.73  -223.751423            -0.6,-0.1,-3.3
iter: 210  12:06:24  -5.93  -3.91  -223.752896            -0.6,-0.1,-3.3
iter: 211  12:07:04  -5.91  -3.98  -223.753933            -0.6,-0.1,-3.3
iter: 212  12:07:44  -5.84  -4.00  -223.753305            -0.6,-0.1,-3.3
iter: 213  12:08:24  -5.81  -4.11  -223.753634            -0.6,-0.1,-3.3
iter: 214  12:09:04  -6.01  -3.81  -223.753886            -0.7,-0.1,-3.3
iter: 215  12:09:44  -6.42  -4.03  -223.754238            -0.7,-0.1,-3.2
iter: 216  12:10:24  -5.38  -4.05  -223.755555            -0.7,-0.1,-3.2
iter: 217  12:11:04  -5.69  -3.99  -223.754543            -0.7,-0.1,-3.2
iter: 218  12:11:44  -5.96  -4.13  -223.754597            -0.6,-0.1,-3.2
iter: 219  12:12:24  -5.79  -4.01  -223.754701            -0.7,-0.1,-3.2
iter: 220  12:13:04  -5.87  -3.85  -223.755022            -0.7,-0.1,-3.2
iter: 221  12:13:44  -6.55  -3.86  -223.755205            -0.7,-0.1,-3.2
iter: 222  12:14:24  -5.68  -3.87  -223.755468            -0.7,-0.1,-3.2
iter: 223  12:15:04  -6.17  -3.84  -223.755335            -0.7,-0.1,-3.2
iter: 224  12:15:44  -5.68  -3.96  -223.755702            -0.7,-0.1,-3.1
iter: 225  12:16:24  -5.45  -4.09  -223.755526            -0.7,-0.1,-3.0
iter: 226  12:17:04  -5.80  -4.00  -223.756506            -0.8,-0.1,-3.1
iter: 227  12:17:44  -5.27  -4.03  -223.758016            -0.9,-0.1,-3.1
iter: 228  12:18:24  -6.09  -3.90  -223.758099            -0.9,-0.1,-3.1
iter: 229  12:19:04  -5.03  -3.88  -223.758183            -1.0,-0.1,-3.0
iter: 230  12:19:44  -6.06  -4.04  -223.758311            -1.0,-0.1,-3.0
iter: 231  12:20:24  -6.24  -4.08  -223.758660            -1.0,-0.1,-3.0
iter: 232  12:21:04  -5.91  -4.06  -223.759037            -1.0,-0.1,-2.9
iter: 233  12:21:44  -5.87  -3.93  -223.759065            -1.0,-0.1,-2.9
iter: 234  12:22:24  -6.17  -4.08  -223.758993            -1.0,-0.1,-2.9
iter: 235  12:23:03  -6.30  -4.24  -223.759387            -1.0,-0.1,-2.9
iter: 236  12:23:43  -5.94  -4.18  -223.759512            -1.1,-0.1,-2.9
iter: 237  12:24:23  -6.39  -4.17  -223.759621            -1.0,-0.1,-2.9
iter: 238  12:25:03  -6.33  -4.17  -223.759913            -1.1,-0.1,-2.9
iter: 239  12:25:43  -5.77  -4.17  -223.759527            -1.0,-0.1,-2.9
iter: 240  12:26:23  -6.58  -4.06  -223.759638            -1.0,-0.1,-2.9
iter: 241  12:27:03  -5.68  -4.12  -223.759901            -1.0,-0.1,-2.8
iter: 242  12:27:43  -6.12  -4.18  -223.759467            -1.0,-0.1,-2.8
iter: 243  12:28:23  -5.69  -4.11  -223.760662            -1.1,-0.1,-2.8
iter: 244  12:29:03  -6.42  -4.26  -223.760996            -1.1,-0.1,-2.8
iter: 245  12:29:43  -6.04  -4.14  -223.760527            -1.1,-0.1,-2.8
iter: 246  12:30:23  -6.44  -4.24  -223.760758            -1.1,-0.1,-2.8
iter: 247  12:31:03  -6.09  -4.32  -223.761283            -1.2,-0.1,-2.8
iter: 248  12:31:43  -6.08  -4.23  -223.760869            -1.1,-0.1,-2.8
iter: 249  12:32:23  -5.81  -4.27  -223.761763            -1.2,-0.1,-2.8
iter: 250  12:33:03  -5.32  -4.06  -223.760395            -1.1,-0.1,-2.8
iter: 251  12:33:43  -6.44  -4.16  -223.760723            -1.1,-0.1,-2.8
iter: 252  12:34:23  -5.82  -4.31  -223.761212            -1.2,-0.1,-2.8
iter: 253  12:35:03  -7.22  -4.67  -223.761167            -1.2,-0.1,-2.8
iter: 254  12:35:43  -6.54  -4.69  -223.761437            -1.2,-0.1,-2.8
iter: 255  12:36:23  -6.07  -4.42  -223.761064            -1.1,-0.1,-2.8
iter: 256  12:37:03  -6.68  -4.35  -223.761240            -1.2,-0.1,-2.8
iter: 257  12:37:43  -6.44  -4.29  -223.761325            -1.2,-0.1,-2.8
iter: 258  12:38:23  -6.41  -4.30  -223.761602            -1.2,-0.1,-2.8
iter: 259  12:39:03  -7.03  -4.23  -223.761574            -1.2,-0.1,-2.8
iter: 260  12:39:43  -6.71  -4.32  -223.761696            -1.2,-0.1,-2.7
iter: 261  12:40:23  -6.75  -4.40  -223.761742            -1.2,-0.1,-2.7
iter: 262  12:41:03  -6.34  -4.33  -223.762103            -1.2,-0.1,-2.7
iter: 263  12:41:43  -6.21  -4.33  -223.761787            -1.2,-0.1,-2.7
iter: 264  12:42:23  -6.52  -4.19  -223.761916            -1.2,-0.1,-2.7
iter: 265  12:43:03  -6.36  -4.23  -223.762121            -1.2,-0.1,-2.7
iter: 266  12:43:42  -6.16  -4.03  -223.762068            -1.2,-0.1,-2.7
iter: 267  12:44:22  -6.94  -4.23  -223.762118            -1.2,-0.1,-2.7
iter: 268  12:45:03  -6.67  -4.27  -223.762223            -1.2,-0.1,-2.7
iter: 269  12:45:43  -6.13  -4.38  -223.762348            -1.2,-0.1,-2.6
iter: 270  12:46:23  -6.32  -4.29  -223.762609            -1.3,-0.1,-2.6
iter: 271  12:47:03  -6.78  -4.31  -223.762756            -1.3,-0.1,-2.6
iter: 272  12:47:43  -5.71  -4.26  -223.762681            -1.4,-0.1,-2.6
iter: 273  12:48:23  -5.90  -4.27  -223.763185            -1.3,-0.1,-2.6
iter: 274  12:49:03  -6.03  -4.23  -223.763786            -1.4,-0.1,-2.5
iter: 275  12:49:43  -5.62  -4.04  -223.762807            -1.3,-0.1,-2.6
iter: 276  12:50:23  -5.98  -4.35  -223.762489            -1.2,-0.1,-2.6
iter: 277  12:51:03  -4.87  -4.39  -223.763798            -1.5,-0.1,-2.6
iter: 278  12:51:43  -5.62  -4.16  -223.763665            -1.4,-0.1,-2.6
iter: 279  12:52:23  -5.00  -4.07  -223.764312            -1.5,-0.1,-2.6
iter: 280  12:53:03  -4.85  -4.11  -223.764464            -1.7,-0.1,-2.6
iter: 281  12:53:43  -4.83  -3.95  -223.764972            -1.5,-0.1,-2.5
iter: 282  12:54:23  -4.59  -3.93  -223.766585            -1.8,-0.1,-2.5
iter: 283  12:55:03  -5.08  -3.75  -223.766339            -1.7,-0.1,-2.5
iter: 284  12:55:43  -4.49  -3.76  -223.765825            -1.9,-0.1,-2.5
iter: 285  12:56:23  -5.49  -3.72  -223.767669            -1.9,-0.1,-2.5
iter: 286  12:57:03  -5.13  -3.69  -223.769202            -1.9,-0.1,-2.4
iter: 287  12:57:43  -5.83  -3.63  -223.768419            -2.0,-0.1,-2.4
iter: 288  12:58:23  -5.51  -3.77  -223.768741            -2.0,-0.1,-2.3
iter: 289  12:59:03  -5.79  -3.71  -223.768233            -2.0,-0.1,-2.3
iter: 290  12:59:43  -5.95  -3.77  -223.768558            -2.0,-0.1,-2.3
iter: 291  13:00:23  -5.90  -3.82  -223.769310            -2.0,-0.1,-2.3
iter: 292  13:01:02  -5.66  -3.77  -223.768492            -2.0,-0.1,-2.4
iter: 293  13:01:42  -6.11  -3.78  -223.769254            -2.0,-0.1,-2.3
iter: 294  13:02:22  -5.66  -3.70  -223.768417            -2.0,-0.1,-2.3
iter: 295  13:03:02  -6.50  -3.82  -223.768500            -2.0,-0.1,-2.3
iter: 296  13:03:42  -6.22  -3.83  -223.768903            -2.0,-0.1,-2.3
iter: 297  13:04:22  -6.40  -3.82  -223.768394            -2.0,-0.1,-2.3
iter: 298  13:05:02  -5.74  -3.89  -223.767861            -2.0,-0.1,-2.3
iter: 299  13:05:42  -6.19  -4.21  -223.768416            -2.0,-0.1,-2.3
iter: 300  13:06:22  -5.86  -4.10  -223.767874            -2.0,-0.1,-2.3
iter: 301  13:07:02  -6.55  -4.08  -223.767906            -2.0,-0.1,-2.3
iter: 302  13:07:42  -6.43  -4.06  -223.768232            -2.0,-0.1,-2.3
iter: 303  13:08:22  -5.89  -3.99  -223.767617            -2.0,-0.1,-2.3
iter: 304  13:09:01  -6.59  -4.13  -223.767882            -2.0,-0.1,-2.3
iter: 305  13:09:41  -6.03  -4.05  -223.768060            -2.0,-0.1,-2.3
iter: 306  13:10:21  -6.54  -4.25  -223.768151            -2.0,-0.1,-2.3
iter: 307  13:11:01  -6.34  -4.31  -223.767931            -2.0,-0.1,-2.3
iter: 308  13:11:41  -6.46  -4.31  -223.768128            -2.0,-0.1,-2.3
iter: 309  13:12:21  -6.30  -4.27  -223.767998            -2.0,-0.1,-2.3
iter: 310  13:13:01  -6.31  -4.10  -223.768115            -2.0,-0.1,-2.3
iter: 311  13:13:41  -6.43  -4.19  -223.768253            -2.1,-0.1,-2.3
iter: 312  13:14:21  -7.18  -4.28  -223.768157            -2.1,-0.1,-2.3
iter: 313  13:15:01  -6.70  -4.34  -223.768162            -2.1,-0.1,-2.2
iter: 314  13:15:41  -6.44  -4.52  -223.768435            -2.1,-0.1,-2.2
iter: 315  13:16:21  -6.08  -4.35  -223.768244            -2.0,-0.1,-2.2
iter: 316  13:17:01  -6.95  -4.26  -223.768264            -2.1,-0.1,-2.2
iter: 317  13:17:41  -6.67  -4.27  -223.768424            -2.1,-0.1,-2.2
iter: 318  13:18:21  -5.72  -4.27  -223.768661            -2.1,-0.1,-2.1
iter: 319  13:19:01  -6.04  -4.13  -223.768660            -2.1,-0.1,-2.2
iter: 320  13:19:41  -6.32  -4.17  -223.768611            -2.1,-0.1,-2.1
iter: 321  13:20:20  -5.99  -4.10  -223.768866            -2.1,-0.1,-2.2
iter: 322  13:21:00  -6.02  -4.14  -223.769727            -2.1,-0.1,-2.1
iter: 323  13:21:40  -5.47  -3.93  -223.768372            -2.1,-0.1,-2.2
iter: 324  13:22:20  -6.67  -4.40  -223.768565            -2.1,-0.1,-2.2
iter: 325  13:23:00  -5.59  -4.42  -223.768942            -2.1,-0.1,-2.1
iter: 326  13:23:40  -6.21  -4.22  -223.769018            -2.1,-0.1,-2.2
iter: 327  13:24:20  -6.91  -4.39  -223.769575            -2.1,-0.1,-2.2
iter: 328  13:25:00  -6.79  -4.60  -223.769574            -2.1,-0.1,-2.2
iter: 329  13:25:40  -6.79  -4.58  -223.769743            -2.1,-0.1,-2.2
iter: 330  13:26:20  -6.52  -4.65  -223.770198            -2.2,-0.1,-2.2
iter: 331  13:27:00  -7.09  -4.41  -223.769640            -2.2,-0.1,-2.2
iter: 332  13:27:40  -6.97  -4.55  -223.769611            -2.2,-0.1,-2.2
iter: 333  13:28:20  -6.60  -4.62  -223.769966            -2.2,-0.1,-2.1
iter: 334  13:29:00  -6.55  -4.54  -223.769590            -2.2,-0.1,-2.1
iter: 335  13:29:40  -6.33  -4.63  -223.769988            -2.2,-0.1,-2.1
iter: 336  13:30:19  -6.74  -4.25  -223.770316            -2.2,-0.1,-2.1
iter: 337  13:30:59  -6.62  -4.61  -223.770671            -2.2,-0.1,-2.1
iter: 338  13:31:39  -6.72  -4.58  -223.769203            -2.2,-0.1,-2.1
iter: 339  13:32:19  -6.71  -4.30  -223.768347            -2.2,-0.1,-2.1
iter: 340  13:32:59  -6.54  -4.25  -223.771519            -2.2,-0.1,-2.1
iter: 341  13:33:39  -6.27  -4.42  -223.775001            -2.2,-0.1,-2.1
iter: 342  13:34:19  -7.00  -4.39  -223.773005            -2.2,-0.1,-2.1
iter: 343  13:34:59  -6.31  -4.48  -223.772653            -2.2,-0.1,-2.1
iter: 344  13:35:39  -6.42  -4.22  -223.772025            -2.2,-0.1,-2.1
iter: 345  13:36:19  -6.45  -4.48  -223.769171            -2.2,-0.1,-2.1
iter: 346  13:36:59  -6.34  -4.45  -223.770327            -2.2,-0.1,-2.1
iter: 347  13:37:38  -6.10  -4.08  -223.769709            -2.3,-0.1,-2.1
iter: 348  13:38:18  -6.87  -4.66  -223.768542            -2.3,-0.1,-2.0
iter: 349  13:38:58  -7.16  -4.70  -223.770248            -2.3,-0.1,-2.0
iter: 350  13:39:38  -6.62  -4.67  -223.765950            -2.3,-0.1,-2.0
iter: 351  13:40:18  -7.25  -4.55  -223.770409            -2.3,-0.1,-2.0
iter: 352  13:40:58  -6.80  -4.58  -223.767875            -2.3,-0.1,-2.0
iter: 353  13:41:38  -6.79  -4.42  -223.768378            -2.3,-0.1,-2.0
iter: 354  13:42:18  -6.59  -4.62  -223.766839            -2.3,-0.1,-2.0
iter: 355  13:42:58  -7.25  -4.53  -223.767306            -2.3,-0.1,-2.0
iter: 356  13:43:37  -6.43  -4.50  -223.772779            -2.4,-0.1,-2.0
iter: 357  13:44:17  -6.27  -4.34  -223.760308            -2.3,-0.1,-2.0
iter: 358  13:44:57  -6.24  -4.46  -223.760084            -2.4,-0.1,-2.0
iter: 359  13:45:37  -6.96  -4.23  -223.762315            -2.3,-0.1,-2.0
iter: 360  13:46:17  -6.92  -4.35  -223.762996            -2.4,-0.1,-2.0
iter: 361  13:46:57  -6.49  -4.41  -223.761620            -2.4,-0.1,-2.0
iter: 362  13:47:36  -6.52  -4.54  -223.763936            -2.4,-0.1,-2.0
iter: 363  13:48:16  -6.91  -4.56  -223.764077            -2.4,-0.1,-2.0
iter: 364  13:48:56  -6.67  -4.59  -223.764068            -2.4,-0.1,-2.0
iter: 365  13:49:36  -6.71  -4.43  -223.764453            -2.4,-0.1,-1.9
iter: 366  13:50:16  -6.80  -4.51  -223.767307            -2.4,-0.1,-1.9
iter: 367  13:50:56  -6.10  -4.42  -223.766632            -2.4,-0.1,-1.9
iter: 368  13:51:35  -6.15  -4.57  -223.762744            -2.4,-0.1,-1.9
iter: 369  13:52:15  -6.53  -4.19  -223.765410            -2.4,-0.1,-1.9
iter: 370  13:52:55  -6.66  -4.50  -223.764850            -2.4,-0.1,-1.9
iter: 371  13:53:35  -6.38  -4.50  -223.764422            -2.4,-0.1,-1.9
iter: 372  13:54:15  -6.68  -4.55  -223.765468            -2.4,-0.1,-1.9
iter: 373  13:54:54  -7.11  -4.58  -223.765390            -2.4,-0.1,-1.9
iter: 374  13:55:34  -6.04  -4.60  -223.765736            -2.5,-0.1,-1.9
iter: 375  13:56:14  -6.53  -4.35  -223.762983            -2.5,-0.1,-1.9
iter: 376  13:56:54  -6.61  -4.51  -223.765628            -2.5,-0.1,-1.9
iter: 377  13:57:34  -6.40  -4.42  -223.763323            -2.5,-0.1,-1.8
iter: 378  13:58:14  -6.66  -4.30  -223.763115            -2.5,-0.1,-1.9
iter: 379  13:58:54  -6.42  -4.29  -223.764290            -2.5,-0.1,-1.8
iter: 380  13:59:34  -5.76  -4.29  -223.768250            -2.5,-0.1,-1.8
iter: 381  14:00:13  -6.30  -3.94  -223.768335            -2.5,-0.1,-1.8
iter: 382  14:00:53  -6.00  -4.23  -223.752521            -2.5,-0.1,-1.8
iter: 383  14:01:33  -5.61  -4.00  -223.811214            -2.6,-0.1,-1.8
iter: 384  14:02:13  -6.26  -4.01  -223.762316            -2.5,-0.1,-1.8
iter: 385  14:02:53  -6.71  -4.18  -223.765678            -2.6,-0.1,-1.8
iter: 386  14:03:33  -6.26  -4.16  -223.789619            -2.6,-0.1,-1.8
iter: 387  14:04:13  -5.78  -3.94  -223.745889            -2.6,-0.1,-1.8
iter: 388  14:04:53  -5.84  -4.14  -223.750797            -2.6,-0.1,-1.8
iter: 389  14:05:33  -5.97  -4.02  -223.739432            -2.6,-0.1,-1.8
iter: 390  14:06:13  -6.79  -4.12  -223.747562            -2.6,-0.1,-1.8
iter: 391  14:06:53  -6.13  -4.14  -223.735438            -2.6,-0.1,-1.8
iter: 392  14:07:33  -6.12  -4.09  -223.746122            -2.6,-0.1,-1.8
iter: 393  14:08:13  -5.58  -4.09  -223.746343            -2.6,-0.1,-1.8
iter: 394  14:08:53  -5.86  -4.22  -223.786885            -2.7,-0.1,-1.8
iter: 395  14:09:33  -6.62  -4.37  -223.786498            -2.7,-0.1,-1.8
iter: 396  14:10:13  -6.29  -4.32  -223.783374            -2.7,-0.1,-1.8
iter: 397  14:10:53  -6.47  -4.31  -223.787023            -2.7,-0.1,-1.7
iter: 398  14:11:33  -6.69  -4.29  -223.789723            -2.7,-0.1,-1.7
iter: 399  14:12:14  -6.48  -4.20  -223.780409            -2.7,-0.1,-1.7
iter: 400  14:12:53  -7.08  -4.15  -223.788973            -2.7,-0.1,-1.7
iter: 401  14:13:33  -6.08  -4.13  -223.823303            -2.7,-0.0,-1.7
iter: 402  14:14:13  -5.92  -3.82  -223.756002            -2.7,-0.1,-1.7
iter: 403  14:14:53  -6.75  -4.35  -223.756235            -2.7,-0.1,-1.7
iter: 404  14:15:33  -6.32  -4.29  -223.753226            -2.7,-0.1,-1.7
iter: 405  14:16:13  -6.75  -4.23  -223.749524            -2.7,-0.0,-1.7
iter: 406  14:16:53  -6.55  -4.13  -223.772055            -2.7,-0.0,-1.7
iter: 407  14:17:33  -6.35  -4.15  -223.747966            -2.7,-0.0,-1.7
iter: 408  14:18:13  -6.52  -4.14  -223.758923            -2.7,-0.0,-1.7
iter: 409  14:18:53  -6.31  -4.04  -223.751452            -2.7,-0.0,-1.7
iter: 410  14:19:33  -6.37  -4.17  -223.734861            -2.8,-0.0,-1.7
iter: 411  14:20:13  -6.16  -4.11  -223.770109            -2.8,-0.0,-1.7
iter: 412  14:20:53  -6.39  -4.25  -223.800043            -2.8,-0.0,-1.7
iter: 413  14:21:33  -6.60  -4.27  -223.830260            -2.8,-0.0,-1.7
iter: 414  14:22:13  -6.26  -3.98  -223.780592            -2.8,-0.0,-1.6
iter: 415  14:22:54  -6.76  -4.33  -223.786822            -2.8,-0.0,-1.6
iter: 416  14:23:34  -6.28  -4.27  -223.791517            -2.8,-0.0,-1.6
iter: 417  14:24:14  -6.43  -4.34  -223.772673            -2.8,-0.0,-1.6
iter: 418  14:24:54  -6.54  -4.47  -223.777448            -2.8,-0.0,-1.6
iter: 419  14:25:34  -6.44  -4.32  -223.773310            -2.8,-0.0,-1.6
iter: 420  14:26:14  -6.85  -4.56  -223.773904            -2.8,-0.0,-1.6
iter: 421  14:26:54  -6.68  -4.60  -223.773620            -2.8,-0.0,-1.6
iter: 422  14:27:34  -6.77  -4.44  -223.772566            -2.8,-0.0,-1.6
iter: 423  14:28:14  -6.96  -4.54  -223.777405            -2.8,-0.0,-1.6
iter: 424  14:28:54  -5.94  -4.49  -223.770467            -2.9,-0.0,-1.6
iter: 425  14:29:34  -6.32  -4.32  -223.768972            -2.8,-0.0,-1.6
iter: 426  14:30:14  -6.59  -4.37  -223.774569            -2.9,-0.0,-1.6
iter: 427  14:30:54  -5.93  -4.27  -223.761046            -2.8,-0.0,-1.6
iter: 428  14:31:34  -6.00  -4.41  -223.763753            -2.9,-0.0,-1.6
iter: 429  14:32:14  -6.48  -4.08  -223.761051            -2.8,-0.0,-1.6
iter: 430  14:32:54  -6.90  -4.23  -223.765015            -2.8,-0.0,-1.6
iter: 431  14:33:34  -6.18  -4.30  -223.759378            -2.8,-0.0,-1.6
iter: 432  14:34:15  -6.03  -3.92  -223.763475            -2.8,-0.0,-1.6
iter: 433  14:34:55  -6.24  -4.21  -223.777651            -2.9,-0.0,-1.6
iter: 434  14:35:35  -6.89  -4.45  -223.776805            -2.9,-0.0,-1.5
iter: 435  14:36:14  -7.19  -4.64  -223.775493            -2.9,-0.0,-1.5
iter: 436  14:36:54  -7.10  -4.68  -223.776484            -2.9,-0.0,-1.5
iter: 437  14:37:34  -6.82  -4.63  -223.773587            -2.9,-0.0,-1.5
iter: 438  14:38:15  -6.84  -4.50  -223.776796            -2.9,-0.0,-1.5
iter: 439  14:38:54  -6.58  -4.67  -223.774838            -2.9,-0.0,-1.5
iter: 440  14:39:34  -7.24  -4.58  -223.774397            -2.9,-0.0,-1.5
iter: 441  14:40:14  -6.65  -4.54  -223.774754            -2.9,-0.0,-1.5
iter: 442  14:40:54  -6.96  -4.52  -223.770937            -2.9,-0.0,-1.5
iter: 443  14:41:34  -6.84  -4.76  -223.770462            -2.9,-0.0,-1.5
iter: 444  14:42:14  -7.30  -4.78  -223.771475            -2.9,-0.0,-1.5
iter: 445  14:42:54  -6.80  -4.79  -223.768710            -2.9,-0.0,-1.5
iter: 446  14:43:34  -6.95  -4.57  -223.771319            -2.9,-0.0,-1.5
iter: 447  14:44:14  -6.82  -4.65  -223.773620            -2.9,-0.0,-1.5
iter: 448  14:44:54  -6.84  -4.64  -223.771031            -2.9,-0.0,-1.5
iter: 449  14:45:34  -6.69  -4.42  -223.772670            -2.9,-0.0,-1.5
iter: 450  14:46:14  -7.20  -4.69  -223.773995            -2.9,-0.0,-1.5
iter: 451  14:46:54  -6.42  -4.75  -223.775306            -3.0,-0.0,-1.5
iter: 452  14:47:34  -7.33  -4.87  -223.774461            -3.0,-0.0,-1.5
iter: 453  14:48:15  -6.85  -4.92  -223.773708            -3.0,-0.0,-1.5
iter: 454  14:48:55  -7.13  -4.79  -223.774689            -3.0,-0.0,-1.4
iter: 455  14:49:35  -7.15  -4.58  -223.774248            -3.0,-0.0,-1.4
iter: 456  14:50:15  -6.46  -4.56  -223.774264            -3.0,-0.0,-1.4
iter: 457  14:50:55  -6.67  -4.52  -223.776096            -3.0,-0.0,-1.5
iter: 458  14:51:35  -6.21  -4.35  -223.773001            -3.0,-0.0,-1.4
iter: 459  14:52:15  -6.79  -4.79  -223.773013            -3.0,-0.0,-1.4
iter: 460  14:52:55  -7.30  -4.84  -223.773604            -3.0,-0.0,-1.4
iter: 461  14:53:35  -6.55  -4.81  -223.774584            -3.0,-0.0,-1.4
iter: 462  14:54:15  -6.60  -4.70  -223.773105            -3.0,-0.0,-1.4
iter: 463  14:54:55  -6.89  -4.69  -223.772697            -3.0,-0.0,-1.4
iter: 464  14:55:36  -6.70  -4.43  -223.772305            -3.0,-0.0,-1.4
iter: 465  14:56:16  -7.29  -4.74  -223.773706            -3.0,-0.0,-1.4
iter: 466  14:56:56  -6.68  -4.85  -223.772870            -3.1,-0.0,-1.4
iter: 467  14:57:36  -6.68  -4.56  -223.772876            -3.0,-0.0,-1.4
iter: 468  14:58:16  -7.13  -4.81  -223.772280            -3.1,-0.0,-1.4
iter: 469  14:58:56  -6.66  -4.80  -223.772401            -3.0,-0.0,-1.3
iter: 470  14:59:36  -6.60  -4.83  -223.773033            -3.1,-0.0,-1.4
iter: 471  15:00:17  -7.37  -4.55  -223.772869            -3.1,-0.0,-1.4
iter: 472  15:00:57  -6.68  -4.58  -223.772936            -3.1,-0.0,-1.4
iter: 473  15:01:37  -6.76  -4.68  -223.773427            -3.1,-0.0,-1.3
iter: 474  15:02:17  -7.07  -4.40  -223.772001            -3.1,-0.0,-1.3
iter: 475  15:02:57  -5.97  -4.46  -223.776780            -3.1,-0.0,-1.3
iter: 476  15:03:38  -5.55  -4.57  -223.754344            -3.2,-0.0,-1.3
iter: 477  15:04:18  -5.74  -4.51  -223.759207            -3.1,-0.0,-1.3
iter: 478  15:04:58  -6.73  -4.46  -223.767250            -3.1,-0.0,-1.3
iter: 479  15:05:38  -6.28  -4.23  -223.755500            -3.1,-0.0,-1.3
iter: 480  15:06:18  -7.01  -4.72  -223.763943            -3.1,-0.0,-1.3
iter: 481  15:06:58  -6.67  -4.82  -223.775556            -3.1,-0.0,-1.3
iter: 482  15:07:38  -6.88  -4.47  -223.765909            -3.2,-0.0,-1.3
iter: 483  15:08:18  -6.52  -4.63  -223.759967            -3.2,-0.0,-1.3
iter: 484  15:08:59  -6.62  -4.45  -223.780268            -3.2,-0.0,-1.3
iter: 485  15:09:39  -6.83  -4.67  -223.778957            -3.2,-0.0,-1.2
iter: 486  15:10:19  -6.89  -4.61  -223.794609            -3.2,-0.0,-1.2
iter: 487  15:10:59  -6.25  -4.71  -223.795166            -3.2,-0.0,-1.2
iter: 488  15:11:39  -6.13  -4.24  -223.791309            -3.2,-0.0,-1.2
iter: 489  15:12:19  -6.75  -4.77  -223.795756            -3.2,-0.0,-1.2
iter: 490  15:12:59  -6.60  -4.44  -223.789354            -3.2,-0.0,-1.2
iter: 491  15:13:39  -6.89  -4.70  -223.790667            -3.2,-0.0,-1.2
iter: 492  15:14:19  -7.35  -4.84  -223.788660            -3.2,-0.0,-1.2
iter: 493  15:15:00  -7.03  -4.85  -223.787041            -3.2,-0.0,-1.2
iter: 494  15:15:40  -6.97  -4.64  -223.789712            -3.2,-0.0,-1.2
iter: 495  15:16:20  -7.16  -4.73  -223.787449            -3.2,-0.0,-1.2
iter: 496  15:17:00  -6.90  -4.58  -223.789518            -3.2,-0.0,-1.2
iter: 497  15:17:39  -6.97  -4.98  -223.789431            -3.2,-0.0,-1.2
iter: 498  15:18:19  -6.69  -4.66  -223.789612            -3.2,-0.0,-1.2
iter: 499  15:19:00  -7.45  -4.60  -223.788867            -3.2,-0.0,-1.2
iter: 500  15:19:40  -6.94  -4.57  -223.791216            -3.2,-0.0,-1.2
iter: 501  15:20:20  -6.99  -4.50  -223.799257            -3.2,-0.0,-1.2
iter: 502  15:21:00  -6.68  -4.22  -223.781354            -3.2,-0.0,-1.2
iter: 503  15:21:40  -6.84  -4.41  -223.782815            -3.3,-0.0,-1.2
iter: 504  15:22:20  -6.46  -4.48  -223.789271            -3.3,-0.0,-1.1
iter: 505  15:22:59  -5.83  -4.36  -223.775741            -3.3,-0.0,-1.2
iter: 506  15:23:39  -7.00  -4.60  -223.778204            -3.3,-0.0,-1.2
iter: 507  15:24:19  -6.70  -4.67  -223.779183            -3.3,-0.0,-1.1
iter: 508  15:24:59  -7.16  -4.49  -223.777131            -3.3,-0.0,-1.2
iter: 509  15:25:39  -6.49  -4.46  -223.782265            -3.3,-0.0,-1.1
iter: 510  15:26:19  -6.19  -4.25  -223.784599            -3.3,-0.0,-1.2
iter: 511  15:26:59  -6.61  -4.50  -223.778702            -3.3,-0.0,-1.1
iter: 512  15:27:39  -7.30  -4.50  -223.780511            -3.3,-0.0,-1.1
iter: 513  15:28:19  -6.73  -4.74  -223.780933            -3.3,-0.0,-1.1
iter: 514  15:28:59  -7.36  -5.02  -223.781181            -3.3,-0.0,-1.2
iter: 515  15:29:39  -7.07  -4.86  -223.781474            -3.3,-0.0,-1.1
iter: 516  15:30:19  -7.63  -4.81  -223.781172            -3.3,-0.0,-1.1
iter: 517  15:30:59  -7.31  -5.07  -223.781307            -3.3,-0.0,-1.1
iter: 518  15:31:39  -7.39  -4.88  -223.780783            -3.3,-0.0,-1.1
iter: 519  15:32:19  -6.74  -4.73  -223.780812            -3.3,-0.0,-1.1
iter: 520  15:32:59  -7.30  -4.85  -223.780503            -3.3,-0.0,-1.1
iter: 521  15:33:38  -7.62  -4.71  -223.780750            -3.3,-0.0,-1.1
iter: 522  15:34:18  -6.83  -4.86  -223.778912            -3.4,-0.0,-1.1
iter: 523  15:34:58  -7.18  -4.60  -223.782738            -3.4,-0.0,-1.1
iter: 524  15:35:38  -7.04  -4.61  -223.782906            -3.4,-0.0,-1.1
iter: 525  15:36:18  -6.91  -4.42  -223.774985            -3.4,-0.0,-1.1
iter: 526  15:36:58  -7.09  -4.67  -223.772994            -3.4,-0.0,-1.1
iter: 527  15:37:38  -7.16  -4.59  -223.768908            -3.4,-0.0,-1.1
iter: 528  15:38:19  -6.54  -4.52  -223.784114            -3.4,-0.0,-1.1
iter: 529  15:38:59  -6.58  -4.37  -223.768060            -3.4,-0.0,-1.1
iter: 530  15:39:39  -6.83  -4.45  -223.761717            -3.4,-0.0,-1.1
iter: 531  15:40:18  -7.42  -4.43  -223.758012            -3.4,-0.0,-1.1
iter: 532  15:40:58  -6.80  -4.37  -223.760478            -3.4,-0.0,-1.1
iter: 533  15:41:38  -6.63  -4.46  -223.765238            -3.4,-0.0,-1.1
iter: 534  15:42:18  -7.54  -4.58  -223.765616            -3.4,-0.0,-1.1
iter: 535  15:42:58  -6.63  -4.53  -223.767519            -3.4,-0.0,-1.1
iter: 536  15:43:38  -6.69  -4.42  -223.770175            -3.4,-0.0,-1.0
iter: 537  15:44:19  -6.72  -4.31  -223.765175            -3.4,-0.0,-1.0
iter: 538  15:44:59  -6.73  -4.32  -223.764615            -3.5,-0.0,-1.0
iter: 539  15:45:39  -6.34  -4.32  -223.776967            -3.5,-0.0,-1.0
iter: 540  15:46:19  -6.25  -4.38  -223.772662            -3.5,-0.0,-1.0
iter: 541  15:46:59  -6.62  -4.38  -223.768448            -3.5,-0.0,-1.0
iter: 542  15:47:39  -7.23  -4.46  -223.770110            -3.5,-0.0,-1.0
iter: 543  15:48:19  -6.90  -4.55  -223.771387            -3.5,-0.0,-1.0
iter: 544  15:48:59  -7.10  -4.62  -223.775222            -3.5,-0.0,-1.0
iter: 545  15:49:39  -6.62  -4.63  -223.775145            -3.5,-0.0,-1.0
iter: 546  15:50:19  -6.82  -4.76  -223.777271            -3.5,-0.0,-1.0
iter: 547  15:50:59  -7.34  -4.97  -223.777959            -3.5,-0.0,-1.0
iter: 548  15:51:39  -6.88  -4.80  -223.778287            -3.5,-0.0,-1.0
iter: 549  15:52:19  -6.61  -4.75  -223.775196            -3.5,-0.0,-1.0
iter: 550  15:52:59  -6.40  -4.49  -223.781186            -3.5,-0.0,-1.0
iter: 551  15:53:39  -7.09  -4.46  -223.779729            -3.5,-0.0,-1.0
iter: 552  15:54:19  -6.35  -4.39  -223.778065            -3.6,-0.0,-1.0
iter: 553  15:54:59  -6.38  -4.40  -223.778324            -3.5,-0.0,-1.0
iter: 554  15:55:39  -6.96  -4.26  -223.776336            -3.5,-0.0,-1.0
iter: 555  15:56:19  -6.47  -4.24  -223.771027            -3.5,-0.0,-1.0
iter: 556  15:56:58  -6.18  -4.13  -223.775330            -3.6,-0.0,-0.9
iter: 557  15:57:38  -6.96  -4.36  -223.777482            -3.6,-0.0,-0.9
iter: 558  15:58:18  -6.27  -4.38  -223.774291            -3.5,-0.0,-0.9
iter: 559  15:58:58  -6.57  -4.45  -223.777956            -3.6,-0.0,-0.9
iter: 560  15:59:38  -7.01  -4.72  -223.777689            -3.6,-0.0,-0.9
iter: 561  16:00:17  -7.39  -4.58  -223.777155            -3.6,-0.0,-0.9
iter: 562  16:00:57  -7.12  -4.60  -223.777656            -3.6,-0.0,-0.9
iter: 563  16:01:37  -7.21  -4.56  -223.776465            -3.6,-0.0,-0.9
iter: 564  16:02:17  -7.06  -4.55  -223.775848            -3.6,-0.0,-0.9
iter: 565  16:02:57  -6.47  -4.42  -223.776171            -3.6,-0.0,-0.9
iter: 566  16:03:36  -6.64  -4.16  -223.777867            -3.6,-0.0,-0.9
iter: 567  16:04:16  -6.63  -4.34  -223.774444            -3.6,-0.0,-0.9
iter: 568  16:04:56  -6.56  -4.24  -223.780470            -3.6,-0.0,-0.9
iter: 569  16:05:36  -6.55  -4.32  -223.781252            -3.6,-0.0,-0.9
iter: 570  16:06:16  -6.75  -4.35  -223.785583            -3.6,-0.0,-0.9
iter: 571  16:06:55  -7.31  -4.52  -223.784374            -3.6,-0.0,-0.9
iter: 572  16:07:35  -6.93  -4.57  -223.783461            -3.6,-0.0,-0.9
iter: 573  16:08:15  -7.16  -4.52  -223.783486            -3.6,-0.0,-0.9
iter: 574  16:08:55  -6.83  -4.50  -223.784294            -3.6,-0.0,-0.9
iter: 575  16:09:35  -6.26  -4.34  -223.782437            -3.6,-0.0,-0.9
iter: 576  16:10:15  -7.27  -4.54  -223.782232            -3.6,-0.0,-0.9
iter: 577  16:10:55  -6.49  -4.55  -223.782690            -3.7,-0.0,-0.9
iter: 578  16:11:35  -7.16  -4.54  -223.782803            -3.6,-0.0,-0.9
iter: 579  16:12:15  -6.99  -4.58  -223.782163            -3.6,-0.0,-0.9
iter: 580  16:12:55  -6.96  -4.56  -223.783050            -3.6,-0.0,-0.8
iter: 581  16:13:35  -6.79  -4.43  -223.782151            -3.7,-0.0,-0.9
iter: 582  16:14:14  -7.26  -4.42  -223.781044            -3.7,-0.0,-0.9
iter: 583  16:14:54  -6.55  -4.30  -223.784281            -3.7,-0.0,-0.8
iter: 584  16:15:34  -6.98  -4.49  -223.784882            -3.7,-0.0,-0.8
iter: 585  16:16:14  -6.36  -4.48  -223.784246            -3.7,-0.0,-0.8
iter: 586  16:16:54  -6.42  -4.24  -223.784718            -3.7,-0.0,-0.8
iter: 587  16:17:34  -6.62  -4.63  -223.784083            -3.7,-0.0,-0.8
iter: 588  16:18:14  -7.17  -4.66  -223.784280            -3.7,-0.0,-0.8
iter: 589  16:18:53  -6.62  -4.59  -223.784423            -3.7,-0.0,-0.8
iter: 590  16:19:33  -7.25  -4.42  -223.783273            -3.7,-0.0,-0.8
iter: 591  16:20:13  -6.77  -4.45  -223.787243            -3.7,-0.0,-0.8
iter: 592  16:20:53  -6.60  -4.36  -223.781527            -3.7,-0.0,-0.8
iter: 593  16:21:33  -7.17  -4.56  -223.780992            -3.7,-0.0,-0.8
iter: 594  16:22:12  -6.77  -4.55  -223.779557            -3.7,-0.0,-0.8
iter: 595  16:22:52  -6.35  -4.54  -223.778912            -3.7,-0.0,-0.8
iter: 596  16:23:32  -7.10  -4.51  -223.777811            -3.7,-0.0,-0.8
iter: 597  16:24:12  -6.91  -4.35  -223.780321            -3.7,-0.0,-0.8
iter: 598  16:24:51  -6.48  -4.46  -223.774566            -3.7,-0.0,-0.8
iter: 599  16:25:31  -6.99  -4.18  -223.779007            -3.7,-0.0,-0.8
iter: 600  16:26:11  -7.02  -4.49  -223.781964            -3.7,-0.0,-0.8
iter: 601  16:26:51  -7.14  -4.63  -223.783513            -3.7,-0.0,-0.8
iter: 602  16:27:30  -6.95  -4.71  -223.783604            -3.7,-0.0,-0.8
iter: 603  16:28:10  -6.96  -4.70  -223.779390            -3.7,-0.0,-0.8
iter: 604  16:28:50  -6.99  -4.79  -223.779910            -3.7,-0.0,-0.8
iter: 605  16:29:30  -6.79  -4.81  -223.779581            -3.8,-0.0,-0.8
iter: 606  16:30:10  -6.96  -4.49  -223.778436            -3.8,-0.0,-0.8
iter: 607  16:30:49  -7.18  -4.64  -223.780245            -3.7,-0.0,-0.7
iter: 608  16:31:29  -6.85  -4.71  -223.775512            -3.8,-0.0,-0.7
iter: 609  16:32:09  -7.02  -4.61  -223.778117            -3.8,-0.0,-0.8
iter: 610  16:32:49  -7.01  -4.57  -223.779581            -3.8,-0.0,-0.7
iter: 611  16:33:28  -7.05  -4.49  -223.774434            -3.8,-0.0,-0.7
iter: 612  16:34:08  -7.37  -4.67  -223.774628            -3.8,-0.0,-0.7
iter: 613  16:34:48  -7.11  -4.54  -223.775528            -3.8,-0.0,-0.7
iter: 614  16:35:28  -7.44  -4.71  -223.774963            -3.8,-0.0,-0.7
iter: 615  16:36:08  -7.07  -4.64  -223.776529            -3.8,-0.0,-0.7
iter: 616  16:36:47  -7.06  -4.71  -223.776393            -3.8,-0.0,-0.7
iter: 617  16:37:27  -7.18  -4.50  -223.773401            -3.8,-0.0,-0.7
iter: 618  16:38:07  -6.62  -4.60  -223.779043            -3.8,-0.0,-0.7
iter: 619  16:38:47  -6.29  -4.50  -223.771635            -3.8,-0.0,-0.7
iter: 620  16:39:27  -6.65  -4.41  -223.775430            -3.8,-0.0,-0.7
iter: 621  16:40:07  -6.45  -4.37  -223.776086            -3.8,-0.0,-0.7
iter: 622  16:40:46  -7.37  -4.76  -223.775726            -3.8,-0.0,-0.7
iter: 623  16:41:26  -7.16  -4.73  -223.774388            -3.8,-0.0,-0.7
iter: 624  16:42:06  -7.69  -4.56  -223.775284            -3.8,-0.0,-0.7
iter: 625  16:42:46  -7.16  -4.62  -223.775415            -3.8,-0.0,-0.7
iter: 626  16:43:25  -6.81  -4.59  -223.777981            -3.8,-0.0,-0.7
iter: 627  16:44:05  -6.55  -4.58  -223.773922            -3.8,-0.0,-0.7
iter: 628  16:44:45  -6.74  -4.40  -223.779244            -3.8,-0.0,-0.7
iter: 629  16:45:25  -7.49  -4.44  -223.776711            -3.8,-0.0,-0.7
iter: 630  16:46:04  -6.51  -4.40  -223.780682            -3.8,-0.0,-0.7
iter: 631  16:46:44  -6.85  -4.52  -223.773327            -3.8,-0.0,-0.7
iter: 632  16:47:24  -7.21  -4.64  -223.774720            -3.8,-0.0,-0.7
iter: 633  16:48:04  -6.77  -4.50  -223.777242            -3.8,-0.0,-0.7
iter: 634  16:48:43  -6.67  -4.74  -223.775265            -3.8,-0.0,-0.7
iter: 635  16:49:23  -7.35  -4.47  -223.776823            -3.8,-0.0,-0.7
iter: 636  16:50:03  -7.18  -4.79  -223.777760            -3.8,-0.0,-0.7
iter: 637  16:50:43  -7.84  -4.89  -223.778304            -3.8,-0.0,-0.7
iter: 638  16:51:23  -7.34  -4.96  -223.778680            -3.8,-0.0,-0.7
iter: 639  16:52:02  -7.32  -4.88  -223.778068            -3.8,-0.0,-0.7
iter: 640  16:52:42  -7.52  -5.07  -223.778254            -3.8,-0.0,-0.7
iter: 641  16:53:22  -7.42  -5.22  -223.777623            -3.8,-0.0,-0.7
iter: 642  16:54:02  -7.47  -5.22  -223.778117            -3.8,-0.0,-0.7
iter: 643  16:54:41  -7.82  -5.03  -223.778194            -3.8,-0.0,-0.7
iter: 644  16:55:21  -7.35  -5.01  -223.778361            -3.8,-0.0,-0.7
iter: 645  16:56:01  -7.05  -4.82  -223.778673            -3.9,-0.0,-0.7
iter: 646  16:56:41  -6.81  -4.73  -223.777913            -3.8,-0.0,-0.7
iter: 647  16:57:20  -7.05  -4.71  -223.776671            -3.9,-0.0,-0.7
iter: 648  16:58:00  -6.58  -4.56  -223.780317            -3.8,-0.0,-0.6
iter: 649  16:58:40  -6.93  -4.79  -223.780424            -3.9,-0.0,-0.7
iter: 650  16:59:20  -7.01  -4.54  -223.777724            -3.9,-0.0,-0.6
iter: 651  16:59:59  -6.50  -4.42  -223.781544            -3.8,-0.0,-0.7
iter: 652  17:00:39  -6.49  -4.69  -223.783032            -3.8,-0.0,-0.7
iter: 653  17:01:18  -6.97  -4.80  -223.782657            -3.8,-0.0,-0.7
iter: 654  17:01:58  -6.88  -4.74  -223.782611            -3.8,-0.0,-0.7
iter: 655  17:02:38  -7.80  -4.75  -223.782424            -3.8,-0.0,-0.7
iter: 656  17:03:18  -7.24  -4.84  -223.782261            -3.8,-0.0,-0.7
iter: 657  17:03:57  -6.92  -4.94  -223.781612            -3.8,-0.0,-0.7
iter: 658  17:04:37  -6.62  -4.81  -223.780596            -3.9,-0.0,-0.7
iter: 659  17:05:17  -6.97  -4.78  -223.780969            -3.9,-0.0,-0.7
iter: 660  17:05:56  -6.43  -4.52  -223.778841            -3.9,-0.0,-0.7
iter: 661  17:06:36  -6.97  -4.96  -223.778609            -3.9,-0.0,-0.7
iter: 662  17:07:16  -6.92  -5.01  -223.778709            -3.9,-0.0,-0.7
iter: 663  17:07:55  -7.18  -4.82  -223.778823            -3.9,-0.0,-0.7
iter: 664  17:08:35  -7.19  -4.78  -223.778276            -3.9,-0.0,-0.7
iter: 665  17:09:15  -7.66  -4.69  -223.782010            -3.9,-0.0,-0.7
iter: 666  17:09:55  -7.22  -4.58  -223.773926            -3.9,-0.0,-0.7
iter: 667  17:10:34  -7.47  -4.61  -223.770945            -3.9,-0.0,-0.7
iter: 668  17:11:14  -6.93  -4.57  -223.775107            -3.9,-0.0,-0.7
iter: 669  17:11:54  -6.66  -4.42  -223.767341            -3.9,-0.0,-0.7
iter: 670  17:12:34  -7.29  -4.69  -223.765143            -3.9,-0.0,-0.7
iter: 671  17:13:13  -7.00  -4.75  -223.765193            -3.9,-0.0,-0.7
iter: 672  17:13:53  -7.15  -4.65  -223.766330            -3.9,-0.0,-0.7
iter: 673  17:14:33  -7.43  -4.61  -223.765299            -3.9,-0.0,-0.7
iter: 674  17:15:12  -7.16  -4.64  -223.770165            -3.9,-0.0,-0.7
iter: 675  17:15:52  -6.76  -4.61  -223.766579            -3.9,-0.0,-0.7
iter: 676  17:16:32  -6.65  -4.41  -223.757473            -3.9,-0.0,-0.6
iter: 677  17:17:12  -6.71  -4.76  -223.766116            -3.9,-0.0,-0.6
iter: 678  17:17:51  -7.42  -4.80  -223.767452            -3.9,-0.0,-0.6
iter: 679  17:18:31  -7.05  -4.81  -223.760282            -3.9,-0.0,-0.6
iter: 680  17:19:11  -7.48  -4.96  -223.761921            -3.9,-0.0,-0.6
iter: 681  17:19:50  -7.01  -4.87  -223.760599            -3.9,-0.0,-0.6
iter: 682  17:20:30  -7.72  -4.84  -223.761730            -3.9,-0.0,-0.6
iter: 683  17:21:10  -7.28  -4.71  -223.761442            -3.9,-0.0,-0.6
iter: 684  17:21:49  -6.93  -4.63  -223.758822            -3.9,-0.0,-0.6
iter: 685  17:22:29  -6.74  -4.73  -223.770047            -3.9,-0.0,-0.6
iter: 686  17:23:09  -7.19  -4.83  -223.770687            -3.9,-0.0,-0.6
iter: 687  17:23:49  -7.17  -4.85  -223.767737            -3.9,-0.0,-0.6
iter: 688  17:24:28  -6.93  -4.96  -223.768685            -3.9,-0.0,-0.6
iter: 689  17:25:08  -7.29  -4.99  -223.769580            -3.9,-0.0,-0.6
iter: 690  17:25:48  -6.99  -4.73  -223.767357            -3.9,-0.0,-0.6
iter: 691  17:26:27  -7.55  -4.94  -223.767364            -3.9,-0.0,-0.6
iter: 692  17:27:07  -7.66  -4.74  -223.766463            -3.9,-0.0,-0.6
iter: 693  17:27:47  -7.22  -4.80  -223.769114            -4.0,-0.0,-0.6
iter: 694  17:28:26  -7.69  -4.93  -223.769779            -4.0,-0.0,-0.6
iter: 695  17:29:06  -7.72  -5.16  -223.769593            -4.0,-0.0,-0.6
iter: 696  17:29:46  -7.59  -4.90  -223.768968            -4.0,-0.0,-0.6
iter: 697  17:30:25  -7.66  -4.90  -223.769056            -4.0,-0.0,-0.6
iter: 698  17:31:05  -7.32  -4.74  -223.769782            -4.0,-0.0,-0.6
iter: 699  17:31:45  -7.81  -4.79  -223.769958            -4.0,-0.0,-0.6
iter: 700  17:32:24  -7.71  -5.14  -223.770544            -4.0,-0.0,-0.6
iter: 701  17:33:04  -7.08  -5.09  -223.769554            -4.0,-0.0,-0.6
iter: 702  17:33:44  -7.14  -4.70  -223.769821            -4.0,-0.0,-0.6
iter: 703  17:34:23  -6.98  -4.83  -223.773575            -4.0,-0.0,-0.6
iter: 704  17:35:03  -6.56  -4.60  -223.769454            -4.0,-0.0,-0.6
iter: 705  17:35:43  -7.65  -4.99  -223.770462            -4.0,-0.0,-0.6
iter: 706  17:36:22  -7.38  -4.88  -223.770074            -4.0,-0.0,-0.6
iter: 707  17:37:02  -7.11  -4.82  -223.769742            -4.0,-0.0,-0.6
iter: 708  17:37:42  -7.62  -4.58  -223.772368            -4.0,-0.0,-0.6
iter: 709  17:38:21  -7.49  -4.71  -223.774828            -4.0,-0.0,-0.6
iter: 710  17:39:01  -7.24  -4.84  -223.778876            -4.0,-0.0,-0.6
iter: 711  17:39:41  -7.29  -4.78  -223.777104            -4.0,-0.0,-0.6
iter: 712  17:40:20  -7.74  -4.72  -223.777545            -4.0,-0.0,-0.6
iter: 713  17:41:00  -7.84  -4.86  -223.777547            -4.0,-0.0,-0.6
iter: 714  17:41:39  -7.65  -4.87  -223.777824            -4.0,-0.0,-0.6
iter: 715  17:42:19  -7.69  -4.86  -223.777804            -4.0,-0.0,-0.6
iter: 716  17:42:59  -7.66  -4.90  -223.778115            -4.0,-0.0,-0.6
iter: 717  17:43:38  -7.18  -4.81  -223.777912            -4.0,-0.0,-0.6
iter: 718  17:44:18  -7.78  -4.74  -223.777844            -4.0,-0.0,-0.5
iter: 719  17:44:58  -7.28  -4.81  -223.777687            -4.0,-0.0,-0.5
iter: 720  17:45:37  -7.30  -4.85  -223.777682            -4.0,-0.0,-0.5
iter: 721  17:46:17  -7.23  -4.90  -223.777152            -4.0,-0.0,-0.5
iter: 722  17:46:57  -7.25  -4.98  -223.776986            -4.0,-0.0,-0.5
iter: 723  17:47:37  -7.16  -4.74  -223.777072            -4.0,-0.0,-0.5
iter: 724  17:48:16  -7.32  -5.14  -223.776987            -4.0,-0.0,-0.5
iter: 725  17:48:56  -7.00  -4.84  -223.777042            -4.0,-0.0,-0.5
iter: 726  17:49:36  -7.22  -4.86  -223.777221            -4.0,-0.0,-0.5
iter: 727  17:50:15  -8.21  -4.76  -223.776899            -4.0,-0.0,-0.5
iter: 728  17:50:55  -7.05  -4.81  -223.778741            -4.0,-0.0,-0.5
iter: 729  17:51:35  -7.46  -4.85  -223.779613            -4.0,-0.0,-0.5
iter: 730  17:52:14  -7.30  -4.78  -223.776700            -4.0,-0.0,-0.5
iter: 731  17:52:54  -7.35  -4.52  -223.777097            -4.0,-0.0,-0.5
iter: 732  17:53:33  -7.24  -4.61  -223.783813            -4.0,-0.0,-0.5
iter: 733  17:54:13  -7.68  -5.01  -223.784660            -4.0,-0.0,-0.5
iter: 734  17:54:52  -7.68  -5.05  -223.782905            -4.0,-0.0,-0.5
iter: 735  17:55:32  -7.53  -4.90  -223.782205            -4.0,-0.0,-0.5
iter: 736  17:56:12  -7.58  -4.80  -223.782671            -4.0,-0.0,-0.5
iter: 737  17:56:51  -6.97  -4.67  -223.782428            -4.0,-0.0,-0.5
iter: 738  17:57:31  -6.44  -4.60  -223.781724            -4.0,-0.0,-0.5
iter: 739  17:58:11  -7.82  -4.62  -223.781827            -4.0,-0.0,-0.5
iter: 740  17:58:50  -7.49  -4.84  -223.784020            -4.0,-0.0,-0.5
iter: 741  17:59:30  -7.94  -4.92  -223.785046            -4.0,-0.0,-0.5
iter: 742  18:00:10  -7.18  -4.94  -223.780108            -4.0,-0.0,-0.5
iter: 743  18:00:50  -7.04  -4.67  -223.776142            -4.1,-0.0,-0.5
iter: 744  18:01:29  -7.75  -4.92  -223.776659            -4.1,-0.0,-0.5
iter: 745  18:02:09  -7.95  -5.15  -223.777272            -4.0,-0.0,-0.5
iter: 746  18:02:49  -7.55  -5.16  -223.778137            -4.1,-0.0,-0.5
iter: 747  18:03:29  -7.57  -4.96  -223.779136            -4.1,-0.0,-0.5
iter: 748  18:04:08  -7.53  -5.23  -223.782054            -4.1,-0.0,-0.5
iter: 749  18:04:48  -7.86  -4.91  -223.782609            -4.1,-0.0,-0.5
iter: 750  18:05:28  -6.80  -4.92  -223.779104            -4.0,-0.0,-0.5
iter: 751  18:06:07  -6.74  -4.86  -223.776515            -4.1,-0.0,-0.5
iter: 752  18:06:47  -7.15  -4.74  -223.775196            -4.1,-0.0,-0.5
iter: 753  18:07:27  -7.22  -4.79  -223.774272            -4.1,-0.0,-0.5
iter: 754  18:08:06  -6.94  -4.64  -223.773985            -4.1,-0.0,-0.5
iter: 755  18:08:46  -7.11  -4.59  -223.777219            -4.1,-0.0,-0.5
iter: 756  18:09:26  -7.04  -4.59  -223.773960            -4.1,-0.0,-0.5
iter: 757  18:10:05  -6.73  -4.58  -223.779194            -4.1,-0.0,-0.5
iter: 758  18:10:45  -7.08  -4.38  -223.778200            -4.1,-0.0,-0.5
iter: 759  18:11:25  -7.20  -4.52  -223.776022            -4.1,-0.0,-0.5
iter: 760  18:12:04  -7.39  -4.56  -223.777470            -4.1,-0.0,-0.5
iter: 761  18:12:44  -7.44  -4.62  -223.778316            -4.1,-0.0,-0.5
iter: 762  18:13:24  -7.40  -4.77  -223.777944            -4.1,-0.0,-0.5
iter: 763  18:14:04  -7.90  -4.66  -223.778620            -4.1,-0.0,-0.5
iter: 764  18:14:43  -7.14  -4.71  -223.781624            -4.1,-0.0,-0.5
iter: 765  18:15:23  -6.87  -4.65  -223.783181            -4.1,-0.0,-0.5
iter: 766  18:16:03  -7.31  -4.84  -223.782724            -4.1,-0.0,-0.5
iter: 767  18:16:42  -7.99  -4.65  -223.783052            -4.1,-0.0,-0.5
iter: 768  18:17:22  -6.70  -4.61  -223.780222            -4.1,-0.0,-0.5
iter: 769  18:18:01  -7.84  -4.86  -223.780931            -4.1,-0.0,-0.5
iter: 770  18:18:41  -8.27  -4.71  -223.780508            -4.1,-0.0,-0.5
iter: 771  18:19:21  -7.15  -4.71  -223.780061            -4.1,-0.0,-0.5
iter: 772  18:20:00  -7.07  -4.48  -223.780716            -4.1,-0.0,-0.5
iter: 773  18:20:40  -7.70  -4.72  -223.778310            -4.1,-0.0,-0.5
iter: 774  18:21:20  -7.41  -4.74  -223.782715            -4.1,-0.0,-0.5
iter: 775  18:21:59  -7.68  -4.68  -223.782166            -4.1,-0.0,-0.5
iter: 776  18:22:39  -7.29  -4.57  -223.781768            -4.1,-0.0,-0.5
iter: 777  18:23:19  -7.95  -4.89  -223.781692            -4.1,-0.0,-0.5
iter: 778  18:23:58  -7.59  -4.86  -223.781632            -4.1,-0.0,-0.5
iter: 779  18:24:38  -7.64  -4.71  -223.781436            -4.1,-0.0,-0.5
iter: 780  18:25:18  -8.08  -4.71  -223.781327            -4.1,-0.0,-0.5
iter: 781  18:25:57  -7.49  -4.68  -223.781530            -4.1,-0.0,-0.5
iter: 782  18:26:37  -7.66  -4.69  -223.780841            -4.1,-0.0,-0.5
iter: 783  18:27:17  -7.35  -4.63  -223.781503            -4.1,-0.0,-0.4
iter: 784  18:27:56  -6.88  -4.52  -223.781159            -4.1,-0.0,-0.5
iter: 785  18:28:36  -7.51  -4.65  -223.780636            -4.1,-0.0,-0.5
iter: 786  18:29:15  -7.16  -4.55  -223.781638            -4.1,-0.0,-0.4
iter: 787  18:29:55  -7.91  -4.81  -223.782335            -4.1,-0.0,-0.4
iter: 788  18:30:34  -7.29  -4.82  -223.784918            -4.1,-0.0,-0.4
iter: 789  18:31:14  -7.50  -4.65  -223.783807            -4.1,-0.0,-0.4
iter: 790  18:31:54  -7.52  -4.78  -223.784055            -4.1,-0.0,-0.4
iter: 791  18:32:33  -7.21  -4.68  -223.783301            -4.1,-0.0,-0.4
iter: 792  18:33:13  -7.91  -4.87  -223.782315            -4.1,-0.0,-0.4
iter: 793  18:33:52  -7.48  -4.82  -223.786184            -4.1,-0.0,-0.4
iter: 794  18:34:32  -7.38  -4.67  -223.784402            -4.1,-0.0,-0.4
iter: 795  18:35:11  -7.79  -4.62  -223.782587            -4.1,-0.0,-0.4
iter: 796  18:35:51  -7.07  -4.73  -223.772089            -4.1,-0.0,-0.4
iter: 797  18:36:30  -7.58  -4.60  -223.777455            -4.1,-0.0,-0.4
iter: 798  18:37:10  -7.63  -5.04  -223.775983            -4.1,-0.0,-0.4
iter: 799  18:37:50  -7.86  -5.16  -223.777001            -4.1,-0.0,-0.4
iter: 800  18:38:30  -7.55  -5.14  -223.775606            -4.1,-0.0,-0.4
iter: 801  18:39:09  -8.29  -5.13  -223.776363            -4.1,-0.0,-0.4
iter: 802  18:39:49  -7.63  -5.39  -223.776802            -4.1,-0.0,-0.4
iter: 803  18:40:28  -7.91  -5.02  -223.776634            -4.1,-0.0,-0.4
iter: 804  18:41:08  -8.03  -5.36  -223.776571            -4.1,-0.0,-0.4
iter: 805  18:41:48  -7.45  -5.41  -223.776532            -4.1,-0.0,-0.4
iter: 806  18:42:27  -7.38  -4.94  -223.776558            -4.1,-0.0,-0.4
iter: 807  18:43:07  -7.63  -5.12  -223.776760            -4.1,-0.0,-0.4
iter: 808  18:43:46  -7.18  -4.82  -223.776542            -4.1,-0.0,-0.4
iter: 809  18:44:26  -7.37  -4.93  -223.776500            -4.2,-0.0,-0.4
iter: 810  18:45:06  -7.68  -5.07  -223.776563            -4.1,-0.0,-0.4
iter: 811  18:45:46  -7.82  -4.81  -223.776529            -4.2,-0.0,-0.4
iter: 812  18:46:25  -7.50  -5.01  -223.776360            -4.2,-0.0,-0.4
iter: 813  18:47:05  -7.75  -5.21  -223.776377            -4.2,-0.0,-0.4
iter: 814  18:47:45  -7.36  -5.04  -223.776494            -4.2,-0.0,-0.4
iter: 815  18:48:24  -8.22  -4.99  -223.776451            -4.2,-0.0,-0.4
iter: 816  18:49:04  -7.17  -5.05  -223.776389            -4.2,-0.0,-0.4
iter: 817  18:49:44  -7.24  -5.02  -223.776513            -4.2,-0.0,-0.4
iter: 818  18:50:24  -7.85  -4.80  -223.776347            -4.2,-0.0,-0.4
iter: 819  18:51:04  -6.56  -4.89  -223.776454            -4.2,-0.0,-0.4
iter: 820  18:51:43  -7.06  -4.97  -223.778625            -4.2,-0.0,-0.4
iter: 821  18:52:23  -7.48  -5.16  -223.779363            -4.2,-0.0,-0.4
iter: 822  18:53:03  -7.44  -4.83  -223.780188            -4.2,-0.0,-0.4
iter: 823  18:53:42  -7.09  -5.06  -223.778820            -4.2,-0.0,-0.4
iter: 824  18:54:22  -7.97  -5.37  -223.778089            -4.2,-0.0,-0.4
iter: 825  18:55:02  -7.45  -5.23  -223.778510            -4.2,-0.0,-0.3
iter: 826  18:55:41  -8.01  -5.01  -223.778384            -4.2,-0.0,-0.4
iter: 827  18:56:21  -7.69  -5.00  -223.778276            -4.2,-0.0,-0.3
iter: 828  18:57:00  -7.74  -5.10  -223.777887            -4.2,-0.0,-0.3
iter: 829  18:57:40  -7.74  -4.97  -223.778197            -4.2,-0.0,-0.3
iter: 830  18:58:20  -7.56  -5.18  -223.779162            -4.2,-0.0,-0.3
iter: 831  18:59:00  -7.05  -4.76  -223.778147            -4.2,-0.0,-0.3
iter: 832  18:59:39  -8.15  -5.08  -223.778258            -4.2,-0.0,-0.3
iter: 833  19:00:19  -7.89  -5.02  -223.778703            -4.2,-0.0,-0.3
iter: 834  19:00:58  -7.61  -5.01  -223.776708            -4.2,-0.0,-0.3
iter: 835  19:01:38  -8.30  -4.98  -223.777516            -4.2,-0.0,-0.3
iter: 836  19:02:18  -7.44  -5.08  -223.780599            -4.2,-0.0,-0.3
iter: 837  19:02:57  -7.58  -5.10  -223.779363            -4.2,-0.0,-0.3
iter: 838  19:03:37  -7.72  -4.99  -223.780334            -4.2,-0.0,-0.3
iter: 839  19:04:17  -7.74  -5.01  -223.780924            -4.2,-0.0,-0.3
iter: 840  19:04:57  -7.10  -4.80  -223.779307            -4.2,-0.0,-0.3
iter: 841  19:05:36  -7.93  -5.00  -223.779332            -4.2,-0.0,-0.3
iter: 842  19:06:16  -7.79  -4.93  -223.780010            -4.2,-0.0,-0.3
iter: 843  19:06:56  -7.79  -4.82  -223.780113            -4.2,-0.0,-0.3
iter: 844  19:07:35  -7.64  -4.76  -223.778364            -4.2,-0.0,-0.3
iter: 845  19:08:15  -7.09  -4.76  -223.787204            -4.2,-0.0,-0.3
iter: 846  19:08:55  -7.01  -4.53  -223.775563            -4.2,-0.0,-0.3
iter: 847  19:09:35  -7.51  -4.90  -223.777189            -4.2,-0.0,-0.3
iter: 848  19:10:14  -8.24  -5.04  -223.777649            -4.3,-0.0,-0.3
iter: 849  19:10:54  -8.17  -5.09  -223.777741            -4.3,-0.0,-0.3
iter: 850  19:11:34  -8.08  -5.08  -223.778169            -4.3,-0.0,-0.3
iter: 851  19:12:13  -7.85  -5.19  -223.777990            -4.3,-0.0,-0.3
iter: 852  19:12:53  -8.06  -5.02  -223.778154            -4.3,-0.0,-0.3
iter: 853  19:13:33  -8.09  -5.13  -223.778438            -4.3,-0.0,-0.3
iter: 854  19:14:12  -8.00  -5.18  -223.778559            -4.3,-0.0,-0.3
iter: 855  19:14:52  -8.02  -4.92  -223.777593            -4.3,-0.0,-0.3
iter: 856  19:15:31  -8.36  -5.12  -223.777298            -4.3,-0.0,-0.3
iter: 857  19:16:11  -7.73  -5.21  -223.776852            -4.3,-0.0,-0.3
iter: 858  19:16:51  -8.43  -5.11  -223.776887            -4.3,-0.0,-0.3
iter: 859  19:17:30  -8.06  -5.40  -223.776883            -4.3,-0.0,-0.3
iter: 860  19:18:10  -8.08  -5.29  -223.776929            -4.3,-0.0,-0.3
iter: 861  19:18:49  -8.14  -5.23  -223.776943            -4.3,-0.0,-0.3
iter: 862  19:19:29  -8.47  -5.31  -223.777289            -4.3,-0.0,-0.3
iter: 863  19:20:09  -7.79  -5.37  -223.777868            -4.3,-0.0,-0.3
iter: 864  19:20:48  -8.29  -5.25  -223.777829            -4.3,-0.0,-0.3
iter: 865  19:21:28  -7.45  -5.25  -223.777510            -4.3,-0.0,-0.3
iter: 866  19:22:08  -8.24  -4.87  -223.777958            -4.3,-0.0,-0.3
iter: 867  19:22:47  -8.11  -5.14  -223.778161            -4.3,-0.0,-0.3
iter: 868  19:23:27  -8.16  -5.41  -223.778309            -4.3,-0.0,-0.3
iter: 869  19:24:06  -7.95  -5.39  -223.778248            -4.3,-0.0,-0.3
iter: 870  19:24:46  -8.37  -5.24  -223.778178            -4.3,-0.0,-0.3
iter: 871  19:25:26  -7.76  -5.51  -223.778585            -4.3,-0.0,-0.3
iter: 872  19:26:05  -8.45  -5.23  -223.778363            -4.3,-0.0,-0.3
iter: 873  19:26:45  -7.98  -5.35  -223.778529            -4.3,-0.0,-0.3
iter: 874  19:27:24  -8.25  -5.14  -223.778454            -4.3,-0.0,-0.3
iter: 875  19:28:04  -8.03  -5.21  -223.778439            -4.3,-0.0,-0.3
iter: 876  19:28:44  -7.86  -5.05  -223.778560            -4.3,-0.0,-0.3
iter: 877  19:29:23  -7.10  -5.10  -223.778274            -4.3,-0.0,-0.3
iter: 878  19:30:03  -7.83  -5.09  -223.778180            -4.3,-0.0,-0.3
iter: 879  19:30:43  -7.54  -5.07  -223.778205            -4.3,-0.0,-0.3
iter: 880  19:31:22  -7.81  -4.85  -223.778615            -4.3,-0.0,-0.3
iter: 881  19:32:02  -7.85  -5.10  -223.778711            -4.3,-0.0,-0.3
iter: 882  19:32:42  -8.10  -5.31  -223.778788            -4.3,-0.0,-0.3
iter: 883  19:33:22  -7.93  -5.40  -223.778886            -4.3,-0.0,-0.3
iter: 884  19:34:02  -8.03  -5.27  -223.778957            -4.3,-0.0,-0.3
iter: 885  19:34:41  -7.83  -5.04  -223.778645            -4.3,-0.0,-0.3
iter: 886  19:35:21  -7.81  -4.98  -223.778838            -4.3,-0.0,-0.3
iter: 887  19:36:01  -7.27  -4.86  -223.778908            -4.3,-0.0,-0.3
iter: 888  19:36:41  -8.14  -5.28  -223.778882            -4.3,-0.0,-0.3
iter: 889  19:37:21  -8.28  -5.36  -223.778918            -4.3,-0.0,-0.3
iter: 890  19:38:00  -8.17  -5.21  -223.778579            -4.3,-0.0,-0.3
iter: 891  19:38:40  -7.81  -5.16  -223.778941            -4.3,-0.0,-0.3
iter: 892  19:39:20  -8.21  -5.15  -223.779144            -4.3,-0.0,-0.3
iter: 893  19:39:59  -8.13  -5.11  -223.778876            -4.3,-0.0,-0.3
iter: 894  19:40:39  -7.53  -5.07  -223.780167            -4.3,-0.0,-0.3
iter: 895  19:41:19  -6.99  -4.90  -223.779807            -4.3,-0.0,-0.3
iter: 896  19:41:58  -6.93  -4.60  -223.779415            -4.3,-0.0,-0.3
iter: 897  19:42:38  -7.93  -5.17  -223.778434            -4.3,-0.0,-0.3
iter: 898  19:43:18  -8.08  -5.24  -223.777944            -4.3,-0.0,-0.3
iter: 899  19:43:57  -7.73  -5.08  -223.778349            -4.3,-0.0,-0.3
iter: 900  19:44:37  -8.12  -5.16  -223.778427            -4.3,-0.0,-0.3
iter: 901  19:45:17  -8.08  -5.15  -223.778840            -4.3,-0.0,-0.3
iter: 902  19:45:56  -8.01  -5.27  -223.778900            -4.3,-0.0,-0.2
iter: 903  19:46:36  -8.27  -5.28  -223.778767            -4.3,-0.0,-0.2
iter: 904  19:47:16  -7.57  -5.23  -223.778887            -4.3,-0.0,-0.2
iter: 905  19:47:56  -8.03  -5.03  -223.779064            -4.3,-0.0,-0.2
iter: 906  19:48:36  -7.77  -5.10  -223.779046            -4.3,-0.0,-0.2
iter: 907  19:49:16  -8.13  -5.26  -223.779123            -4.3,-0.0,-0.2
iter: 908  19:49:56  -8.12  -5.12  -223.778945            -4.3,-0.0,-0.2
iter: 909  19:50:35  -7.82  -5.17  -223.778879            -4.3,-0.0,-0.2
iter: 910  19:51:15  -7.97  -5.10  -223.779140            -4.3,-0.0,-0.2
iter: 911  19:51:55  -7.45  -5.03  -223.778593            -4.3,-0.0,-0.2
iter: 912  19:52:35  -7.83  -5.12  -223.779431            -4.3,-0.0,-0.2
iter: 913  19:53:15  -7.72  -5.05  -223.779056            -4.3,-0.0,-0.2
iter: 914  19:53:54  -7.39  -4.93  -223.778759            -4.4,-0.0,-0.2
iter: 915  19:54:34  -8.05  -5.30  -223.778683            -4.4,-0.0,-0.2
iter: 916  19:55:14  -7.93  -5.27  -223.778407            -4.4,-0.0,-0.2
iter: 917  19:55:54  -7.86  -5.13  -223.778238            -4.4,-0.0,-0.2
iter: 918  19:56:34  -8.18  -5.34  -223.778440            -4.4,-0.0,-0.2
iter: 919  19:57:13  -8.64  -5.50  -223.778449            -4.4,-0.0,-0.2
iter: 920  19:57:53  -8.22  -5.41  -223.778320            -4.4,-0.0,-0.2
iter: 921  19:58:33  -7.78  -5.15  -223.778407            -4.4,-0.0,-0.2
iter: 922  19:59:13  -8.28  -5.27  -223.778208            -4.4,-0.0,-0.2
iter: 923  19:59:53  -8.72  -4.98  -223.778176            -4.4,-0.0,-0.2
iter: 924  20:00:32  -8.29  -5.22  -223.778898            -4.4,-0.0,-0.2
iter: 925  20:01:12  -8.85  -5.38  -223.778402            -4.4,-0.0,-0.2
iter: 926  20:01:53  -7.97  -5.54  -223.777774            -4.4,-0.0,-0.2
iter: 927  20:02:32  -8.16  -5.30  -223.777564            -4.4,-0.0,-0.2
iter: 928  20:03:12  -8.07  -5.24  -223.778491            -4.4,-0.0,-0.2
iter: 929  20:03:52  -8.09  -5.26  -223.776899            -4.4,-0.0,-0.2
iter: 930  20:04:32  -7.54  -5.10  -223.780073            -4.4,-0.0,-0.2
iter: 931  20:05:12  -6.84  -4.93  -223.776031            -4.4,-0.0,-0.2
iter: 932  20:05:52  -8.23  -5.34  -223.777551            -4.4,-0.0,-0.2
iter: 933  20:06:32  -7.93  -5.32  -223.775969            -4.4,-0.0,-0.2
iter: 934  20:07:11  -8.80  -5.16  -223.776606            -4.4,-0.0,-0.2
iter: 935  20:07:51  -8.30  -5.19  -223.779367            -4.4,-0.0,-0.2
iter: 936  20:08:31  -7.71  -5.09  -223.776258            -4.4,-0.0,-0.2
iter: 937  20:09:11  -7.75  -5.11  -223.777848            -4.4,-0.0,-0.2
iter: 938  20:09:51  -7.27  -4.84  -223.776906            -4.4,-0.0,-0.2
iter: 939  20:10:30  -8.06  -5.35  -223.777370            -4.4,-0.0,-0.2
iter: 940  20:11:10  -8.09  -5.21  -223.776937            -4.4,-0.0,-0.2
iter: 941  20:11:50  -7.88  -5.06  -223.776291            -4.4,-0.0,-0.2
iter: 942  20:12:30  -8.35  -4.97  -223.778369            -4.4,-0.0,-0.2
iter: 943  20:13:10  -7.73  -5.04  -223.780495            -4.4,-0.0,-0.2
iter: 944  20:13:50  -7.58  -4.92  -223.780709            -4.4,-0.0,-0.2
iter: 945  20:14:30  -7.32  -4.83  -223.780690            -4.4,-0.0,-0.2
iter: 946  20:15:10  -7.21  -4.44  -223.778915            -4.4,-0.0,-0.2
iter: 947  20:15:50  -8.22  -5.25  -223.779633            -4.4,-0.0,-0.2
iter: 948  20:16:29  -8.07  -5.07  -223.778421            -4.4,-0.0,-0.2
iter: 949  20:17:09  -8.34  -5.29  -223.778253            -4.4,-0.0,-0.2
iter: 950  20:17:49  -8.30  -5.19  -223.775996            -4.4,-0.0,-0.2
iter: 951  20:18:29  -7.71  -5.16  -223.773307            -4.4,-0.0,-0.2
iter: 952  20:19:09  -8.10  -5.25  -223.772824            -4.4,-0.0,-0.2
iter: 953  20:19:49  -8.63  -5.23  -223.772635            -4.4,-0.0,-0.2
iter: 954  20:20:29  -8.13  -5.13  -223.775301            -4.4,-0.0,-0.2
iter: 955  20:21:08  -7.96  -5.24  -223.772993            -4.4,-0.0,-0.2
iter: 956  20:21:48  -8.29  -5.11  -223.772453            -4.4,-0.0,-0.2
iter: 957  20:22:28  -7.86  -4.80  -223.776056            -4.4,-0.0,-0.2
iter: 958  20:23:08  -8.13  -5.53  -223.778334            -4.4,-0.0,-0.2
iter: 959  20:23:48  -8.28  -5.51  -223.778439            -4.4,-0.0,-0.2
iter: 960  20:24:28  -7.55  -5.31  -223.778328            -4.4,-0.0,-0.2
iter: 961  20:25:07  -8.80  -5.15  -223.778359            -4.4,-0.0,-0.2
iter: 962  20:25:47  -8.32  -5.19  -223.777969            -4.4,-0.0,-0.2
iter: 963  20:26:27  -7.78  -5.21  -223.778552            -4.4,-0.0,-0.2
iter: 964  20:27:07  -8.36  -5.39  -223.780394            -4.4,-0.0,-0.2
[...]
iter: 4068  06:44:39  -9.19  -5.65  -223.779603            -4.7,-0.0,+0.6
iter: 4069  06:45:19  -9.02  -5.81  -223.779862            -4.7,-0.0,+0.6
iter: 4070  06:45:59  -9.18  -5.65  -223.779694            -4.7,-0.0,+0.6
iter: 4071  06:46:39  -8.58  -5.43  -223.779128            -4.7,-0.0,+0.6
iter: 4072  06:47:19  -8.87  -5.57  -223.780071            -4.7,-0.0,+0.6
iter: 4073  06:47:59  -9.02  -5.59  -223.780303            -4.7,-0.0,+0.6
iter: 4074  06:48:39  -8.44  -5.56  -223.779794            -4.7,-0.0,+0.6
iter: 4075  06:49:18  -8.71  -5.31  -223.779531            -4.7,-0.0,+0.6
iter: 4076  06:49:58  -8.51  -5.43  -223.780639            -4.7,-0.0,+0.6
iter: 4077  06:50:38  -8.62  -5.39  -223.781062            -4.7,-0.0,+0.6
iter: 4078  06:51:18  -8.15  -5.25  -223.779253            -4.7,-0.0,+0.6
iter: 4079  06:51:58  -8.98  -5.55  -223.779299            -4.7,-0.0,+0.6
iter: 4080  06:52:38  -9.05  -5.58  -223.779509            -4.7,-0.0,+0.6
iter: 4081  06:53:18  -9.20  -5.48  -223.779528            -4.7,-0.0,+0.6
iter: 4082  06:53:58  -8.86  -5.52  -223.779278            -4.7,-0.0,+0.6
iter: 4083  06:54:38  -8.66  -5.39  -223.779548            -4.7,-0.0,+0.6
iter: 4084  06:55:18  -8.26  -5.50  -223.779591            -4.7,-0.0,+0.6
iter: 4085  06:55:58  -8.15  -5.59  -223.779410            -4.7,-0.0,+0.6
iter: 4086  06:56:38  -7.76  -5.42  -223.779391            -4.7,-0.0,+0.6
iter: 4087  06:57:18  -8.31  -5.58  -223.779447            -4.7,-0.0,+0.6
iter: 4088  06:57:58  -8.09  -5.36  -223.779373            -4.7,-0.0,+0.6
iter: 4089  06:58:38  -8.79  -5.56  -223.779381            -4.7,-0.0,+0.6
iter: 4090  06:59:18  -8.32  -5.37  -223.779438            -4.7,-0.0,+0.6
iter: 4091  06:59:58  -9.03  -5.54  -223.779299            -4.7,-0.0,+0.6
iter: 4092  07:00:38  -8.74  -5.49  -223.779447            -4.7,-0.0,+0.6
iter: 4093  07:01:18  -9.12  -5.54  -223.779376            -4.7,-0.0,+0.6
iter: 4094  07:01:58  -8.67  -5.61  -223.779244            -4.7,-0.0,+0.6
iter: 4095  07:02:38  -9.17  -5.65  -223.779230            -4.7,-0.0,+0.6
iter: 4096  07:03:17  -9.02  -5.66  -223.779335            -4.7,-0.0,+0.6
iter: 4097  07:03:57  -8.65  -5.41  -223.779128            -4.7,-0.0,+0.6
iter: 4098  07:04:37  -9.25  -5.88  -223.779139            -4.7,-0.0,+0.6
iter: 4099  07:05:17  -8.07  -5.76  -223.779091            -4.7,-0.0,+0.6
iter: 4100  07:05:57  -8.39  -5.49  -223.779106            -4.7,-0.0,+0.6
iter: 4101  07:06:37  -9.03  -5.45  -223.779165            -4.7,-0.0,+0.6
iter: 4102  07:07:17  -8.62  -5.45  -223.779240            -4.7,-0.0,+0.6
iter: 4103  07:07:57  -7.99  -5.37  -223.779279            -4.7,-0.0,+0.6
iter: 4104  07:08:36  -8.89  -5.54  -223.779221            -4.7,-0.0,+0.6
iter: 4105  07:09:16  -8.82  -5.82  -223.779194            -4.7,-0.0,+0.6
iter: 4106  07:09:56  -9.13  -6.00  -223.779194            -4.7,-0.0,+0.6
iter: 4107  07:10:36  -8.82  -5.78  -223.779182            -4.7,-0.0,+0.6
iter: 4108  07:11:16  -9.42  -5.71  -223.779190            -4.7,-0.0,+0.6
iter: 4109  07:11:56  -8.68  -5.68  -223.779199            -4.7,-0.0,+0.6
iter: 4110  07:12:36  -8.35  -5.46  -223.779260            -4.7,-0.0,+0.6
iter: 4111  07:13:16  -8.65  -5.58  -223.779182            -4.7,-0.0,+0.6
iter: 4112  07:13:56  -8.74  -5.51  -223.779029            -4.7,-0.0,+0.6
iter: 4113  07:14:36  -9.33  -5.63  -223.778752            -4.7,-0.0,+0.6
iter: 4114  07:15:16  -9.31  -5.64  -223.778971            -4.7,-0.0,+0.6
iter: 4115  07:15:56  -9.20  -5.65  -223.779772            -4.7,-0.0,+0.6
iter: 4116  07:16:36  -9.51  -5.70  -223.779769            -4.7,-0.0,+0.6
iter: 4117  07:17:16  -8.95  -5.82  -223.779703            -4.7,-0.0,+0.6
iter: 4118  07:17:56  -9.32  -5.76  -223.779827            -4.7,-0.0,+0.6
iter: 4119  07:18:36  -8.81  -5.77  -223.779721            -4.7,-0.0,+0.6
iter: 4120  07:19:16  -9.43  -5.56  -223.779520            -4.7,-0.0,+0.6
iter: 4121  07:19:56  -8.78  -5.45  -223.779668            -4.7,-0.0,+0.6
iter: 4122  07:20:36  -8.86  -5.54  -223.779945            -4.7,-0.0,+0.6
iter: 4123  07:21:16  -8.93  -5.32  -223.779600            -4.7,-0.0,+0.6
iter: 4124  07:21:56  -8.52  -5.28  -223.780736            -4.7,-0.0,+0.6
iter: 4125  07:22:36  -8.75  -5.62  -223.779492            -4.7,-0.0,+0.6
iter: 4126  07:23:16  -9.46  -5.72  -223.779588            -4.7,-0.0,+0.6
iter: 4127  07:23:56  -9.02  -5.80  -223.779726            -4.7,-0.0,+0.6
iter: 4128  07:24:36  -9.02  -5.85  -223.779682            -4.7,-0.0,+0.6
iter: 4129  07:25:16  -9.13  -5.67  -223.779762            -4.7,-0.0,+0.6
iter: 4130  07:25:56  -9.97  -5.72  -223.779801            -4.7,-0.0,+0.6
iter: 4131  07:26:36  -8.93  -5.79  -223.779417            -4.7,-0.0,+0.6
iter: 4132  07:27:16  -8.78  -5.67  -223.779573            -4.7,-0.0,+0.6
iter: 4133  07:27:56  -8.80  -5.90  -223.779644            -4.7,-0.0,+0.6
iter: 4134  07:28:36  -9.23  -5.51  -223.779149            -4.7,-0.0,+0.6
iter: 4135  07:29:15  -9.38  -5.78  -223.779391            -4.7,-0.0,+0.6
iter: 4136  07:29:56  -9.20  -5.76  -223.779775            -4.7,-0.0,+0.6
iter: 4137  07:30:35  -8.97  -5.61  -223.779816            -4.7,-0.0,+0.6
iter: 4138  07:31:15  -8.76  -5.60  -223.779599            -4.7,-0.0,+0.6
iter: 4139  07:31:55  -8.65  -5.62  -223.778285            -4.7,-0.0,+0.6
iter: 4140  07:32:35  -8.77  -5.48  -223.779507            -4.7,-0.0,+0.6
iter: 4141  07:33:15  -8.52  -5.40  -223.778555            -4.7,-0.0,+0.6
iter: 4142  07:33:55  -8.46  -5.38  -223.778681            -4.7,-0.0,+0.6
iter: 4143  07:34:35  -8.19  -5.12  -223.779912            -4.7,-0.0,+0.6
iter: 4144  07:35:15  -8.55  -5.65  -223.780560            -4.7,-0.0,+0.6
iter: 4145  07:35:55  -8.88  -5.78  -223.780554            -4.7,-0.0,+0.6
iter: 4146  07:36:35  -8.76  -5.55  -223.780368            -4.7,-0.0,+0.6
iter: 4147  07:37:15  -8.64  -5.55  -223.780654            -4.7,-0.0,+0.6
iter: 4148  07:37:55  -8.29  -5.53  -223.780388            -4.7,-0.0,+0.6
iter: 4149  07:38:35  -9.08  -5.71  -223.780439            -4.7,-0.0,+0.6
iter: 4150  07:39:14  -8.84  -5.52  -223.780083            -4.7,-0.0,+0.6
iter: 4151  07:39:54  -9.28  -5.40  -223.780380            -4.7,-0.0,+0.6
iter: 4152  07:40:34  -8.39  -5.32  -223.780656            -4.7,-0.0,+0.6
iter: 4153  07:41:14  -8.81  -5.66  -223.780502            -4.7,-0.0,+0.6
iter: 4154  07:41:54  -9.54  -5.72  -223.780548            -4.7,-0.0,+0.6
iter: 4155  07:42:34  -8.73  -5.73  -223.780242            -4.7,-0.0,+0.6
iter: 4156  07:43:13  -9.21  -5.61  -223.780349            -4.7,-0.0,+0.6
iter: 4157  07:43:53  -9.65  -5.53  -223.780439            -4.7,-0.0,+0.6
iter: 4158  07:44:33  -9.17  -5.60  -223.780483            -4.7,-0.0,+0.6
iter: 4159  07:45:13  -9.36  -5.52  -223.780523            -4.7,-0.0,+0.6
iter: 4160  07:45:53  -9.22  -5.51  -223.780477            -4.7,-0.0,+0.6
iter: 4161  07:46:33  -9.14  -5.59  -223.780372            -4.7,-0.0,+0.6
iter: 4162  07:47:13  -8.55  -5.56  -223.780336            -4.7,-0.0,+0.6
iter: 4163  07:47:53  -8.84  -5.55  -223.780242            -4.7,-0.0,+0.6
iter: 4164  07:48:33  -8.72  -5.48  -223.780604            -4.7,-0.0,+0.6
iter: 4165  07:49:13  -8.67  -5.15  -223.780068            -4.7,-0.0,+0.6
iter: 4166  07:49:53  -9.39  -5.61  -223.779913            -4.7,-0.0,+0.6
iter: 4167  07:50:33  -9.13  -5.65  -223.779802            -4.7,-0.0,+0.6
iter: 4168  07:51:14  -9.19  -5.77  -223.779783            -4.7,-0.0,+0.6
iter: 4169  07:51:54  -8.55  -5.68  -223.779759            -4.7,-0.0,+0.6
iter: 4170  07:52:34  -9.90  -5.67  -223.779701            -4.7,-0.0,+0.6
iter: 4171  07:53:14  -8.79  -5.66  -223.779921            -4.7,-0.0,+0.6
iter: 4172  07:53:54  -8.34  -5.46  -223.779647            -4.7,-0.0,+0.6
iter: 4173  07:54:34  -8.95  -5.76  -223.779603            -4.7,-0.0,+0.6
iter: 4174  07:55:14  -9.93  -5.79  -223.779633            -4.7,-0.0,+0.6
iter: 4175  07:55:54  -8.93  -5.76  -223.779614            -4.7,-0.0,+0.6
iter: 4176  07:56:34  -9.65  -5.61  -223.779470            -4.7,-0.0,+0.6
iter: 4177  07:57:14  -8.94  -5.67  -223.779241            -4.7,-0.0,+0.6
iter: 4178  07:57:54  -8.76  -5.45  -223.779618            -4.7,-0.0,+0.6
iter: 4179  07:58:34  -9.24  -5.99  -223.779776            -4.7,-0.0,+0.6
iter: 4180  07:59:14  -8.13  -6.00  -223.779657            -4.7,-0.0,+0.6
iter: 4181  07:59:54  -8.59  -5.53  -223.779809            -4.7,-0.0,+0.6
iter: 4182  08:00:34  -9.01  -5.70  -223.779886            -4.7,-0.0,+0.6
iter: 4183  08:01:14  -8.46  -5.50  -223.779864            -4.7,-0.0,+0.6
iter: 4184  08:01:54  -8.84  -5.77  -223.779738            -4.7,-0.0,+0.6
iter: 4185  08:02:33  -8.74  -5.57  -223.779895            -4.7,-0.0,+0.6
iter: 4186  08:03:14  -9.33  -5.66  -223.779823            -4.7,-0.0,+0.6
iter: 4187  08:03:53  -9.46  -5.77  -223.779746            -4.7,-0.0,+0.6
iter: 4188  08:04:33  -8.83  -5.78  -223.779663            -4.7,-0.0,+0.6
iter: 4189  08:05:13  -8.51  -5.81  -223.779587            -4.7,-0.0,+0.6
iter: 4190  08:05:53  -9.19  -5.75  -223.779530            -4.7,-0.0,+0.6
iter: 4191  08:06:33  -8.84  -5.66  -223.779573            -4.7,-0.0,+0.6
iter: 4192  08:07:13  -8.60  -5.80  -223.779751            -4.7,-0.0,+0.6
iter: 4193  08:07:53  -9.66  -5.68  -223.779632            -4.7,-0.0,+0.6
iter: 4194  08:08:33  -9.32  -5.74  -223.779769            -4.7,-0.0,+0.6
iter: 4195  08:09:13  -9.06  -5.52  -223.779430            -4.7,-0.0,+0.6
iter: 4196  08:09:52  -9.32  -5.95  -223.779360            -4.7,-0.0,+0.6
iter: 4197  08:10:32  -9.20  -6.01  -223.779427            -4.7,-0.0,+0.6
iter: 4198  08:11:12  -9.03  -6.00  -223.779447            -4.7,-0.0,+0.6
iter: 4199  08:11:52  -9.80  -5.72  -223.779419            -4.7,-0.0,+0.6
iter: 4200  08:12:32  -8.96  -5.82  -223.779208            -4.7,-0.0,+0.6
iter: 4201  08:13:12  -8.83  -5.61  -223.779193            -4.7,-0.0,+0.6
iter: 4202  08:13:52  -9.32  -5.93  -223.779056            -4.7,-0.0,+0.6
iter: 4203  08:14:32  -8.55  -5.96  -223.779555            -4.7,-0.0,+0.6
iter: 4204  08:15:12  -9.45  -5.68  -223.779733            -4.7,-0.0,+0.6
iter: 4205  08:15:52  -8.59  -5.59  -223.779106            -4.7,-0.0,+0.6
iter: 4206  08:16:31  -8.40  -5.49  -223.779080            -4.7,-0.0,+0.6
iter: 4207  08:17:11  -8.31  -5.62  -223.778802            -4.7,-0.0,+0.6
iter: 4208  08:17:51  -9.03  -5.43  -223.779413            -4.7,-0.0,+0.6
iter: 4209  08:18:31  -8.09  -5.39  -223.778260            -4.7,-0.0,+0.6
iter: 4210  08:19:11  -8.02  -5.26  -223.777742            -4.7,-0.0,+0.6
iter: 4211  08:19:51  -9.03  -5.50  -223.777813            -4.7,-0.0,+0.6
iter: 4212  08:20:31  -9.32  -5.42  -223.777811            -4.7,-0.0,+0.6
iter: 4213  08:21:11  -8.87  -5.40  -223.777935            -4.7,-0.0,+0.6
iter: 4214  08:21:51  -9.06  -5.27  -223.777688            -4.7,-0.0,+0.6
iter: 4215  08:22:31  -8.67  -5.35  -223.777683            -4.7,-0.0,+0.6
iter: 4216  08:23:11  -8.88  -5.46  -223.778118            -4.7,-0.0,+0.6
iter: 4217  08:23:51  -9.05  -5.37  -223.777122            -4.7,-0.0,+0.6
iter: 4218  08:24:31  -8.18  -5.36  -223.778475            -4.7,-0.0,+0.6
iter: 4219  08:25:11  -9.22  -5.70  -223.778708            -4.7,-0.0,+0.6
iter: 4220  08:25:51  -8.77  -5.81  -223.778812            -4.7,-0.0,+0.6
iter: 4221  08:26:31  -9.65  -5.77  -223.778864            -4.7,-0.0,+0.6
iter: 4222  08:27:10  -9.03  -5.82  -223.778592            -4.7,-0.0,+0.6
iter: 4223  08:27:50  -9.17  -5.65  -223.779055            -4.7,-0.0,+0.6
iter: 4224  08:28:30  -8.99  -5.51  -223.779281            -4.7,-0.0,+0.6
iter: 4225  08:29:10  -8.80  -5.47  -223.778278            -4.7,-0.0,+0.6
iter: 4226  08:29:50  -8.47  -5.49  -223.780299            -4.7,-0.0,+0.6
iter: 4227  08:30:30  -8.89  -5.33  -223.781007            -4.7,-0.0,+0.6
iter: 4228  08:31:10  -8.75  -5.19  -223.778895            -4.7,-0.0,+0.6
iter: 4229  08:31:50  -9.30  -5.57  -223.779445            -4.7,-0.0,+0.6
iter: 4230  08:32:30  -8.78  -5.50  -223.779707            -4.7,-0.0,+0.6
iter: 4231  08:33:10  -8.91  -5.63  -223.779089            -4.7,-0.0,+0.6
iter: 4232  08:33:50  -9.38  -5.67  -223.779349            -4.7,-0.0,+0.6
iter: 4233  08:34:30  -9.27  -5.60  -223.779502            -4.7,-0.0,+0.6
iter: 4234  08:35:10  -8.93  -5.65  -223.778477            -4.7,-0.0,+0.6
iter: 4235  08:35:50  -8.64  -5.46  -223.780308            -4.7,-0.0,+0.6
iter: 4236  08:36:30  -8.79  -5.66  -223.779816            -4.7,-0.0,+0.6
iter: 4237  08:37:10  -8.78  -5.74  -223.779905            -4.7,-0.0,+0.6
iter: 4238  08:37:50  -9.44  -5.66  -223.779647            -4.7,-0.0,+0.6
iter: 4239  08:38:30  -8.59  -5.73  -223.779754            -4.7,-0.0,+0.6
iter: 4240  08:39:10  -8.63  -5.48  -223.779146            -4.7,-0.0,+0.6
iter: 4241  08:39:50  -8.86  -5.77  -223.777852            -4.7,-0.0,+0.6
iter: 4242  08:40:30  -9.04  -5.43  -223.779531            -4.7,-0.0,+0.6
iter: 4243  08:41:10  -9.01  -5.84  -223.779214            -4.7,-0.0,+0.6
iter: 4244  08:41:49  -9.31  -5.86  -223.779282            -4.7,-0.0,+0.6
iter: 4245  08:42:29  -8.98  -5.99  -223.779480            -4.7,-0.0,+0.6
iter: 4246  08:43:09  -9.49  -5.80  -223.779626            -4.7,-0.0,+0.6
iter: 4247  08:43:49  -9.59  -5.71  -223.779700            -4.7,-0.0,+0.6
iter: 4248  08:44:29  -9.12  -5.58  -223.779588            -4.7,-0.0,+0.6
iter: 4249  08:45:09  -9.42  -5.79  -223.779691            -4.7,-0.0,+0.6
iter: 4250  08:45:49  -8.74  -5.67  -223.779520            -4.7,-0.0,+0.6
iter: 4251  08:46:29  -8.91  -5.92  -223.779387            -4.7,-0.0,+0.6
iter: 4252  08:47:09 -10.04  -5.75  -223.779294            -4.7,-0.0,+0.6
iter: 4253  08:47:49  -9.67  -5.69  -223.779049            -4.7,-0.0,+0.6
iter: 4254  08:48:29  -9.03  -5.55  -223.779832            -4.7,-0.0,+0.6
iter: 4255  08:49:09  -9.43  -5.86  -223.779731            -4.7,-0.0,+0.6
iter: 4256  08:49:49 -10.25  -5.85  -223.779978            -4.7,-0.0,+0.6
iter: 4257  08:50:30  -8.81  -5.73  -223.779562            -4.7,-0.0,+0.6
iter: 4258  08:51:09  -9.37  -5.98  -223.779556            -4.7,-0.0,+0.6
iter: 4259  08:51:49  -8.91  -5.96  -223.779722            -4.7,-0.0,+0.6
iter: 4260  08:52:29  -9.38  -5.79  -223.779519            -4.7,-0.0,+0.6
iter: 4261  08:53:09  -9.72  -5.69  -223.779828            -4.7,-0.0,+0.6
iter: 4262  08:53:49  -9.10  -5.72  -223.780004            -4.7,-0.0,+0.6
iter: 4263  08:54:29  -9.13  -5.75  -223.779535            -4.7,-0.0,+0.6
iter: 4264  08:55:09  -9.21  -5.84  -223.779080            -4.7,-0.0,+0.6
iter: 4265  08:55:49  -9.24  -5.82  -223.779864            -4.7,-0.0,+0.6
iter: 4266  08:56:29  -9.40  -5.84  -223.780356            -4.7,-0.0,+0.6
iter: 4267  08:57:09  -9.41  -5.72  -223.780397            -4.7,-0.0,+0.6
iter: 4268  08:57:49  -8.77  -5.49  -223.780090            -4.7,-0.0,+0.6
iter: 4269  08:58:29  -9.05  -5.58  -223.780417            -4.7,-0.0,+0.6
iter: 4270  08:59:09  -9.15  -5.46  -223.780019            -4.7,-0.0,+0.6
iter: 4271  08:59:49  -8.19  -5.40  -223.780965            -4.7,-0.0,+0.6
iter: 4272  09:00:29  -7.75  -5.49  -223.781326            -4.7,-0.0,+0.6
iter: 4273  09:01:09  -8.26  -5.48  -223.781863            -4.7,-0.0,+0.6
iter: 4274  09:01:49  -8.77  -5.46  -223.780505            -4.7,-0.0,+0.6
iter: 4275  09:02:29  -8.34  -5.35  -223.782080            -4.7,-0.0,+0.6
iter: 4276  09:03:09  -9.08  -5.43  -223.780808            -4.7,-0.0,+0.6
iter: 4277  09:03:49  -9.48  -5.68  -223.780054            -4.7,-0.0,+0.6
iter: 4278  09:04:29  -9.11  -5.83  -223.780285            -4.7,-0.0,+0.6
iter: 4279  09:05:09  -9.21  -5.68  -223.780001            -4.7,-0.0,+0.6
iter: 4280  09:05:49  -9.29  -5.82  -223.779866            -4.7,-0.0,+0.6
iter: 4281  09:06:30  -8.56  -5.82  -223.779099            -4.7,-0.0,+0.6
iter: 4282  09:07:10  -9.09  -5.60  -223.779158            -4.7,-0.0,+0.6
iter: 4283  09:07:50  -9.03  -5.49  -223.779338            -4.7,-0.0,+0.6
iter: 4284  09:08:30  -8.93  -5.66  -223.778944            -4.7,-0.0,+0.6
iter: 4285  09:09:10  -8.85  -5.60  -223.779806            -4.7,-0.0,+0.6
iter: 4286  09:09:50  -8.81  -5.67  -223.780720            -4.7,-0.0,+0.6
iter: 4287  09:10:30  -8.96  -5.34  -223.779164            -4.7,-0.0,+0.6
iter: 4288  09:11:10  -9.26  -5.52  -223.779264            -4.7,-0.0,+0.6
iter: 4289  09:11:50  -8.87  -5.43  -223.779233            -4.7,-0.0,+0.6
iter: 4290  09:12:30  -9.20  -5.67  -223.778684            -4.7,-0.0,+0.6
iter: 4291  09:13:10  -8.93  -5.72  -223.779098            -4.7,-0.0,+0.6
iter: 4292  09:13:50  -9.62  -5.65  -223.778797            -4.7,-0.0,+0.6
iter: 4293  09:14:30  -8.66  -5.71  -223.778747            -4.7,-0.0,+0.6
iter: 4294  09:15:09  -8.86  -5.59  -223.778445            -4.7,-0.0,+0.6
iter: 4295  09:15:49  -9.37  -5.87  -223.778515            -4.7,-0.0,+0.6
iter: 4296  09:16:29  -9.28  -5.92  -223.778597            -4.7,-0.0,+0.6
iter: 4297  09:17:09  -9.46  -5.91  -223.778516            -4.7,-0.0,+0.6
iter: 4298  09:17:49  -9.34  -5.78  -223.778538            -4.7,-0.0,+0.6
iter: 4299  09:18:29  -9.06  -5.77  -223.778507            -4.7,-0.0,+0.6
iter: 4300  09:19:09  -8.85  -5.72  -223.778513            -4.7,-0.0,+0.6
iter: 4301  09:19:49  -9.80  -5.62  -223.778588            -4.7,-0.0,+0.6
iter: 4302  09:20:29  -8.60  -5.55  -223.779837            -4.7,-0.0,+0.6
iter: 4303  09:21:09  -8.37  -5.40  -223.779776            -4.7,-0.0,+0.6
iter: 4304  09:21:49  -9.44  -5.80  -223.780362            -4.7,-0.0,+0.6
iter: 4305  09:22:29  -9.16  -5.82  -223.780369            -4.7,-0.0,+0.6
iter: 4306  09:23:09  -9.20  -5.87  -223.779831            -4.7,-0.0,+0.6
iter: 4307  09:23:49  -9.20  -5.76  -223.780201            -4.7,-0.0,+0.6
iter: 4308  09:24:28  -8.93  -5.66  -223.778851            -4.7,-0.0,+0.6
iter: 4309  09:25:08  -9.04  -5.48  -223.778993            -4.7,-0.0,+0.6
iter: 4310  09:25:48  -8.67  -5.52  -223.781603            -4.7,-0.0,+0.6
iter: 4311  09:26:28  -8.69  -5.72  -223.781517            -4.7,-0.0,+0.6
iter: 4312  09:27:08  -8.47  -5.52  -223.780265            -4.7,-0.0,+0.6
iter: 4313  09:27:48  -8.89  -5.80  -223.779478            -4.7,-0.0,+0.6
iter: 4314  09:28:28  -9.02  -5.79  -223.779399            -4.7,-0.0,+0.6
iter: 4315  09:29:08  -9.49  -5.65  -223.778843            -4.7,-0.0,+0.6
iter: 4316  09:29:48  -9.07  -5.53  -223.779785            -4.7,-0.0,+0.6
iter: 4317  09:30:28  -9.71  -5.78  -223.779704            -4.7,-0.0,+0.6
iter: 4318  09:31:08  -9.49  -5.88  -223.779798            -4.7,-0.0,+0.6
iter: 4319  09:31:48  -9.45  -6.04  -223.779696            -4.7,-0.0,+0.6
iter: 4320  09:32:28  -9.20  -5.86  -223.779756            -4.7,-0.0,+0.6
iter: 4321  09:33:07  -9.57  -6.07  -223.779733            -4.7,-0.0,+0.6
iter: 4322  09:33:48  -9.12  -5.88  -223.779769            -4.7,-0.0,+0.6
iter: 4323  09:34:28  -9.12  -5.68  -223.779758            -4.7,-0.0,+0.6
iter: 4324  09:35:07  -9.37  -5.83  -223.779636            -4.7,-0.0,+0.6
iter: 4325  09:35:47  -8.47  -5.72  -223.780180            -4.7,-0.0,+0.6
iter: 4326  09:36:27  -8.41  -5.59  -223.779799            -4.7,-0.0,+0.6
iter: 4327  09:37:07  -8.50  -5.54  -223.779741            -4.7,-0.0,+0.6
iter: 4328  09:37:47  -8.58  -5.40  -223.779746            -4.7,-0.0,+0.6
iter: 4329  09:38:27  -8.98  -5.53  -223.778297            -4.7,-0.0,+0.6
iter: 4330  09:39:07  -8.66  -5.45  -223.777215            -4.7,-0.0,+0.6
iter: 4331  09:39:47  -8.35  -5.52  -223.782489            -4.7,-0.0,+0.6
iter: 4332  09:40:27  -8.08  -5.01  -223.774643            -4.7,-0.0,+0.6
iter: 4333  09:41:07  -9.06  -5.59  -223.775607            -4.7,-0.0,+0.6
iter: 4334  09:41:47  -9.12  -5.63  -223.775534            -4.7,-0.0,+0.6
iter: 4335  09:42:26  -9.09  -5.57  -223.775972            -4.7,-0.0,+0.6
iter: 4336  09:43:06  -8.55  -5.57  -223.775922            -4.7,-0.0,+0.6
iter: 4337  09:43:46  -8.48  -5.41  -223.780437            -4.7,-0.0,+0.6
