
  ___ ___ ___ _ _ _  
 |   |   |_  | | | | 
 | | | | | . | | | | 
 |__ |  _|___|_____|  21.1.1b1
 |___|_|             

User:   madkru@g043.nifl.fysik.dtu.dk
Date:   Tue Mar 30 08:09:37 2021
Arch:   x86_64
Pid:    39387
Python: 3.8.6
gpaw:   /home/niflheim/madkru/venv_madkru/gpaw/gpaw (e6f0d78a31)
_gpaw:  /home/niflheim/madkru/venv_madkru/gpaw/build/lib.linux-x86_64-sandybridge-3.8/
        _gpaw.cpython-38-x86_64-linux-gnu.so (e6f0d78a31)
ase:    /home/niflheim/madkru/venv_madkru/ase/ase (version 3.22.0b1-4d5a73cb29)
numpy:  /home/modules/software/SciPy-bundle/2020.11-foss-2020b/lib/python3.8/site-packages/numpy (version 1.19.4)
scipy:  /home/modules/software/SciPy-bundle/2020.11-foss-2020b/lib/python3.8/site-packages/scipy (version 1.5.4)
libxc:  4.3.4
units:  Angstrom and eV
cores: 64
OpenMP: False
OMP_NUM_THREADS: 1

Input parameters:
  convergence: {bands: occupied,
                density: 0.0001,
                eigenstates: 4e-08,
                energy: 0.0005,
                forces: 1e-06}
  kpts: [6 6 4]
  maxiter: 1000
  mode: {ecut: 600.0,
         gammacentered: False,
         name: pw}
  occupations: {fixmagmom: False,
                name: fermi-dirac,
                width: 0.001}
  symmetry: {point_group: False,
             time_reversal: False}

System changes: positions, numbers, cell, pbc, initial_charges, initial_magmoms 

Initialize ...

O-setup:
  name: Oxygen
  id: 9b9d51c344dea68c822856295a461509
  Z: 8.0
  valence: 6
  core: 2
  charge: 0.0
  file: /home/modules/software/GPAW-setups/0.9.20000/O.LDA.gz
  compensation charges: gauss, rc=0.21, lmax=2
  cutoffs: 1.17(filt), 0.83(core),
  valence states:
                energy  radius
    2s(2.00)   -23.752   0.688
    2p(4.00)    -9.195   0.598
    *s           3.459   0.688
    *p          18.016   0.598
    *d           0.000   0.619

  Using partial waves for O as LCAO basis

Mn-setup:
  name: Manganese
  id: 0d715a8018be061a6e9ea6f2d364ac92
  Z: 25.0
  valence: 15
  core: 10
  charge: 0.0
  file: /home/modules/software/GPAW-setups/0.9.20000/Mn.LDA.gz
  compensation charges: gauss, rc=0.38, lmax=2
  cutoffs: 2.14(filt), 0.86(core),
  valence states:
                energy  radius
    3s(2.00)   -85.387   1.275
    4s(2.00)    -5.282   1.275
    3p(6.00)   -54.493   1.281
    4p(0.00)    -1.471   1.281
    3d(5.00)    -7.009   1.138
    *d          20.203   1.138

  Using partial waves for Mn as LCAO basis

P-setup:
  name: Phosphorus
  id: a5561c299094968922a179ab894d2e2d
  Z: 15.0
  valence: 5
  core: 10
  charge: 0.0
  file: /home/modules/software/GPAW-setups/0.9.20000/P.LDA.gz
  compensation charges: gauss, rc=0.30, lmax=2
  cutoffs: 1.69(filt), 1.81(core),
  valence states:
                energy  radius
    3s(2.00)   -14.015   0.953
    3p(3.00)    -5.596   0.953
    *s          13.197   0.953
    *p          21.615   0.953
    *d           0.000   0.953

  Using partial waves for P as LCAO basis

Li-setup:
  name: Lithium
  id: b73562207f97a71b6967473b66fe8b65
  Z: 3.0
  valence: 1
  core: 2
  charge: 0.0
  file: /home/modules/software/GPAW-setups/0.9.20000/Li.LDA.gz
  compensation charges: gauss, rc=0.33, lmax=2
  cutoffs: 1.91(filt), 2.55(core),
  valence states:
                energy  radius
    2s(1.00)    -2.874   1.058
    2p(0.00)    -1.126   1.058
    *s          24.338   1.058

  Using partial waves for Li as LCAO basis

Reference energy: -196157.275402

Spin-polarized calculation.
Magnetic moment: 0.000000

Convergence criteria:
  Maximum total energy change: 0.0005 eV / electron
  Maximum integral of absolute density change: 0.0001 electrons
  Maximum integral of absolute eigenstate change: 4e-08 eV^2
  Maximum change in atomic force: 1e-06 eV / Ang
  Maximum number of iterations: 1000

Symmetries present (total): 1

  ( 1  0  0)
  ( 0  1  0)
  ( 0  0  1)

144 k-points: 6 x 6 x 4 Monkhorst-Pack grid
144 k-points in the irreducible part of the Brillouin zone
       k-points in crystal coordinates                weights
   0:    -0.41666667   -0.41666667   -0.37500000          1/144
   1:    -0.41666667   -0.41666667   -0.12500000          1/144
   2:    -0.41666667   -0.41666667    0.12500000          1/144
   3:    -0.41666667   -0.41666667    0.37500000          1/144
   4:    -0.41666667   -0.25000000   -0.37500000          1/144
   5:    -0.41666667   -0.25000000   -0.12500000          1/144
   6:    -0.41666667   -0.25000000    0.12500000          1/144
   7:    -0.41666667   -0.25000000    0.37500000          1/144
   8:    -0.41666667   -0.08333333   -0.37500000          1/144
   9:    -0.41666667   -0.08333333   -0.12500000          1/144
          ...
 143:     0.41666667    0.41666667    0.37500000          1/144

Wave functions: Plane wave expansion
  Cutoff energy: 600.000 eV
  Number of coefficients (min, max): 10068, 10125
  Pulay-stress correction: 0.000000 eV/Ang^3 (de/decut=0.000000)
  Using FFTW library
  ScaLapack parameters: grid=1x1, blocksize=None
  Wavefunction extrapolation:
    Improved wavefunction reuse through dual PAW basis 

  Fermi-Dirac: width=0.0010 eV

Eigensolver
   Davidson(niter=2) 

Densities:
  Coarse grid: 60*35*27 grid
  Fine grid: 120*70*54 grid
  Total Charge: 0.000000 

Density mixing:
  Method: difference
  Backend: pulay
  Linear mixing parameter: 0.05
  Mixing with 5 old densities
  Damping of long wave oscillations: 50 

Hamiltonian:
  XC and Coulomb potentials evaluated on a 120*70*54 grid
  Using the LDA Exchange-Correlation functional
 

Memory estimate:
  Process memory now: 12432.86 MiB
  Calculator: 354.82 MiB
    Density: 10.06 MiB
      Arrays: 3.79 MiB
      Localized functions: 4.71 MiB
      Mixer: 1.56 MiB
    Hamiltonian: 2.95 MiB
      Arrays: 2.82 MiB
      XC: 0.00 MiB
      Poisson: 0.00 MiB
      vbar: 0.14 MiB
    Wavefunctions: 341.80 MiB
      Arrays psit_nG: 311.46 MiB
      Eigensolver: 19.99 MiB
      Projections: 2.71 MiB
      Projectors: 4.87 MiB
      PW-descriptor: 2.77 MiB

Total number of cores used: 64
Parallelization over k-points: 16
Domain decomposition: 2 x 2 x 1

Number of atoms: 28
Number of atomic orbitals: 148
Number of bands in calculation: 112
Number of valence electrons: 180
Bands to converge: occupied

... initialized

Initializing position-dependent things.

Density initialized from atomic densities
Creating initial wave functions:
  112 bands from LCAO basis set

     .-------------------------.  
    /|         OP              |  
   / |O            O        O  |  
  /  |       O            O  P |  
 *   |O    Mn      O           |  
 |   |          OLi          O |  
 |   .P-O--------------Mn------.  
 |  /          Li    O  Mn  O /   
 | /Li O           PO        /    
 |/       Mn                /     
 *Li-----------------------*      

Positions:
   0 O     -1.360678   -2.541161   -1.202221    ( 0.0000,  0.0000,  0.0000)
   1 O     -3.121941    2.976855    1.167242    ( 0.0000,  0.0000,  0.0000)
   2 O      2.107533    0.508090    1.540712    ( 0.0000,  0.0000,  0.0000)
   3 O      3.869373   -0.072395   -0.828750    ( 0.0000,  0.0000,  0.0000)
   4 O      2.107821    2.976875    1.540792    ( 0.0000,  0.0000,  0.0000)
   5 O      3.869084   -2.541141   -0.828671    ( 0.0000,  0.0000,  0.0000)
   6 O     -1.360390   -0.072375   -1.202141    ( 0.0000,  0.0000,  0.0000)
   7 O     -3.122230    0.508109    1.167321    ( 0.0000,  0.0000,  0.0000)
   8 O     -4.413461   -1.306992   -0.794251    ( 0.0000,  0.0000,  0.0000)
   9 O     -0.069585    1.742707    1.575662    ( 0.0000,  0.0000,  0.0000)
  10 O      5.160604    1.732707    1.132822    ( 0.0000,  0.0000,  0.0000)
  11 O      0.816728   -1.306992   -1.237091    ( 0.0000,  0.0000,  0.0000)
  12 Mn    -2.570809   -1.307302    0.247161    ( 0.0000,  0.0000,  1.0000)
  13 Mn    -1.912021    1.743016   -2.122906    ( 0.0000,  0.0000, -1.0000)
  14 Mn     3.317952    1.743017    0.091411    ( 0.0000,  0.0000, -1.0000)
  15 Mn     2.659164   -1.307302    2.461478    ( 0.0000,  0.0000,  1.0000)
  16 P     -0.620664   -1.306816   -1.828465    ( 0.0000,  0.0000,  0.0000)
  17 P     -3.862097    1.742530    0.541238    ( 0.0000,  0.0000,  0.0000)
  18 P      1.367807    1.742530    2.167036    ( 0.0000,  0.0000,  0.0000)
  19 P      4.609240   -1.306816   -0.202666    ( 0.0000,  0.0000,  0.0000)
  20 O     -0.646437   -1.306845    1.374751    ( 0.0000,  0.0000,  0.0000)
  21 O     -3.836504    1.742559   -0.995565    ( 0.0000,  0.0000,  0.0000)
  22 O      1.393580    1.742559   -1.036179    ( 0.0000,  0.0000,  0.0000)
  23 O      4.583647   -1.306845    1.334136    ( 0.0000,  0.0000,  0.0000)
  24 Li    -4.856429   -2.832143   -2.200714    ( 0.0000,  0.0000,  0.0000)
  25 Li     0.373571   -2.832143    0.169286    ( 0.0000,  0.0000,  0.0000)
  26 Li    -4.856429    0.217857   -2.200714    ( 0.0000,  0.0000,  0.0000)
  27 Li     0.373571    0.217857    0.169286    ( 0.0000,  0.0000,  0.0000)

Unit cell:
           periodic     x           y           z      points  spacing
  1. axis:    yes   10.460000    0.000000    0.000000    60     0.1743
  2. axis:    yes    0.000000    6.100000    0.000000    35     0.1743
  3. axis:    yes    0.000000    0.000000    4.740000    27     0.1756

  Lengths:  10.460000   6.100000   4.740000
  Angles:   90.000000  90.000000  90.000000

Effective grid spacing dv^(1/3) = 0.1747

                     log10-error:           total        iterations:
           time      wfs    density  force  energy       poisson  magmom
iter:   1  08:11:12                       -231.920197             +0.0000
iter:   2  08:11:33  -0.55  -0.94         -231.730821             +0.0052
iter:   3  08:11:54  -0.72  -0.98         -220.584675             +0.0065
iter:   4  08:12:15  -0.96  -1.20         -218.866131             +0.0021
iter:   5  08:12:36  -1.94  -1.36         -221.252524             +0.0014
iter:   6  08:12:58  -1.99  -1.50         -219.963818             +0.0007
iter:   7  08:13:19  -2.21  -1.68         -222.899150             +0.1834
iter:   8  08:13:40  -2.74  -1.89         -219.874246             +0.2517
iter:   9  08:14:01  -2.21  -1.94         -224.901888             +0.6943
iter:  10  08:14:23  -2.25  -1.87         -227.183683             +0.0547
iter:  11  08:14:44  -2.94  -1.84         -227.317448             -0.0132
iter:  12  08:15:05  -3.26  -1.80         -227.197747             -0.0040
iter:  13  08:15:26  -1.37  -1.82         -228.451756             -0.0025
iter:  14  08:15:47  -2.79  -1.88         -227.215621             -0.0012
iter:  15  08:16:09  -2.82  -2.07         -226.816855             -0.0003
iter:  16  08:16:30  -2.36  -2.10         -226.452609             +0.0000
iter:  17  08:16:51  -1.99  -2.17         -226.568319             -0.0000
iter:  18  08:17:12  -2.80  -2.30         -226.657258             +0.0000
iter:  19  08:17:33  -2.31  -2.36         -226.274048             -0.0000
iter:  20  08:17:55  -3.54  -2.65         -226.310412             -0.0000
iter:  21  08:18:16  -3.09  -2.67         -226.316946             -0.0000
iter:  22  08:18:37  -2.76  -2.79         -226.232131             -0.0000
iter:  23  08:18:58  -4.00  -2.99         -226.231822             -0.0000
iter:  24  08:19:19  -4.71  -3.03         -226.232147             +0.0000
iter:  25  08:19:41  -4.11  -3.07         -226.228680             +0.0000
iter:  26  08:20:02  -4.92  -3.26         -226.228493             +0.0000
iter:  27  08:20:23  -4.92  -3.30         -226.229050             -0.0000
iter:  28  08:20:44  -4.68  -3.35         -226.228342             -0.0000
iter:  29  08:21:05  -5.56  -3.45         -226.227943             -0.0000
iter:  30  08:21:27  -5.32  -3.48         -226.227709             -0.0000
iter:  31  08:21:48  -5.62  -3.52         -226.227720             -0.0000
iter:  32  08:22:09  -5.84  -3.60         -226.227806             -0.0000
iter:  33  08:22:30  -6.10  -3.68         -226.227884             -0.0000
iter:  34  08:22:51  -5.13  -3.72         -226.227758             -0.0000
iter:  35  08:23:13  -6.57  -4.10         -226.227734             -0.0000
iter:  36  08:23:34  -5.66  -4.14         -226.227733             +0.0000
iter:  37  08:23:55  -6.10  -4.32         -226.227706             +0.0000
iter:  38  08:24:22  -7.58  -4.50         -226.227703             +0.0000
iter:  39  08:24:43  -7.05  -4.57         -226.227697             +0.0000
iter:  40  08:25:04  -7.26  -4.80         -226.227700             -0.0000
iter:  41  08:25:25  -7.22  -4.85         -226.227695             -0.0000
iter:  42  08:25:52  -8.13  -4.93    -2.30-226.227695             -0.0000
iter:  43  08:26:19  -8.48  -4.96    -3.10-226.227695             +0.0000
iter:  44  08:26:45  -8.41  -5.02    -3.06-226.227695             +0.0000
iter:  45  08:27:12  -8.38  -5.14    -3.12-226.227695             +0.0000
iter:  46  08:27:39  -8.62  -5.24    -3.30-226.227695             +0.0000
iter:  47  08:28:06  -8.37  -5.26    -3.14-226.227695             +0.0000
iter:  48  08:28:32  -9.45  -5.63    -3.60-226.227695             +0.0000
iter:  49  08:28:59 -10.39  -5.73    -4.35-226.227695             +0.0000
iter:  50  08:29:26  -9.34  -5.77    -3.59-226.227695             +0.0000
iter:  51  08:29:52 -10.28  -6.00    -4.42-226.227695             +0.0000
iter:  52  08:30:19 -10.22  -6.04    -4.04-226.227695             +0.0000
iter:  53  08:30:46 -10.97  -6.13    -4.62-226.227695             +0.0000
iter:  54  08:31:12 -10.32  -6.20    -4.32-226.227695             +0.0000
iter:  55  08:31:39 -11.44  -6.33    -5.02-226.227695             +0.0000
iter:  56  08:32:06 -10.22  -6.37    -3.94-226.227695             +0.0000
iter:  57  08:32:32 -10.79  -6.66    -4.49-226.227695             +0.0000
iter:  58  08:32:59 -12.12  -6.84    -4.99-226.227695             +0.0000
iter:  59  08:33:26 -11.18  -6.91    -4.44-226.227695             +0.0000
iter:  60  08:33:53 -12.32  -7.17    -5.04-226.227695             +0.0000
iter:  61  08:34:20 -12.69  -7.27    -5.09-226.227695             +0.0000
iter:  62  08:34:46 -13.70  -7.30    -5.69-226.227695             +0.0000
iter:  63  08:35:13 -12.70  -7.34    -5.05-226.227695             +0.0000
iter:  64  08:35:40 -13.73  -7.64    -5.73-226.227695             +0.0000
iter:  65  08:36:06 -14.06  -7.70    -5.81-226.227695             +0.0000
iter:  66  08:36:33 -13.04  -7.76    -5.28-226.227695             +0.0000
iter:  67  08:37:00 -14.18  -7.95    -5.86-226.227695             +0.0000
iter:  68  08:37:26 -14.26  -8.04    -6.10-226.227695             +0.0000

Converged after 68 iterations.

Dipole moment: (10.671462, 1.417028, -6.269778) |e|*Ang

Total magnetic moment: (0.000000, 0.000000, 0.000000)
Local magnetic moments:
   0 O  ( 0.000000,  0.000000, -0.000519)
   1 O  ( 0.000000,  0.000000,  0.000556)
   2 O  ( 0.000000,  0.000000,  0.000537)
   3 O  ( 0.000000,  0.000000, -0.000524)
   4 O  ( 0.000000,  0.000000,  0.000519)
   5 O  ( 0.000000,  0.000000, -0.000563)
   6 O  ( 0.000000,  0.000000, -0.000538)
   7 O  ( 0.000000,  0.000000,  0.000531)
   8 O  ( 0.000000,  0.000000,  0.028693)
   9 O  ( 0.000000,  0.000000, -0.028702)
  10 O  ( 0.000000,  0.000000, -0.028693)
  11 O  ( 0.000000,  0.000000,  0.028701)
  12 Mn ( 0.000000,  0.000000,  4.448161)
  13 Mn ( 0.000000,  0.000000, -4.448239)
  14 Mn ( 0.000000,  0.000000, -4.448161)
  15 Mn ( 0.000000,  0.000000,  4.448241)
  16 P  ( 0.000000,  0.000000,  0.001558)
  17 P  ( 0.000000,  0.000000, -0.001543)
  18 P  ( 0.000000,  0.000000, -0.001557)
  19 P  ( 0.000000,  0.000000,  0.001543)
  20 O  ( 0.000000,  0.000000,  0.025315)
  21 O  ( 0.000000,  0.000000, -0.025305)
  22 O  ( 0.000000,  0.000000, -0.025315)
  23 O  ( 0.000000,  0.000000,  0.025306)
  24 Li ( 0.000000,  0.000000,  0.000015)
  25 Li ( 0.000000,  0.000000, -0.000000)
  26 Li ( 0.000000,  0.000000, -0.000015)
  27 Li ( 0.000000,  0.000000,  0.000000)

Energy contributions relative to reference atoms: (reference = -196157.275402)

Kinetic:       +217.350155
Potential:     -195.235543
External:        +0.000000
XC:            -250.383488
Entropy (-ST):   -0.000000
Local:           +2.041181
--------------------------
Free energy:   -226.227695
Extrapolated:  -226.227695

Spin contamination: 9.560410 electrons
Showing only first 2 kpts
                      Up                     Down
 Kpt  Band  Eigenvalues  Occupancy  Eigenvalues  Occupancy
  0    88      5.10992    1.00000      5.11003    1.00000
  0    89      5.13435    1.00000      5.13424    1.00000
  0    90      7.28864    0.00000      7.28863    0.00000
  0    91      7.30634    0.00000      7.30635    0.00000

  1    88      5.13563    1.00000      5.13552    1.00000
  1    89      5.16483    1.00000      5.16490    1.00000
  1    90      7.23142    0.00000      7.23143    0.00000
  1    91      7.24365    0.00000      7.24366    0.00000


Fermi level: 6.50523

Gap: 1.972 eV
Transition (v -> c):
  (s=1, k=49, n=89, [-0.08, -0.42, -0.12]) -> (s=0, k=86, n=90, [0.08, 0.08, 0.12])
Writing to born-0.01-10y-.gpw (mode='all')

Timing:                              incl.     excl.
-----------------------------------------------------------
Hamiltonian:                         0.275     0.002   0.0% |
 Atomic:                             0.092     0.092   0.0% |
  XC Correction:                     0.000     0.000   0.0% |
 Calculate atomic Hamiltonians:      0.087     0.087   0.0% |
 Communicate:                        0.000     0.000   0.0% |
 Initialize Hamiltonian:             0.000     0.000   0.0% |
 Poisson:                            0.001     0.001   0.0% |
 XC 3D grid:                         0.091     0.091   0.0% |
LCAO initialization:                69.981     0.676   0.0% |
 LCAO eigensolver:                  18.123     0.003   0.0% |
  Calculate projections:             0.030     0.030   0.0% |
  DenseAtomicCorrection:             0.043     0.043   0.0% |
  Distribute overlap matrix:         0.240     0.240   0.0% |
  Orbital Layouts:                   0.278     0.278   0.0% |
  Potential matrix:                 17.444    17.444   0.5% |
  Sum over cells:                    0.085     0.085   0.0% |
 LCAO to grid:                      49.898    49.898   1.3% ||
 Set positions (LCAO WFS):           1.285     0.183   0.0% |
  Basic WFS set positions:           0.002     0.002   0.0% |
  Basis functions set positions:     0.000     0.000   0.0% |
  P tci:                             0.518     0.518   0.0% |
  ST tci:                            0.369     0.369   0.0% |
  mktci:                             0.212     0.212   0.0% |
PWDescriptor:                        0.025     0.025   0.0% |
SCF-cycle:                        1598.336     5.809   0.2% |
 Davidson:                        1365.420   436.127  11.4% |----|
  Apply H:                          92.574    89.749   2.4% ||
   HMM T:                            2.825     2.825   0.1% |
  Subspace diag:                   195.996     0.196   0.0% |
   calc_h_matrix:                  124.665    34.293   0.9% |
    Apply H:                        90.372    87.715   2.3% ||
     HMM T:                          2.657     2.657   0.1% |
   diagonalize:                      6.970     6.970   0.2% |
   rotate_psi:                      64.165    64.165   1.7% ||
  calc. matrices:                  407.403   227.559   6.0% |-|
   Apply H:                        179.844   174.653   4.6% |-|
    HMM T:                           5.191     5.191   0.1% |
  diagonalize:                     105.326   105.326   2.8% ||
  rotate_psi:                      127.995   127.995   3.4% ||
 Density:                           54.334     0.002   0.0% |
  Atomic density matrices:           0.892     0.892   0.0% |
  Mix:                               9.377     9.377   0.2% |
  Multipole moments:                 0.024     0.024   0.0% |
  Pseudo density:                   44.040    44.038   1.2% |
   Symmetrize density:               0.002     0.002   0.0% |
 Forces:                           153.816   153.816   4.0% |-|
 Hamiltonian:                       16.649     0.140   0.0% |
  Atomic:                            3.770     3.769   0.1% |
   XC Correction:                    0.000     0.000   0.0% |
  Calculate atomic Hamiltonians:     6.428     6.428   0.2% |
  Communicate:                       0.019     0.019   0.0% |
  Poisson:                           0.061     0.061   0.0% |
  XC 3D grid:                        6.231     6.231   0.2% |
 Orthonormalize:                     2.307     0.003   0.0% |
  calc_s_matrix:                     0.269     0.269   0.0% |
  inverse-cholesky:                  0.041     0.041   0.0% |
  projections:                       1.503     1.503   0.0% |
  rotate_psi_s:                      0.491     0.491   0.0% |
Set symmetry:                        0.000     0.000   0.0% |
Other:                            2147.682  2147.682  56.3% |----------------------|
-----------------------------------------------------------
Total:                                      3816.300 100.0%

Memory usage: 12.19 GiB
Date: Tue Mar 30 09:13:13 2021
