
  ___ ___ ___ _ _ _  
 |   |   |_  | | | | 
 | | | | | . | | | | 
 |__ |  _|___|_____|  21.1.1b1
 |___|_|             

User:   madkru@g043.nifl.fysik.dtu.dk
Date:   Wed Mar 31 02:34:33 2021
Arch:   x86_64
Pid:    39387
Python: 3.8.6
gpaw:   /home/niflheim/madkru/venv_madkru/gpaw/gpaw (e6f0d78a31)
_gpaw:  /home/niflheim/madkru/venv_madkru/gpaw/build/lib.linux-x86_64-sandybridge-3.8/
        _gpaw.cpython-38-x86_64-linux-gnu.so (e6f0d78a31)
ase:    /home/niflheim/madkru/venv_madkru/ase/ase (version 3.22.0b1-4d5a73cb29)
numpy:  /home/modules/software/SciPy-bundle/2020.11-foss-2020b/lib/python3.8/site-packages/numpy (version 1.19.4)
scipy:  /home/modules/software/SciPy-bundle/2020.11-foss-2020b/lib/python3.8/site-packages/scipy (version 1.5.4)
libxc:  4.3.4
units:  Angstrom and eV
cores: 64
OpenMP: False
OMP_NUM_THREADS: 1

Input parameters:
  convergence: {bands: occupied,
                density: 0.0001,
                eigenstates: 4e-08,
                energy: 0.0005,
                forces: 1e-06}
  kpts: [6 6 4]
  maxiter: 1000
  mode: {ecut: 600.0,
         gammacentered: False,
         name: pw}
  occupations: {fixmagmom: False,
                name: fermi-dirac,
                width: 0.001}
  symmetry: {point_group: False,
             time_reversal: False}

System changes: positions, numbers, cell, pbc, initial_charges, initial_magmoms 

Initialize ...

O-setup:
  name: Oxygen
  id: 9b9d51c344dea68c822856295a461509
  Z: 8.0
  valence: 6
  core: 2
  charge: 0.0
  file: /home/modules/software/GPAW-setups/0.9.20000/O.LDA.gz
  compensation charges: gauss, rc=0.21, lmax=2
  cutoffs: 1.17(filt), 0.83(core),
  valence states:
                energy  radius
    2s(2.00)   -23.752   0.688
    2p(4.00)    -9.195   0.598
    *s           3.459   0.688
    *p          18.016   0.598
    *d           0.000   0.619

  Using partial waves for O as LCAO basis

Mn-setup:
  name: Manganese
  id: 0d715a8018be061a6e9ea6f2d364ac92
  Z: 25.0
  valence: 15
  core: 10
  charge: 0.0
  file: /home/modules/software/GPAW-setups/0.9.20000/Mn.LDA.gz
  compensation charges: gauss, rc=0.38, lmax=2
  cutoffs: 2.14(filt), 0.86(core),
  valence states:
                energy  radius
    3s(2.00)   -85.387   1.275
    4s(2.00)    -5.282   1.275
    3p(6.00)   -54.493   1.281
    4p(0.00)    -1.471   1.281
    3d(5.00)    -7.009   1.138
    *d          20.203   1.138

  Using partial waves for Mn as LCAO basis

P-setup:
  name: Phosphorus
  id: a5561c299094968922a179ab894d2e2d
  Z: 15.0
  valence: 5
  core: 10
  charge: 0.0
  file: /home/modules/software/GPAW-setups/0.9.20000/P.LDA.gz
  compensation charges: gauss, rc=0.30, lmax=2
  cutoffs: 1.69(filt), 1.81(core),
  valence states:
                energy  radius
    3s(2.00)   -14.015   0.953
    3p(3.00)    -5.596   0.953
    *s          13.197   0.953
    *p          21.615   0.953
    *d           0.000   0.953

  Using partial waves for P as LCAO basis

Li-setup:
  name: Lithium
  id: b73562207f97a71b6967473b66fe8b65
  Z: 3.0
  valence: 1
  core: 2
  charge: 0.0
  file: /home/modules/software/GPAW-setups/0.9.20000/Li.LDA.gz
  compensation charges: gauss, rc=0.33, lmax=2
  cutoffs: 1.91(filt), 2.55(core),
  valence states:
                energy  radius
    2s(1.00)    -2.874   1.058
    2p(0.00)    -1.126   1.058
    *s          24.338   1.058

  Using partial waves for Li as LCAO basis

Reference energy: -196157.275402

Spin-polarized calculation.
Magnetic moment: 0.000000

Convergence criteria:
  Maximum total energy change: 0.0005 eV / electron
  Maximum integral of absolute density change: 0.0001 electrons
  Maximum integral of absolute eigenstate change: 4e-08 eV^2
  Maximum change in atomic force: 1e-06 eV / Ang
  Maximum number of iterations: 1000

Symmetries present (total): 1

  ( 1  0  0)
  ( 0  1  0)
  ( 0  0  1)

144 k-points: 6 x 6 x 4 Monkhorst-Pack grid
144 k-points in the irreducible part of the Brillouin zone
       k-points in crystal coordinates                weights
   0:    -0.41666667   -0.41666667   -0.37500000          1/144
   1:    -0.41666667   -0.41666667   -0.12500000          1/144
   2:    -0.41666667   -0.41666667    0.12500000          1/144
   3:    -0.41666667   -0.41666667    0.37500000          1/144
   4:    -0.41666667   -0.25000000   -0.37500000          1/144
   5:    -0.41666667   -0.25000000   -0.12500000          1/144
   6:    -0.41666667   -0.25000000    0.12500000          1/144
   7:    -0.41666667   -0.25000000    0.37500000          1/144
   8:    -0.41666667   -0.08333333   -0.37500000          1/144
   9:    -0.41666667   -0.08333333   -0.12500000          1/144
          ...
 143:     0.41666667    0.41666667    0.37500000          1/144

Wave functions: Plane wave expansion
  Cutoff energy: 600.000 eV
  Number of coefficients (min, max): 10068, 10125
  Pulay-stress correction: 0.000000 eV/Ang^3 (de/decut=0.000000)
  Using FFTW library
  ScaLapack parameters: grid=1x1, blocksize=None
  Wavefunction extrapolation:
    Improved wavefunction reuse through dual PAW basis 

  Fermi-Dirac: width=0.0010 eV

Eigensolver
   Davidson(niter=2) 

Densities:
  Coarse grid: 60*35*27 grid
  Fine grid: 120*70*54 grid
  Total Charge: 0.000000 

Density mixing:
  Method: difference
  Backend: pulay
  Linear mixing parameter: 0.05
  Mixing with 5 old densities
  Damping of long wave oscillations: 50 

Hamiltonian:
  XC and Coulomb potentials evaluated on a 120*70*54 grid
  Using the LDA Exchange-Correlation functional
 

Memory estimate:
  Process memory now: 13320.46 MiB
  Calculator: 354.82 MiB
    Density: 10.06 MiB
      Arrays: 3.79 MiB
      Localized functions: 4.71 MiB
      Mixer: 1.56 MiB
    Hamiltonian: 2.95 MiB
      Arrays: 2.82 MiB
      XC: 0.00 MiB
      Poisson: 0.00 MiB
      vbar: 0.14 MiB
    Wavefunctions: 341.80 MiB
      Arrays psit_nG: 311.46 MiB
      Eigensolver: 19.99 MiB
      Projections: 2.71 MiB
      Projectors: 4.87 MiB
      PW-descriptor: 2.77 MiB

Total number of cores used: 64
Parallelization over k-points: 16
Domain decomposition: 2 x 2 x 1

Number of atoms: 28
Number of atomic orbitals: 148
Number of bands in calculation: 112
Number of valence electrons: 180
Bands to converge: occupied

... initialized

Initializing position-dependent things.

Density initialized from atomic densities
Creating initial wave functions:
  112 bands from LCAO basis set

     .-------------------------.  
    /|         OP              |  
   / |O            O        O  |  
  /  |       O            O  P |  
 *   |O    Mn      O           |  
 |   |          OLi          O |  
 |   .P-O--------------Mn------.  
 |  /          Li    O  Mn  O /   
 | /Li O           PO        /    
 |/       Mn                /     
 *Li-----------------------*      

Positions:
   0 O     -1.360678   -2.541161   -1.202221    ( 0.0000,  0.0000,  0.0000)
   1 O     -3.121941    2.976855    1.167242    ( 0.0000,  0.0000,  0.0000)
   2 O      2.107533    0.508090    1.540712    ( 0.0000,  0.0000,  0.0000)
   3 O      3.869373   -0.072395   -0.828750    ( 0.0000,  0.0000,  0.0000)
   4 O      2.107821    2.976875    1.540792    ( 0.0000,  0.0000,  0.0000)
   5 O      3.869084   -2.541141   -0.828671    ( 0.0000,  0.0000,  0.0000)
   6 O     -1.360390   -0.072375   -1.202141    ( 0.0000,  0.0000,  0.0000)
   7 O     -3.122230    0.508109    1.167321    ( 0.0000,  0.0000,  0.0000)
   8 O     -4.413461   -1.306992   -0.794251    ( 0.0000,  0.0000,  0.0000)
   9 O     -0.069585    1.742707    1.575662    ( 0.0000,  0.0000,  0.0000)
  10 O      5.160604    1.742707    1.132822    ( 0.0000,  0.0000,  0.0000)
  11 O      0.816728   -1.306992   -1.237091    ( 0.0000,  0.0000,  0.0000)
  12 Mn    -2.570809   -1.307302    0.247161    ( 0.0000,  0.0000,  1.0000)
  13 Mn    -1.912021    1.743016   -2.122906    ( 0.0000,  0.0000, -1.0000)
  14 Mn     3.317952    1.743017    0.091411    ( 0.0000,  0.0000, -1.0000)
  15 Mn     2.659164   -1.307302    2.451478    ( 0.0000,  0.0000,  1.0000)
  16 P     -0.620664   -1.306816   -1.828465    ( 0.0000,  0.0000,  0.0000)
  17 P     -3.862097    1.742530    0.541238    ( 0.0000,  0.0000,  0.0000)
  18 P      1.367807    1.742530    2.167036    ( 0.0000,  0.0000,  0.0000)
  19 P      4.609240   -1.306816   -0.202666    ( 0.0000,  0.0000,  0.0000)
  20 O     -0.646437   -1.306845    1.374751    ( 0.0000,  0.0000,  0.0000)
  21 O     -3.836504    1.742559   -0.995565    ( 0.0000,  0.0000,  0.0000)
  22 O      1.393580    1.742559   -1.036179    ( 0.0000,  0.0000,  0.0000)
  23 O      4.583647   -1.306845    1.334136    ( 0.0000,  0.0000,  0.0000)
  24 Li    -4.856429   -2.832143   -2.200714    ( 0.0000,  0.0000,  0.0000)
  25 Li     0.373571   -2.832143    0.169286    ( 0.0000,  0.0000,  0.0000)
  26 Li    -4.856429    0.217857   -2.200714    ( 0.0000,  0.0000,  0.0000)
  27 Li     0.373571    0.217857    0.169286    ( 0.0000,  0.0000,  0.0000)

Unit cell:
           periodic     x           y           z      points  spacing
  1. axis:    yes   10.460000    0.000000    0.000000    60     0.1743
  2. axis:    yes    0.000000    6.100000    0.000000    35     0.1743
  3. axis:    yes    0.000000    0.000000    4.740000    27     0.1756

  Lengths:  10.460000   6.100000   4.740000
  Angles:   90.000000  90.000000  90.000000

Effective grid spacing dv^(1/3) = 0.1747

                     log10-error:           total        iterations:
           time      wfs    density  force  energy       poisson  magmom
iter:   1  02:36:08                       -231.921935             +0.0000
iter:   2  02:36:29  -0.55  -0.94         -231.739199             +0.0005
iter:   3  02:36:50  -0.72  -0.98         -220.606639             +0.0006
iter:   4  02:37:12  -0.94  -1.20         -218.905737             +0.0002
iter:   5  02:37:33  -1.92  -1.36         -222.259117             +0.0001
iter:   6  02:37:54  -1.98  -1.43         -221.009280             -0.0194
iter:   7  02:38:16  -2.06  -1.65         -224.275271             -0.3132
iter:   8  02:38:37  -1.97  -1.84         -226.083748             -0.6561
iter:   9  02:38:58  -2.71  -1.82         -226.841018             -0.3335
iter:  10  02:39:19  -1.99  -1.83         -226.568397             -0.0491
iter:  11  02:39:41  -2.09  -2.01         -226.533580             -0.0168
iter:  12  02:40:02  -2.76  -2.22         -226.319562             -0.0146
iter:  13  02:40:23  -2.39  -2.32         -226.527067             -0.0043
iter:  14  02:40:44  -2.25  -2.28         -226.264782             -0.0047
iter:  15  02:41:06  -3.06  -2.66         -226.239800             -0.0014
iter:  16  02:41:27  -3.19  -2.81         -226.236276             -0.0005
iter:  17  02:41:48  -4.11  -3.03         -226.230523             -0.0002
iter:  18  02:42:09  -4.70  -3.16         -226.228453             -0.0000
iter:  19  02:42:31  -4.74  -3.29         -226.227966             -0.0000
iter:  20  02:42:52  -5.28  -3.36         -226.227984             -0.0000
iter:  21  02:43:13  -5.17  -3.38         -226.228174             -0.0000
iter:  22  02:43:34  -5.64  -3.51         -226.228047             -0.0000
iter:  23  02:43:56  -5.41  -3.58         -226.227862             -0.0000
iter:  24  02:44:17  -6.42  -3.98         -226.227854             -0.0000
iter:  25  02:44:38  -5.99  -4.04         -226.227800             +0.0000
iter:  26  02:44:59  -6.15  -4.17         -226.227758             -0.0000
iter:  27  02:45:20  -6.92  -4.23         -226.227760             +0.0000
iter:  28  02:45:42  -6.59  -4.27         -226.227750             +0.0000
iter:  29  02:46:03  -6.48  -4.38         -226.227745             +0.0000
iter:  30  02:46:30  -7.43  -4.67         -226.227744             +0.0000
iter:  31  02:46:56  -8.01  -4.85    -2.86-226.227743             +0.0000
iter:  32  02:47:23  -8.55  -5.00    -3.34-226.227743             +0.0000
iter:  33  02:47:50  -8.01  -5.05    -2.94-226.227744             -0.0000
iter:  34  02:48:16  -8.76  -5.26    -3.36-226.227743             +0.0000
iter:  35  02:48:43 -10.07  -5.28    -4.11-226.227743             +0.0000
iter:  36  02:49:10  -8.59  -5.31    -3.09-226.227743             -0.0000
iter:  37  02:49:37  -9.05  -5.47    -3.41-226.227743             +0.0000
iter:  38  02:50:03  -9.34  -5.57    -3.63-226.227743             +0.0000
iter:  39  02:50:30  -9.45  -5.55    -3.38-226.227743             +0.0000
iter:  40  02:50:57  -9.69  -5.79    -3.68-226.227743             +0.0000
iter:  41  02:51:24  -9.64  -6.10    -3.68-226.227743             +0.0000
iter:  42  02:51:50 -10.06  -6.01    -3.79-226.227743             +0.0000
iter:  43  02:52:17 -11.09  -6.60    -5.04-226.227743             +0.0000
iter:  44  02:52:44 -11.25  -6.68    -4.23-226.227743             +0.0000
iter:  45  02:53:11 -11.28  -6.70    -4.56-226.227743             +0.0000
iter:  46  02:53:37 -12.10  -7.11    -4.96-226.227743             +0.0000
iter:  47  02:54:04 -12.96  -7.19    -5.04-226.227743             +0.0000
iter:  48  02:54:31 -12.84  -7.22    -5.28-226.227743             +0.0000
iter:  49  02:54:57 -13.64  -7.34    -5.65-226.227743             +0.0000
iter:  50  02:55:24 -13.54  -7.42    -5.47-226.227743             +0.0000
iter:  51  02:55:51 -13.26  -7.54    -5.56-226.227743             +0.0000
iter:  52  02:56:18 -13.72  -7.63    -5.95-226.227743             +0.0000
iter:  53  02:56:44 -13.79  -7.68    -5.86-226.227743             +0.0000
iter:  54  02:57:11 -14.16  -7.73    -5.91-226.227743             +0.0000
iter:  55  02:57:38 -13.50  -7.79    -5.51-226.227743             +0.0000
iter:  56  02:58:05 -13.87  -7.96    -5.69-226.227743             +0.0000
iter:  57  02:58:31 -14.59  -8.18    -6.77-226.227743             +0.0000

Converged after 57 iterations.

Dipole moment: (10.670555, 1.411290, -6.281334) |e|*Ang

Total magnetic moment: (0.000000, 0.000000, 0.000000)
Local magnetic moments:
   0 O  ( 0.000000,  0.000000, -0.000549)
   1 O  ( 0.000000,  0.000000,  0.000534)
   2 O  ( 0.000000,  0.000000,  0.000759)
   3 O  ( 0.000000,  0.000000, -0.000922)
   4 O  ( 0.000000,  0.000000,  0.000738)
   5 O  ( 0.000000,  0.000000, -0.000902)
   6 O  ( 0.000000,  0.000000, -0.000569)
   7 O  ( 0.000000,  0.000000,  0.000554)
   8 O  ( 0.000000,  0.000000,  0.028683)
   9 O  ( 0.000000,  0.000000, -0.028626)
  10 O  ( 0.000000,  0.000000, -0.028717)
  11 O  ( 0.000000,  0.000000,  0.028509)
  12 Mn ( 0.000000,  0.000000,  4.448133)
  13 Mn ( 0.000000,  0.000000, -4.448230)
  14 Mn ( 0.000000,  0.000000, -4.448335)
  15 Mn ( 0.000000,  0.000000,  4.448331)
  16 P  ( 0.000000,  0.000000,  0.001457)
  17 P  ( 0.000000,  0.000000, -0.001543)
  18 P  ( 0.000000,  0.000000, -0.001396)
  19 P  ( 0.000000,  0.000000,  0.001532)
  20 O  ( 0.000000,  0.000000,  0.025314)
  21 O  ( 0.000000,  0.000000, -0.025319)
  22 O  ( 0.000000,  0.000000, -0.025264)
  23 O  ( 0.000000,  0.000000,  0.025527)
  24 Li ( 0.000000,  0.000000, -0.000002)
  25 Li ( 0.000000,  0.000000, -0.000001)
  26 Li ( 0.000000,  0.000000, -0.000002)
  27 Li ( 0.000000,  0.000000, -0.000001)

Energy contributions relative to reference atoms: (reference = -196157.275402)

Kinetic:       +217.310348
Potential:     -195.205097
External:        +0.000000
XC:            -250.374267
Entropy (-ST):   -0.000000
Local:           +2.041274
--------------------------
Free energy:   -226.227743
Extrapolated:  -226.227743

Spin contamination: 9.560787 electrons
Showing only first 2 kpts
                      Up                     Down
 Kpt  Band  Eigenvalues  Occupancy  Eigenvalues  Occupancy
  0    88      5.11175    1.00000      5.11033    1.00000
  0    89      5.13669    1.00000      5.13475    1.00000
  0    90      7.28838    0.00000      7.28500    0.00000
  0    91      7.30630    0.00000      7.30396    0.00000

  1    88      5.13697    1.00000      5.13593    1.00000
  1    89      5.16622    1.00000      5.16491    1.00000
  1    90      7.23113    0.00000      7.22930    0.00000
  1    91      7.24363    0.00000      7.24244    0.00000


Fermi level: 6.25078

Gap: 1.969 eV
Transition (v -> c):
  (s=0, k=69, n=89, [-0.08, 0.42, -0.12]) -> (s=1, k=85, n=90, [0.08, 0.08, -0.12])
Writing to born-0.01-15z-.gpw (mode='all')

Timing:                              incl.     excl.
-----------------------------------------------------------
Hamiltonian:                         0.252     0.003   0.0% |
 Atomic:                             0.064     0.064   0.0% |
  XC Correction:                     0.000     0.000   0.0% |
 Calculate atomic Hamiltonians:      0.093     0.093   0.0% |
 Communicate:                        0.000     0.000   0.0% |
 Initialize Hamiltonian:             0.000     0.000   0.0% |
 Poisson:                            0.001     0.001   0.0% |
 XC 3D grid:                         0.092     0.092   0.0% |
LCAO initialization:                69.469     0.674   0.0% |
 LCAO eigensolver:                  18.053     0.003   0.0% |
  Calculate projections:             0.030     0.030   0.0% |
  DenseAtomicCorrection:             0.043     0.043   0.0% |
  Distribute overlap matrix:         0.270     0.270   0.0% |
  Orbital Layouts:                   0.281     0.281   0.0% |
  Potential matrix:                 17.342    17.342   0.5% |
  Sum over cells:                    0.084     0.084   0.0% |
 LCAO to grid:                      49.425    49.425   1.4% ||
 Set positions (LCAO WFS):           1.317     0.183   0.0% |
  Basic WFS set positions:           0.002     0.002   0.0% |
  Basis functions set positions:     0.000     0.000   0.0% |
  P tci:                             0.516     0.516   0.0% |
  ST tci:                            0.369     0.369   0.0% |
  mktci:                             0.248     0.248   0.0% |
PWDescriptor:                        0.025     0.025   0.0% |
SCF-cycle:                        1366.958     6.161   0.2% |
 Davidson:                        1145.238   367.166  10.2% |---|
  Apply H:                          76.646    74.306   2.1% ||
   HMM T:                            2.341     2.341   0.1% |
  Subspace diag:                   164.299     0.168   0.0% |
   calc_h_matrix:                  104.563    28.719   0.8% |
    Apply H:                        75.844    73.617   2.0% ||
     HMM T:                          2.227     2.227   0.1% |
   diagonalize:                      5.863     5.863   0.2% |
   rotate_psi:                      53.705    53.705   1.5% ||
  calc. matrices:                  341.908   191.200   5.3% |-|
   Apply H:                        150.708   146.256   4.1% |-|
    HMM T:                           4.453     4.453   0.1% |
  diagonalize:                      88.194    88.194   2.4% ||
  rotate_psi:                      107.024   107.024   3.0% ||
 Density:                           45.677     0.001   0.0% |
  Atomic density matrices:           0.751     0.751   0.0% |
  Mix:                               7.772     7.772   0.2% |
  Multipole moments:                 0.021     0.021   0.0% |
  Pseudo density:                   37.132    37.130   1.0% |
   Symmetrize density:               0.002     0.002   0.0% |
 Forces:                           153.735   153.735   4.3% |-|
 Hamiltonian:                       13.849     0.119   0.0% |
  Atomic:                            3.187     3.187   0.1% |
   XC Correction:                    0.000     0.000   0.0% |
  Calculate atomic Hamiltonians:     5.241     5.241   0.1% |
  Communicate:                       0.017     0.017   0.0% |
  Poisson:                           0.051     0.051   0.0% |
  XC 3D grid:                        5.234     5.234   0.1% |
 Orthonormalize:                     2.298     0.003   0.0% |
  calc_s_matrix:                     0.266     0.266   0.0% |
  inverse-cholesky:                  0.040     0.040   0.0% |
  projections:                       1.504     1.504   0.0% |
  rotate_psi_s:                      0.486     0.486   0.0% |
Set symmetry:                        0.000     0.000   0.0% |
Other:                            2169.772  2169.772  60.2% |-----------------------|
-----------------------------------------------------------
Total:                                      3606.476 100.0%

Memory usage: 13.02 GiB
Date: Wed Mar 31 03:34:40 2021
