
  ___ ___ ___ _ _ _  
 |   |   |_  | | | | 
 | | | | | . | | | | 
 |__ |  _|___|_____|  21.1.1b1
 |___|_|             

User:   madkru@g043.nifl.fysik.dtu.dk
Date:   Wed Mar 31 04:54:18 2021
Arch:   x86_64
Pid:    39387
Python: 3.8.6
gpaw:   /home/niflheim/madkru/venv_madkru/gpaw/gpaw (e6f0d78a31)
_gpaw:  /home/niflheim/madkru/venv_madkru/gpaw/build/lib.linux-x86_64-sandybridge-3.8/
        _gpaw.cpython-38-x86_64-linux-gnu.so (e6f0d78a31)
ase:    /home/niflheim/madkru/venv_madkru/ase/ase (version 3.22.0b1-4d5a73cb29)
numpy:  /home/modules/software/SciPy-bundle/2020.11-foss-2020b/lib/python3.8/site-packages/numpy (version 1.19.4)
scipy:  /home/modules/software/SciPy-bundle/2020.11-foss-2020b/lib/python3.8/site-packages/scipy (version 1.5.4)
libxc:  4.3.4
units:  Angstrom and eV
cores: 64
OpenMP: False
OMP_NUM_THREADS: 1

Input parameters:
  convergence: {bands: occupied,
                density: 0.0001,
                eigenstates: 4e-08,
                energy: 0.0005,
                forces: 1e-06}
  kpts: [6 6 4]
  maxiter: 1000
  mode: {ecut: 600.0,
         gammacentered: False,
         name: pw}
  occupations: {fixmagmom: False,
                name: fermi-dirac,
                width: 0.001}
  symmetry: {point_group: False,
             time_reversal: False}

System changes: positions, numbers, cell, pbc, initial_charges, initial_magmoms 

Initialize ...

O-setup:
  name: Oxygen
  id: 9b9d51c344dea68c822856295a461509
  Z: 8.0
  valence: 6
  core: 2
  charge: 0.0
  file: /home/modules/software/GPAW-setups/0.9.20000/O.LDA.gz
  compensation charges: gauss, rc=0.21, lmax=2
  cutoffs: 1.17(filt), 0.83(core),
  valence states:
                energy  radius
    2s(2.00)   -23.752   0.688
    2p(4.00)    -9.195   0.598
    *s           3.459   0.688
    *p          18.016   0.598
    *d           0.000   0.619

  Using partial waves for O as LCAO basis

Mn-setup:
  name: Manganese
  id: 0d715a8018be061a6e9ea6f2d364ac92
  Z: 25.0
  valence: 15
  core: 10
  charge: 0.0
  file: /home/modules/software/GPAW-setups/0.9.20000/Mn.LDA.gz
  compensation charges: gauss, rc=0.38, lmax=2
  cutoffs: 2.14(filt), 0.86(core),
  valence states:
                energy  radius
    3s(2.00)   -85.387   1.275
    4s(2.00)    -5.282   1.275
    3p(6.00)   -54.493   1.281
    4p(0.00)    -1.471   1.281
    3d(5.00)    -7.009   1.138
    *d          20.203   1.138

  Using partial waves for Mn as LCAO basis

P-setup:
  name: Phosphorus
  id: a5561c299094968922a179ab894d2e2d
  Z: 15.0
  valence: 5
  core: 10
  charge: 0.0
  file: /home/modules/software/GPAW-setups/0.9.20000/P.LDA.gz
  compensation charges: gauss, rc=0.30, lmax=2
  cutoffs: 1.69(filt), 1.81(core),
  valence states:
                energy  radius
    3s(2.00)   -14.015   0.953
    3p(3.00)    -5.596   0.953
    *s          13.197   0.953
    *p          21.615   0.953
    *d           0.000   0.953

  Using partial waves for P as LCAO basis

Li-setup:
  name: Lithium
  id: b73562207f97a71b6967473b66fe8b65
  Z: 3.0
  valence: 1
  core: 2
  charge: 0.0
  file: /home/modules/software/GPAW-setups/0.9.20000/Li.LDA.gz
  compensation charges: gauss, rc=0.33, lmax=2
  cutoffs: 1.91(filt), 2.55(core),
  valence states:
                energy  radius
    2s(1.00)    -2.874   1.058
    2p(0.00)    -1.126   1.058
    *s          24.338   1.058

  Using partial waves for Li as LCAO basis

Reference energy: -196157.275402

Spin-polarized calculation.
Magnetic moment: 0.000000

Convergence criteria:
  Maximum total energy change: 0.0005 eV / electron
  Maximum integral of absolute density change: 0.0001 electrons
  Maximum integral of absolute eigenstate change: 4e-08 eV^2
  Maximum change in atomic force: 1e-06 eV / Ang
  Maximum number of iterations: 1000

Symmetries present (total): 1

  ( 1  0  0)
  ( 0  1  0)
  ( 0  0  1)

144 k-points: 6 x 6 x 4 Monkhorst-Pack grid
144 k-points in the irreducible part of the Brillouin zone
       k-points in crystal coordinates                weights
   0:    -0.41666667   -0.41666667   -0.37500000          1/144
   1:    -0.41666667   -0.41666667   -0.12500000          1/144
   2:    -0.41666667   -0.41666667    0.12500000          1/144
   3:    -0.41666667   -0.41666667    0.37500000          1/144
   4:    -0.41666667   -0.25000000   -0.37500000          1/144
   5:    -0.41666667   -0.25000000   -0.12500000          1/144
   6:    -0.41666667   -0.25000000    0.12500000          1/144
   7:    -0.41666667   -0.25000000    0.37500000          1/144
   8:    -0.41666667   -0.08333333   -0.37500000          1/144
   9:    -0.41666667   -0.08333333   -0.12500000          1/144
          ...
 143:     0.41666667    0.41666667    0.37500000          1/144

Wave functions: Plane wave expansion
  Cutoff energy: 600.000 eV
  Number of coefficients (min, max): 10068, 10125
  Pulay-stress correction: 0.000000 eV/Ang^3 (de/decut=0.000000)
  Using FFTW library
  ScaLapack parameters: grid=1x1, blocksize=None
  Wavefunction extrapolation:
    Improved wavefunction reuse through dual PAW basis 

  Fermi-Dirac: width=0.0010 eV

Eigensolver
   Davidson(niter=2) 

Densities:
  Coarse grid: 60*35*27 grid
  Fine grid: 120*70*54 grid
  Total Charge: 0.000000 

Density mixing:
  Method: difference
  Backend: pulay
  Linear mixing parameter: 0.05
  Mixing with 5 old densities
  Damping of long wave oscillations: 50 

Hamiltonian:
  XC and Coulomb potentials evaluated on a 120*70*54 grid
  Using the LDA Exchange-Correlation functional
 

Memory estimate:
  Process memory now: 13403.13 MiB
  Calculator: 354.82 MiB
    Density: 10.06 MiB
      Arrays: 3.79 MiB
      Localized functions: 4.71 MiB
      Mixer: 1.56 MiB
    Hamiltonian: 2.95 MiB
      Arrays: 2.82 MiB
      XC: 0.00 MiB
      Poisson: 0.00 MiB
      vbar: 0.14 MiB
    Wavefunctions: 341.80 MiB
      Arrays psit_nG: 311.46 MiB
      Eigensolver: 19.99 MiB
      Projections: 2.71 MiB
      Projectors: 4.87 MiB
      PW-descriptor: 2.77 MiB

Total number of cores used: 64
Parallelization over k-points: 16
Domain decomposition: 2 x 2 x 1

Number of atoms: 28
Number of atomic orbitals: 148
Number of bands in calculation: 112
Number of valence electrons: 180
Bands to converge: occupied

... initialized

Initializing position-dependent things.

Density initialized from atomic densities
Creating initial wave functions:
  112 bands from LCAO basis set

     .-------------------------.  
    /|         OP              |  
   / |O            O        O  |  
  /  |       O            O  P |  
 *   |O    Mn      O           |  
 |   |          OLi          O |  
 |   .P-O--------------Mn------.  
 |  /          Li    O  Mn  O /   
 | /Li O           PO        /    
 |/       Mn                /     
 *Li-----------------------*      

Positions:
   0 O     -1.360678   -2.541161   -1.202221    ( 0.0000,  0.0000,  0.0000)
   1 O     -3.121941    2.976855    1.167242    ( 0.0000,  0.0000,  0.0000)
   2 O      2.107533    0.508090    1.540712    ( 0.0000,  0.0000,  0.0000)
   3 O      3.869373   -0.072395   -0.828750    ( 0.0000,  0.0000,  0.0000)
   4 O      2.107821    2.976875    1.540792    ( 0.0000,  0.0000,  0.0000)
   5 O      3.869084   -2.541141   -0.828671    ( 0.0000,  0.0000,  0.0000)
   6 O     -1.360390   -0.072375   -1.202141    ( 0.0000,  0.0000,  0.0000)
   7 O     -3.122230    0.508109    1.167321    ( 0.0000,  0.0000,  0.0000)
   8 O     -4.413461   -1.306992   -0.794251    ( 0.0000,  0.0000,  0.0000)
   9 O     -0.069585    1.742707    1.575662    ( 0.0000,  0.0000,  0.0000)
  10 O      5.160604    1.742707    1.132822    ( 0.0000,  0.0000,  0.0000)
  11 O      0.816728   -1.306992   -1.237091    ( 0.0000,  0.0000,  0.0000)
  12 Mn    -2.570809   -1.307302    0.247161    ( 0.0000,  0.0000,  1.0000)
  13 Mn    -1.912021    1.743016   -2.122906    ( 0.0000,  0.0000, -1.0000)
  14 Mn     3.317952    1.743017    0.091411    ( 0.0000,  0.0000, -1.0000)
  15 Mn     2.659164   -1.307302    2.461478    ( 0.0000,  0.0000,  1.0000)
  16 P     -0.620664   -1.316816   -1.828465    ( 0.0000,  0.0000,  0.0000)
  17 P     -3.862097    1.742530    0.541238    ( 0.0000,  0.0000,  0.0000)
  18 P      1.367807    1.742530    2.167036    ( 0.0000,  0.0000,  0.0000)
  19 P      4.609240   -1.306816   -0.202666    ( 0.0000,  0.0000,  0.0000)
  20 O     -0.646437   -1.306845    1.374751    ( 0.0000,  0.0000,  0.0000)
  21 O     -3.836504    1.742559   -0.995565    ( 0.0000,  0.0000,  0.0000)
  22 O      1.393580    1.742559   -1.036179    ( 0.0000,  0.0000,  0.0000)
  23 O      4.583647   -1.306845    1.334136    ( 0.0000,  0.0000,  0.0000)
  24 Li    -4.856429   -2.832143   -2.200714    ( 0.0000,  0.0000,  0.0000)
  25 Li     0.373571   -2.832143    0.169286    ( 0.0000,  0.0000,  0.0000)
  26 Li    -4.856429    0.217857   -2.200714    ( 0.0000,  0.0000,  0.0000)
  27 Li     0.373571    0.217857    0.169286    ( 0.0000,  0.0000,  0.0000)

Unit cell:
           periodic     x           y           z      points  spacing
  1. axis:    yes   10.460000    0.000000    0.000000    60     0.1743
  2. axis:    yes    0.000000    6.100000    0.000000    35     0.1743
  3. axis:    yes    0.000000    0.000000    4.740000    27     0.1756

  Lengths:  10.460000   6.100000   4.740000
  Angles:   90.000000  90.000000  90.000000

Effective grid spacing dv^(1/3) = 0.1747

                     log10-error:           total        iterations:
           time      wfs    density  force  energy       poisson  magmom
iter:   1  04:55:53                       -231.918368             +0.0000
iter:   2  04:56:14  -0.55  -0.94         -231.728995             +0.0055
iter:   3  04:56:35  -0.72  -0.98         -220.582775             +0.0068
iter:   4  04:56:57  -0.96  -1.20         -218.864336             +0.0023
iter:   5  04:57:18  -1.94  -1.36         -221.283032             +0.0015
iter:   6  04:57:39  -1.99  -1.50         -219.987697             +0.0008
iter:   7  04:58:00  -2.21  -1.68         -223.174963             +0.2429
iter:   8  04:58:22  -2.73  -1.89         -220.094238             +0.3482
iter:   9  04:58:43  -2.10  -1.93         -225.820927             +0.5176
iter:  10  04:59:04  -2.28  -1.86         -227.388928             -0.2398
iter:  11  04:59:25  -2.49  -1.81         -227.049569             -0.0349
iter:  12  04:59:47  -1.86  -1.85         -227.131830             -0.0076
iter:  13  05:00:08  -2.75  -1.97         -226.898607             -0.0131
iter:  14  05:00:29  -2.50  -2.07         -226.952402             -0.0020
iter:  15  05:00:50  -2.49  -2.21         -226.670236             +0.0006
iter:  16  05:01:12  -2.98  -2.31         -226.466555             -0.0000
iter:  17  05:01:33  -2.53  -2.39         -226.289114             +0.0001
iter:  18  05:01:54  -3.04  -2.47         -226.262436             -0.0001
iter:  19  05:02:15  -3.45  -2.52         -226.254984             +0.0002
iter:  20  05:02:37  -3.58  -2.57         -226.243906             +0.0001
iter:  21  05:02:58  -3.20  -2.66         -226.228361             +0.0000
iter:  22  05:03:19  -4.25  -2.95         -226.228460             +0.0000
iter:  23  05:03:41  -4.19  -2.99         -226.227577             +0.0000
iter:  24  05:04:02  -4.27  -3.04         -226.226512             +0.0000
iter:  25  05:04:23  -4.36  -3.11         -226.227517             +0.0000
iter:  26  05:04:44  -4.74  -3.15         -226.227177             +0.0000
iter:  27  05:05:06  -5.13  -3.20         -226.226360             +0.0000
iter:  28  05:05:27  -4.45  -3.24         -226.226127             +0.0000
iter:  29  05:05:48  -5.68  -3.68         -226.225906             +0.0000
iter:  30  05:06:09  -5.13  -3.75         -226.225557             -0.0000
iter:  31  05:06:31  -5.74  -3.85         -226.225562             -0.0000
iter:  32  05:06:52  -6.47  -4.02         -226.225552             -0.0000
iter:  33  05:07:13  -6.33  -4.09         -226.225528             -0.0000
iter:  34  05:07:34  -6.37  -4.23         -226.225510             -0.0000
iter:  35  05:07:56  -7.14  -4.35         -226.225507             -0.0000
iter:  36  05:08:17  -7.37  -4.38         -226.225505             -0.0000
iter:  37  05:08:38  -7.38  -4.42         -226.225506             +0.0000
iter:  38  05:09:05  -7.74  -4.60         -226.225504             +0.0000
iter:  39  05:09:32  -7.81  -4.71    -2.90-226.225502             +0.0000
iter:  40  05:09:58  -7.47  -4.79    -2.78-226.225500             +0.0000
iter:  41  05:10:25  -7.97  -4.88    -3.13-226.225500             +0.0000
iter:  42  05:10:52  -8.59  -4.92    -3.27-226.225500             +0.0000
iter:  43  05:11:19  -8.68  -4.97    -2.91-226.225500             -0.0000
iter:  44  05:11:45  -8.77  -5.13    -3.03-226.225500             +0.0000
iter:  45  05:12:12  -8.59  -5.28    -3.10-226.225499             +0.0000
iter:  46  05:12:39  -9.32  -5.65    -3.61-226.225499             +0.0000
iter:  47  05:13:06  -9.80  -5.76    -3.76-226.225499             +0.0000
iter:  48  05:13:32  -9.70  -5.86    -3.68-226.225499             +0.0000
iter:  49  05:13:59  -9.92  -6.06    -4.18-226.225499             +0.0000
iter:  50  05:14:26 -10.73  -6.13    -4.73-226.225499             +0.0000
iter:  51  05:14:52 -10.24  -6.18    -3.91-226.225499             +0.0000
iter:  52  05:15:19 -10.82  -6.48    -4.56-226.225499             +0.0000
iter:  53  05:15:46 -10.97  -6.59    -4.43-226.225499             +0.0000
iter:  54  05:16:13 -11.18  -6.59    -4.64-226.225499             +0.0000
iter:  55  05:16:39 -11.65  -6.75    -4.88-226.225499             +0.0000
iter:  56  05:17:06 -12.33  -6.83    -4.89-226.225499             +0.0000
iter:  57  05:17:33 -12.03  -6.89    -4.95-226.225499             +0.0000
iter:  58  05:18:00 -12.25  -6.98    -5.05-226.225499             +0.0000
iter:  59  05:18:26 -12.07  -7.08    -4.86-226.225499             +0.0000
iter:  60  05:18:53 -12.77  -7.39    -5.17-226.225499             +0.0000
iter:  61  05:19:20 -13.82  -7.61    -5.89-226.225499             +0.0000
iter:  62  05:19:47 -13.57  -7.68    -5.65-226.225499             +0.0000
iter:  63  05:20:13 -13.37  -7.77    -5.75-226.225499             +0.0000
iter:  64  05:20:40 -14.14  -7.81    -6.01-226.225499             +0.0000

Converged after 64 iterations.

Dipole moment: (10.671437, 1.386886, -6.269768) |e|*Ang

Total magnetic moment: (0.000000, 0.000000, 0.000000)
Local magnetic moments:
   0 O  ( 0.000000,  0.000000, -0.000641)
   1 O  ( 0.000000,  0.000000,  0.000515)
   2 O  ( 0.000000,  0.000000,  0.000524)
   3 O  ( 0.000000,  0.000000, -0.000551)
   4 O  ( 0.000000,  0.000000,  0.000531)
   5 O  ( 0.000000,  0.000000, -0.000537)
   6 O  ( 0.000000,  0.000000, -0.000423)
   7 O  ( 0.000000,  0.000000,  0.000571)
   8 O  ( 0.000000,  0.000000,  0.028692)
   9 O  ( 0.000000,  0.000000, -0.028701)
  10 O  ( 0.000000,  0.000000, -0.028693)
  11 O  ( 0.000000,  0.000000,  0.028702)
  12 Mn ( 0.000000,  0.000000,  4.448147)
  13 Mn ( 0.000000,  0.000000, -4.448222)
  14 Mn ( 0.000000,  0.000000, -4.448161)
  15 Mn ( 0.000000,  0.000000,  4.448240)
  16 P  ( 0.000000,  0.000000,  0.001560)
  17 P  ( 0.000000,  0.000000, -0.001543)
  18 P  ( 0.000000,  0.000000, -0.001558)
  19 P  ( 0.000000,  0.000000,  0.001543)
  20 O  ( 0.000000,  0.000000,  0.025316)
  21 O  ( 0.000000,  0.000000, -0.025306)
  22 O  ( 0.000000,  0.000000, -0.025315)
  23 O  ( 0.000000,  0.000000,  0.025306)
  24 Li ( 0.000000,  0.000000,  0.000000)
  25 Li ( 0.000000,  0.000000,  0.000004)
  26 Li ( 0.000000,  0.000000, -0.000000)
  27 Li ( 0.000000,  0.000000, -0.000004)

Energy contributions relative to reference atoms: (reference = -196157.275402)

Kinetic:       +217.363966
Potential:     -195.245978
External:        +0.000000
XC:            -250.384620
Entropy (-ST):   -0.000000
Local:           +2.041133
--------------------------
Free energy:   -226.225499
Extrapolated:  -226.225499

Spin contamination: 9.560397 electrons
Showing only first 2 kpts
                      Up                     Down
 Kpt  Band  Eigenvalues  Occupancy  Eigenvalues  Occupancy
  0    88      5.10997    1.00000      5.10981    1.00000
  0    89      5.13424    1.00000      5.13441    1.00000
  0    90      7.28866    0.00000      7.28863    0.00000
  0    91      7.30633    0.00000      7.30639    0.00000

  1    88      5.13550    1.00000      5.13560    1.00000
  1    89      5.16485    1.00000      5.16480    1.00000
  1    90      7.23144    0.00000      7.23140    0.00000
  1    91      7.24364    0.00000      7.24370    0.00000


Fermi level: 5.52890

Gap: 1.972 eV
Transition (v -> c):
  (s=0, k=50, n=89, [-0.08, -0.42, 0.12]) -> (s=1, k=86, n=90, [0.08, 0.08, 0.12])
Writing to born-0.01-16y-.gpw (mode='all')

Timing:                              incl.     excl.
-----------------------------------------------------------
Hamiltonian:                         0.266     0.003   0.0% |
 Atomic:                             0.080     0.080   0.0% |
  XC Correction:                     0.000     0.000   0.0% |
 Calculate atomic Hamiltonians:      0.090     0.090   0.0% |
 Communicate:                        0.001     0.001   0.0% |
 Initialize Hamiltonian:             0.000     0.000   0.0% |
 Poisson:                            0.001     0.001   0.0% |
 XC 3D grid:                         0.091     0.091   0.0% |
LCAO initialization:                69.682     0.674   0.0% |
 LCAO eigensolver:                  18.086     0.003   0.0% |
  Calculate projections:             0.030     0.030   0.0% |
  DenseAtomicCorrection:             0.044     0.044   0.0% |
  Distribute overlap matrix:         0.005     0.005   0.0% |
  Orbital Layouts:                   0.281     0.281   0.0% |
  Potential matrix:                 17.635    17.635   0.4% |
  Sum over cells:                    0.088     0.088   0.0% |
 LCAO to grid:                      49.613    49.613   1.2% |
 Set positions (LCAO WFS):           1.310     0.202   0.0% |
  Basic WFS set positions:           0.002     0.002   0.0% |
  Basis functions set positions:     0.000     0.000   0.0% |
  P tci:                             0.518     0.518   0.0% |
  ST tci:                            0.373     0.373   0.0% |
  mktci:                             0.215     0.215   0.0% |
PWDescriptor:                        0.025     0.025   0.0% |
SCF-cycle:                        1510.943     5.262   0.1% |
 Davidson:                        1288.150   411.900  10.2% |---|
  Apply H:                          86.532    83.947   2.1% ||
   HMM T:                            2.586     2.586   0.1% |
  Subspace diag:                   185.481     0.191   0.0% |
   calc_h_matrix:                  118.442    32.234   0.8% |
    Apply H:                        86.208    83.717   2.1% ||
     HMM T:                          2.490     2.490   0.1% |
   diagonalize:                      6.539     6.539   0.2% |
   rotate_psi:                      60.310    60.310   1.5% ||
  calc. matrices:                  384.958   214.655   5.3% |-|
   Apply H:                        170.304   165.330   4.1% |-|
    HMM T:                           4.974     4.974   0.1% |
  diagonalize:                      99.018    99.018   2.5% ||
  rotate_psi:                      120.259   120.259   3.0% ||
 Density:                           51.280     0.002   0.0% |
  Atomic density matrices:           0.848     0.848   0.0% |
  Mix:                               8.696     8.696   0.2% |
  Multipole moments:                 0.023     0.023   0.0% |
  Pseudo density:                   41.711    41.709   1.0% |
   Symmetrize density:               0.002     0.002   0.0% |
 Forces:                           148.301   148.301   3.7% ||
 Hamiltonian:                       15.643     0.136   0.0% |
  Atomic:                            3.591     3.590   0.1% |
   XC Correction:                    0.000     0.000   0.0% |
  Calculate atomic Hamiltonians:     5.980     5.980   0.1% |
  Communicate:                       0.031     0.031   0.0% |
  Poisson:                           0.058     0.058   0.0% |
  XC 3D grid:                        5.848     5.848   0.1% |
 Orthonormalize:                     2.309     0.003   0.0% |
  calc_s_matrix:                     0.267     0.267   0.0% |
  inverse-cholesky:                  0.040     0.040   0.0% |
  projections:                       1.502     1.502   0.0% |
  rotate_psi_s:                      0.496     0.496   0.0% |
Set symmetry:                        0.000     0.000   0.0% |
Other:                            2459.758  2459.758  60.9% |-----------------------|
-----------------------------------------------------------
Total:                                      4040.674 100.0%

Memory usage: 13.13 GiB
Date: Wed Mar 31 06:01:39 2021
