
  ___ ___ ___ _ _ _  
 |   |   |_  | | | | 
 | | | | | . | | | | 
 |__ |  _|___|_____|  21.1.1b1
 |___|_|             

User:   madkru@g043.nifl.fysik.dtu.dk
Date:   Wed Mar 31 04:19:45 2021
Arch:   x86_64
Pid:    39387
Python: 3.8.6
gpaw:   /home/niflheim/madkru/venv_madkru/gpaw/gpaw (e6f0d78a31)
_gpaw:  /home/niflheim/madkru/venv_madkru/gpaw/build/lib.linux-x86_64-sandybridge-3.8/
        _gpaw.cpython-38-x86_64-linux-gnu.so (e6f0d78a31)
ase:    /home/niflheim/madkru/venv_madkru/ase/ase (version 3.22.0b1-4d5a73cb29)
numpy:  /home/modules/software/SciPy-bundle/2020.11-foss-2020b/lib/python3.8/site-packages/numpy (version 1.19.4)
scipy:  /home/modules/software/SciPy-bundle/2020.11-foss-2020b/lib/python3.8/site-packages/scipy (version 1.5.4)
libxc:  4.3.4
units:  Angstrom and eV
cores: 64
OpenMP: False
OMP_NUM_THREADS: 1

Input parameters:
  convergence: {bands: occupied,
                density: 0.0001,
                eigenstates: 4e-08,
                energy: 0.0005,
                forces: 1e-06}
  kpts: [6 6 4]
  maxiter: 1000
  mode: {ecut: 600.0,
         gammacentered: False,
         name: pw}
  occupations: {fixmagmom: False,
                name: fermi-dirac,
                width: 0.001}
  symmetry: {point_group: False,
             time_reversal: False}

System changes: positions, numbers, cell, pbc, initial_charges, initial_magmoms 

Initialize ...

O-setup:
  name: Oxygen
  id: 9b9d51c344dea68c822856295a461509
  Z: 8.0
  valence: 6
  core: 2
  charge: 0.0
  file: /home/modules/software/GPAW-setups/0.9.20000/O.LDA.gz
  compensation charges: gauss, rc=0.21, lmax=2
  cutoffs: 1.17(filt), 0.83(core),
  valence states:
                energy  radius
    2s(2.00)   -23.752   0.688
    2p(4.00)    -9.195   0.598
    *s           3.459   0.688
    *p          18.016   0.598
    *d           0.000   0.619

  Using partial waves for O as LCAO basis

Mn-setup:
  name: Manganese
  id: 0d715a8018be061a6e9ea6f2d364ac92
  Z: 25.0
  valence: 15
  core: 10
  charge: 0.0
  file: /home/modules/software/GPAW-setups/0.9.20000/Mn.LDA.gz
  compensation charges: gauss, rc=0.38, lmax=2
  cutoffs: 2.14(filt), 0.86(core),
  valence states:
                energy  radius
    3s(2.00)   -85.387   1.275
    4s(2.00)    -5.282   1.275
    3p(6.00)   -54.493   1.281
    4p(0.00)    -1.471   1.281
    3d(5.00)    -7.009   1.138
    *d          20.203   1.138

  Using partial waves for Mn as LCAO basis

P-setup:
  name: Phosphorus
  id: a5561c299094968922a179ab894d2e2d
  Z: 15.0
  valence: 5
  core: 10
  charge: 0.0
  file: /home/modules/software/GPAW-setups/0.9.20000/P.LDA.gz
  compensation charges: gauss, rc=0.30, lmax=2
  cutoffs: 1.69(filt), 1.81(core),
  valence states:
                energy  radius
    3s(2.00)   -14.015   0.953
    3p(3.00)    -5.596   0.953
    *s          13.197   0.953
    *p          21.615   0.953
    *d           0.000   0.953

  Using partial waves for P as LCAO basis

Li-setup:
  name: Lithium
  id: b73562207f97a71b6967473b66fe8b65
  Z: 3.0
  valence: 1
  core: 2
  charge: 0.0
  file: /home/modules/software/GPAW-setups/0.9.20000/Li.LDA.gz
  compensation charges: gauss, rc=0.33, lmax=2
  cutoffs: 1.91(filt), 2.55(core),
  valence states:
                energy  radius
    2s(1.00)    -2.874   1.058
    2p(0.00)    -1.126   1.058
    *s          24.338   1.058

  Using partial waves for Li as LCAO basis

Reference energy: -196157.275402

Spin-polarized calculation.
Magnetic moment: 0.000000

Convergence criteria:
  Maximum total energy change: 0.0005 eV / electron
  Maximum integral of absolute density change: 0.0001 electrons
  Maximum integral of absolute eigenstate change: 4e-08 eV^2
  Maximum change in atomic force: 1e-06 eV / Ang
  Maximum number of iterations: 1000

Symmetries present (total): 1

  ( 1  0  0)
  ( 0  1  0)
  ( 0  0  1)

144 k-points: 6 x 6 x 4 Monkhorst-Pack grid
144 k-points in the irreducible part of the Brillouin zone
       k-points in crystal coordinates                weights
   0:    -0.41666667   -0.41666667   -0.37500000          1/144
   1:    -0.41666667   -0.41666667   -0.12500000          1/144
   2:    -0.41666667   -0.41666667    0.12500000          1/144
   3:    -0.41666667   -0.41666667    0.37500000          1/144
   4:    -0.41666667   -0.25000000   -0.37500000          1/144
   5:    -0.41666667   -0.25000000   -0.12500000          1/144
   6:    -0.41666667   -0.25000000    0.12500000          1/144
   7:    -0.41666667   -0.25000000    0.37500000          1/144
   8:    -0.41666667   -0.08333333   -0.37500000          1/144
   9:    -0.41666667   -0.08333333   -0.12500000          1/144
          ...
 143:     0.41666667    0.41666667    0.37500000          1/144

Wave functions: Plane wave expansion
  Cutoff energy: 600.000 eV
  Number of coefficients (min, max): 10068, 10125
  Pulay-stress correction: 0.000000 eV/Ang^3 (de/decut=0.000000)
  Using FFTW library
  ScaLapack parameters: grid=1x1, blocksize=None
  Wavefunction extrapolation:
    Improved wavefunction reuse through dual PAW basis 

  Fermi-Dirac: width=0.0010 eV

Eigensolver
   Davidson(niter=2) 

Densities:
  Coarse grid: 60*35*27 grid
  Fine grid: 120*70*54 grid
  Total Charge: 0.000000 

Density mixing:
  Method: difference
  Backend: pulay
  Linear mixing parameter: 0.05
  Mixing with 5 old densities
  Damping of long wave oscillations: 50 

Hamiltonian:
  XC and Coulomb potentials evaluated on a 120*70*54 grid
  Using the LDA Exchange-Correlation functional
 

Memory estimate:
  Process memory now: 13378.28 MiB
  Calculator: 354.82 MiB
    Density: 10.06 MiB
      Arrays: 3.79 MiB
      Localized functions: 4.71 MiB
      Mixer: 1.56 MiB
    Hamiltonian: 2.95 MiB
      Arrays: 2.82 MiB
      XC: 0.00 MiB
      Poisson: 0.00 MiB
      vbar: 0.14 MiB
    Wavefunctions: 341.80 MiB
      Arrays psit_nG: 311.46 MiB
      Eigensolver: 19.99 MiB
      Projections: 2.71 MiB
      Projectors: 4.87 MiB
      PW-descriptor: 2.77 MiB

Total number of cores used: 64
Parallelization over k-points: 16
Domain decomposition: 2 x 2 x 1

Number of atoms: 28
Number of atomic orbitals: 148
Number of bands in calculation: 112
Number of valence electrons: 180
Bands to converge: occupied

... initialized

Initializing position-dependent things.

Density initialized from atomic densities
Creating initial wave functions:
  112 bands from LCAO basis set

     .-------------------------.  
    /|         OP              |  
   / |O            O        O  |  
  /  |       O            O  P |  
 *   |O    Mn      O           |  
 |   |          OLi          O |  
 |   .P-O--------------Mn------.  
 |  /          Li    O  Mn  O /   
 | /Li O           PO        /    
 |/       Mn                /     
 *Li-----------------------*      

Positions:
   0 O     -1.360678   -2.541161   -1.202221    ( 0.0000,  0.0000,  0.0000)
   1 O     -3.121941    2.976855    1.167242    ( 0.0000,  0.0000,  0.0000)
   2 O      2.107533    0.508090    1.540712    ( 0.0000,  0.0000,  0.0000)
   3 O      3.869373   -0.072395   -0.828750    ( 0.0000,  0.0000,  0.0000)
   4 O      2.107821    2.976875    1.540792    ( 0.0000,  0.0000,  0.0000)
   5 O      3.869084   -2.541141   -0.828671    ( 0.0000,  0.0000,  0.0000)
   6 O     -1.360390   -0.072375   -1.202141    ( 0.0000,  0.0000,  0.0000)
   7 O     -3.122230    0.508109    1.167321    ( 0.0000,  0.0000,  0.0000)
   8 O     -4.413461   -1.306992   -0.794251    ( 0.0000,  0.0000,  0.0000)
   9 O     -0.069585    1.742707    1.575662    ( 0.0000,  0.0000,  0.0000)
  10 O      5.160604    1.742707    1.132822    ( 0.0000,  0.0000,  0.0000)
  11 O      0.816728   -1.306992   -1.237091    ( 0.0000,  0.0000,  0.0000)
  12 Mn    -2.570809   -1.307302    0.247161    ( 0.0000,  0.0000,  1.0000)
  13 Mn    -1.912021    1.743016   -2.122906    ( 0.0000,  0.0000, -1.0000)
  14 Mn     3.317952    1.743017    0.091411    ( 0.0000,  0.0000, -1.0000)
  15 Mn     2.659164   -1.307302    2.461478    ( 0.0000,  0.0000,  1.0000)
  16 P     -0.610664   -1.306816   -1.828465    ( 0.0000,  0.0000,  0.0000)
  17 P     -3.862097    1.742530    0.541238    ( 0.0000,  0.0000,  0.0000)
  18 P      1.367807    1.742530    2.167036    ( 0.0000,  0.0000,  0.0000)
  19 P      4.609240   -1.306816   -0.202666    ( 0.0000,  0.0000,  0.0000)
  20 O     -0.646437   -1.306845    1.374751    ( 0.0000,  0.0000,  0.0000)
  21 O     -3.836504    1.742559   -0.995565    ( 0.0000,  0.0000,  0.0000)
  22 O      1.393580    1.742559   -1.036179    ( 0.0000,  0.0000,  0.0000)
  23 O      4.583647   -1.306845    1.334136    ( 0.0000,  0.0000,  0.0000)
  24 Li    -4.856429   -2.832143   -2.200714    ( 0.0000,  0.0000,  0.0000)
  25 Li     0.373571   -2.832143    0.169286    ( 0.0000,  0.0000,  0.0000)
  26 Li    -4.856429    0.217857   -2.200714    ( 0.0000,  0.0000,  0.0000)
  27 Li     0.373571    0.217857    0.169286    ( 0.0000,  0.0000,  0.0000)

Unit cell:
           periodic     x           y           z      points  spacing
  1. axis:    yes   10.460000    0.000000    0.000000    60     0.1743
  2. axis:    yes    0.000000    6.100000    0.000000    35     0.1743
  3. axis:    yes    0.000000    0.000000    4.740000    27     0.1756

  Lengths:  10.460000   6.100000   4.740000
  Angles:   90.000000  90.000000  90.000000

Effective grid spacing dv^(1/3) = 0.1747

                     log10-error:           total        iterations:
           time      wfs    density  force  energy       poisson  magmom
iter:   1  04:21:20                       -231.912054             +0.0000
iter:   2  04:21:42  -0.55  -0.94         -231.720625             +0.0073
iter:   3  04:22:03  -0.72  -0.98         -220.581400             +0.0091
iter:   4  04:22:24  -0.95  -1.20         -218.857356             +0.0031
iter:   5  04:22:45  -1.92  -1.36         -222.335265             +0.0019
iter:   6  04:23:07  -1.98  -1.43         -221.091833             +0.0009
iter:   7  04:23:28  -2.01  -1.64         -224.334841             +0.1601
iter:   8  04:23:49  -2.27  -1.77         -225.982666             +0.0937
iter:   9  04:24:11  -2.59  -1.80         -226.821729             +0.0298
iter:  10  04:24:32  -2.43  -1.80         -226.737844             -0.0025
iter:  11  04:24:53  -1.82  -1.85         -226.566090             -0.0001
iter:  12  04:25:14  -2.61  -2.14         -226.301911             -0.0011
iter:  13  04:25:36  -3.07  -2.42         -226.264180             -0.0005
iter:  14  04:25:57  -3.09  -2.48         -226.234214             -0.0000
iter:  15  04:26:18  -3.57  -2.84         -226.234306             -0.0000
iter:  16  04:26:39  -4.10  -2.92         -226.227022             -0.0000
iter:  17  04:27:01  -3.84  -3.10         -226.227875             -0.0000
iter:  18  04:27:22  -5.08  -3.42         -226.226246             -0.0000
iter:  19  04:27:43  -5.05  -3.46         -226.225248             -0.0000
iter:  20  04:28:04  -5.46  -3.50         -226.225689             -0.0000
iter:  21  04:28:25  -5.55  -3.65         -226.225304             -0.0000
iter:  22  04:28:47  -5.62  -3.69         -226.225165             -0.0000
iter:  23  04:29:08  -5.76  -3.71         -226.225183             -0.0000
iter:  24  04:29:29  -5.86  -3.83         -226.225156             -0.0000
iter:  25  04:29:50  -6.11  -3.88         -226.225131             +0.0000
iter:  26  04:30:12  -6.45  -3.95         -226.225111             -0.0000
iter:  27  04:30:33  -6.26  -4.06         -226.225126             -0.0000
iter:  28  04:31:00  -7.56  -4.12         -226.225120             -0.0000
iter:  29  04:31:21  -6.00  -4.16         -226.225090             -0.0000
iter:  30  04:31:42  -6.89  -4.46         -226.225084             -0.0000
iter:  31  04:32:09  -8.16  -4.56    -1.58-226.225083             -0.0000
iter:  32  04:32:30  -7.12  -4.58         -226.225081             +0.0000
iter:  33  04:32:57  -7.47  -4.68    -2.49-226.225080             -0.0000
iter:  34  04:33:24  -8.35  -4.79    -2.80-226.225080             -0.0000
iter:  35  04:33:50  -8.28  -4.86    -2.72-226.225079             -0.0000
iter:  36  04:34:17  -8.07  -4.92    -3.01-226.225079             -0.0000
iter:  37  04:34:44  -8.31  -4.93    -2.91-226.225079             -0.0000
iter:  38  04:35:11  -8.98  -4.96    -3.40-226.225079             -0.0000
iter:  39  04:35:37  -8.48  -4.98    -2.88-226.225079             -0.0000
iter:  40  04:36:04  -8.47  -5.30    -3.02-226.225079             -0.0000
iter:  41  04:36:31  -9.75  -5.47    -3.59-226.225079             -0.0000
iter:  42  04:36:58  -9.13  -5.56    -3.25-226.225079             -0.0000
iter:  43  04:37:24  -9.90  -5.85    -3.76-226.225079             -0.0000
iter:  44  04:37:51  -9.72  -5.93    -3.82-226.225079             -0.0000
iter:  45  04:38:18 -10.45  -6.00    -4.77-226.225079             -0.0000
iter:  46  04:38:44 -10.63  -6.03    -4.11-226.225079             -0.0000
iter:  47  04:39:11 -10.45  -6.13    -4.03-226.225079             -0.0000
iter:  48  04:39:38 -10.64  -6.15    -4.10-226.225079             -0.0000
iter:  49  04:40:05 -11.73  -6.21    -4.77-226.225079             -0.0000
iter:  50  04:40:31 -10.80  -6.24    -4.37-226.225079             +0.0000
iter:  51  04:40:58 -11.66  -6.38    -4.76-226.225079             -0.0000
iter:  52  04:41:25 -11.35  -6.50    -4.12-226.225079             -0.0000
iter:  53  04:41:51 -12.21  -6.65    -5.14-226.225079             -0.0000
iter:  54  04:42:18 -11.30  -6.72    -4.56-226.225079             -0.0000
iter:  55  04:42:45 -12.25  -6.98    -5.09-226.225079             -0.0000
iter:  56  04:43:12 -12.77  -7.08    -4.95-226.225079             -0.0000
iter:  57  04:43:38 -12.85  -7.16    -4.97-226.225079             -0.0000
iter:  58  04:44:05 -12.72  -7.24    -5.08-226.225079             -0.0000
iter:  59  04:44:32 -13.77  -7.48    -6.18-226.225079             -0.0000

Converged after 59 iterations.

Dipole moment: (10.835144, 1.421474, -6.269125) |e|*Ang

Total magnetic moment: (0.000000, 0.000000, -0.000000)
Local magnetic moments:
   0 O  ( 0.000000,  0.000000, -0.000701)
   1 O  ( 0.000000,  0.000000,  0.000510)
   2 O  ( 0.000000,  0.000000,  0.000646)
   3 O  ( 0.000000,  0.000000, -0.000482)
   4 O  ( 0.000000,  0.000000,  0.000626)
   5 O  ( 0.000000,  0.000000, -0.000461)
   6 O  ( 0.000000,  0.000000, -0.000721)
   7 O  ( 0.000000,  0.000000,  0.000530)
   8 O  ( 0.000000,  0.000000,  0.028611)
   9 O  ( 0.000000,  0.000000, -0.028542)
  10 O  ( 0.000000,  0.000000, -0.028804)
  11 O  ( 0.000000,  0.000000,  0.028413)
  12 Mn ( 0.000000,  0.000000,  4.448313)
  13 Mn ( 0.000000,  0.000000, -4.448077)
  14 Mn ( 0.000000,  0.000000, -4.448137)
  15 Mn ( 0.000000,  0.000000,  4.448367)
  16 P  ( 0.000000,  0.000000,  0.001694)
  17 P  ( 0.000000,  0.000000, -0.001535)
  18 P  ( 0.000000,  0.000000, -0.001592)
  19 P  ( 0.000000,  0.000000,  0.001556)
  20 O  ( 0.000000,  0.000000,  0.025108)
  21 O  ( 0.000000,  0.000000, -0.025288)
  22 O  ( 0.000000,  0.000000, -0.025291)
  23 O  ( 0.000000,  0.000000,  0.025422)
  24 Li ( 0.000000,  0.000000, -0.000000)
  25 Li ( 0.000000,  0.000000, -0.000013)
  26 Li ( 0.000000,  0.000000, -0.000000)
  27 Li ( 0.000000,  0.000000, -0.000013)

Energy contributions relative to reference atoms: (reference = -196157.275402)

Kinetic:       +217.388082
Potential:     -195.270075
External:        +0.000000
XC:            -250.384188
Entropy (-ST):   -0.000000
Local:           +2.041102
--------------------------
Free energy:   -226.225079
Extrapolated:  -226.225079

Spin contamination: 9.560145 electrons
Showing only first 2 kpts
                      Up                     Down
 Kpt  Band  Eigenvalues  Occupancy  Eigenvalues  Occupancy
  0    88      5.09611    1.00000      5.11067    1.00000
  0    89      5.13869    1.00000      5.14387    1.00000
  0    90      7.28613    0.00000      7.27862    0.00000
  0    91      7.31844    0.00000      7.31754    0.00000

  1    88      5.12236    1.00000      5.13721    1.00000
  1    89      5.16893    1.00000      5.17346    1.00000
  1    90      7.22751    0.00000      7.21957    0.00000
  1    91      7.25700    0.00000      7.25743    0.00000


Fermi level: 6.59010

Gap: 1.958 eV
Transition (v -> c):
  (s=1, k=73, n=89, [0.08, -0.42, -0.12]) -> (s=1, k=85, n=90, [0.08, 0.08, -0.12])
Writing to born-0.01-16x+.gpw (mode='all')

Timing:                              incl.     excl.
-----------------------------------------------------------
Hamiltonian:                         0.264     0.003   0.0% |
 Atomic:                             0.078     0.078   0.0% |
  XC Correction:                     0.000     0.000   0.0% |
 Calculate atomic Hamiltonians:      0.091     0.091   0.0% |
 Communicate:                        0.000     0.000   0.0% |
 Initialize Hamiltonian:             0.000     0.000   0.0% |
 Poisson:                            0.001     0.001   0.0% |
 XC 3D grid:                         0.091     0.091   0.0% |
LCAO initialization:                69.847     0.675   0.0% |
 LCAO eigensolver:                  17.989     0.003   0.0% |
  Calculate projections:             0.030     0.030   0.0% |
  DenseAtomicCorrection:             0.043     0.043   0.0% |
  Distribute overlap matrix:         0.005     0.005   0.0% |
  Orbital Layouts:                   0.278     0.278   0.0% |
  Potential matrix:                 17.543    17.543   0.5% |
  Sum over cells:                    0.088     0.088   0.0% |
 LCAO to grid:                      49.904    49.904   1.3% ||
 Set positions (LCAO WFS):           1.280     0.181   0.0% |
  Basic WFS set positions:           0.002     0.002   0.0% |
  Basis functions set positions:     0.000     0.000   0.0% |
  P tci:                             0.516     0.516   0.0% |
  ST tci:                            0.370     0.370   0.0% |
  mktci:                             0.212     0.212   0.0% |
PWDescriptor:                        0.025     0.025   0.0% |
SCF-cycle:                        1415.072     5.538   0.1% |
 Davidson:                        1186.292   379.329  10.2% |---|
  Apply H:                          79.677    77.366   2.1% ||
   HMM T:                            2.310     2.310   0.1% |
  Subspace diag:                   170.582     0.174   0.0% |
   calc_h_matrix:                  108.785    29.668   0.8% |
    Apply H:                        79.116    76.915   2.1% ||
     HMM T:                          2.202     2.202   0.1% |
   diagonalize:                      6.037     6.037   0.2% |
   rotate_psi:                      55.587    55.587   1.5% ||
  calc. matrices:                  354.155   197.694   5.3% |-|
   Apply H:                        156.461   152.073   4.1% |-|
    HMM T:                           4.388     4.388   0.1% |
  diagonalize:                      91.739    91.739   2.5% ||
  rotate_psi:                      110.811   110.811   3.0% ||
 Density:                           47.288     0.001   0.0% |
  Atomic density matrices:           0.780     0.780   0.0% |
  Mix:                               7.974     7.974   0.2% |
  Multipole moments:                 0.021     0.021   0.0% |
  Pseudo density:                   38.511    38.510   1.0% |
   Symmetrize density:               0.002     0.002   0.0% |
 Forces:                           159.206   159.206   4.3% |-|
 Hamiltonian:                       14.444     0.124   0.0% |
  Atomic:                            3.412     3.411   0.1% |
   XC Correction:                    0.000     0.000   0.0% |
  Calculate atomic Hamiltonians:     5.478     5.478   0.1% |
  Communicate:                       0.028     0.028   0.0% |
  Poisson:                           0.054     0.054   0.0% |
  XC 3D grid:                        5.348     5.348   0.1% |
 Orthonormalize:                     2.305     0.003   0.0% |
  calc_s_matrix:                     0.266     0.266   0.0% |
  inverse-cholesky:                  0.041     0.041   0.0% |
  projections:                       1.503     1.503   0.0% |
  rotate_psi_s:                      0.491     0.491   0.0% |
Set symmetry:                        0.000     0.000   0.0% |
Other:                            2247.540  2247.540  60.2% |-----------------------|
-----------------------------------------------------------
Total:                                      3732.749 100.0%

Memory usage: 13.09 GiB
Date: Wed Mar 31 05:21:58 2021
