
  ___ ___ ___ _ _ _  
 |   |   |_  | | | | 
 | | | | | . | | | | 
 |__ |  _|___|_____|  20.10.1b1
 |___|_|             

User:   madkru@g064.nifl.fysik.dtu.dk
Date:   Mon Mar 22 20:12:19 2021
Arch:   x86_64
Pid:    60512
Python: 3.7.4
gpaw:   /home/niflheim/madkru/venv_folder/gpaw/gpaw (d0d1ca1c71)
_gpaw:  /home/niflheim/madkru/venv_folder/gpaw/build/lib.linux-x86_64-sandybridge-3.7/
        _gpaw.cpython-37m-x86_64-linux-gnu.so (4fd39e8b1e)
ase:    /home/niflheim/madkru/venv_folder/ase/ase (version 3.21.0b1-7e6c206a91)
numpy:  /home/niflheim/madkru/venv_folder/lib/python3.7/site-packages/numpy (version 1.19.4)
scipy:  /home/niflheim/madkru/venv_folder/lib/python3.7/site-packages/scipy (version 1.5.4)
libxc:  4.3.4
units:  Angstrom and eV
cores: 32
OMP_NUM_THREADS: 1

Input parameters:
  convergence: {bands: occupied,
                density: 0.0001,
                eigenstates: 4e-08,
                energy: 0.0005,
                forces: 1e-06}
  kpts: [6 6 4]
  mode: {ecut: 600.0,
         gammacentered: False,
         name: pw}
  occupations: {fixmagmom: False,
                name: fermi-dirac,
                width: 0.001}
  symmetry: {point_group: False,
             time_reversal: False}

System changes: positions, numbers, cell, pbc, initial_charges, initial_magmoms 

Initialize ...

O-setup:
  name: Oxygen
  id: 9b9d51c344dea68c822856295a461509
  Z: 8.0
  valence: 6
  core: 2
  charge: 0.0
  file: /home/modules/software/GPAW-setups/0.9.20000/O.LDA.gz
  compensation charges: gauss, rc=0.21, lmax=2
  cutoffs: 1.17(filt), 0.83(core),
  valence states:
                energy  radius
    2s(2.00)   -23.752   0.688
    2p(4.00)    -9.195   0.598
    *s           3.459   0.688
    *p          18.016   0.598
    *d           0.000   0.619

  Using partial waves for O as LCAO basis

Mn-setup:
  name: Manganese
  id: 0d715a8018be061a6e9ea6f2d364ac92
  Z: 25.0
  valence: 15
  core: 10
  charge: 0.0
  file: /home/modules/software/GPAW-setups/0.9.20000/Mn.LDA.gz
  compensation charges: gauss, rc=0.38, lmax=2
  cutoffs: 2.14(filt), 0.86(core),
  valence states:
                energy  radius
    3s(2.00)   -85.387   1.275
    4s(2.00)    -5.282   1.275
    3p(6.00)   -54.493   1.281
    4p(0.00)    -1.471   1.281
    3d(5.00)    -7.009   1.138
    *d          20.203   1.138

  Using partial waves for Mn as LCAO basis

P-setup:
  name: Phosphorus
  id: a5561c299094968922a179ab894d2e2d
  Z: 15.0
  valence: 5
  core: 10
  charge: 0.0
  file: /home/modules/software/GPAW-setups/0.9.20000/P.LDA.gz
  compensation charges: gauss, rc=0.30, lmax=2
  cutoffs: 1.69(filt), 1.81(core),
  valence states:
                energy  radius
    3s(2.00)   -14.015   0.953
    3p(3.00)    -5.596   0.953
    *s          13.197   0.953
    *p          21.615   0.953
    *d           0.000   0.953

  Using partial waves for P as LCAO basis

Li-setup:
  name: Lithium
  id: b73562207f97a71b6967473b66fe8b65
  Z: 3.0
  valence: 1
  core: 2
  charge: 0.0
  file: /home/modules/software/GPAW-setups/0.9.20000/Li.LDA.gz
  compensation charges: gauss, rc=0.33, lmax=2
  cutoffs: 1.91(filt), 2.55(core),
  valence states:
                energy  radius
    2s(1.00)    -2.874   1.058
    2p(0.00)    -1.126   1.058
    *s          24.338   1.058

  Using partial waves for Li as LCAO basis

Reference energy: -196157.275402

Spin-polarized calculation.
Magnetic moment: 0.000000

Convergence criteria:
  Maximum total energy change: 0.0005 eV / electron
  Maximum integral of absolute density change: 0.0001 electrons
  Maximum integral of absolute eigenstate change: 4e-08 eV^2
  Maximum change in atomic force: 1e-06 eV / Ang
  Maximum number of iterations: 333

Symmetries present (total): 1

  ( 1  0  0)
  ( 0  1  0)
  ( 0  0  1)

144 k-points: 6 x 6 x 4 Monkhorst-Pack grid
144 k-points in the irreducible part of the Brillouin zone
       k-points in crystal coordinates                weights
   0:    -0.41666667   -0.41666667   -0.37500000          1/144
   1:    -0.41666667   -0.41666667   -0.12500000          1/144
   2:    -0.41666667   -0.41666667    0.12500000          1/144
   3:    -0.41666667   -0.41666667    0.37500000          1/144
   4:    -0.41666667   -0.25000000   -0.37500000          1/144
   5:    -0.41666667   -0.25000000   -0.12500000          1/144
   6:    -0.41666667   -0.25000000    0.12500000          1/144
   7:    -0.41666667   -0.25000000    0.37500000          1/144
   8:    -0.41666667   -0.08333333   -0.37500000          1/144
   9:    -0.41666667   -0.08333333   -0.12500000          1/144
          ...
 143:     0.41666667    0.41666667    0.37500000          1/144

Wave functions: Plane wave expansion
  Cutoff energy: 600.000 eV
  Number of coefficients (min, max): 10068, 10125
  Pulay-stress correction: 0.000000 eV/Ang^3 (de/decut=0.000000)
  Using FFTW library
  ScaLapack parameters: grid=1x1, blocksize=None
  Wavefunction extrapolation:
    Improved wavefunction reuse through dual PAW basis 

  Fermi-Dirac: width=0.0010 eV

Eigensolver
   Davidson(niter=2, smin=None, normalize=True) 

Densities:
  Coarse grid: 60*35*27 grid
  Fine grid: 120*70*54 grid
  Total Charge: 0.000000 

Density mixing:
  Method: difference
  Backend: pulay
  Linear mixing parameter: 0.05
  Mixing with 5 old densities
  Damping of long wave oscillations: 50 

Hamiltonian:
  XC and Coulomb potentials evaluated on a 120*70*54 grid
  Using the LDA Exchange-Correlation functional
 

Memory estimate:
  Process memory now: 13397.46 MiB
  Calculator: 375.55 MiB
    Density: 20.02 MiB
      Arrays: 7.57 MiB
      Localized functions: 9.42 MiB
      Mixer: 3.03 MiB
    Hamiltonian: 5.90 MiB
      Arrays: 5.62 MiB
      XC: 0.00 MiB
      Poisson: 0.00 MiB
      vbar: 0.27 MiB
    Wavefunctions: 349.64 MiB
      Arrays psit_nG: 311.46 MiB
      Eigensolver: 19.99 MiB
      Projections: 5.41 MiB
      Projectors: 9.73 MiB
      PW-descriptor: 3.03 MiB

Total number of cores used: 32
Parallelization over k-points: 16
Domain decomposition: 2 x 1 x 1

Number of atoms: 28
Number of atomic orbitals: 148
Number of bands in calculation: 112
Number of valence electrons: 180
Bands to converge: occupied

... initialized

Initializing position-dependent things.

Density initialized from atomic densities
Creating initial wave functions:
  112 bands from LCAO basis set

     .-------------------------.  
    /|         OP              |  
   / |O            O        O  |  
  /  |       O            O  P |  
 *   |O    Mn      O           |  
 |   |          OLi          O |  
 |   .P-O--------------Mn------.  
 |  /          Li    O  Mn  O /   
 | /Li O           PO        /    
 |/       Mn                /     
 *Li-----------------------*      

Positions:
   0 O     -1.360678   -2.541161   -1.202221    ( 0.0000,  0.0000,  0.0000)
   1 O     -3.121941    2.976855    1.167242    ( 0.0000,  0.0000,  0.0000)
   2 O      2.107533    0.508090    1.540712    ( 0.0000,  0.0000,  0.0000)
   3 O      3.869373   -0.072395   -0.828750    ( 0.0000,  0.0000,  0.0000)
   4 O      2.107821    2.976875    1.540792    ( 0.0000,  0.0000,  0.0000)
   5 O      3.869084   -2.541141   -0.828671    ( 0.0000,  0.0000,  0.0000)
   6 O     -1.360390   -0.072375   -1.202141    ( 0.0000,  0.0000,  0.0000)
   7 O     -3.122230    0.518109    1.167321    ( 0.0000,  0.0000,  0.0000)
   8 O     -4.413461   -1.306992   -0.794251    ( 0.0000,  0.0000,  0.0000)
   9 O     -0.069585    1.742707    1.575662    ( 0.0000,  0.0000,  0.0000)
  10 O      5.160604    1.742707    1.132822    ( 0.0000,  0.0000,  0.0000)
  11 O      0.816728   -1.306992   -1.237091    ( 0.0000,  0.0000,  0.0000)
  12 Mn    -2.570809   -1.307302    0.247161    ( 0.0000,  0.0000,  1.0000)
  13 Mn    -1.912021    1.743016   -2.122906    ( 0.0000,  0.0000, -1.0000)
  14 Mn     3.317952    1.743017    0.091411    ( 0.0000,  0.0000, -1.0000)
  15 Mn     2.659164   -1.307302    2.461478    ( 0.0000,  0.0000,  1.0000)
  16 P     -0.620664   -1.306816   -1.828465    ( 0.0000,  0.0000,  0.0000)
  17 P     -3.862097    1.742530    0.541238    ( 0.0000,  0.0000,  0.0000)
  18 P      1.367807    1.742530    2.167036    ( 0.0000,  0.0000,  0.0000)
  19 P      4.609240   -1.306816   -0.202666    ( 0.0000,  0.0000,  0.0000)
  20 O     -0.646437   -1.306845    1.374751    ( 0.0000,  0.0000,  0.0000)
  21 O     -3.836504    1.742559   -0.995565    ( 0.0000,  0.0000,  0.0000)
  22 O      1.393580    1.742559   -1.036179    ( 0.0000,  0.0000,  0.0000)
  23 O      4.583647   -1.306845    1.334136    ( 0.0000,  0.0000,  0.0000)
  24 Li    -4.856429   -2.832143   -2.200714    ( 0.0000,  0.0000,  0.0000)
  25 Li     0.373571   -2.832143    0.169286    ( 0.0000,  0.0000,  0.0000)
  26 Li    -4.856429    0.217857   -2.200714    ( 0.0000,  0.0000,  0.0000)
  27 Li     0.373571    0.217857    0.169286    ( 0.0000,  0.0000,  0.0000)

Unit cell:
           periodic     x           y           z      points  spacing
  1. axis:    yes   10.460000    0.000000    0.000000    60     0.1743
  2. axis:    yes    0.000000    6.100000    0.000000    35     0.1743
  3. axis:    yes    0.000000    0.000000    4.740000    27     0.1756

  Lengths:  10.460000   6.100000   4.740000
  Angles:   90.000000  90.000000  90.000000

Effective grid spacing dv^(1/3) = 0.1747

                     log10-error:           total        iterations:
           time      wfs    density  force  energy       poisson  magmom
iter:   1  20:15:18                       -231.917058             +0.0000
iter:   2  20:15:58  -0.55  -0.94         -231.742364             +0.0148
iter:   3  20:16:38  -0.72  -0.98         -220.580965             +0.0185
iter:   4  20:17:18  -0.96  -1.20         -218.859619             +0.0061
iter:   5  20:17:58  -1.92  -1.36         -221.078084             +0.0040
iter:   6  20:18:37  -1.93  -1.51         -220.248764             +0.0022
iter:   7  20:19:17  -2.15  -1.61         -224.138482             +0.0009
iter:   8  20:19:56  -2.56  -1.88         -222.724505             +0.0006
iter:   9  20:20:36  -2.14  -1.86         -226.831424             +0.0004
iter:  10  20:21:16  -2.35  -1.81         -228.137674             +0.0001
iter:  11  20:21:55  -1.26  -1.77         -226.907767             +0.0000
iter:  12  20:22:35  -2.29  -2.08         -226.809004             +0.0000
iter:  13  20:23:14  -1.85  -2.09         -226.476920             +0.0000
iter:  14  20:23:54  -2.00  -2.23         -226.397798             +0.0000
iter:  15  20:24:33  -3.25  -2.28         -226.344778             +0.0000
iter:  16  20:25:13  -1.97  -2.33         -226.444024             -0.0000
iter:  17  20:25:52  -2.39  -2.39         -226.234802             +0.0000
iter:  18  20:26:32  -3.28  -2.88         -226.245166             +0.0000
iter:  19  20:27:11  -3.21  -2.97         -226.237174             -0.0000
iter:  20  20:27:51  -3.52  -3.00         -226.227798             +0.0000
iter:  21  20:28:30  -4.73  -3.22         -226.227439             +0.0000
iter:  22  20:29:09  -4.05  -3.27         -226.230379             +0.0000
iter:  23  20:29:49  -4.27  -3.27         -226.226947             +0.0000
iter:  24  20:30:29  -4.96  -3.53         -226.225933             -0.0000
iter:  25  20:31:08  -5.06  -3.55         -226.226862             +0.0000
iter:  26  20:31:48  -5.84  -3.63         -226.226719             +0.0000
iter:  27  20:32:27  -5.71  -3.71         -226.226658             +0.0000
iter:  28  20:33:07  -5.67  -3.94         -226.226683             +0.0000
iter:  29  20:33:46  -6.01  -4.09         -226.226737             +0.0000
iter:  30  20:34:26  -5.84  -4.16         -226.226614             +0.0000
iter:  31  20:35:05  -7.09  -4.47         -226.226616             +0.0000
iter:  32  20:35:55  -7.64  -4.52         -226.226615             -0.0000
iter:  33  20:36:35  -7.15  -4.65         -226.226611             -0.0000
iter:  34  20:37:25  -7.94  -4.78    -2.79-226.226612             -0.0000
iter:  35  20:38:15  -7.67  -4.81    -2.67-226.226611             -0.0000
iter:  36  20:39:05  -7.72  -4.97    -2.93-226.226611             -0.0000
iter:  37  20:39:55  -8.99  -5.06    -3.49-226.226611             -0.0000
iter:  38  20:40:45  -7.85  -5.10    -2.82-226.226611             +0.0000
iter:  39  20:41:35  -9.30  -5.46    -3.58-226.226611             -0.0000
iter:  40  20:42:25  -8.61  -5.50    -3.20-226.226611             -0.0000
iter:  41  20:43:15  -8.84  -5.53    -3.24-226.226611             -0.0000
iter:  42  20:44:06 -10.05  -5.73    -3.80-226.226611             -0.0000
iter:  43  20:44:56  -9.55  -5.77    -3.34-226.226611             -0.0000
iter:  44  20:45:46  -8.96  -5.92    -3.35-226.226611             -0.0000
iter:  45  20:46:36  -9.68  -5.97    -3.64-226.226611             -0.0000
iter:  46  20:47:26 -10.86  -6.40    -4.22-226.226611             -0.0000
iter:  47  20:48:16 -10.60  -6.50    -4.27-226.226611             -0.0000
iter:  48  20:49:06 -10.83  -6.48    -4.25-226.226611             -0.0000
iter:  49  20:49:56 -11.72  -7.03    -4.83-226.226611             -0.0000
iter:  50  20:50:46 -11.70  -6.99    -4.71-226.226611             -0.0000
iter:  51  20:51:36 -12.12  -7.10    -5.19-226.226611             -0.0000
iter:  52  20:52:26 -13.02  -7.28    -5.59-226.226611             -0.0000
iter:  53  20:53:16 -12.94  -7.32    -5.43-226.226611             -0.0000
iter:  54  20:54:06 -13.39  -7.37    -5.63-226.226611             -0.0000
iter:  55  20:54:57 -13.34  -7.42    -5.34-226.226611             -0.0000
iter:  56  20:55:47 -13.22  -7.49    -5.31-226.226611             -0.0000
iter:  57  20:56:37 -13.50  -7.58    -5.69-226.226611             -0.0000
iter:  58  20:57:27 -13.89  -7.70    -5.68-226.226611             -0.0000
iter:  59  20:58:17 -13.32  -7.84    -5.57-226.226611             -0.0000
iter:  60  20:59:08 -14.19  -7.99    -6.42-226.226611             -0.0000

Converged after 60 iterations.

Dipole moment: (10.672699, 1.557553, -6.268396) |e|*Ang

Total magnetic moment: (0.000000, 0.000000, -0.000000)
Local magnetic moments:
   0 O  ( 0.000000,  0.000000, -0.000302)
   1 O  ( 0.000000,  0.000000,  0.000677)
   2 O  ( 0.000000,  0.000000,  0.000550)
   3 O  ( 0.000000,  0.000000, -0.000539)
   4 O  ( 0.000000,  0.000000,  0.000528)
   5 O  ( 0.000000,  0.000000, -0.000525)
   6 O  ( 0.000000,  0.000000, -0.000570)
   7 O  ( 0.000000,  0.000000,  0.000168)
   8 O  ( 0.000000,  0.000000,  0.028681)
   9 O  ( 0.000000,  0.000000, -0.028690)
  10 O  ( 0.000000,  0.000000, -0.028899)
  11 O  ( 0.000000,  0.000000,  0.028684)
  12 Mn ( 0.000000,  0.000000,  4.449456)
  13 Mn ( 0.000000,  0.000000, -4.448409)
  14 Mn ( 0.000000,  0.000000, -4.448261)
  15 Mn ( 0.000000,  0.000000,  4.448227)
  16 P  ( 0.000000,  0.000000,  0.001544)
  17 P  ( 0.000000,  0.000000, -0.001843)
  18 P  ( 0.000000,  0.000000, -0.001565)
  19 P  ( 0.000000,  0.000000,  0.001526)
  20 O  ( 0.000000,  0.000000,  0.025272)
  21 O  ( 0.000000,  0.000000, -0.025432)
  22 O  ( 0.000000,  0.000000, -0.025293)
  23 O  ( 0.000000,  0.000000,  0.025306)
  24 Li ( 0.000000,  0.000000, -0.000001)
  25 Li ( 0.000000,  0.000000, -0.000001)
  26 Li ( 0.000000,  0.000000, -0.000016)
  27 Li ( 0.000000,  0.000000, -0.000001)

Energy contributions relative to reference atoms: (reference = -196157.275402)

Kinetic:       +217.880116
Potential:     -195.645862
External:        +0.000000
XC:            -250.500915
Entropy (-ST):   -0.000000
Local:           +2.040050
--------------------------
Free energy:   -226.226611
Extrapolated:  -226.226611

Spin contamination: 9.561372 electrons
Showing only first 2 kpts
                      Up                     Down
 Kpt  Band  Eigenvalues  Occupancy  Eigenvalues  Occupancy
  0    88      5.10275    0.00694      5.11263    0.00694
  0    89      5.12884    0.00694      5.13699    0.00694
  0    90      7.29125    0.00000      7.28280    0.00000
  0    91      7.30904    0.00000      7.30315    0.00000

  1    88      5.12857    0.00694      5.13835    0.00694
  1    89      5.15920    0.00694      5.16763    0.00694
  1    90      7.23433    0.00000      7.22528    0.00000
  1    91      7.24724    0.00000      7.24084    0.00000


Fermi level: 6.24821

Gap: 1.965 eV
Transition (v -> c):
  (s=1, k=93, n=89, [0.08, 0.42, -0.12]) -> (s=1, k=57, n=90, [-0.08, -0.08, -0.12])
Writing to born-0.01-7y+.gpw (mode='all')

Timing:                              incl.     excl.
-----------------------------------------------------------
Hamiltonian:                         0.446     0.003   0.0% |
 Atomic:                             0.100     0.100   0.0% |
  XC Correction:                     0.000     0.000   0.0% |
 Calculate atomic Hamiltonians:      0.174     0.174   0.0% |
 Communicate:                        0.001     0.001   0.0% |
 Initialize Hamiltonian:             0.000     0.000   0.0% |
 Poisson:                            0.002     0.002   0.0% |
 XC 3D grid:                         0.165     0.165   0.0% |
LCAO initialization:               132.834     0.679   0.0% |
 LCAO eigensolver:                  34.022     0.002   0.0% |
  Calculate projections:             0.056     0.056   0.0% |
  DenseAtomicCorrection:             0.083     0.083   0.0% |
  Distribute overlap matrix:         0.006     0.006   0.0% |
  Orbital Layouts:                   0.363     0.363   0.0% |
  Potential matrix:                 33.410    33.410   0.6% |
  Sum over cells:                    0.101     0.101   0.0% |
 LCAO to grid:                      95.816    95.816   1.6% ||
 Set positions (LCAO WFS):           2.317     0.349   0.0% |
  Basic WFS set positions:           0.001     0.001   0.0% |
  Basis functions set positions:     0.000     0.000   0.0% |
  P tci:                             1.061     1.061   0.0% |
  ST tci:                            0.658     0.658   0.0% |
  mktci:                             0.248     0.248   0.0% |
PWDescriptor:                        0.025     0.025   0.0% |
SCF-cycle:                        2673.368     7.834   0.1% |
 Davidson:                        2248.032   731.076  12.4% |----|
  Apply H:                         158.696   153.456   2.6% ||
   HMM T:                            5.240     5.240   0.1% |
  Subspace diag:                   332.413     0.195   0.0% |
   calc_h_matrix:                  215.949    59.341   1.0% |
    Apply H:                       156.608   151.546   2.6% ||
     HMM T:                          5.063     5.063   0.1% |
   diagonalize:                      7.340     7.340   0.1% |
   rotate_psi:                     108.928   108.928   1.8% ||
  calc. matrices:                  704.145   396.642   6.7% |--|
   Apply H:                        307.503   298.107   5.1% |-|
    HMM T:                           9.395     9.395   0.2% |
  diagonalize:                     100.169   100.169   1.7% ||
  rotate_psi:                      221.533   221.533   3.8% |-|
 Density:                           90.330     0.002   0.0% |
  Atomic density matrices:           1.508     1.508   0.0% |
  Mix:                              14.508    14.508   0.2% |
  Multipole moments:                 0.036     0.036   0.0% |
  Pseudo density:                   74.278    74.276   1.3% ||
   Symmetrize density:               0.002     0.002   0.0% |
 Forces:                           297.886   297.886   5.1% |-|
 Hamiltonian:                       24.877     0.141   0.0% |
  Atomic:                            3.246     3.246   0.1% |
   XC Correction:                    0.000     0.000   0.0% |
  Calculate atomic Hamiltonians:    10.746    10.746   0.2% |
  Communicate:                       0.102     0.102   0.0% |
  Poisson:                           0.100     0.100   0.0% |
  XC 3D grid:                       10.542    10.542   0.2% |
 Orthonormalize:                     4.409     0.004   0.0% |
  calc_s_matrix:                     0.524     0.524   0.0% |
  inverse-cholesky:                  0.055     0.055   0.0% |
  projections:                       2.892     2.892   0.0% |
  rotate_psi_s:                      0.933     0.933   0.0% |
Set symmetry:                        0.000     0.000   0.0% |
Other:                            3085.391  3085.391  52.4% |--------------------|
-----------------------------------------------------------
Total:                                      5892.063 100.0%

Memory usage: 13.10 GiB
Date: Mon Mar 22 21:50:31 2021
