
  ___ ___ ___ _ _ _  
 |   |   |_  | | | | 
 | | | | | . | | | | 
 |__ |  _|___|_____|  21.1.1b1
 |___|_|             

User:   madkru@g043.nifl.fysik.dtu.dk
Date:   Tue Mar 30 23:16:14 2021
Arch:   x86_64
Pid:    39387
Python: 3.8.6
gpaw:   /home/niflheim/madkru/venv_madkru/gpaw/gpaw (e6f0d78a31)
_gpaw:  /home/niflheim/madkru/venv_madkru/gpaw/build/lib.linux-x86_64-sandybridge-3.8/
        _gpaw.cpython-38-x86_64-linux-gnu.so (e6f0d78a31)
ase:    /home/niflheim/madkru/venv_madkru/ase/ase (version 3.22.0b1-4d5a73cb29)
numpy:  /home/modules/software/SciPy-bundle/2020.11-foss-2020b/lib/python3.8/site-packages/numpy (version 1.19.4)
scipy:  /home/modules/software/SciPy-bundle/2020.11-foss-2020b/lib/python3.8/site-packages/scipy (version 1.5.4)
libxc:  4.3.4
units:  Angstrom and eV
cores: 64
OpenMP: False
OMP_NUM_THREADS: 1

Input parameters:
  convergence: {bands: occupied,
                density: 0.0001,
                eigenstates: 4e-08,
                energy: 0.0005,
                forces: 1e-06}
  kpts: [6 6 4]
  maxiter: 1000
  mode: {ecut: 600.0,
         gammacentered: False,
         name: pw}
  occupations: {fixmagmom: False,
                name: fermi-dirac,
                width: 0.001}
  symmetry: {point_group: False,
             time_reversal: False}

System changes: positions, numbers, cell, pbc, initial_charges, initial_magmoms 

Initialize ...

O-setup:
  name: Oxygen
  id: 9b9d51c344dea68c822856295a461509
  Z: 8.0
  valence: 6
  core: 2
  charge: 0.0
  file: /home/modules/software/GPAW-setups/0.9.20000/O.LDA.gz
  compensation charges: gauss, rc=0.21, lmax=2
  cutoffs: 1.17(filt), 0.83(core),
  valence states:
                energy  radius
    2s(2.00)   -23.752   0.688
    2p(4.00)    -9.195   0.598
    *s           3.459   0.688
    *p          18.016   0.598
    *d           0.000   0.619

  Using partial waves for O as LCAO basis

Mn-setup:
  name: Manganese
  id: 0d715a8018be061a6e9ea6f2d364ac92
  Z: 25.0
  valence: 15
  core: 10
  charge: 0.0
  file: /home/modules/software/GPAW-setups/0.9.20000/Mn.LDA.gz
  compensation charges: gauss, rc=0.38, lmax=2
  cutoffs: 2.14(filt), 0.86(core),
  valence states:
                energy  radius
    3s(2.00)   -85.387   1.275
    4s(2.00)    -5.282   1.275
    3p(6.00)   -54.493   1.281
    4p(0.00)    -1.471   1.281
    3d(5.00)    -7.009   1.138
    *d          20.203   1.138

  Using partial waves for Mn as LCAO basis

P-setup:
  name: Phosphorus
  id: a5561c299094968922a179ab894d2e2d
  Z: 15.0
  valence: 5
  core: 10
  charge: 0.0
  file: /home/modules/software/GPAW-setups/0.9.20000/P.LDA.gz
  compensation charges: gauss, rc=0.30, lmax=2
  cutoffs: 1.69(filt), 1.81(core),
  valence states:
                energy  radius
    3s(2.00)   -14.015   0.953
    3p(3.00)    -5.596   0.953
    *s          13.197   0.953
    *p          21.615   0.953
    *d           0.000   0.953

  Using partial waves for P as LCAO basis

Li-setup:
  name: Lithium
  id: b73562207f97a71b6967473b66fe8b65
  Z: 3.0
  valence: 1
  core: 2
  charge: 0.0
  file: /home/modules/software/GPAW-setups/0.9.20000/Li.LDA.gz
  compensation charges: gauss, rc=0.33, lmax=2
  cutoffs: 1.91(filt), 2.55(core),
  valence states:
                energy  radius
    2s(1.00)    -2.874   1.058
    2p(0.00)    -1.126   1.058
    *s          24.338   1.058

  Using partial waves for Li as LCAO basis

Reference energy: -196157.275402

Spin-polarized calculation.
Magnetic moment: 0.000000

Convergence criteria:
  Maximum total energy change: 0.0005 eV / electron
  Maximum integral of absolute density change: 0.0001 electrons
  Maximum integral of absolute eigenstate change: 4e-08 eV^2
  Maximum change in atomic force: 1e-06 eV / Ang
  Maximum number of iterations: 1000

Symmetries present (total): 1

  ( 1  0  0)
  ( 0  1  0)
  ( 0  0  1)

144 k-points: 6 x 6 x 4 Monkhorst-Pack grid
144 k-points in the irreducible part of the Brillouin zone
       k-points in crystal coordinates                weights
   0:    -0.41666667   -0.41666667   -0.37500000          1/144
   1:    -0.41666667   -0.41666667   -0.12500000          1/144
   2:    -0.41666667   -0.41666667    0.12500000          1/144
   3:    -0.41666667   -0.41666667    0.37500000          1/144
   4:    -0.41666667   -0.25000000   -0.37500000          1/144
   5:    -0.41666667   -0.25000000   -0.12500000          1/144
   6:    -0.41666667   -0.25000000    0.12500000          1/144
   7:    -0.41666667   -0.25000000    0.37500000          1/144
   8:    -0.41666667   -0.08333333   -0.37500000          1/144
   9:    -0.41666667   -0.08333333   -0.12500000          1/144
          ...
 143:     0.41666667    0.41666667    0.37500000          1/144

Wave functions: Plane wave expansion
  Cutoff energy: 600.000 eV
  Number of coefficients (min, max): 10068, 10125
  Pulay-stress correction: 0.000000 eV/Ang^3 (de/decut=0.000000)
  Using FFTW library
  ScaLapack parameters: grid=1x1, blocksize=None
  Wavefunction extrapolation:
    Improved wavefunction reuse through dual PAW basis 

  Fermi-Dirac: width=0.0010 eV

Eigensolver
   Davidson(niter=2) 

Densities:
  Coarse grid: 60*35*27 grid
  Fine grid: 120*70*54 grid
  Total Charge: 0.000000 

Density mixing:
  Method: difference
  Backend: pulay
  Linear mixing parameter: 0.05
  Mixing with 5 old densities
  Damping of long wave oscillations: 50 

Hamiltonian:
  XC and Coulomb potentials evaluated on a 120*70*54 grid
  Using the LDA Exchange-Correlation functional
 

Memory estimate:
  Process memory now: 13154.54 MiB
  Calculator: 354.82 MiB
    Density: 10.06 MiB
      Arrays: 3.79 MiB
      Localized functions: 4.71 MiB
      Mixer: 1.56 MiB
    Hamiltonian: 2.95 MiB
      Arrays: 2.82 MiB
      XC: 0.00 MiB
      Poisson: 0.00 MiB
      vbar: 0.14 MiB
    Wavefunctions: 341.80 MiB
      Arrays psit_nG: 311.46 MiB
      Eigensolver: 19.99 MiB
      Projections: 2.71 MiB
      Projectors: 4.87 MiB
      PW-descriptor: 2.77 MiB

Total number of cores used: 64
Parallelization over k-points: 16
Domain decomposition: 2 x 2 x 1

Number of atoms: 28
Number of atomic orbitals: 148
Number of bands in calculation: 112
Number of valence electrons: 180
Bands to converge: occupied

... initialized

Initializing position-dependent things.

Density initialized from atomic densities
Creating initial wave functions:
  112 bands from LCAO basis set

     .-------------------------.  
    /|         OP              |  
   / |O            O        O  |  
  /  |       O            O  P |  
 *   |O    Mn      O           |  
 |   |          OLi          O |  
 |   .P-O--------------Mn------.  
 |  /          Li    O  Mn  O /   
 | /Li O           PO        /    
 |/       Mn                /     
 *Li-----------------------*      

Positions:
   0 O     -1.360678   -2.541161   -1.202221    ( 0.0000,  0.0000,  0.0000)
   1 O     -3.121941    2.976855    1.167242    ( 0.0000,  0.0000,  0.0000)
   2 O      2.107533    0.508090    1.540712    ( 0.0000,  0.0000,  0.0000)
   3 O      3.869373   -0.072395   -0.828750    ( 0.0000,  0.0000,  0.0000)
   4 O      2.107821    2.976875    1.540792    ( 0.0000,  0.0000,  0.0000)
   5 O      3.869084   -2.541141   -0.828671    ( 0.0000,  0.0000,  0.0000)
   6 O     -1.360390   -0.072375   -1.202141    ( 0.0000,  0.0000,  0.0000)
   7 O     -3.122230    0.508109    1.167321    ( 0.0000,  0.0000,  0.0000)
   8 O     -4.413461   -1.306992   -0.794251    ( 0.0000,  0.0000,  0.0000)
   9 O     -0.069585    1.742707    1.575662    ( 0.0000,  0.0000,  0.0000)
  10 O      5.160604    1.742707    1.132822    ( 0.0000,  0.0000,  0.0000)
  11 O      0.816728   -1.306992   -1.237091    ( 0.0000,  0.0000,  0.0000)
  12 Mn    -2.570809   -1.307302    0.247161    ( 0.0000,  0.0000,  1.0000)
  13 Mn    -1.912021    1.743016   -2.122906    ( 0.0000,  0.0000, -1.0000)
  14 Mn     3.317952    1.743017    0.081411    ( 0.0000,  0.0000, -1.0000)
  15 Mn     2.659164   -1.307302    2.461478    ( 0.0000,  0.0000,  1.0000)
  16 P     -0.620664   -1.306816   -1.828465    ( 0.0000,  0.0000,  0.0000)
  17 P     -3.862097    1.742530    0.541238    ( 0.0000,  0.0000,  0.0000)
  18 P      1.367807    1.742530    2.167036    ( 0.0000,  0.0000,  0.0000)
  19 P      4.609240   -1.306816   -0.202666    ( 0.0000,  0.0000,  0.0000)
  20 O     -0.646437   -1.306845    1.374751    ( 0.0000,  0.0000,  0.0000)
  21 O     -3.836504    1.742559   -0.995565    ( 0.0000,  0.0000,  0.0000)
  22 O      1.393580    1.742559   -1.036179    ( 0.0000,  0.0000,  0.0000)
  23 O      4.583647   -1.306845    1.334136    ( 0.0000,  0.0000,  0.0000)
  24 Li    -4.856429   -2.832143   -2.200714    ( 0.0000,  0.0000,  0.0000)
  25 Li     0.373571   -2.832143    0.169286    ( 0.0000,  0.0000,  0.0000)
  26 Li    -4.856429    0.217857   -2.200714    ( 0.0000,  0.0000,  0.0000)
  27 Li     0.373571    0.217857    0.169286    ( 0.0000,  0.0000,  0.0000)

Unit cell:
           periodic     x           y           z      points  spacing
  1. axis:    yes   10.460000    0.000000    0.000000    60     0.1743
  2. axis:    yes    0.000000    6.100000    0.000000    35     0.1743
  3. axis:    yes    0.000000    0.000000    4.740000    27     0.1756

  Lengths:  10.460000   6.100000   4.740000
  Angles:   90.000000  90.000000  90.000000

Effective grid spacing dv^(1/3) = 0.1747

                     log10-error:           total        iterations:
           time      wfs    density  force  energy       poisson  magmom
iter:   1  23:17:49                       -231.921935             +0.0000
iter:   2  23:18:10  -0.55  -0.94         -231.739232             +0.0094
iter:   3  23:18:31  -0.72  -0.98         -220.608488             +0.0118
iter:   4  23:18:53  -0.94  -1.20         -218.909012             +0.0054
iter:   5  23:19:14  -1.93  -1.36         -222.274852             +0.0032
iter:   6  23:19:35  -1.98  -1.42         -220.970709             +0.0016
iter:   7  23:19:57  -2.02  -1.63         -224.388783             -0.0227
iter:   8  23:20:18  -2.12  -1.80         -226.045293             -1.0054
iter:   9  23:20:39  -2.60  -1.82         -226.758901             -0.3796
iter:  10  23:21:00  -1.67  -1.83         -226.654538             +0.0216
iter:  11  23:21:22  -2.89  -2.08         -226.539817             -0.0196
iter:  12  23:21:43  -2.15  -2.13         -226.262305             -0.0110
iter:  13  23:22:04  -2.67  -2.43         -226.313100             -0.0051
iter:  14  23:22:25  -2.96  -2.47         -226.236813             -0.0014
iter:  15  23:22:47  -2.98  -2.73         -226.242372             -0.0014
iter:  16  23:23:08  -3.52  -2.85         -226.228033             -0.0004
iter:  17  23:23:29  -4.17  -3.05         -226.229583             +0.0002
iter:  18  23:23:50  -4.90  -3.40         -226.228879             +0.0005
iter:  19  23:24:12  -4.29  -3.45         -226.227964             +0.0002
iter:  20  23:24:33  -5.31  -3.72         -226.227872             -0.0000
iter:  21  23:24:54  -4.93  -3.77         -226.228239             -0.0000
iter:  22  23:25:15  -5.56  -3.79         -226.227842             -0.0000
iter:  23  23:25:36  -5.68  -4.07         -226.227760             -0.0000
iter:  24  23:25:58  -6.17  -4.13         -226.227744             -0.0000
iter:  25  23:26:19  -7.00  -4.50         -226.227743             -0.0000
iter:  26  23:26:46  -7.65  -4.58         -226.227743             +0.0000
iter:  27  23:27:07  -7.15  -4.63         -226.227741             +0.0000
iter:  28  23:27:34  -7.54  -4.78    -2.48-226.227741             +0.0000
iter:  29  23:28:00  -8.51  -4.87    -3.34-226.227741             +0.0000
iter:  30  23:28:27  -8.42  -4.90    -2.82-226.227741             +0.0000
iter:  31  23:28:54  -8.50  -5.00    -2.98-226.227741             +0.0000
iter:  32  23:29:21  -8.64  -5.09    -3.37-226.227741             +0.0000
iter:  33  23:29:47  -8.89  -5.13    -3.46-226.227741             +0.0000
iter:  34  23:30:14  -8.40  -5.19    -2.90-226.227741             +0.0000
iter:  35  23:30:41  -8.80  -5.41    -3.25-226.227741             +0.0000
iter:  36  23:31:07  -9.52  -5.51    -3.83-226.227740             +0.0000
iter:  37  23:31:34  -8.81  -5.57    -3.40-226.227740             +0.0000
iter:  38  23:32:01  -9.52  -5.82    -3.63-226.227740             +0.0000
iter:  39  23:32:27 -10.07  -5.88    -3.73-226.227740             +0.0000
iter:  40  23:32:54 -10.35  -6.00    -3.79-226.227740             +0.0000
iter:  41  23:33:21 -10.19  -6.07    -4.25-226.227740             -0.0000
iter:  42  23:33:48 -10.17  -6.16    -3.93-226.227740             -0.0000
iter:  43  23:34:14 -10.83  -6.25    -4.35-226.227740             -0.0000
iter:  44  23:34:41 -11.53  -6.38    -4.82-226.227740             -0.0000
iter:  45  23:35:08 -10.28  -6.44    -3.99-226.227740             -0.0000
iter:  46  23:35:34 -11.45  -6.72    -4.74-226.227740             -0.0000
iter:  47  23:36:01 -11.35  -6.78    -4.37-226.227740             -0.0000
iter:  48  23:36:28 -11.97  -6.92    -4.80-226.227740             -0.0000
iter:  49  23:36:54 -11.80  -7.00    -4.78-226.227740             -0.0000
iter:  50  23:37:21 -12.19  -7.08    -4.76-226.227740             -0.0000
iter:  51  23:37:48 -12.86  -7.25    -5.42-226.227740             -0.0000
iter:  52  23:38:15 -13.59  -7.35    -5.89-226.227740             -0.0000
iter:  53  23:38:41 -12.93  -7.41    -5.35-226.227740             -0.0000
iter:  54  23:39:08 -12.66  -7.47    -5.39-226.227740             -0.0000
iter:  55  23:39:35 -13.60  -7.62    -5.50-226.227740             -0.0000
iter:  56  23:40:01 -13.95  -7.86    -6.06-226.227740             -0.0000

Converged after 56 iterations.

Dipole moment: (10.670735, 1.413431, -6.080033) |e|*Ang

Total magnetic moment: (0.000000, 0.000000, -0.000000)
Local magnetic moments:
   0 O  ( 0.000000,  0.000000, -0.000519)
   1 O  ( 0.000000,  0.000000,  0.000564)
   2 O  ( 0.000000,  0.000000,  0.000906)
   3 O  ( 0.000000,  0.000000, -0.000775)
   4 O  ( 0.000000,  0.000000,  0.000886)
   5 O  ( 0.000000,  0.000000, -0.000754)
   6 O  ( 0.000000,  0.000000, -0.000539)
   7 O  ( 0.000000,  0.000000,  0.000584)
   8 O  ( 0.000000,  0.000000,  0.028617)
   9 O  ( 0.000000,  0.000000, -0.028692)
  10 O  ( 0.000000,  0.000000, -0.028501)
  11 O  ( 0.000000,  0.000000,  0.028725)
  12 Mn ( 0.000000,  0.000000,  4.448152)
  13 Mn ( 0.000000,  0.000000, -4.448211)
  14 Mn ( 0.000000,  0.000000, -4.448250)
  15 Mn ( 0.000000,  0.000000,  4.448416)
  16 P  ( 0.000000,  0.000000,  0.001558)
  17 P  ( 0.000000,  0.000000, -0.001443)
  18 P  ( 0.000000,  0.000000, -0.001546)
  19 P  ( 0.000000,  0.000000,  0.001382)
  20 O  ( 0.000000,  0.000000,  0.025327)
  21 O  ( 0.000000,  0.000000, -0.025305)
  22 O  ( 0.000000,  0.000000, -0.025536)
  23 O  ( 0.000000,  0.000000,  0.025255)
  24 Li ( 0.000000,  0.000000,  0.000001)
  25 Li ( 0.000000,  0.000000,  0.000002)
  26 Li ( 0.000000,  0.000000,  0.000001)
  27 Li ( 0.000000,  0.000000,  0.000002)

Energy contributions relative to reference atoms: (reference = -196157.275402)

Kinetic:       +217.310363
Potential:     -195.205108
External:        +0.000000
XC:            -250.374268
Entropy (-ST):   -0.000000
Local:           +2.041273
--------------------------
Free energy:   -226.227740
Extrapolated:  -226.227740

Spin contamination: 9.560787 electrons
Showing only first 2 kpts
                      Up                     Down
 Kpt  Band  Eigenvalues  Occupancy  Eigenvalues  Occupancy
  0    88      5.11025    1.00000      5.11195    1.00000
  0    89      5.13480    1.00000      5.13647    1.00000
  0    90      7.28427    0.00000      7.28848    0.00000
  0    91      7.30475    0.00000      7.30618    0.00000

  1    88      5.13577    1.00000      5.13725    1.00000
  1    89      5.16504    1.00000      5.16597    1.00000
  1    90      7.22871    0.00000      7.23132    0.00000
  1    91      7.24302    0.00000      7.24342    0.00000


Fermi level: 6.51182

Gap: 1.969 eV
Transition (v -> c):
  (s=1, k=73, n=89, [0.08, -0.42, -0.12]) -> (s=0, k=57, n=90, [-0.08, -0.08, -0.12])
Writing to born-0.01-14z-.gpw (mode='all')

Timing:                              incl.     excl.
-----------------------------------------------------------
Hamiltonian:                         0.261     0.003   0.0% |
 Atomic:                             0.075     0.075   0.0% |
  XC Correction:                     0.000     0.000   0.0% |
 Calculate atomic Hamiltonians:      0.091     0.091   0.0% |
 Communicate:                        0.000     0.000   0.0% |
 Initialize Hamiltonian:             0.000     0.000   0.0% |
 Poisson:                            0.001     0.001   0.0% |
 XC 3D grid:                         0.091     0.091   0.0% |
LCAO initialization:                71.070     0.674   0.0% |
 LCAO eigensolver:                  18.051     0.002   0.0% |
  Calculate projections:             0.029     0.029   0.0% |
  DenseAtomicCorrection:             0.042     0.042   0.0% |
  Distribute overlap matrix:         0.005     0.005   0.0% |
  Orbital Layouts:                   0.282     0.282   0.0% |
  Potential matrix:                 17.606    17.606   0.5% |
  Sum over cells:                    0.084     0.084   0.0% |
 LCAO to grid:                      51.064    51.064   1.5% ||
 Set positions (LCAO WFS):           1.282     0.189   0.0% |
  Basic WFS set positions:           0.002     0.002   0.0% |
  Basis functions set positions:     0.000     0.000   0.0% |
  P tci:                             0.513     0.513   0.0% |
  ST tci:                            0.367     0.367   0.0% |
  mktci:                             0.211     0.211   0.0% |
PWDescriptor:                        0.025     0.025   0.0% |
SCF-cycle:                        1354.951     5.196   0.2% |
 Davidson:                        1124.311   360.738  10.6% |---|
  Apply H:                          74.658    72.446   2.1% ||
   HMM T:                            2.212     2.212   0.1% |
  Subspace diag:                   161.258     0.165   0.0% |
   calc_h_matrix:                  102.669    28.143   0.8% |
    Apply H:                        74.526    72.366   2.1% ||
     HMM T:                          2.160     2.160   0.1% |
   diagonalize:                      5.743     5.743   0.2% |
   rotate_psi:                      52.681    52.681   1.5% ||
  calc. matrices:                  335.866   187.987   5.5% |-|
   Apply H:                        147.879   143.539   4.2% |-|
    HMM T:                           4.340     4.340   0.1% |
  diagonalize:                      86.785    86.785   2.5% ||
  rotate_psi:                      105.006   105.006   3.1% ||
 Density:                           44.574     0.001   0.0% |
  Atomic density matrices:           0.725     0.725   0.0% |
  Mix:                               7.630     7.630   0.2% |
  Multipole moments:                 0.020     0.020   0.0% |
  Pseudo density:                   36.199    36.197   1.1% |
   Symmetrize density:               0.001     0.001   0.0% |
 Forces:                           164.905   164.905   4.8% |-|
 Hamiltonian:                       13.657     0.115   0.0% |
  Atomic:                            3.099     3.099   0.1% |
   XC Correction:                    0.000     0.000   0.0% |
  Calculate atomic Hamiltonians:     5.279     5.279   0.2% |
  Communicate:                       0.008     0.008   0.0% |
  Poisson:                           0.050     0.050   0.0% |
  XC 3D grid:                        5.106     5.106   0.1% |
 Orthonormalize:                     2.308     0.003   0.0% |
  calc_s_matrix:                     0.266     0.266   0.0% |
  inverse-cholesky:                  0.041     0.041   0.0% |
  projections:                       1.506     1.506   0.0% |
  rotate_psi_s:                      0.492     0.492   0.0% |
Set symmetry:                        0.000     0.000   0.0% |
Other:                            1989.451  1989.451  58.2% |----------------------|
-----------------------------------------------------------
Total:                                      3415.758 100.0%

Memory usage: 12.86 GiB
Date: Wed Mar 31 00:13:10 2021
