
  ___ ___ ___ _ _ _  
 |   |   |_  | | | | 
 | | | | | . | | | | 
 |__ |  _|___|_____|  21.1.1b1
 |___|_|             

User:   madkru@g043.nifl.fysik.dtu.dk
Date:   Tue Mar 30 18:06:51 2021
Arch:   x86_64
Pid:    39387
Python: 3.8.6
gpaw:   /home/niflheim/madkru/venv_madkru/gpaw/gpaw (e6f0d78a31)
_gpaw:  /home/niflheim/madkru/venv_madkru/gpaw/build/lib.linux-x86_64-sandybridge-3.8/
        _gpaw.cpython-38-x86_64-linux-gnu.so (e6f0d78a31)
ase:    /home/niflheim/madkru/venv_madkru/ase/ase (version 3.22.0b1-4d5a73cb29)
numpy:  /home/modules/software/SciPy-bundle/2020.11-foss-2020b/lib/python3.8/site-packages/numpy (version 1.19.4)
scipy:  /home/modules/software/SciPy-bundle/2020.11-foss-2020b/lib/python3.8/site-packages/scipy (version 1.5.4)
libxc:  4.3.4
units:  Angstrom and eV
cores: 64
OpenMP: False
OMP_NUM_THREADS: 1

Input parameters:
  convergence: {bands: occupied,
                density: 0.0001,
                eigenstates: 4e-08,
                energy: 0.0005,
                forces: 1e-06}
  kpts: [6 6 4]
  maxiter: 1000
  mode: {ecut: 600.0,
         gammacentered: False,
         name: pw}
  occupations: {fixmagmom: False,
                name: fermi-dirac,
                width: 0.001}
  symmetry: {point_group: False,
             time_reversal: False}

System changes: positions, numbers, cell, pbc, initial_charges, initial_magmoms 

Initialize ...

O-setup:
  name: Oxygen
  id: 9b9d51c344dea68c822856295a461509
  Z: 8.0
  valence: 6
  core: 2
  charge: 0.0
  file: /home/modules/software/GPAW-setups/0.9.20000/O.LDA.gz
  compensation charges: gauss, rc=0.21, lmax=2
  cutoffs: 1.17(filt), 0.83(core),
  valence states:
                energy  radius
    2s(2.00)   -23.752   0.688
    2p(4.00)    -9.195   0.598
    *s           3.459   0.688
    *p          18.016   0.598
    *d           0.000   0.619

  Using partial waves for O as LCAO basis

Mn-setup:
  name: Manganese
  id: 0d715a8018be061a6e9ea6f2d364ac92
  Z: 25.0
  valence: 15
  core: 10
  charge: 0.0
  file: /home/modules/software/GPAW-setups/0.9.20000/Mn.LDA.gz
  compensation charges: gauss, rc=0.38, lmax=2
  cutoffs: 2.14(filt), 0.86(core),
  valence states:
                energy  radius
    3s(2.00)   -85.387   1.275
    4s(2.00)    -5.282   1.275
    3p(6.00)   -54.493   1.281
    4p(0.00)    -1.471   1.281
    3d(5.00)    -7.009   1.138
    *d          20.203   1.138

  Using partial waves for Mn as LCAO basis

P-setup:
  name: Phosphorus
  id: a5561c299094968922a179ab894d2e2d
  Z: 15.0
  valence: 5
  core: 10
  charge: 0.0
  file: /home/modules/software/GPAW-setups/0.9.20000/P.LDA.gz
  compensation charges: gauss, rc=0.30, lmax=2
  cutoffs: 1.69(filt), 1.81(core),
  valence states:
                energy  radius
    3s(2.00)   -14.015   0.953
    3p(3.00)    -5.596   0.953
    *s          13.197   0.953
    *p          21.615   0.953
    *d           0.000   0.953

  Using partial waves for P as LCAO basis

Li-setup:
  name: Lithium
  id: b73562207f97a71b6967473b66fe8b65
  Z: 3.0
  valence: 1
  core: 2
  charge: 0.0
  file: /home/modules/software/GPAW-setups/0.9.20000/Li.LDA.gz
  compensation charges: gauss, rc=0.33, lmax=2
  cutoffs: 1.91(filt), 2.55(core),
  valence states:
                energy  radius
    2s(1.00)    -2.874   1.058
    2p(0.00)    -1.126   1.058
    *s          24.338   1.058

  Using partial waves for Li as LCAO basis

Reference energy: -196157.275402

Spin-polarized calculation.
Magnetic moment: 0.000000

Convergence criteria:
  Maximum total energy change: 0.0005 eV / electron
  Maximum integral of absolute density change: 0.0001 electrons
  Maximum integral of absolute eigenstate change: 4e-08 eV^2
  Maximum change in atomic force: 1e-06 eV / Ang
  Maximum number of iterations: 1000

Symmetries present (total): 1

  ( 1  0  0)
  ( 0  1  0)
  ( 0  0  1)

144 k-points: 6 x 6 x 4 Monkhorst-Pack grid
144 k-points in the irreducible part of the Brillouin zone
       k-points in crystal coordinates                weights
   0:    -0.41666667   -0.41666667   -0.37500000          1/144
   1:    -0.41666667   -0.41666667   -0.12500000          1/144
   2:    -0.41666667   -0.41666667    0.12500000          1/144
   3:    -0.41666667   -0.41666667    0.37500000          1/144
   4:    -0.41666667   -0.25000000   -0.37500000          1/144
   5:    -0.41666667   -0.25000000   -0.12500000          1/144
   6:    -0.41666667   -0.25000000    0.12500000          1/144
   7:    -0.41666667   -0.25000000    0.37500000          1/144
   8:    -0.41666667   -0.08333333   -0.37500000          1/144
   9:    -0.41666667   -0.08333333   -0.12500000          1/144
          ...
 143:     0.41666667    0.41666667    0.37500000          1/144

Wave functions: Plane wave expansion
  Cutoff energy: 600.000 eV
  Number of coefficients (min, max): 10068, 10125
  Pulay-stress correction: 0.000000 eV/Ang^3 (de/decut=0.000000)
  Using FFTW library
  ScaLapack parameters: grid=1x1, blocksize=None
  Wavefunction extrapolation:
    Improved wavefunction reuse through dual PAW basis 

  Fermi-Dirac: width=0.0010 eV

Eigensolver
   Davidson(niter=2) 

Densities:
  Coarse grid: 60*35*27 grid
  Fine grid: 120*70*54 grid
  Total Charge: 0.000000 

Density mixing:
  Method: difference
  Backend: pulay
  Linear mixing parameter: 0.05
  Mixing with 5 old densities
  Damping of long wave oscillations: 50 

Hamiltonian:
  XC and Coulomb potentials evaluated on a 120*70*54 grid
  Using the LDA Exchange-Correlation functional
 

Memory estimate:
  Process memory now: 12914.01 MiB
  Calculator: 354.82 MiB
    Density: 10.06 MiB
      Arrays: 3.79 MiB
      Localized functions: 4.71 MiB
      Mixer: 1.56 MiB
    Hamiltonian: 2.95 MiB
      Arrays: 2.82 MiB
      XC: 0.00 MiB
      Poisson: 0.00 MiB
      vbar: 0.14 MiB
    Wavefunctions: 341.80 MiB
      Arrays psit_nG: 311.46 MiB
      Eigensolver: 19.99 MiB
      Projections: 2.71 MiB
      Projectors: 4.87 MiB
      PW-descriptor: 2.77 MiB

Total number of cores used: 64
Parallelization over k-points: 16
Domain decomposition: 2 x 2 x 1

Number of atoms: 28
Number of atomic orbitals: 148
Number of bands in calculation: 112
Number of valence electrons: 180
Bands to converge: occupied

... initialized

Initializing position-dependent things.

Density initialized from atomic densities
Creating initial wave functions:
  112 bands from LCAO basis set

     .-------------------------.  
    /|         OP              |  
   / |O            O        O  |  
  /  |       O            O  P |  
 *   |O    Mn      O           |  
 |   |          OLi          O |  
 |   .P-O--------------Mn------.  
 |  /          Li    O  Mn  O /   
 | /Li O           PO        /    
 |/       Mn                /     
 *Li-----------------------*      

Positions:
   0 O     -1.360678   -2.541161   -1.202221    ( 0.0000,  0.0000,  0.0000)
   1 O     -3.121941    2.976855    1.167242    ( 0.0000,  0.0000,  0.0000)
   2 O      2.107533    0.508090    1.540712    ( 0.0000,  0.0000,  0.0000)
   3 O      3.869373   -0.072395   -0.828750    ( 0.0000,  0.0000,  0.0000)
   4 O      2.107821    2.976875    1.540792    ( 0.0000,  0.0000,  0.0000)
   5 O      3.869084   -2.541141   -0.828671    ( 0.0000,  0.0000,  0.0000)
   6 O     -1.360390   -0.072375   -1.202141    ( 0.0000,  0.0000,  0.0000)
   7 O     -3.122230    0.508109    1.167321    ( 0.0000,  0.0000,  0.0000)
   8 O     -4.413461   -1.306992   -0.794251    ( 0.0000,  0.0000,  0.0000)
   9 O     -0.069585    1.742707    1.575662    ( 0.0000,  0.0000,  0.0000)
  10 O      5.160604    1.742707    1.132822    ( 0.0000,  0.0000,  0.0000)
  11 O      0.816728   -1.306992   -1.237091    ( 0.0000,  0.0000,  0.0000)
  12 Mn    -2.570809   -1.307302    0.247161    ( 0.0000,  0.0000,  1.0000)
  13 Mn    -1.902021    1.743016   -2.122906    ( 0.0000,  0.0000, -1.0000)
  14 Mn     3.317952    1.743017    0.091411    ( 0.0000,  0.0000, -1.0000)
  15 Mn     2.659164   -1.307302    2.461478    ( 0.0000,  0.0000,  1.0000)
  16 P     -0.620664   -1.306816   -1.828465    ( 0.0000,  0.0000,  0.0000)
  17 P     -3.862097    1.742530    0.541238    ( 0.0000,  0.0000,  0.0000)
  18 P      1.367807    1.742530    2.167036    ( 0.0000,  0.0000,  0.0000)
  19 P      4.609240   -1.306816   -0.202666    ( 0.0000,  0.0000,  0.0000)
  20 O     -0.646437   -1.306845    1.374751    ( 0.0000,  0.0000,  0.0000)
  21 O     -3.836504    1.742559   -0.995565    ( 0.0000,  0.0000,  0.0000)
  22 O      1.393580    1.742559   -1.036179    ( 0.0000,  0.0000,  0.0000)
  23 O      4.583647   -1.306845    1.334136    ( 0.0000,  0.0000,  0.0000)
  24 Li    -4.856429   -2.832143   -2.200714    ( 0.0000,  0.0000,  0.0000)
  25 Li     0.373571   -2.832143    0.169286    ( 0.0000,  0.0000,  0.0000)
  26 Li    -4.856429    0.217857   -2.200714    ( 0.0000,  0.0000,  0.0000)
  27 Li     0.373571    0.217857    0.169286    ( 0.0000,  0.0000,  0.0000)

Unit cell:
           periodic     x           y           z      points  spacing
  1. axis:    yes   10.460000    0.000000    0.000000    60     0.1743
  2. axis:    yes    0.000000    6.100000    0.000000    35     0.1743
  3. axis:    yes    0.000000    0.000000    4.740000    27     0.1756

  Lengths:  10.460000   6.100000   4.740000
  Angles:   90.000000  90.000000  90.000000

Effective grid spacing dv^(1/3) = 0.1747

                     log10-error:           total        iterations:
           time      wfs    density  force  energy       poisson  magmom
iter:   1  18:08:27                       -231.919099             +0.0000
iter:   2  18:08:48  -0.55  -0.94         -231.743328             +0.0051
iter:   3  18:09:09  -0.72  -0.98         -220.597396             +0.0064
iter:   4  18:09:30  -0.94  -1.20         -218.893037             +0.0026
iter:   5  18:09:52  -1.94  -1.36         -222.244861             +0.0016
iter:   6  18:10:13  -2.00  -1.41         -221.620578             +0.0053
iter:   7  18:10:34  -1.83  -1.58         -224.802575             +0.2038
iter:   8  18:10:56  -2.34  -1.64         -224.969992             -1.0587
iter:   9  18:11:17  -2.65  -1.83         -226.260191             -1.1344
iter:  10  18:11:38  -2.59  -1.82         -227.015276             -0.3648
iter:  11  18:11:59  -2.82  -1.81         -227.074251             -0.0925
iter:  12  18:12:21  -1.53  -1.75         -227.298871             -0.0111
iter:  13  18:12:42  -2.65  -1.94         -226.831936             -0.0277
iter:  14  18:13:03  -3.04  -2.07         -226.737516             -0.0093
iter:  15  18:13:24  -2.06  -2.16         -226.268750             +0.0002
iter:  16  18:13:46  -2.91  -2.51         -226.278157             -0.0017
iter:  17  18:14:07  -3.76  -2.59         -226.259153             -0.0022
iter:  18  18:14:28  -2.80  -2.63         -226.249652             -0.0006
iter:  19  18:14:49  -3.69  -2.83         -226.233635             -0.0008
iter:  20  18:15:10  -3.51  -2.99         -226.228323             +0.0000
iter:  21  18:15:32  -4.12  -3.01         -226.231917             -0.0001
iter:  22  18:15:53  -4.25  -3.10         -226.231048             -0.0000
iter:  23  18:16:14  -4.76  -3.32         -226.228466             -0.0000
iter:  24  18:16:35  -4.76  -3.36         -226.227823             -0.0000
iter:  25  18:16:57  -5.39  -3.72         -226.227602             -0.0000
iter:  26  18:17:18  -6.17  -4.04         -226.227618             -0.0000
iter:  27  18:17:39  -6.60  -4.09         -226.227599             +0.0000
iter:  28  18:18:00  -5.76  -4.20         -226.227609             +0.0000
iter:  29  18:18:21  -6.96  -4.28         -226.227599             +0.0000
iter:  30  18:18:43  -6.00  -4.36         -226.227592             +0.0000
iter:  31  18:19:04  -6.65  -4.45         -226.227578             +0.0000
iter:  32  18:19:31  -8.01  -4.76         -226.227578             +0.0000
iter:  33  18:19:57  -8.07  -4.79    -2.82-226.227578             -0.0000
iter:  34  18:20:18  -7.34  -4.84         -226.227578             +0.0000
iter:  35  18:20:45  -8.14  -5.03    -2.38-226.227576             -0.0000
iter:  36  18:21:12  -8.24  -5.13    -2.94-226.227576             -0.0000
iter:  37  18:21:39  -8.57  -5.18    -3.08-226.227576             -0.0000
iter:  38  18:22:05  -7.84  -5.32    -2.71-226.227576             -0.0000
iter:  39  18:22:32  -8.92  -5.50    -3.23-226.227576             -0.0000
iter:  40  18:22:59  -9.38  -5.85    -3.55-226.227576             +0.0000
iter:  41  18:23:25  -9.71  -5.94    -3.74-226.227576             +0.0000
iter:  42  18:23:52 -10.20  -6.04    -3.96-226.227576             +0.0000
iter:  43  18:24:19  -9.78  -6.11    -3.91-226.227576             +0.0000
iter:  44  18:24:46 -10.08  -6.23    -3.84-226.227576             +0.0000
iter:  45  18:25:12 -10.87  -6.47    -4.38-226.227576             +0.0000
iter:  46  18:25:39 -11.67  -6.59    -4.79-226.227576             +0.0000
iter:  47  18:26:06 -11.45  -6.63    -4.48-226.227576             -0.0000
iter:  48  18:26:32 -11.17  -6.69    -4.48-226.227576             +0.0000
iter:  49  18:26:59 -12.30  -6.71    -4.97-226.227576             +0.0000
iter:  50  18:27:26 -11.33  -6.83    -4.53-226.227576             +0.0000
iter:  51  18:27:53 -11.62  -7.10    -4.62-226.227576             +0.0000
iter:  52  18:28:19 -12.77  -7.30    -5.59-226.227576             +0.0000
iter:  53  18:28:46 -12.67  -7.35    -5.22-226.227576             +0.0000
iter:  54  18:29:13 -12.96  -7.46    -5.24-226.227576             +0.0000
iter:  55  18:29:39 -12.87  -7.59    -5.19-226.227576             +0.0000
iter:  56  18:30:06 -13.66  -7.66    -5.45-226.227576             +0.0000
iter:  57  18:30:33 -13.50  -7.80    -5.48-226.227576             +0.0000
iter:  58  18:30:59 -13.94  -7.95    -5.76-226.227576             +0.0000
iter:  59  18:31:26 -14.93  -8.35    -6.46-226.227576             +0.0000

Converged after 59 iterations.

Dipole moment: (10.683609, 1.412529, -6.270140) |e|*Ang

Total magnetic moment: (0.000000, 0.000000, 0.000000)
Local magnetic moments:
   0 O  ( 0.000000,  0.000000, -0.000757)
   1 O  ( 0.000000,  0.000000,  0.000889)
   2 O  ( 0.000000,  0.000000,  0.000515)
   3 O  ( 0.000000,  0.000000, -0.000532)
   4 O  ( 0.000000,  0.000000,  0.000495)
   5 O  ( 0.000000,  0.000000, -0.000512)
   6 O  ( 0.000000,  0.000000, -0.000777)
   7 O  ( 0.000000,  0.000000,  0.000909)
   8 O  ( 0.000000,  0.000000,  0.028722)
   9 O  ( 0.000000,  0.000000, -0.029149)
  10 O  ( 0.000000,  0.000000, -0.028761)
  11 O  ( 0.000000,  0.000000,  0.028681)
  12 Mn ( 0.000000,  0.000000,  4.448333)
  13 Mn ( 0.000000,  0.000000, -4.447888)
  14 Mn ( 0.000000,  0.000000, -4.448190)
  15 Mn ( 0.000000,  0.000000,  4.448230)
  16 P  ( 0.000000,  0.000000,  0.001513)
  17 P  ( 0.000000,  0.000000, -0.001377)
  18 P  ( 0.000000,  0.000000, -0.001685)
  19 P  ( 0.000000,  0.000000,  0.001548)
  20 O  ( 0.000000,  0.000000,  0.025259)
  21 O  ( 0.000000,  0.000000, -0.024935)
  22 O  ( 0.000000,  0.000000, -0.025287)
  23 O  ( 0.000000,  0.000000,  0.025337)
  24 Li ( 0.000000,  0.000000, -0.000002)
  25 Li ( 0.000000,  0.000000, -0.000010)
  26 Li ( 0.000000,  0.000000, -0.000002)
  27 Li ( 0.000000,  0.000000, -0.000010)

Energy contributions relative to reference atoms: (reference = -196157.275402)

Kinetic:       +217.357386
Potential:     -195.246308
External:        +0.000000
XC:            -250.379730
Entropy (-ST):   -0.000000
Local:           +2.041077
--------------------------
Free energy:   -226.227576
Extrapolated:  -226.227576

Spin contamination: 9.560809 electrons
Showing only first 2 kpts
                      Up                     Down
 Kpt  Band  Eigenvalues  Occupancy  Eigenvalues  Occupancy
  0    88      5.10990    1.00000      5.11241    1.00000
  0    89      5.13609    1.00000      5.13605    1.00000
  0    90      7.28796    0.00000      7.28900    0.00000
  0    91      7.30533    0.00000      7.30684    0.00000

  1    88      5.13571    1.00000      5.13780    1.00000
  1    89      5.16637    1.00000      5.16633    1.00000
  1    90      7.23022    0.00000      7.23172    0.00000
  1    91      7.24205    0.00000      7.24446    0.00000


Fermi level: 5.43549

Gap: 1.967 eV
Transition (v -> c):
  (s=1, k=73, n=89, [0.08, -0.42, -0.12]) -> (s=0, k=58, n=90, [-0.08, -0.08, 0.12])
Writing to born-0.01-13x+.gpw (mode='all')

Timing:                              incl.     excl.
-----------------------------------------------------------
Hamiltonian:                         0.267     0.003   0.0% |
 Atomic:                             0.079     0.079   0.0% |
  XC Correction:                     0.000     0.000   0.0% |
 Calculate atomic Hamiltonians:      0.093     0.093   0.0% |
 Communicate:                        0.000     0.000   0.0% |
 Initialize Hamiltonian:             0.000     0.000   0.0% |
 Poisson:                            0.001     0.001   0.0% |
 XC 3D grid:                         0.091     0.091   0.0% |
LCAO initialization:                69.335     0.675   0.0% |
 LCAO eigensolver:                  17.971     0.003   0.0% |
  Calculate projections:             0.029     0.029   0.0% |
  DenseAtomicCorrection:             0.043     0.043   0.0% |
  Distribute overlap matrix:         0.009     0.009   0.0% |
  Orbital Layouts:                   0.277     0.277   0.0% |
  Potential matrix:                 17.524    17.524   0.5% |
  Sum over cells:                    0.086     0.086   0.0% |
 LCAO to grid:                      49.379    49.379   1.3% ||
 Set positions (LCAO WFS):           1.309     0.181   0.0% |
  Basic WFS set positions:           0.001     0.001   0.0% |
  Basis functions set positions:     0.000     0.000   0.0% |
  P tci:                             0.517     0.517   0.0% |
  ST tci:                            0.369     0.369   0.0% |
  mktci:                             0.241     0.241   0.0% |
PWDescriptor:                        0.025     0.025   0.0% |
SCF-cycle:                        1403.963     7.049   0.2% |
 Davidson:                        1184.808   380.089  10.2% |---|
  Apply H:                          78.829    76.370   2.1% ||
   HMM T:                            2.460     2.460   0.1% |
  Subspace diag:                   169.631     0.175   0.0% |
   calc_h_matrix:                  107.973    29.641   0.8% |
    Apply H:                        78.332    76.018   2.0% ||
     HMM T:                          2.314     2.314   0.1% |
   diagonalize:                      5.968     5.968   0.2% |
   rotate_psi:                      55.515    55.515   1.5% ||
  calc. matrices:                  354.171   197.918   5.3% |-|
   Apply H:                        156.253   151.483   4.1% |-|
    HMM T:                           4.770     4.770   0.1% |
  diagonalize:                      91.468    91.468   2.5% ||
  rotate_psi:                      110.620   110.620   3.0% ||
 Density:                           46.920     0.001   0.0% |
  Atomic density matrices:           0.780     0.780   0.0% |
  Mix:                               8.032     8.032   0.2% |
  Multipole moments:                 0.022     0.022   0.0% |
  Pseudo density:                   38.086    38.084   1.0% |
   Symmetrize density:               0.002     0.002   0.0% |
 Forces:                           148.392   148.392   4.0% |-|
 Hamiltonian:                       14.492     0.127   0.0% |
  Atomic:                            3.403     3.402   0.1% |
   XC Correction:                    0.000     0.000   0.0% |
  Calculate atomic Hamiltonians:     5.537     5.537   0.1% |
  Communicate:                       0.015     0.015   0.0% |
  Poisson:                           0.052     0.052   0.0% |
  XC 3D grid:                        5.358     5.358   0.1% |
 Orthonormalize:                     2.301     0.003   0.0% |
  calc_s_matrix:                     0.267     0.267   0.0% |
  inverse-cholesky:                  0.040     0.040   0.0% |
  projections:                       1.505     1.505   0.0% |
  rotate_psi_s:                      0.486     0.486   0.0% |
Set symmetry:                        0.000     0.000   0.0% |
Other:                            2250.294  2250.294  60.4% |-----------------------|
-----------------------------------------------------------
Total:                                      3723.884 100.0%

Memory usage: 12.63 GiB
Date: Tue Mar 30 19:08:55 2021
