
  ___ ___ ___ _ _ _  
 |   |   |_  | | | | 
 | | | | | . | | | | 
 |__ |  _|___|_____|  21.1.1b1
 |___|_|             

User:   madkru@g043.nifl.fysik.dtu.dk
Date:   Wed Mar 31 03:43:03 2021
Arch:   x86_64
Pid:    39387
Python: 3.8.6
gpaw:   /home/niflheim/madkru/venv_madkru/gpaw/gpaw (e6f0d78a31)
_gpaw:  /home/niflheim/madkru/venv_madkru/gpaw/build/lib.linux-x86_64-sandybridge-3.8/
        _gpaw.cpython-38-x86_64-linux-gnu.so (e6f0d78a31)
ase:    /home/niflheim/madkru/venv_madkru/ase/ase (version 3.22.0b1-4d5a73cb29)
numpy:  /home/modules/software/SciPy-bundle/2020.11-foss-2020b/lib/python3.8/site-packages/numpy (version 1.19.4)
scipy:  /home/modules/software/SciPy-bundle/2020.11-foss-2020b/lib/python3.8/site-packages/scipy (version 1.5.4)
libxc:  4.3.4
units:  Angstrom and eV
cores: 64
OpenMP: False
OMP_NUM_THREADS: 1

Input parameters:
  convergence: {bands: occupied,
                density: 0.0001,
                eigenstates: 4e-08,
                energy: 0.0005,
                forces: 1e-06}
  kpts: [6 6 4]
  maxiter: 1000
  mode: {ecut: 600.0,
         gammacentered: False,
         name: pw}
  occupations: {fixmagmom: False,
                name: fermi-dirac,
                width: 0.001}
  symmetry: {point_group: False,
             time_reversal: False}

System changes: positions, numbers, cell, pbc, initial_charges, initial_magmoms 

Initialize ...

O-setup:
  name: Oxygen
  id: 9b9d51c344dea68c822856295a461509
  Z: 8.0
  valence: 6
  core: 2
  charge: 0.0
  file: /home/modules/software/GPAW-setups/0.9.20000/O.LDA.gz
  compensation charges: gauss, rc=0.21, lmax=2
  cutoffs: 1.17(filt), 0.83(core),
  valence states:
                energy  radius
    2s(2.00)   -23.752   0.688
    2p(4.00)    -9.195   0.598
    *s           3.459   0.688
    *p          18.016   0.598
    *d           0.000   0.619

  Using partial waves for O as LCAO basis

Mn-setup:
  name: Manganese
  id: 0d715a8018be061a6e9ea6f2d364ac92
  Z: 25.0
  valence: 15
  core: 10
  charge: 0.0
  file: /home/modules/software/GPAW-setups/0.9.20000/Mn.LDA.gz
  compensation charges: gauss, rc=0.38, lmax=2
  cutoffs: 2.14(filt), 0.86(core),
  valence states:
                energy  radius
    3s(2.00)   -85.387   1.275
    4s(2.00)    -5.282   1.275
    3p(6.00)   -54.493   1.281
    4p(0.00)    -1.471   1.281
    3d(5.00)    -7.009   1.138
    *d          20.203   1.138

  Using partial waves for Mn as LCAO basis

P-setup:
  name: Phosphorus
  id: a5561c299094968922a179ab894d2e2d
  Z: 15.0
  valence: 5
  core: 10
  charge: 0.0
  file: /home/modules/software/GPAW-setups/0.9.20000/P.LDA.gz
  compensation charges: gauss, rc=0.30, lmax=2
  cutoffs: 1.69(filt), 1.81(core),
  valence states:
                energy  radius
    3s(2.00)   -14.015   0.953
    3p(3.00)    -5.596   0.953
    *s          13.197   0.953
    *p          21.615   0.953
    *d           0.000   0.953

  Using partial waves for P as LCAO basis

Li-setup:
  name: Lithium
  id: b73562207f97a71b6967473b66fe8b65
  Z: 3.0
  valence: 1
  core: 2
  charge: 0.0
  file: /home/modules/software/GPAW-setups/0.9.20000/Li.LDA.gz
  compensation charges: gauss, rc=0.33, lmax=2
  cutoffs: 1.91(filt), 2.55(core),
  valence states:
                energy  radius
    2s(1.00)    -2.874   1.058
    2p(0.00)    -1.126   1.058
    *s          24.338   1.058

  Using partial waves for Li as LCAO basis

Reference energy: -196157.275402

Spin-polarized calculation.
Magnetic moment: 0.000000

Convergence criteria:
  Maximum total energy change: 0.0005 eV / electron
  Maximum integral of absolute density change: 0.0001 electrons
  Maximum integral of absolute eigenstate change: 4e-08 eV^2
  Maximum change in atomic force: 1e-06 eV / Ang
  Maximum number of iterations: 1000

Symmetries present (total): 1

  ( 1  0  0)
  ( 0  1  0)
  ( 0  0  1)

144 k-points: 6 x 6 x 4 Monkhorst-Pack grid
144 k-points in the irreducible part of the Brillouin zone
       k-points in crystal coordinates                weights
   0:    -0.41666667   -0.41666667   -0.37500000          1/144
   1:    -0.41666667   -0.41666667   -0.12500000          1/144
   2:    -0.41666667   -0.41666667    0.12500000          1/144
   3:    -0.41666667   -0.41666667    0.37500000          1/144
   4:    -0.41666667   -0.25000000   -0.37500000          1/144
   5:    -0.41666667   -0.25000000   -0.12500000          1/144
   6:    -0.41666667   -0.25000000    0.12500000          1/144
   7:    -0.41666667   -0.25000000    0.37500000          1/144
   8:    -0.41666667   -0.08333333   -0.37500000          1/144
   9:    -0.41666667   -0.08333333   -0.12500000          1/144
          ...
 143:     0.41666667    0.41666667    0.37500000          1/144

Wave functions: Plane wave expansion
  Cutoff energy: 600.000 eV
  Number of coefficients (min, max): 10068, 10125
  Pulay-stress correction: 0.000000 eV/Ang^3 (de/decut=0.000000)
  Using FFTW library
  ScaLapack parameters: grid=1x1, blocksize=None
  Wavefunction extrapolation:
    Improved wavefunction reuse through dual PAW basis 

  Fermi-Dirac: width=0.0010 eV

Eigensolver
   Davidson(niter=2) 

Densities:
  Coarse grid: 60*35*27 grid
  Fine grid: 120*70*54 grid
  Total Charge: 0.000000 

Density mixing:
  Method: difference
  Backend: pulay
  Linear mixing parameter: 0.05
  Mixing with 5 old densities
  Damping of long wave oscillations: 50 

Hamiltonian:
  XC and Coulomb potentials evaluated on a 120*70*54 grid
  Using the LDA Exchange-Correlation functional
 

Memory estimate:
  Process memory now: 13372.30 MiB
  Calculator: 354.82 MiB
    Density: 10.06 MiB
      Arrays: 3.79 MiB
      Localized functions: 4.71 MiB
      Mixer: 1.56 MiB
    Hamiltonian: 2.95 MiB
      Arrays: 2.82 MiB
      XC: 0.00 MiB
      Poisson: 0.00 MiB
      vbar: 0.14 MiB
    Wavefunctions: 341.80 MiB
      Arrays psit_nG: 311.46 MiB
      Eigensolver: 19.99 MiB
      Projections: 2.71 MiB
      Projectors: 4.87 MiB
      PW-descriptor: 2.77 MiB

Total number of cores used: 64
Parallelization over k-points: 16
Domain decomposition: 2 x 2 x 1

Number of atoms: 28
Number of atomic orbitals: 148
Number of bands in calculation: 112
Number of valence electrons: 180
Bands to converge: occupied

... initialized

Initializing position-dependent things.

Density initialized from atomic densities
Creating initial wave functions:
  112 bands from LCAO basis set

     .-------------------------.  
    /|         OP              |  
   / |O            O        O  |  
  /  |       O            O  P |  
 *   |O    Mn      O           |  
 |   |          OLi          O |  
 |   .P-O--------------Mn------.  
 |  /          Li    O  Mn  O /   
 | /Li O           PO        /    
 |/       Mn                /     
 *Li-----------------------*      

Positions:
   0 O     -1.360678   -2.541161   -1.202221    ( 0.0000,  0.0000,  0.0000)
   1 O     -3.121941    2.976855    1.167242    ( 0.0000,  0.0000,  0.0000)
   2 O      2.107533    0.508090    1.540712    ( 0.0000,  0.0000,  0.0000)
   3 O      3.869373   -0.072395   -0.828750    ( 0.0000,  0.0000,  0.0000)
   4 O      2.107821    2.976875    1.540792    ( 0.0000,  0.0000,  0.0000)
   5 O      3.869084   -2.541141   -0.828671    ( 0.0000,  0.0000,  0.0000)
   6 O     -1.360390   -0.072375   -1.202141    ( 0.0000,  0.0000,  0.0000)
   7 O     -3.122230    0.508109    1.167321    ( 0.0000,  0.0000,  0.0000)
   8 O     -4.413461   -1.306992   -0.794251    ( 0.0000,  0.0000,  0.0000)
   9 O     -0.069585    1.742707    1.575662    ( 0.0000,  0.0000,  0.0000)
  10 O      5.160604    1.742707    1.132822    ( 0.0000,  0.0000,  0.0000)
  11 O      0.816728   -1.306992   -1.237091    ( 0.0000,  0.0000,  0.0000)
  12 Mn    -2.570809   -1.307302    0.247161    ( 0.0000,  0.0000,  1.0000)
  13 Mn    -1.912021    1.743016   -2.122906    ( 0.0000,  0.0000, -1.0000)
  14 Mn     3.317952    1.743017    0.091411    ( 0.0000,  0.0000, -1.0000)
  15 Mn     2.659164   -1.307302    2.461478    ( 0.0000,  0.0000,  1.0000)
  16 P     -0.630664   -1.306816   -1.828465    ( 0.0000,  0.0000,  0.0000)
  17 P     -3.862097    1.742530    0.541238    ( 0.0000,  0.0000,  0.0000)
  18 P      1.367807    1.742530    2.167036    ( 0.0000,  0.0000,  0.0000)
  19 P      4.609240   -1.306816   -0.202666    ( 0.0000,  0.0000,  0.0000)
  20 O     -0.646437   -1.306845    1.374751    ( 0.0000,  0.0000,  0.0000)
  21 O     -3.836504    1.742559   -0.995565    ( 0.0000,  0.0000,  0.0000)
  22 O      1.393580    1.742559   -1.036179    ( 0.0000,  0.0000,  0.0000)
  23 O      4.583647   -1.306845    1.334136    ( 0.0000,  0.0000,  0.0000)
  24 Li    -4.856429   -2.832143   -2.200714    ( 0.0000,  0.0000,  0.0000)
  25 Li     0.373571   -2.832143    0.169286    ( 0.0000,  0.0000,  0.0000)
  26 Li    -4.856429    0.217857   -2.200714    ( 0.0000,  0.0000,  0.0000)
  27 Li     0.373571    0.217857    0.169286    ( 0.0000,  0.0000,  0.0000)

Unit cell:
           periodic     x           y           z      points  spacing
  1. axis:    yes   10.460000    0.000000    0.000000    60     0.1743
  2. axis:    yes    0.000000    6.100000    0.000000    35     0.1743
  3. axis:    yes    0.000000    0.000000    4.740000    27     0.1756

  Lengths:  10.460000   6.100000   4.740000
  Angles:   90.000000  90.000000  90.000000

Effective grid spacing dv^(1/3) = 0.1747

                     log10-error:           total        iterations:
           time      wfs    density  force  energy       poisson  magmom
iter:   1  03:44:37                       -231.924401             +0.0000
iter:   2  03:44:59  -0.55  -0.94         -231.736816             +0.0036
iter:   3  03:45:20  -0.72  -0.98         -220.586220             +0.0046
iter:   4  03:45:41  -0.96  -1.20         -218.869006             +0.0015
iter:   5  03:46:02  -1.94  -1.36         -221.317615             +0.0010
iter:   6  03:46:24  -1.98  -1.50         -219.875383             +0.0005
iter:   7  03:46:45  -2.22  -1.69         -223.124364             +0.2557
iter:   8  03:47:06  -2.70  -1.89         -220.129547             +0.3659
iter:   9  03:47:28  -2.35  -1.95         -224.001270             +0.6507
iter:  10  03:47:49  -2.35  -1.89         -226.305986             +0.2744
iter:  11  03:48:10  -2.55  -1.89         -227.103619             -0.0195
iter:  12  03:48:32  -2.24  -1.84         -226.935973             -0.0011
iter:  13  03:48:53  -3.02  -1.97         -226.811243             -0.0048
iter:  14  03:49:14  -1.61  -2.00         -227.611550             -0.0015
iter:  15  03:49:36  -3.22  -1.95         -226.993806             -0.0015
iter:  16  03:49:57  -3.31  -2.08         -226.818463             -0.0004
iter:  17  03:50:18  -1.86  -2.11         -226.332541             +0.0000
iter:  18  03:50:40  -2.87  -2.47         -226.263504             -0.0001
iter:  19  03:51:01  -3.81  -2.55         -226.262479             -0.0000
iter:  20  03:51:22  -2.93  -2.58         -226.239567             -0.0000
iter:  21  03:51:43  -3.47  -2.80         -226.238655             -0.0000
iter:  22  03:52:05  -4.00  -2.96         -226.240036             -0.0000
iter:  23  03:52:26  -3.52  -3.04         -226.226033             -0.0000
iter:  24  03:52:47  -4.76  -3.35         -226.226692             -0.0000
iter:  25  03:53:08  -4.62  -3.45         -226.225711             +0.0000
iter:  26  03:53:30  -4.49  -3.56         -226.225708             -0.0000
iter:  27  03:53:51  -5.43  -3.62         -226.225315             +0.0000
iter:  28  03:54:12  -6.14  -3.74         -226.225219             +0.0000
iter:  29  03:54:33  -6.40  -3.81         -226.225232             +0.0000
iter:  30  03:54:55  -6.27  -3.87         -226.225225             -0.0000
iter:  31  03:55:16  -5.63  -3.91         -226.225216             -0.0000
iter:  32  03:55:37  -6.16  -4.16         -226.225144             -0.0000
iter:  33  03:55:59  -6.88  -4.50         -226.225141             -0.0000
iter:  34  03:56:20  -7.19  -4.54         -226.225142             +0.0000
iter:  35  03:56:41  -7.04  -4.67         -226.225140             +0.0000
iter:  36  03:57:08  -7.97  -4.83         -226.225140             +0.0000
iter:  37  03:57:35  -7.76  -4.87    -2.41-226.225140             -0.0000
iter:  38  03:58:01  -8.17  -4.97    -3.03-226.225140             -0.0000
iter:  39  03:58:28  -9.17  -5.06    -3.16-226.225139             -0.0000
iter:  40  03:58:55  -8.04  -5.11    -2.92-226.225139             -0.0000
iter:  41  03:59:22  -8.64  -5.31    -3.30-226.225139             -0.0000
iter:  42  03:59:48  -8.89  -5.44    -3.48-226.225139             -0.0000
iter:  43  04:00:15  -9.03  -5.54    -3.91-226.225139             -0.0000
iter:  44  04:00:42  -9.65  -5.61    -3.14-226.225139             +0.0000
iter:  45  04:01:08  -9.72  -5.70    -3.85-226.225139             -0.0000
iter:  46  04:01:35  -9.34  -5.79    -3.54-226.225139             +0.0000
iter:  47  04:02:02 -10.60  -5.99    -4.24-226.225139             +0.0000
iter:  48  04:02:29  -9.88  -6.04    -3.76-226.225139             +0.0000
iter:  49  04:02:55 -10.03  -6.16    -3.99-226.225139             +0.0000
iter:  50  04:03:22 -10.12  -6.18    -3.73-226.225139             +0.0000
iter:  51  04:03:49 -11.46  -6.45    -4.68-226.225139             +0.0000
iter:  52  04:04:16 -11.03  -6.51    -4.28-226.225139             +0.0000
iter:  53  04:04:43 -10.89  -6.61    -4.17-226.225139             +0.0000
iter:  54  04:05:10 -11.10  -6.63    -4.24-226.225139             +0.0000
iter:  55  04:05:36 -12.22  -6.81    -5.18-226.225139             +0.0000
iter:  56  04:06:03 -11.60  -6.86    -4.52-226.225139             +0.0000
iter:  57  04:06:30 -12.22  -7.16    -4.73-226.225139             +0.0000
iter:  58  04:06:57 -12.55  -7.29    -5.12-226.225139             +0.0000
iter:  59  04:07:23 -13.20  -7.28    -5.25-226.225139             +0.0000
iter:  60  04:07:50 -12.96  -7.35    -5.72-226.225139             +0.0000
iter:  61  04:08:17 -13.25  -7.40    -5.44-226.225139             +0.0000
iter:  62  04:08:44 -13.68  -7.46    -5.53-226.225139             +0.0000
iter:  63  04:09:10 -13.33  -7.55    -5.42-226.225139             +0.0000
iter:  64  04:09:37 -13.73  -7.65    -5.86-226.225139             +0.0000
iter:  65  04:10:04 -13.94  -7.72    -6.16-226.225139             +0.0000

Converged after 65 iterations.

Dipole moment: (10.508612, 1.402547, -6.270409) |e|*Ang

Total magnetic moment: (0.000000, 0.000000, 0.000000)
Local magnetic moments:
   0 O  ( 0.000000,  0.000000, -0.000334)
   1 O  ( 0.000000,  0.000000,  0.000558)
   2 O  ( 0.000000,  0.000000,  0.000430)
   3 O  ( 0.000000,  0.000000, -0.000626)
   4 O  ( 0.000000,  0.000000,  0.000410)
   5 O  ( 0.000000,  0.000000, -0.000606)
   6 O  ( 0.000000,  0.000000, -0.000354)
   7 O  ( 0.000000,  0.000000,  0.000578)
   8 O  ( 0.000000,  0.000000,  0.028775)
   9 O  ( 0.000000,  0.000000, -0.028860)
  10 O  ( 0.000000,  0.000000, -0.028582)
  11 O  ( 0.000000,  0.000000,  0.028997)
  12 Mn ( 0.000000,  0.000000,  4.447983)
  13 Mn ( 0.000000,  0.000000, -4.448384)
  14 Mn ( 0.000000,  0.000000, -4.448177)
  15 Mn ( 0.000000,  0.000000,  4.448088)
  16 P  ( 0.000000,  0.000000,  0.001424)
  17 P  ( 0.000000,  0.000000, -0.001552)
  18 P  ( 0.000000,  0.000000, -0.001523)
  19 P  ( 0.000000,  0.000000,  0.001531)
  20 O  ( 0.000000,  0.000000,  0.025522)
  21 O  ( 0.000000,  0.000000, -0.025323)
  22 O  ( 0.000000,  0.000000, -0.025339)
  23 O  ( 0.000000,  0.000000,  0.025190)
  24 Li ( 0.000000,  0.000000,  0.000000)
  25 Li ( 0.000000,  0.000000,  0.000013)
  26 Li ( 0.000000,  0.000000,  0.000000)
  27 Li ( 0.000000,  0.000000,  0.000013)

Energy contributions relative to reference atoms: (reference = -196157.275402)

Kinetic:       +217.344661
Potential:     -195.225540
External:        +0.000000
XC:            -250.385412
Entropy (-ST):   -0.000000
Local:           +2.041152
--------------------------
Free energy:   -226.225139
Extrapolated:  -226.225139

Spin contamination: 9.560652 electrons
Showing only first 2 kpts
                      Up                     Down
 Kpt  Band  Eigenvalues  Occupancy  Eigenvalues  Occupancy
  0    88      5.10729    1.00000      5.09906    1.00000
  0    89      5.14642    1.00000      5.13501    1.00000
  0    90      7.27852    0.00000      7.27500    0.00000
  0    91      7.30666    0.00000      7.31817    0.00000

  1    88      5.13354    1.00000      5.12533    1.00000
  1    89      5.17602    1.00000      5.16496    1.00000
  1    90      7.21979    0.00000      7.21557    0.00000
  1    91      7.24572    0.00000      7.25707    0.00000


Fermi level: 6.42263

Gap: 1.953 eV
Transition (v -> c):
  (s=0, k=73, n=89, [0.08, -0.42, -0.12]) -> (s=1, k=57, n=90, [-0.08, -0.08, -0.12])
Writing to born-0.01-16x-.gpw (mode='all')

Timing:                              incl.     excl.
-----------------------------------------------------------
Hamiltonian:                         0.264     0.003   0.0% |
 Atomic:                             0.073     0.073   0.0% |
  XC Correction:                     0.000     0.000   0.0% |
 Calculate atomic Hamiltonians:      0.094     0.094   0.0% |
 Communicate:                        0.000     0.000   0.0% |
 Initialize Hamiltonian:             0.000     0.000   0.0% |
 Poisson:                            0.001     0.001   0.0% |
 XC 3D grid:                         0.093     0.093   0.0% |
LCAO initialization:                69.806     0.720   0.0% |
 LCAO eigensolver:                  18.001     0.003   0.0% |
  Calculate projections:             0.030     0.030   0.0% |
  DenseAtomicCorrection:             0.043     0.043   0.0% |
  Distribute overlap matrix:         0.006     0.006   0.0% |
  Orbital Layouts:                   0.279     0.279   0.0% |
  Potential matrix:                 17.554    17.554   0.5% |
  Sum over cells:                    0.087     0.087   0.0% |
 LCAO to grid:                      49.804    49.804   1.3% ||
 Set positions (LCAO WFS):           1.280     0.181   0.0% |
  Basic WFS set positions:           0.002     0.002   0.0% |
  Basis functions set positions:     0.000     0.000   0.0% |
  P tci:                             0.514     0.514   0.0% |
  ST tci:                            0.369     0.369   0.0% |
  mktci:                             0.215     0.215   0.0% |
PWDescriptor:                        0.025     0.025   0.0% |
SCF-cycle:                        1550.207     8.723   0.2% |
 Davidson:                        1306.083   418.049  11.1% |---|
  Apply H:                          87.066    84.493   2.2% ||
   HMM T:                            2.573     2.573   0.1% |
  Subspace diag:                   187.843     0.193   0.0% |
   calc_h_matrix:                  119.888    32.736   0.9% |
    Apply H:                        87.152    84.678   2.2% ||
     HMM T:                          2.474     2.474   0.1% |
   diagonalize:                      6.557     6.557   0.2% |
   rotate_psi:                      61.205    61.205   1.6% ||
  calc. matrices:                  390.478   218.387   5.8% |-|
   Apply H:                        172.091   167.110   4.4% |-|
    HMM T:                           4.981     4.981   0.1% |
  diagonalize:                     100.870   100.870   2.7% ||
  rotate_psi:                      121.776   121.776   3.2% ||
 Density:                           52.370     0.002   0.0% |
  Atomic density matrices:           0.866     0.866   0.0% |
  Mix:                               8.894     8.894   0.2% |
  Multipole moments:                 0.025     0.025   0.0% |
  Pseudo density:                   42.583    42.581   1.1% |
   Symmetrize density:               0.002     0.002   0.0% |
 Forces:                           164.817   164.817   4.4% |-|
 Hamiltonian:                       15.926     0.142   0.0% |
  Atomic:                            3.667     3.667   0.1% |
   XC Correction:                    0.000     0.000   0.0% |
  Calculate atomic Hamiltonians:     6.080     6.080   0.2% |
  Communicate:                       0.026     0.026   0.0% |
  Poisson:                           0.060     0.060   0.0% |
  XC 3D grid:                        5.951     5.951   0.2% |
 Orthonormalize:                     2.289     0.003   0.0% |
  calc_s_matrix:                     0.267     0.267   0.0% |
  inverse-cholesky:                  0.040     0.040   0.0% |
  projections:                       1.488     1.488   0.0% |
  rotate_psi_s:                      0.492     0.492   0.0% |
Set symmetry:                        0.000     0.000   0.0% |
Other:                            2148.939  2148.939  57.0% |----------------------|
-----------------------------------------------------------
Total:                                      3769.241 100.0%

Memory usage: 13.06 GiB
Date: Wed Mar 31 04:45:52 2021
