
  ___ ___ ___ _ _ _  
 |   |   |_  | | | | 
 | | | | | . | | | | 
 |__ |  _|___|_____|  21.1.1b1
 |___|_|             

User:   madkru@g043.nifl.fysik.dtu.dk
Date:   Wed Mar 31 11:24:52 2021
Arch:   x86_64
Pid:    39387
Python: 3.8.6
gpaw:   /home/niflheim/madkru/venv_madkru/gpaw/gpaw (e6f0d78a31)
_gpaw:  /home/niflheim/madkru/venv_madkru/gpaw/build/lib.linux-x86_64-sandybridge-3.8/
        _gpaw.cpython-38-x86_64-linux-gnu.so (e6f0d78a31)
ase:    /home/niflheim/madkru/venv_madkru/ase/ase (version 3.22.0b1-4d5a73cb29)
numpy:  /home/modules/software/SciPy-bundle/2020.11-foss-2020b/lib/python3.8/site-packages/numpy (version 1.19.4)
scipy:  /home/modules/software/SciPy-bundle/2020.11-foss-2020b/lib/python3.8/site-packages/scipy (version 1.5.4)
libxc:  4.3.4
units:  Angstrom and eV
cores: 64
OpenMP: False
OMP_NUM_THREADS: 1

Input parameters:
  convergence: {bands: occupied,
                density: 0.0001,
                eigenstates: 4e-08,
                energy: 0.0005,
                forces: 1e-06}
  kpts: [6 6 4]
  maxiter: 1000
  mode: {ecut: 600.0,
         gammacentered: False,
         name: pw}
  occupations: {fixmagmom: False,
                name: fermi-dirac,
                width: 0.001}
  symmetry: {point_group: False,
             time_reversal: False}

System changes: positions, numbers, cell, pbc, initial_charges, initial_magmoms 

Initialize ...

O-setup:
  name: Oxygen
  id: 9b9d51c344dea68c822856295a461509
  Z: 8.0
  valence: 6
  core: 2
  charge: 0.0
  file: /home/modules/software/GPAW-setups/0.9.20000/O.LDA.gz
  compensation charges: gauss, rc=0.21, lmax=2
  cutoffs: 1.17(filt), 0.83(core),
  valence states:
                energy  radius
    2s(2.00)   -23.752   0.688
    2p(4.00)    -9.195   0.598
    *s           3.459   0.688
    *p          18.016   0.598
    *d           0.000   0.619

  Using partial waves for O as LCAO basis

Mn-setup:
  name: Manganese
  id: 0d715a8018be061a6e9ea6f2d364ac92
  Z: 25.0
  valence: 15
  core: 10
  charge: 0.0
  file: /home/modules/software/GPAW-setups/0.9.20000/Mn.LDA.gz
  compensation charges: gauss, rc=0.38, lmax=2
  cutoffs: 2.14(filt), 0.86(core),
  valence states:
                energy  radius
    3s(2.00)   -85.387   1.275
    4s(2.00)    -5.282   1.275
    3p(6.00)   -54.493   1.281
    4p(0.00)    -1.471   1.281
    3d(5.00)    -7.009   1.138
    *d          20.203   1.138

  Using partial waves for Mn as LCAO basis

P-setup:
  name: Phosphorus
  id: a5561c299094968922a179ab894d2e2d
  Z: 15.0
  valence: 5
  core: 10
  charge: 0.0
  file: /home/modules/software/GPAW-setups/0.9.20000/P.LDA.gz
  compensation charges: gauss, rc=0.30, lmax=2
  cutoffs: 1.69(filt), 1.81(core),
  valence states:
                energy  radius
    3s(2.00)   -14.015   0.953
    3p(3.00)    -5.596   0.953
    *s          13.197   0.953
    *p          21.615   0.953
    *d           0.000   0.953

  Using partial waves for P as LCAO basis

Li-setup:
  name: Lithium
  id: b73562207f97a71b6967473b66fe8b65
  Z: 3.0
  valence: 1
  core: 2
  charge: 0.0
  file: /home/modules/software/GPAW-setups/0.9.20000/Li.LDA.gz
  compensation charges: gauss, rc=0.33, lmax=2
  cutoffs: 1.91(filt), 2.55(core),
  valence states:
                energy  radius
    2s(1.00)    -2.874   1.058
    2p(0.00)    -1.126   1.058
    *s          24.338   1.058

  Using partial waves for Li as LCAO basis

Reference energy: -196157.275402

Spin-polarized calculation.
Magnetic moment: 0.000000

Convergence criteria:
  Maximum total energy change: 0.0005 eV / electron
  Maximum integral of absolute density change: 0.0001 electrons
  Maximum integral of absolute eigenstate change: 4e-08 eV^2
  Maximum change in atomic force: 1e-06 eV / Ang
  Maximum number of iterations: 1000

Symmetries present (total): 1

  ( 1  0  0)
  ( 0  1  0)
  ( 0  0  1)

144 k-points: 6 x 6 x 4 Monkhorst-Pack grid
144 k-points in the irreducible part of the Brillouin zone
       k-points in crystal coordinates                weights
   0:    -0.41666667   -0.41666667   -0.37500000          1/144
   1:    -0.41666667   -0.41666667   -0.12500000          1/144
   2:    -0.41666667   -0.41666667    0.12500000          1/144
   3:    -0.41666667   -0.41666667    0.37500000          1/144
   4:    -0.41666667   -0.25000000   -0.37500000          1/144
   5:    -0.41666667   -0.25000000   -0.12500000          1/144
   6:    -0.41666667   -0.25000000    0.12500000          1/144
   7:    -0.41666667   -0.25000000    0.37500000          1/144
   8:    -0.41666667   -0.08333333   -0.37500000          1/144
   9:    -0.41666667   -0.08333333   -0.12500000          1/144
          ...
 143:     0.41666667    0.41666667    0.37500000          1/144

Wave functions: Plane wave expansion
  Cutoff energy: 600.000 eV
  Number of coefficients (min, max): 10068, 10125
  Pulay-stress correction: 0.000000 eV/Ang^3 (de/decut=0.000000)
  Using FFTW library
  ScaLapack parameters: grid=1x1, blocksize=None
  Wavefunction extrapolation:
    Improved wavefunction reuse through dual PAW basis 

  Fermi-Dirac: width=0.0010 eV

Eigensolver
   Davidson(niter=2) 

Densities:
  Coarse grid: 60*35*27 grid
  Fine grid: 120*70*54 grid
  Total Charge: 0.000000 

Density mixing:
  Method: difference
  Backend: pulay
  Linear mixing parameter: 0.05
  Mixing with 5 old densities
  Damping of long wave oscillations: 50 

Hamiltonian:
  XC and Coulomb potentials evaluated on a 120*70*54 grid
  Using the LDA Exchange-Correlation functional
 

Memory estimate:
  Process memory now: 13713.38 MiB
  Calculator: 354.82 MiB
    Density: 10.06 MiB
      Arrays: 3.79 MiB
      Localized functions: 4.71 MiB
      Mixer: 1.56 MiB
    Hamiltonian: 2.95 MiB
      Arrays: 2.82 MiB
      XC: 0.00 MiB
      Poisson: 0.00 MiB
      vbar: 0.14 MiB
    Wavefunctions: 341.80 MiB
      Arrays psit_nG: 311.46 MiB
      Eigensolver: 19.99 MiB
      Projections: 2.71 MiB
      Projectors: 4.87 MiB
      PW-descriptor: 2.77 MiB

Total number of cores used: 64
Parallelization over k-points: 16
Domain decomposition: 2 x 2 x 1

Number of atoms: 28
Number of atomic orbitals: 148
Number of bands in calculation: 112
Number of valence electrons: 180
Bands to converge: occupied

... initialized

Initializing position-dependent things.

Density initialized from atomic densities
Creating initial wave functions:
  112 bands from LCAO basis set

     .-------------------------.  
    /|         OP              |  
   / |O            O        O  |  
  /  |       O            O  P |  
 *   |O    Mn      O           |  
 |   |          OLi          O |  
 |   .P-O--------------Mn------.  
 |  /          Li    O  Mn  O /   
 | /Li O           PO        /    
 |/       Mn                /     
 *Li-----------------------*      

Positions:
   0 O     -1.360678   -2.541161   -1.202221    ( 0.0000,  0.0000,  0.0000)
   1 O     -3.121941    2.976855    1.167242    ( 0.0000,  0.0000,  0.0000)
   2 O      2.107533    0.508090    1.540712    ( 0.0000,  0.0000,  0.0000)
   3 O      3.869373   -0.072395   -0.828750    ( 0.0000,  0.0000,  0.0000)
   4 O      2.107821    2.976875    1.540792    ( 0.0000,  0.0000,  0.0000)
   5 O      3.869084   -2.541141   -0.828671    ( 0.0000,  0.0000,  0.0000)
   6 O     -1.360390   -0.072375   -1.202141    ( 0.0000,  0.0000,  0.0000)
   7 O     -3.122230    0.508109    1.167321    ( 0.0000,  0.0000,  0.0000)
   8 O     -4.413461   -1.306992   -0.794251    ( 0.0000,  0.0000,  0.0000)
   9 O     -0.069585    1.742707    1.575662    ( 0.0000,  0.0000,  0.0000)
  10 O      5.160604    1.742707    1.132822    ( 0.0000,  0.0000,  0.0000)
  11 O      0.816728   -1.306992   -1.237091    ( 0.0000,  0.0000,  0.0000)
  12 Mn    -2.570809   -1.307302    0.247161    ( 0.0000,  0.0000,  1.0000)
  13 Mn    -1.912021    1.743016   -2.122906    ( 0.0000,  0.0000, -1.0000)
  14 Mn     3.317952    1.743017    0.091411    ( 0.0000,  0.0000, -1.0000)
  15 Mn     2.659164   -1.307302    2.461478    ( 0.0000,  0.0000,  1.0000)
  16 P     -0.620664   -1.306816   -1.828465    ( 0.0000,  0.0000,  0.0000)
  17 P     -3.862097    1.742530    0.541238    ( 0.0000,  0.0000,  0.0000)
  18 P      1.377807    1.742530    2.167036    ( 0.0000,  0.0000,  0.0000)
  19 P      4.609240   -1.306816   -0.202666    ( 0.0000,  0.0000,  0.0000)
  20 O     -0.646437   -1.306845    1.374751    ( 0.0000,  0.0000,  0.0000)
  21 O     -3.836504    1.742559   -0.995565    ( 0.0000,  0.0000,  0.0000)
  22 O      1.393580    1.742559   -1.036179    ( 0.0000,  0.0000,  0.0000)
  23 O      4.583647   -1.306845    1.334136    ( 0.0000,  0.0000,  0.0000)
  24 Li    -4.856429   -2.832143   -2.200714    ( 0.0000,  0.0000,  0.0000)
  25 Li     0.373571   -2.832143    0.169286    ( 0.0000,  0.0000,  0.0000)
  26 Li    -4.856429    0.217857   -2.200714    ( 0.0000,  0.0000,  0.0000)
  27 Li     0.373571    0.217857    0.169286    ( 0.0000,  0.0000,  0.0000)

Unit cell:
           periodic     x           y           z      points  spacing
  1. axis:    yes   10.460000    0.000000    0.000000    60     0.1743
  2. axis:    yes    0.000000    6.100000    0.000000    35     0.1743
  3. axis:    yes    0.000000    0.000000    4.740000    27     0.1756

  Lengths:  10.460000   6.100000   4.740000
  Angles:   90.000000  90.000000  90.000000

Effective grid spacing dv^(1/3) = 0.1747

                     log10-error:           total        iterations:
           time      wfs    density  force  energy       poisson  magmom
iter:   1  11:26:27                       -231.924403             +0.0000
iter:   2  11:26:48  -0.55  -0.94         -231.736808             +0.0066
iter:   3  11:27:10  -0.72  -0.98         -220.586070             +0.0083
iter:   4  11:27:31  -0.96  -1.20         -218.869224             +0.0027
iter:   5  11:27:52  -1.94  -1.36         -221.273551             +0.0018
iter:   6  11:28:13  -2.01  -1.49         -220.220990             -0.0720
iter:   7  11:28:35  -2.14  -1.68         -223.556606             +0.5625
iter:   8  11:28:56  -2.82  -1.88         -221.308729             +0.7345
iter:   9  11:29:17  -1.71  -1.91         -227.037047             +0.0466
iter:  10  11:29:38  -2.47  -1.83         -227.546627             +0.0377
iter:  11  11:30:00  -1.21  -1.78         -231.568191             +0.0112
iter:  12  11:30:21  -2.16  -1.73         -232.017577             +0.0112
iter:  13  11:30:42  -2.17  -1.69         -237.417431             +0.8024
iter:  14  11:31:04  -1.94  -1.59         -248.426754             +0.3567
iter:  15  11:31:25  -1.64  -1.58         -230.699341             +0.0605
iter:  16  11:31:46  -2.32  -1.59         -225.746338             +0.0278
iter:  17  11:32:07  -0.79  -1.61         -251.491163             +0.0018
iter:  18  11:32:29  -1.35  -1.51         -221.870787             +0.0081
iter:  19  11:32:50  -2.46  -1.89         -221.433855             +0.0025
iter:  20  11:33:11  -2.75  -1.92         -222.345343             +0.0015
iter:  21  11:33:33  -3.81  -1.84         -222.424960             +0.0005
iter:  22  11:33:54  -1.93  -1.84         -225.121354             +0.0002
iter:  23  11:34:15  -2.13  -1.63         -221.663975             +0.0001
iter:  24  11:34:37  -3.49  -1.99         -221.635304             +0.0000
iter:  25  11:34:58  -3.94  -2.01         -221.850368             -0.0000
iter:  26  11:35:19  -3.61  -2.01         -221.951108             -0.0000
iter:  27  11:35:40  -3.24  -2.01         -221.751667             -0.0000
iter:  28  11:36:02  -2.29  -2.00         -224.827548             -0.0000
iter:  29  11:36:23  -2.26  -1.65         -221.983422             -0.0000
iter:  30  11:36:44  -3.41  -2.00         -221.892431             -0.0000
iter:  31  11:37:05  -2.68  -2.01         -223.387735             -0.0000
iter:  32  11:37:27  -2.89  -1.84         -221.635445             -0.0000
iter:  33  11:37:48  -3.05  -2.07         -221.213999             -0.0000
iter:  34  11:38:09  -2.03  -2.15         -229.251446             -0.0000
iter:  35  11:38:30  -2.28  -1.63         -221.124830             -0.0000
iter:  36  11:38:52  -3.07  -2.14         -221.397293             +0.2655
iter:  37  11:39:13  -3.29  -2.12         -221.846059             +0.3141
iter:  38  11:39:34  -3.76  -2.12         -221.581734             +0.2156
iter:  39  11:39:55  -3.46  -2.13         -221.304495             +0.1584
iter:  40  11:40:17  -3.62  -2.19         -221.435881             +0.4188
iter:  41  11:40:38  -3.62  -2.26         -221.211449             +0.0710
iter:  42  11:40:59  -3.47  -2.21         -221.288236             -0.1992
iter:  43  11:41:21  -3.30  -2.22         -221.314161             +0.1782
iter:  44  11:41:42  -3.50  -2.18         -221.527870             +0.1201
iter:  45  11:42:03  -3.23  -2.15         -221.672097             +0.2348
iter:  46  11:42:24  -3.21  -2.17         -221.137623             +0.1387
iter:  47  11:42:46  -3.80  -2.34         -221.314636             +0.5581
iter:  48  11:43:07  -3.45  -2.40         -221.220881             +0.4356
iter:  49  11:43:28  -3.54  -2.41         -221.386310             +1.0088
iter:  50  11:43:49  -3.74  -2.45         -221.467633             +1.2469
iter:  51  11:44:11  -3.70  -2.44         -221.523776             +1.7614
iter:  52  11:44:32  -3.38  -2.47         -221.804290             +2.3120
iter:  53  11:44:53  -3.43  -2.37         -221.532509             +1.6141
iter:  54  11:45:14  -3.06  -2.38         -222.270034             +3.1909
iter:  55  11:45:36  -3.84  -2.33         -222.108924             +3.1243
iter:  56  11:45:57  -3.01  -2.30         -223.767401             +5.1392
iter:  57  11:46:18  -3.89  -2.16         -223.260659             +4.4972
iter:  58  11:46:39  -2.86  -2.19         -225.143133             +6.9168
iter:  59  11:47:01  -3.01  -2.09         -226.084694             +8.2142
iter:  60  11:47:22  -2.90  -2.08         -226.590863             +9.9934
iter:  61  11:47:43  -2.69  -2.07         -226.557210             +10.0011
iter:  62  11:48:04  -1.64  -2.07         -230.844918             +9.9982
iter:  63  11:48:26  -3.00  -1.81         -228.478625             +10.0340
iter:  64  11:48:47  -1.96  -1.94         -225.885717             +8.5058
iter:  65  11:49:08  -2.81  -2.14         -226.393633             +8.7364
iter:  66  11:49:30  -2.71  -2.21         -226.119743             +8.6686
iter:  67  11:49:51  -2.95  -2.24         -226.125185             +8.8483
iter:  68  11:50:12  -2.21  -2.30         -226.214240             +9.9613
iter:  69  11:50:33  -3.32  -2.40         -226.211578             +9.9754
iter:  70  11:50:54  -2.42  -2.42         -226.162177             +9.9951
iter:  71  11:51:16  -3.49  -2.68         -226.140136             +9.9941
iter:  72  11:51:37  -3.68  -2.84         -226.131779             +9.9980
iter:  73  11:51:58  -3.53  -2.92         -226.127152             +9.9997
iter:  74  11:52:19  -4.60  -3.12         -226.123853             +9.9992
iter:  75  11:52:41  -5.10  -3.22         -226.123160             +9.9998
iter:  76  11:53:02  -4.76  -3.28         -226.122163             +10.0000
iter:  77  11:53:23  -4.55  -3.38         -226.121613             +10.0000
iter:  78  11:53:44  -5.10  -3.54         -226.121664             +10.0000
iter:  79  11:54:05  -5.42  -3.54         -226.121436             +10.0000
iter:  80  11:54:27  -5.55  -3.86         -226.121287             +10.0000
iter:  81  11:54:48  -6.60  -4.12         -226.121279             +10.0000
iter:  82  11:55:09  -6.64  -4.24         -226.121273             +10.0000
iter:  83  11:55:30  -6.98  -4.40         -226.121274             +10.0000
iter:  84  11:55:57  -7.85  -4.45         -226.121274             +10.0000
iter:  85  11:56:24  -8.22  -4.49    -3.21-226.121273             +10.0000
iter:  86  11:56:51  -7.83  -4.53    -2.52-226.121272             +10.0000
iter:  87  11:57:12  -7.39  -4.63         -226.121271             +10.0000
iter:  88  11:57:38  -8.53  -4.80    -2.38-226.121270             +10.0000
iter:  89  11:58:05  -7.93  -4.82    -2.95-226.121270             +10.0000
iter:  90  11:58:32  -8.21  -4.97    -3.11-226.121269             +10.0000
iter:  91  11:58:59  -8.85  -5.05    -3.14-226.121269             +10.0000
iter:  92  11:59:25  -9.03  -5.18    -3.56-226.121269             +10.0000
iter:  93  11:59:52  -8.44  -5.26    -3.04-226.121269             +10.0000
iter:  94  12:00:19  -9.12  -5.55    -3.32-226.121269             +10.0000
iter:  95  12:00:46 -10.12  -5.68    -3.90-226.121269             +10.0000
iter:  96  12:01:12 -10.00  -5.76    -3.72-226.121269             +10.0000
iter:  97  12:01:39  -9.94  -5.85    -3.64-226.121269             +10.0000
iter:  98  12:02:06 -10.40  -5.94    -3.84-226.121269             +10.0000
iter:  99  12:02:33 -11.22  -6.03    -4.63-226.121269             +10.0000
iter: 100  12:02:59 -10.10  -6.07    -3.92-226.121269             +10.0000
iter: 101  12:03:26 -11.35  -6.21    -4.61-226.121269             +10.0000
iter: 102  12:03:53 -10.01  -6.24    -3.87-226.121269             +10.0000
iter: 103  12:04:20 -10.40  -6.20    -3.99-226.121269             +10.0000
iter: 104  12:04:46 -11.27  -6.66    -4.45-226.121269             +10.0000
iter: 105  12:05:13 -11.69  -6.92    -4.74-226.121269             +10.0000
iter: 106  12:05:40 -12.89  -7.11    -5.50-226.121269             +10.0000
iter: 107  12:06:07 -12.57  -7.14    -5.33-226.121269             +10.0000
iter: 108  12:06:33 -13.30  -7.18    -5.49-226.121269             +10.0000
iter: 109  12:07:00 -12.96  -7.23    -4.99-226.121269             +10.0000
iter: 110  12:07:27 -12.95  -7.50    -5.34-226.121269             +10.0000
iter: 111  12:07:54 -14.15  -7.61    -5.95-226.121269             +10.0000
iter: 112  12:08:20 -13.55  -7.66    -5.52-226.121269             +10.0000
iter: 113  12:08:47 -14.23  -7.88    -6.12-226.121269             +10.0000

Converged after 113 iterations.

Dipole moment: (10.693858, 1.423949, -6.270202) |e|*Ang

Total magnetic moment: (0.000000, 0.000000, 10.000000)
Local magnetic moments:
   0 O  ( 0.000000,  0.000000,  0.062255)
   1 O  ( 0.000000,  0.000000,  0.058051)
   2 O  ( 0.000000,  0.000000,  0.004624)
   3 O  ( 0.000000,  0.000000, -0.000173)
   4 O  ( 0.000000,  0.000000,  0.004602)
   5 O  ( 0.000000,  0.000000, -0.000153)
   6 O  ( 0.000000,  0.000000,  0.062250)
   7 O  ( 0.000000,  0.000000,  0.058045)
   8 O  ( 0.000000,  0.000000,  0.031300)
   9 O  ( 0.000000,  0.000000,  0.030379)
  10 O  ( 0.000000,  0.000000, -0.020408)
  11 O  ( 0.000000,  0.000000,  0.035921)
  12 Mn ( 0.000000,  0.000000,  4.487719)
  13 Mn ( 0.000000,  0.000000,  4.491845)
  14 Mn ( 0.000000,  0.000000, -4.445765)
  15 Mn ( 0.000000,  0.000000,  4.454428)
  16 P  ( 0.000000,  0.000000,  0.022212)
  17 P  ( 0.000000,  0.000000,  0.011382)
  18 P  ( 0.000000,  0.000000,  0.009593)
  19 P  ( 0.000000,  0.000000,  0.001625)
  20 O  ( 0.000000,  0.000000,  0.027740)
  21 O  ( 0.000000,  0.000000,  0.026464)
  22 O  ( 0.000000,  0.000000, -0.023917)
  23 O  ( 0.000000,  0.000000,  0.025841)
  24 Li ( 0.000000,  0.000000,  0.000320)
  25 Li ( 0.000000,  0.000000,  0.000841)
  26 Li ( 0.000000,  0.000000,  0.000320)
  27 Li ( 0.000000,  0.000000,  0.000843)

Energy contributions relative to reference atoms: (reference = -196157.275402)

Kinetic:       +218.986809
Potential:     -196.419611
External:        +0.000000
XC:            -250.724994
Entropy (-ST):   -0.000000
Local:           +2.036526
--------------------------
Free energy:   -226.121269
Extrapolated:  -226.121269

Spin contamination: 4.753699 electrons
Showing only first 2 kpts
                      Up                     Down
 Kpt  Band  Eigenvalues  Occupancy  Eigenvalues  Occupancy
  0    88      3.99860    1.00000      7.36385    0.00000
  0    89      4.55173    1.00000      7.39648    0.00000
  0    90      4.57641    1.00000      7.44902    0.00000
  0    91      4.64230    1.00000      7.50199    0.00000

  1    88      4.05782    1.00000      7.30049    0.00000
  1    89      4.56009    1.00000      7.34236    0.00000
  1    90      4.60655    1.00000      7.45266    0.00000
  1    91      4.74270    1.00000      7.50402    0.00000


Fermi level: 6.17144

Gap: 1.665 eV
Transition (v -> c):
  (s=0, k=57, n=94, [-0.08, -0.08, -0.12]) -> (s=1, k=85, n=85, [0.08, 0.08, -0.12])
Writing to born-0.01-18x+.gpw (mode='all')

Timing:                              incl.     excl.
-----------------------------------------------------------
Hamiltonian:                         0.262     0.003   0.0% |
 Atomic:                             0.068     0.068   0.0% |
  XC Correction:                     0.000     0.000   0.0% |
 Calculate atomic Hamiltonians:      0.099     0.099   0.0% |
 Communicate:                        0.000     0.000   0.0% |
 Initialize Hamiltonian:             0.000     0.000   0.0% |
 Poisson:                            0.001     0.001   0.0% |
 XC 3D grid:                         0.091     0.091   0.0% |
LCAO initialization:                70.685     0.674   0.0% |
 LCAO eigensolver:                  18.003     0.003   0.0% |
  Calculate projections:             0.030     0.030   0.0% |
  DenseAtomicCorrection:             0.043     0.043   0.0% |
  Distribute overlap matrix:         0.112     0.112   0.0% |
  Orbital Layouts:                   0.281     0.281   0.0% |
  Potential matrix:                 17.441    17.441   0.4% |
  Sum over cells:                    0.094     0.094   0.0% |
 LCAO to grid:                      50.729    50.729   1.0% |
 Set positions (LCAO WFS):           1.279     0.180   0.0% |
  Basic WFS set positions:           0.002     0.002   0.0% |
  Basis functions set positions:     0.000     0.000   0.0% |
  P tci:                             0.516     0.516   0.0% |
  ST tci:                            0.369     0.369   0.0% |
  mktci:                             0.212     0.212   0.0% |
PWDescriptor:                        0.025     0.025   0.0% |
SCF-cycle:                        2562.666     6.832   0.1% |
 Davidson:                        2274.755   726.794  15.0% |-----|
  Apply H:                         153.357   148.785   3.1% ||
   HMM T:                            4.573     4.573   0.1% |
  Subspace diag:                   326.664     0.330   0.0% |
   calc_h_matrix:                  208.317    57.000   1.2% |
    Apply H:                       151.318   146.992   3.0% ||
     HMM T:                          4.326     4.326   0.1% |
   diagonalize:                     11.188    11.188   0.2% |
   rotate_psi:                     106.828   106.828   2.2% ||
  calc. matrices:                  679.587   379.038   7.8% |--|
   Apply H:                        300.549   291.925   6.0% |-|
    HMM T:                           8.624     8.624   0.2% |
  diagonalize:                     175.414   175.414   3.6% ||
  rotate_psi:                      212.939   212.939   4.4% |-|
 Density:                           91.900     0.003   0.0% |
  Atomic density matrices:           1.529     1.529   0.0% |
  Mix:                              15.644    15.644   0.3% |
  Multipole moments:                 0.042     0.042   0.0% |
  Pseudo density:                   74.684    74.680   1.5% ||
   Symmetrize density:               0.003     0.003   0.0% |
 Forces:                           158.982   158.982   3.3% ||
 Hamiltonian:                       27.885     0.239   0.0% |
  Atomic:                            6.400     6.400   0.1% |
   XC Correction:                    0.001     0.001   0.0% |
  Calculate atomic Hamiltonians:    10.734    10.734   0.2% |
  Communicate:                       0.028     0.028   0.0% |
  Poisson:                           0.106     0.106   0.0% |
  XC 3D grid:                       10.377    10.377   0.2% |
 Orthonormalize:                     2.312     0.003   0.0% |
  calc_s_matrix:                     0.267     0.267   0.0% |
  inverse-cholesky:                  0.041     0.041   0.0% |
  projections:                       1.508     1.508   0.0% |
  rotate_psi_s:                      0.493     0.493   0.0% |
Set symmetry:                        0.000     0.000   0.0% |
Other:                            2211.617  2211.617  45.6% |-----------------|
-----------------------------------------------------------
Total:                                      4845.254 100.0%

Memory usage: 14.08 GiB
Date: Wed Mar 31 12:45:38 2021
