
  ___ ___ ___ _ _ _  
 |   |   |_  | | | | 
 | | | | | . | | | | 
 |__ |  _|___|_____|  21.1.1b1
 |___|_|             

User:   madkru@g043.nifl.fysik.dtu.dk
Date:   Tue Mar 30 09:20:55 2021
Arch:   x86_64
Pid:    39387
Python: 3.8.6
gpaw:   /home/niflheim/madkru/venv_madkru/gpaw/gpaw (e6f0d78a31)
_gpaw:  /home/niflheim/madkru/venv_madkru/gpaw/build/lib.linux-x86_64-sandybridge-3.8/
        _gpaw.cpython-38-x86_64-linux-gnu.so (e6f0d78a31)
ase:    /home/niflheim/madkru/venv_madkru/ase/ase (version 3.22.0b1-4d5a73cb29)
numpy:  /home/modules/software/SciPy-bundle/2020.11-foss-2020b/lib/python3.8/site-packages/numpy (version 1.19.4)
scipy:  /home/modules/software/SciPy-bundle/2020.11-foss-2020b/lib/python3.8/site-packages/scipy (version 1.5.4)
libxc:  4.3.4
units:  Angstrom and eV
cores: 64
OpenMP: False
OMP_NUM_THREADS: 1

Input parameters:
  convergence: {bands: occupied,
                density: 0.0001,
                eigenstates: 4e-08,
                energy: 0.0005,
                forces: 1e-06}
  kpts: [6 6 4]
  maxiter: 1000
  mode: {ecut: 600.0,
         gammacentered: False,
         name: pw}
  occupations: {fixmagmom: False,
                name: fermi-dirac,
                width: 0.001}
  symmetry: {point_group: False,
             time_reversal: False}

System changes: positions, numbers, cell, pbc, initial_charges, initial_magmoms 

Initialize ...

O-setup:
  name: Oxygen
  id: 9b9d51c344dea68c822856295a461509
  Z: 8.0
  valence: 6
  core: 2
  charge: 0.0
  file: /home/modules/software/GPAW-setups/0.9.20000/O.LDA.gz
  compensation charges: gauss, rc=0.21, lmax=2
  cutoffs: 1.17(filt), 0.83(core),
  valence states:
                energy  radius
    2s(2.00)   -23.752   0.688
    2p(4.00)    -9.195   0.598
    *s           3.459   0.688
    *p          18.016   0.598
    *d           0.000   0.619

  Using partial waves for O as LCAO basis

Mn-setup:
  name: Manganese
  id: 0d715a8018be061a6e9ea6f2d364ac92
  Z: 25.0
  valence: 15
  core: 10
  charge: 0.0
  file: /home/modules/software/GPAW-setups/0.9.20000/Mn.LDA.gz
  compensation charges: gauss, rc=0.38, lmax=2
  cutoffs: 2.14(filt), 0.86(core),
  valence states:
                energy  radius
    3s(2.00)   -85.387   1.275
    4s(2.00)    -5.282   1.275
    3p(6.00)   -54.493   1.281
    4p(0.00)    -1.471   1.281
    3d(5.00)    -7.009   1.138
    *d          20.203   1.138

  Using partial waves for Mn as LCAO basis

P-setup:
  name: Phosphorus
  id: a5561c299094968922a179ab894d2e2d
  Z: 15.0
  valence: 5
  core: 10
  charge: 0.0
  file: /home/modules/software/GPAW-setups/0.9.20000/P.LDA.gz
  compensation charges: gauss, rc=0.30, lmax=2
  cutoffs: 1.69(filt), 1.81(core),
  valence states:
                energy  radius
    3s(2.00)   -14.015   0.953
    3p(3.00)    -5.596   0.953
    *s          13.197   0.953
    *p          21.615   0.953
    *d           0.000   0.953

  Using partial waves for P as LCAO basis

Li-setup:
  name: Lithium
  id: b73562207f97a71b6967473b66fe8b65
  Z: 3.0
  valence: 1
  core: 2
  charge: 0.0
  file: /home/modules/software/GPAW-setups/0.9.20000/Li.LDA.gz
  compensation charges: gauss, rc=0.33, lmax=2
  cutoffs: 1.91(filt), 2.55(core),
  valence states:
                energy  radius
    2s(1.00)    -2.874   1.058
    2p(0.00)    -1.126   1.058
    *s          24.338   1.058

  Using partial waves for Li as LCAO basis

Reference energy: -196157.275402

Spin-polarized calculation.
Magnetic moment: 0.000000

Convergence criteria:
  Maximum total energy change: 0.0005 eV / electron
  Maximum integral of absolute density change: 0.0001 electrons
  Maximum integral of absolute eigenstate change: 4e-08 eV^2
  Maximum change in atomic force: 1e-06 eV / Ang
  Maximum number of iterations: 1000

Symmetries present (total): 1

  ( 1  0  0)
  ( 0  1  0)
  ( 0  0  1)

144 k-points: 6 x 6 x 4 Monkhorst-Pack grid
144 k-points in the irreducible part of the Brillouin zone
       k-points in crystal coordinates                weights
   0:    -0.41666667   -0.41666667   -0.37500000          1/144
   1:    -0.41666667   -0.41666667   -0.12500000          1/144
   2:    -0.41666667   -0.41666667    0.12500000          1/144
   3:    -0.41666667   -0.41666667    0.37500000          1/144
   4:    -0.41666667   -0.25000000   -0.37500000          1/144
   5:    -0.41666667   -0.25000000   -0.12500000          1/144
   6:    -0.41666667   -0.25000000    0.12500000          1/144
   7:    -0.41666667   -0.25000000    0.37500000          1/144
   8:    -0.41666667   -0.08333333   -0.37500000          1/144
   9:    -0.41666667   -0.08333333   -0.12500000          1/144
          ...
 143:     0.41666667    0.41666667    0.37500000          1/144

Wave functions: Plane wave expansion
  Cutoff energy: 600.000 eV
  Number of coefficients (min, max): 10068, 10125
  Pulay-stress correction: 0.000000 eV/Ang^3 (de/decut=0.000000)
  Using FFTW library
  ScaLapack parameters: grid=1x1, blocksize=None
  Wavefunction extrapolation:
    Improved wavefunction reuse through dual PAW basis 

  Fermi-Dirac: width=0.0010 eV

Eigensolver
   Davidson(niter=2) 

Densities:
  Coarse grid: 60*35*27 grid
  Fine grid: 120*70*54 grid
  Total Charge: 0.000000 

Density mixing:
  Method: difference
  Backend: pulay
  Linear mixing parameter: 0.05
  Mixing with 5 old densities
  Damping of long wave oscillations: 50 

Hamiltonian:
  XC and Coulomb potentials evaluated on a 120*70*54 grid
  Using the LDA Exchange-Correlation functional
 

Memory estimate:
  Process memory now: 12490.77 MiB
  Calculator: 354.82 MiB
    Density: 10.06 MiB
      Arrays: 3.79 MiB
      Localized functions: 4.71 MiB
      Mixer: 1.56 MiB
    Hamiltonian: 2.95 MiB
      Arrays: 2.82 MiB
      XC: 0.00 MiB
      Poisson: 0.00 MiB
      vbar: 0.14 MiB
    Wavefunctions: 341.80 MiB
      Arrays psit_nG: 311.46 MiB
      Eigensolver: 19.99 MiB
      Projections: 2.71 MiB
      Projectors: 4.87 MiB
      PW-descriptor: 2.77 MiB

Total number of cores used: 64
Parallelization over k-points: 16
Domain decomposition: 2 x 2 x 1

Number of atoms: 28
Number of atomic orbitals: 148
Number of bands in calculation: 112
Number of valence electrons: 180
Bands to converge: occupied

... initialized

Initializing position-dependent things.

Density initialized from atomic densities
Creating initial wave functions:
  112 bands from LCAO basis set

     .-------------------------.  
    /|         OP              |  
   / |O            O        O  |  
  /  |       O            O  P |  
 *   |O    Mn      O           |  
 |   |          OLi          O |  
 |   .P-O--------------Mn------.  
 |  /          Li    O  Mn  O /   
 | /Li O           PO        /    
 |/       Mn                /     
 *Li-----------------------*      

Positions:
   0 O     -1.360678   -2.541161   -1.202221    ( 0.0000,  0.0000,  0.0000)
   1 O     -3.121941    2.976855    1.167242    ( 0.0000,  0.0000,  0.0000)
   2 O      2.107533    0.508090    1.540712    ( 0.0000,  0.0000,  0.0000)
   3 O      3.869373   -0.072395   -0.828750    ( 0.0000,  0.0000,  0.0000)
   4 O      2.107821    2.976875    1.540792    ( 0.0000,  0.0000,  0.0000)
   5 O      3.869084   -2.541141   -0.828671    ( 0.0000,  0.0000,  0.0000)
   6 O     -1.360390   -0.072375   -1.202141    ( 0.0000,  0.0000,  0.0000)
   7 O     -3.122230    0.508109    1.167321    ( 0.0000,  0.0000,  0.0000)
   8 O     -4.413461   -1.306992   -0.794251    ( 0.0000,  0.0000,  0.0000)
   9 O     -0.069585    1.742707    1.575662    ( 0.0000,  0.0000,  0.0000)
  10 O      5.160604    1.742707    1.122822    ( 0.0000,  0.0000,  0.0000)
  11 O      0.816728   -1.306992   -1.237091    ( 0.0000,  0.0000,  0.0000)
  12 Mn    -2.570809   -1.307302    0.247161    ( 0.0000,  0.0000,  1.0000)
  13 Mn    -1.912021    1.743016   -2.122906    ( 0.0000,  0.0000, -1.0000)
  14 Mn     3.317952    1.743017    0.091411    ( 0.0000,  0.0000, -1.0000)
  15 Mn     2.659164   -1.307302    2.461478    ( 0.0000,  0.0000,  1.0000)
  16 P     -0.620664   -1.306816   -1.828465    ( 0.0000,  0.0000,  0.0000)
  17 P     -3.862097    1.742530    0.541238    ( 0.0000,  0.0000,  0.0000)
  18 P      1.367807    1.742530    2.167036    ( 0.0000,  0.0000,  0.0000)
  19 P      4.609240   -1.306816   -0.202666    ( 0.0000,  0.0000,  0.0000)
  20 O     -0.646437   -1.306845    1.374751    ( 0.0000,  0.0000,  0.0000)
  21 O     -3.836504    1.742559   -0.995565    ( 0.0000,  0.0000,  0.0000)
  22 O      1.393580    1.742559   -1.036179    ( 0.0000,  0.0000,  0.0000)
  23 O      4.583647   -1.306845    1.334136    ( 0.0000,  0.0000,  0.0000)
  24 Li    -4.856429   -2.832143   -2.200714    ( 0.0000,  0.0000,  0.0000)
  25 Li     0.373571   -2.832143    0.169286    ( 0.0000,  0.0000,  0.0000)
  26 Li    -4.856429    0.217857   -2.200714    ( 0.0000,  0.0000,  0.0000)
  27 Li     0.373571    0.217857    0.169286    ( 0.0000,  0.0000,  0.0000)

Unit cell:
           periodic     x           y           z      points  spacing
  1. axis:    yes   10.460000    0.000000    0.000000    60     0.1743
  2. axis:    yes    0.000000    6.100000    0.000000    35     0.1743
  3. axis:    yes    0.000000    0.000000    4.740000    27     0.1756

  Lengths:  10.460000   6.100000   4.740000
  Angles:   90.000000  90.000000  90.000000

Effective grid spacing dv^(1/3) = 0.1747

                     log10-error:           total        iterations:
           time      wfs    density  force  energy       poisson  magmom
iter:   1  09:22:30                       -231.918196             +0.0000
iter:   2  09:22:51  -0.55  -0.94         -231.724816             +0.0061
iter:   3  09:23:13  -0.72  -0.98         -220.588331             +0.0077
iter:   4  09:23:34  -0.96  -1.20         -218.869143             +0.0025
iter:   5  09:23:55  -1.93  -1.36         -221.298610             +0.0016
iter:   6  09:24:17  -1.98  -1.50         -220.300945             +0.0008
iter:   7  09:24:38  -2.13  -1.64         -224.423113             -0.1134
iter:   8  09:24:59  -2.47  -1.87         -224.500974             -0.1741
iter:   9  09:25:20  -2.43  -1.85         -227.128694             -0.0725
iter:  10  09:25:42  -2.81  -1.78         -227.871137             -0.0081
iter:  11  09:26:03  -2.53  -1.80         -227.382556             -0.0016
iter:  12  09:26:25  -1.36  -1.86         -227.929591             -0.0014
iter:  13  09:26:46  -2.64  -1.91         -227.154089             -0.0005
iter:  14  09:27:07  -2.35  -2.03         -226.612134             -0.0001
iter:  15  09:27:29  -2.16  -2.12         -226.576916             -0.0000
iter:  16  09:27:50  -2.27  -2.13         -226.326984             -0.0000
iter:  17  09:28:11  -2.44  -2.30         -226.445930             -0.0000
iter:  18  09:28:33  -2.70  -2.35         -226.260129             -0.0000
iter:  19  09:28:54  -3.04  -2.57         -226.239838             -0.0000
iter:  20  09:29:15  -3.70  -2.69         -226.244461             -0.0000
iter:  21  09:29:36  -3.81  -2.73         -226.233782             +0.0000
iter:  22  09:29:58  -3.98  -2.87         -226.231781             -0.0000
iter:  23  09:30:19  -4.42  -2.94         -226.230275             +0.0000
iter:  24  09:30:40  -4.47  -3.02         -226.229981             +0.0000
iter:  25  09:31:01  -4.29  -3.09         -226.232309             +0.0000
iter:  26  09:31:23  -5.10  -3.30         -226.230758             +0.0000
iter:  27  09:31:44  -4.30  -3.37         -226.227508             +0.0000
iter:  28  09:32:05  -5.58  -3.49         -226.227690             +0.0000
iter:  29  09:32:26  -5.31  -3.56         -226.227705             +0.0000
iter:  30  09:32:48  -5.80  -3.93         -226.227591             -0.0000
iter:  31  09:33:09  -5.88  -4.04         -226.227510             -0.0000
iter:  32  09:33:30  -6.31  -4.12         -226.227485             -0.0000
iter:  33  09:33:51  -6.87  -4.24         -226.227479             -0.0000
iter:  34  09:34:13  -6.73  -4.29         -226.227474             -0.0000
iter:  35  09:34:34  -6.86  -4.48         -226.227479             +0.0000
iter:  36  09:35:01  -8.11  -4.56         -226.227477             +0.0000
iter:  37  09:35:22  -6.48  -4.58         -226.227475             -0.0000
iter:  38  09:35:49  -7.43  -4.74    -2.31-226.227471             +0.0000
iter:  39  09:36:15  -8.17  -4.97    -3.03-226.227471             +0.0000
iter:  40  09:36:42  -8.22  -5.06    -3.01-226.227472             +0.0000
iter:  41  09:37:09  -7.85  -5.17    -2.85-226.227471             +0.0000
iter:  42  09:37:36  -8.55  -5.36    -3.18-226.227471             +0.0000
iter:  43  09:38:02  -8.96  -5.52    -3.46-226.227471             +0.0000
iter:  44  09:38:29  -8.86  -5.58    -3.30-226.227471             +0.0000
iter:  45  09:38:56  -9.96  -5.75    -3.82-226.227471             +0.0000
iter:  46  09:39:22 -10.03  -5.81    -3.82-226.227471             +0.0000
iter:  47  09:39:49  -9.49  -5.89    -3.67-226.227471             +0.0000
iter:  48  09:40:16  -9.29  -5.94    -3.50-226.227471             +0.0000
iter:  49  09:40:43 -10.31  -6.27    -4.05-226.227471             +0.0000
iter:  50  09:41:09 -10.60  -6.58    -4.34-226.227471             +0.0000
iter:  51  09:41:36 -11.02  -6.59    -4.43-226.227471             +0.0000
iter:  52  09:42:03 -11.36  -6.70    -4.61-226.227471             +0.0000
iter:  53  09:42:29 -11.66  -6.73    -4.67-226.227471             +0.0000
iter:  54  09:42:56 -11.99  -6.97    -5.02-226.227471             +0.0000
iter:  55  09:43:23 -11.68  -7.01    -4.63-226.227471             +0.0000
iter:  56  09:43:50 -12.87  -7.17    -5.28-226.227471             +0.0000
iter:  57  09:44:16 -12.28  -7.23    -5.05-226.227471             +0.0000
iter:  58  09:44:43 -13.07  -7.30    -5.26-226.227471             +0.0000
iter:  59  09:45:10 -12.62  -7.35    -5.54-226.227471             +0.0000
iter:  60  09:45:36 -13.35  -7.52    -5.64-226.227471             +0.0000
iter:  61  09:46:03 -12.80  -7.55    -5.27-226.227471             +0.0000
iter:  62  09:46:30 -13.79  -7.73    -6.05-226.227471             +0.0000

Converged after 62 iterations.

Dipole moment: (10.670768, 1.411060, -6.275460) |e|*Ang

Total magnetic moment: (0.000000, 0.000000, 0.000000)
Local magnetic moments:
   0 O  ( 0.000000,  0.000000, -0.000516)
   1 O  ( 0.000000,  0.000000,  0.000486)
   2 O  ( 0.000000,  0.000000,  0.000530)
   3 O  ( 0.000000,  0.000000, -0.000584)
   4 O  ( 0.000000,  0.000000,  0.000510)
   5 O  ( 0.000000,  0.000000, -0.000564)
   6 O  ( 0.000000,  0.000000, -0.000536)
   7 O  ( 0.000000,  0.000000,  0.000506)
   8 O  ( 0.000000,  0.000000,  0.028676)
   9 O  ( 0.000000,  0.000000, -0.028667)
  10 O  ( 0.000000,  0.000000, -0.028741)
  11 O  ( 0.000000,  0.000000,  0.028710)
  12 Mn ( 0.000000,  0.000000,  4.448138)
  13 Mn ( 0.000000,  0.000000, -4.448327)
  14 Mn ( 0.000000,  0.000000, -4.447665)
  15 Mn ( 0.000000,  0.000000,  4.448224)
  16 P  ( 0.000000,  0.000000,  0.001551)
  17 P  ( 0.000000,  0.000000, -0.001596)
  18 P  ( 0.000000,  0.000000, -0.001563)
  19 P  ( 0.000000,  0.000000,  0.001534)
  20 O  ( 0.000000,  0.000000,  0.025308)
  21 O  ( 0.000000,  0.000000, -0.025424)
  22 O  ( 0.000000,  0.000000, -0.025279)
  23 O  ( 0.000000,  0.000000,  0.025292)
  24 Li ( 0.000000,  0.000000,  0.000007)
  25 Li ( 0.000000,  0.000000, -0.000000)
  26 Li ( 0.000000,  0.000000,  0.000007)
  27 Li ( 0.000000,  0.000000, -0.000000)

Energy contributions relative to reference atoms: (reference = -196157.275402)

Kinetic:       +217.668874
Potential:     -195.483774
External:        +0.000000
XC:            -250.452665
Entropy (-ST):   -0.000000
Local:           +2.040094
--------------------------
Free energy:   -226.227471
Extrapolated:  -226.227471

Spin contamination: 9.560285 electrons
Showing only first 2 kpts
                      Up                     Down
 Kpt  Band  Eigenvalues  Occupancy  Eigenvalues  Occupancy
  0    88      5.11040    1.00000      5.11536    1.00000
  0    89      5.13484    1.00000      5.13911    1.00000
  0    90      7.29092    0.00000      7.28929    0.00000
  0    91      7.30867    0.00000      7.30693    0.00000

  1    88      5.13607    1.00000      5.14075    1.00000
  1    89      5.16527    1.00000      5.16983    1.00000
  1    90      7.23326    0.00000      7.23208    0.00000
  1    91      7.24572    0.00000      7.24423    0.00000


Fermi level: 6.09782

Gap: 1.968 eV
Transition (v -> c):
  (s=1, k=73, n=89, [0.08, -0.42, -0.12]) -> (s=1, k=85, n=90, [0.08, 0.08, -0.12])
Writing to born-0.01-10z-.gpw (mode='all')

Timing:                              incl.     excl.
-----------------------------------------------------------
Hamiltonian:                         0.259     0.002   0.0% |
 Atomic:                             0.070     0.070   0.0% |
  XC Correction:                     0.000     0.000   0.0% |
 Calculate atomic Hamiltonians:      0.094     0.094   0.0% |
 Communicate:                        0.000     0.000   0.0% |
 Initialize Hamiltonian:             0.000     0.000   0.0% |
 Poisson:                            0.001     0.001   0.0% |
 XC 3D grid:                         0.091     0.091   0.0% |
LCAO initialization:                70.644     0.674   0.0% |
 LCAO eigensolver:                  18.068     0.002   0.0% |
  Calculate projections:             0.029     0.029   0.0% |
  DenseAtomicCorrection:             0.042     0.042   0.0% |
  Distribute overlap matrix:         0.175     0.175   0.0% |
  Orbital Layouts:                   0.276     0.276   0.0% |
  Potential matrix:                 17.455    17.455   0.5% |
  Sum over cells:                    0.087     0.087   0.0% |
 LCAO to grid:                      50.590    50.590   1.4% ||
 Set positions (LCAO WFS):           1.312     0.212   0.0% |
  Basic WFS set positions:           0.001     0.001   0.0% |
  Basis functions set positions:     0.000     0.000   0.0% |
  P tci:                             0.519     0.519   0.0% |
  ST tci:                            0.366     0.366   0.0% |
  mktci:                             0.212     0.212   0.0% |
PWDescriptor:                        0.025     0.025   0.0% |
SCF-cycle:                        1462.254     5.254   0.1% |
 Davidson:                        1247.082   399.837  10.8% |---|
  Apply H:                          83.042    80.630   2.2% ||
   HMM T:                            2.412     2.412   0.1% |
  Subspace diag:                   178.620     0.180   0.0% |
   calc_h_matrix:                  113.891    31.186   0.8% |
    Apply H:                        82.705    80.323   2.2% ||
     HMM T:                          2.381     2.381   0.1% |
   diagonalize:                      6.299     6.299   0.2% |
   rotate_psi:                      58.251    58.251   1.6% ||
  calc. matrices:                  373.211   208.116   5.6% |-|
   Apply H:                        165.096   160.333   4.3% |-|
    HMM T:                           4.762     4.762   0.1% |
  diagonalize:                      96.240    96.240   2.6% ||
  rotate_psi:                      116.131   116.131   3.1% ||
 Density:                           49.635     0.001   0.0% |
  Atomic density matrices:           0.823     0.823   0.0% |
  Mix:                               8.563     8.563   0.2% |
  Multipole moments:                 0.022     0.022   0.0% |
  Pseudo density:                   40.225    40.223   1.1% |
   Symmetrize density:               0.002     0.002   0.0% |
 Forces:                           142.796   142.796   3.9% |-|
 Hamiltonian:                       15.183     0.133   0.0% |
  Atomic:                            3.454     3.454   0.1% |
   XC Correction:                    0.000     0.000   0.0% |
  Calculate atomic Hamiltonians:     5.855     5.855   0.2% |
  Communicate:                       0.016     0.016   0.0% |
  Poisson:                           0.057     0.057   0.0% |
  XC 3D grid:                        5.667     5.667   0.2% |
 Orthonormalize:                     2.304     0.003   0.0% |
  calc_s_matrix:                     0.266     0.266   0.0% |
  inverse-cholesky:                  0.042     0.042   0.0% |
  projections:                       1.501     1.501   0.0% |
  rotate_psi_s:                      0.492     0.492   0.0% |
Set symmetry:                        0.000     0.000   0.0% |
Other:                            2159.163  2159.163  58.5% |----------------------|
-----------------------------------------------------------
Total:                                      3692.344 100.0%

Memory usage: 12.24 GiB
Date: Tue Mar 30 10:22:28 2021
