
  ___ ___ ___ _ _ _  
 |   |   |_  | | | | 
 | | | | | . | | | | 
 |__ |  _|___|_____|  21.1.1b1
 |___|_|             

User:   madkru@g043.nifl.fysik.dtu.dk
Date:   Wed Mar 31 20:38:25 2021
Arch:   x86_64
Pid:    39387
Python: 3.8.6
gpaw:   /home/niflheim/madkru/venv_madkru/gpaw/gpaw (e6f0d78a31)
_gpaw:  /home/niflheim/madkru/venv_madkru/gpaw/build/lib.linux-x86_64-sandybridge-3.8/
        _gpaw.cpython-38-x86_64-linux-gnu.so (e6f0d78a31)
ase:    /home/niflheim/madkru/venv_madkru/ase/ase (version 3.22.0b1-4d5a73cb29)
numpy:  /home/modules/software/SciPy-bundle/2020.11-foss-2020b/lib/python3.8/site-packages/numpy (version 1.19.4)
scipy:  /home/modules/software/SciPy-bundle/2020.11-foss-2020b/lib/python3.8/site-packages/scipy (version 1.5.4)
libxc:  4.3.4
units:  Angstrom and eV
cores: 64
OpenMP: False
OMP_NUM_THREADS: 1

Input parameters:
  convergence: {bands: occupied,
                density: 0.0001,
                eigenstates: 4e-08,
                energy: 0.0005,
                forces: 1e-06}
  kpts: [6 6 4]
  maxiter: 1000
  mode: {ecut: 600.0,
         gammacentered: False,
         name: pw}
  occupations: {fixmagmom: False,
                name: fermi-dirac,
                width: 0.001}
  symmetry: {point_group: False,
             time_reversal: False}

System changes: positions, numbers, cell, pbc, initial_charges, initial_magmoms 

Initialize ...

O-setup:
  name: Oxygen
  id: 9b9d51c344dea68c822856295a461509
  Z: 8.0
  valence: 6
  core: 2
  charge: 0.0
  file: /home/modules/software/GPAW-setups/0.9.20000/O.LDA.gz
  compensation charges: gauss, rc=0.21, lmax=2
  cutoffs: 1.17(filt), 0.83(core),
  valence states:
                energy  radius
    2s(2.00)   -23.752   0.688
    2p(4.00)    -9.195   0.598
    *s           3.459   0.688
    *p          18.016   0.598
    *d           0.000   0.619

  Using partial waves for O as LCAO basis

Mn-setup:
  name: Manganese
  id: 0d715a8018be061a6e9ea6f2d364ac92
  Z: 25.0
  valence: 15
  core: 10
  charge: 0.0
  file: /home/modules/software/GPAW-setups/0.9.20000/Mn.LDA.gz
  compensation charges: gauss, rc=0.38, lmax=2
  cutoffs: 2.14(filt), 0.86(core),
  valence states:
                energy  radius
    3s(2.00)   -85.387   1.275
    4s(2.00)    -5.282   1.275
    3p(6.00)   -54.493   1.281
    4p(0.00)    -1.471   1.281
    3d(5.00)    -7.009   1.138
    *d          20.203   1.138

  Using partial waves for Mn as LCAO basis

P-setup:
  name: Phosphorus
  id: a5561c299094968922a179ab894d2e2d
  Z: 15.0
  valence: 5
  core: 10
  charge: 0.0
  file: /home/modules/software/GPAW-setups/0.9.20000/P.LDA.gz
  compensation charges: gauss, rc=0.30, lmax=2
  cutoffs: 1.69(filt), 1.81(core),
  valence states:
                energy  radius
    3s(2.00)   -14.015   0.953
    3p(3.00)    -5.596   0.953
    *s          13.197   0.953
    *p          21.615   0.953
    *d           0.000   0.953

  Using partial waves for P as LCAO basis

Li-setup:
  name: Lithium
  id: b73562207f97a71b6967473b66fe8b65
  Z: 3.0
  valence: 1
  core: 2
  charge: 0.0
  file: /home/modules/software/GPAW-setups/0.9.20000/Li.LDA.gz
  compensation charges: gauss, rc=0.33, lmax=2
  cutoffs: 1.91(filt), 2.55(core),
  valence states:
                energy  radius
    2s(1.00)    -2.874   1.058
    2p(0.00)    -1.126   1.058
    *s          24.338   1.058

  Using partial waves for Li as LCAO basis

Reference energy: -196157.275402

Spin-polarized calculation.
Magnetic moment: 0.000000

Convergence criteria:
  Maximum total energy change: 0.0005 eV / electron
  Maximum integral of absolute density change: 0.0001 electrons
  Maximum integral of absolute eigenstate change: 4e-08 eV^2
  Maximum change in atomic force: 1e-06 eV / Ang
  Maximum number of iterations: 1000

Symmetries present (total): 1

  ( 1  0  0)
  ( 0  1  0)
  ( 0  0  1)

144 k-points: 6 x 6 x 4 Monkhorst-Pack grid
144 k-points in the irreducible part of the Brillouin zone
       k-points in crystal coordinates                weights
   0:    -0.41666667   -0.41666667   -0.37500000          1/144
   1:    -0.41666667   -0.41666667   -0.12500000          1/144
   2:    -0.41666667   -0.41666667    0.12500000          1/144
   3:    -0.41666667   -0.41666667    0.37500000          1/144
   4:    -0.41666667   -0.25000000   -0.37500000          1/144
   5:    -0.41666667   -0.25000000   -0.12500000          1/144
   6:    -0.41666667   -0.25000000    0.12500000          1/144
   7:    -0.41666667   -0.25000000    0.37500000          1/144
   8:    -0.41666667   -0.08333333   -0.37500000          1/144
   9:    -0.41666667   -0.08333333   -0.12500000          1/144
          ...
 143:     0.41666667    0.41666667    0.37500000          1/144

Wave functions: Plane wave expansion
  Cutoff energy: 600.000 eV
  Number of coefficients (min, max): 10068, 10125
  Pulay-stress correction: 0.000000 eV/Ang^3 (de/decut=0.000000)
  Using FFTW library
  ScaLapack parameters: grid=1x1, blocksize=None
  Wavefunction extrapolation:
    Improved wavefunction reuse through dual PAW basis 

  Fermi-Dirac: width=0.0010 eV

Eigensolver
   Davidson(niter=2) 

Densities:
  Coarse grid: 60*35*27 grid
  Fine grid: 120*70*54 grid
  Total Charge: 0.000000 

Density mixing:
  Method: difference
  Backend: pulay
  Linear mixing parameter: 0.05
  Mixing with 5 old densities
  Damping of long wave oscillations: 50 

Hamiltonian:
  XC and Coulomb potentials evaluated on a 120*70*54 grid
  Using the LDA Exchange-Correlation functional
 

Memory estimate:
  Process memory now: 14415.33 MiB
  Calculator: 354.82 MiB
    Density: 10.06 MiB
      Arrays: 3.79 MiB
      Localized functions: 4.71 MiB
      Mixer: 1.56 MiB
    Hamiltonian: 2.95 MiB
      Arrays: 2.82 MiB
      XC: 0.00 MiB
      Poisson: 0.00 MiB
      vbar: 0.14 MiB
    Wavefunctions: 341.80 MiB
      Arrays psit_nG: 311.46 MiB
      Eigensolver: 19.99 MiB
      Projections: 2.71 MiB
      Projectors: 4.87 MiB
      PW-descriptor: 2.77 MiB

Total number of cores used: 64
Parallelization over k-points: 16
Domain decomposition: 2 x 2 x 1

Number of atoms: 28
Number of atomic orbitals: 148
Number of bands in calculation: 112
Number of valence electrons: 180
Bands to converge: occupied

... initialized

Initializing position-dependent things.

Density initialized from atomic densities
Creating initial wave functions:
  112 bands from LCAO basis set

     .-------------------------.  
    /|         OP              |  
   / |O            O        O  |  
  /  |       O            O  P |  
 *   |O    Mn      O           |  
 |   |          OLi          O |  
 |   .P-O--------------Mn------.  
 |  /          Li    O  Mn  O /   
 | /Li O           PO        /    
 |/       Mn                /     
 *Li-----------------------*      

Positions:
   0 O     -1.360678   -2.541161   -1.202221    ( 0.0000,  0.0000,  0.0000)
   1 O     -3.121941    2.976855    1.167242    ( 0.0000,  0.0000,  0.0000)
   2 O      2.107533    0.508090    1.540712    ( 0.0000,  0.0000,  0.0000)
   3 O      3.869373   -0.072395   -0.828750    ( 0.0000,  0.0000,  0.0000)
   4 O      2.107821    2.976875    1.540792    ( 0.0000,  0.0000,  0.0000)
   5 O      3.869084   -2.541141   -0.828671    ( 0.0000,  0.0000,  0.0000)
   6 O     -1.360390   -0.072375   -1.202141    ( 0.0000,  0.0000,  0.0000)
   7 O     -3.122230    0.508109    1.167321    ( 0.0000,  0.0000,  0.0000)
   8 O     -4.413461   -1.306992   -0.794251    ( 0.0000,  0.0000,  0.0000)
   9 O     -0.069585    1.742707    1.575662    ( 0.0000,  0.0000,  0.0000)
  10 O      5.160604    1.742707    1.132822    ( 0.0000,  0.0000,  0.0000)
  11 O      0.816728   -1.306992   -1.237091    ( 0.0000,  0.0000,  0.0000)
  12 Mn    -2.570809   -1.307302    0.247161    ( 0.0000,  0.0000,  1.0000)
  13 Mn    -1.912021    1.743016   -2.122906    ( 0.0000,  0.0000, -1.0000)
  14 Mn     3.317952    1.743017    0.091411    ( 0.0000,  0.0000, -1.0000)
  15 Mn     2.659164   -1.307302    2.461478    ( 0.0000,  0.0000,  1.0000)
  16 P     -0.620664   -1.306816   -1.828465    ( 0.0000,  0.0000,  0.0000)
  17 P     -3.862097    1.742530    0.541238    ( 0.0000,  0.0000,  0.0000)
  18 P      1.367807    1.742530    2.167036    ( 0.0000,  0.0000,  0.0000)
  19 P      4.609240   -1.306816   -0.202666    ( 0.0000,  0.0000,  0.0000)
  20 O     -0.646437   -1.306845    1.364751    ( 0.0000,  0.0000,  0.0000)
  21 O     -3.836504    1.742559   -0.995565    ( 0.0000,  0.0000,  0.0000)
  22 O      1.393580    1.742559   -1.036179    ( 0.0000,  0.0000,  0.0000)
  23 O      4.583647   -1.306845    1.334136    ( 0.0000,  0.0000,  0.0000)
  24 Li    -4.856429   -2.832143   -2.200714    ( 0.0000,  0.0000,  0.0000)
  25 Li     0.373571   -2.832143    0.169286    ( 0.0000,  0.0000,  0.0000)
  26 Li    -4.856429    0.217857   -2.200714    ( 0.0000,  0.0000,  0.0000)
  27 Li     0.373571    0.217857    0.169286    ( 0.0000,  0.0000,  0.0000)

Unit cell:
           periodic     x           y           z      points  spacing
  1. axis:    yes   10.460000    0.000000    0.000000    60     0.1743
  2. axis:    yes    0.000000    6.100000    0.000000    35     0.1743
  3. axis:    yes    0.000000    0.000000    4.740000    27     0.1756

  Lengths:  10.460000   6.100000   4.740000
  Angles:   90.000000  90.000000  90.000000

Effective grid spacing dv^(1/3) = 0.1747

                     log10-error:           total        iterations:
           time      wfs    density  force  energy       poisson  magmom
iter:   1  20:40:00                       -231.924425             +0.0000
iter:   2  20:40:22  -0.55  -0.94         -231.722136             +0.0058
iter:   3  20:40:43  -0.72  -0.98         -220.593085             +0.0072
iter:   4  20:41:04  -0.95  -1.20         -218.883025             +0.0024
iter:   5  20:41:25  -1.95  -1.36         -221.719983             +0.0015
iter:   6  20:41:47  -2.01  -1.47         -220.266395             -0.0008
iter:   7  20:42:08  -1.92  -1.67         -224.836117             +0.3081
iter:   8  20:42:29  -2.42  -1.79         -225.496838             -0.8245
iter:   9  20:42:51  -2.59  -1.84         -226.811635             -0.6535
iter:  10  20:43:12  -2.62  -1.81         -227.211862             -0.1544
iter:  11  20:43:33  -2.72  -1.80         -227.472878             -0.0469
iter:  12  20:43:54  -3.01  -1.78         -227.113478             -0.0107
iter:  13  20:44:16  -1.47  -1.81         -226.629880             -0.0092
iter:  14  20:44:37  -2.71  -2.15         -226.536380             -0.0033
iter:  15  20:44:58  -1.84  -2.19         -226.416535             +0.0083
iter:  16  20:45:19  -2.34  -2.31         -226.256859             +0.0018
iter:  17  20:45:41  -3.52  -2.54         -226.251789             +0.0013
iter:  18  20:46:02  -3.03  -2.67         -226.242029             +0.0003
iter:  19  20:46:23  -3.58  -2.68         -226.228007             +0.0003
iter:  20  20:46:44  -4.37  -2.93         -226.226797             +0.0001
iter:  21  20:47:06  -4.45  -3.02         -226.226788             -0.0000
iter:  22  20:47:27  -5.07  -3.10         -226.226835             -0.0000
iter:  23  20:47:48  -4.74  -3.14         -226.226505             -0.0000
iter:  24  20:48:09  -5.58  -3.25         -226.226625             -0.0000
iter:  25  20:48:31  -5.08  -3.28         -226.227120             -0.0000
iter:  26  20:48:52  -5.08  -3.36         -226.226351             -0.0000
iter:  27  20:49:13  -5.35  -3.48         -226.226178             -0.0000
iter:  28  20:49:34  -5.72  -3.58         -226.226065             -0.0000
iter:  29  20:49:56  -5.49  -3.65         -226.225992             -0.0000
iter:  30  20:50:17  -6.62  -3.89         -226.225983             -0.0000
iter:  31  20:50:38  -6.21  -3.99         -226.225993             -0.0000
iter:  32  20:50:59  -6.90  -4.20         -226.225975             -0.0000
iter:  33  20:51:20  -6.61  -4.28         -226.225961             -0.0000
iter:  34  20:51:42  -7.28  -4.38         -226.225959             -0.0000
iter:  35  20:52:03  -6.69  -4.42         -226.225953             -0.0000
iter:  36  20:52:24  -7.24  -4.80         -226.225952             -0.0000
iter:  37  20:52:51  -8.50  -4.96         -226.225952             -0.0000
iter:  38  20:53:18  -8.49  -5.04    -3.02-226.225952             -0.0000
iter:  39  20:53:44  -8.61  -5.14    -2.99-226.225951             -0.0000
iter:  40  20:54:11  -8.78  -5.31    -3.30-226.225951             -0.0000
iter:  41  20:54:38  -9.71  -5.44    -3.63-226.225951             -0.0000
iter:  42  20:55:04  -8.73  -5.51    -3.22-226.225951             -0.0000
iter:  43  20:55:31  -9.79  -5.78    -3.78-226.225951             -0.0000
iter:  44  20:55:58 -10.10  -5.80    -3.98-226.225951             -0.0000
iter:  45  20:56:25 -10.15  -5.82    -4.13-226.225951             -0.0000
iter:  46  20:56:51 -10.08  -5.85    -3.70-226.225951             -0.0000
iter:  47  20:57:18 -10.32  -5.99    -4.20-226.225951             -0.0000
iter:  48  20:57:45 -10.72  -6.04    -4.40-226.225951             -0.0000
iter:  49  20:58:11 -10.92  -6.08    -4.01-226.225951             -0.0000
iter:  50  20:58:38 -11.47  -6.16    -4.66-226.225951             -0.0000
iter:  51  20:59:05 -11.37  -6.21    -4.32-226.225951             -0.0000
iter:  52  20:59:32 -11.21  -6.31    -4.55-226.225951             -0.0000
iter:  53  20:59:58 -11.30  -6.38    -4.70-226.225951             -0.0000
iter:  54  21:00:25 -11.68  -6.47    -5.04-226.225951             -0.0000
iter:  55  21:00:52 -11.06  -6.50    -4.31-226.225951             -0.0000
iter:  56  21:01:18 -12.05  -7.00    -4.83-226.225951             -0.0000
iter:  57  21:01:45 -12.89  -7.27    -5.67-226.225951             -0.0000
iter:  58  21:02:12 -12.41  -7.32    -5.11-226.225951             -0.0000
iter:  59  21:02:38 -12.69  -7.65    -5.29-226.225951             +0.0000
iter:  60  21:03:05 -13.33  -7.66    -5.55-226.225951             -0.0000
iter:  61  21:03:32 -14.04  -7.83    -5.83-226.225951             -0.0000
iter:  62  21:03:59 -13.97  -7.90    -5.85-226.225951             -0.0000
iter:  63  21:04:25 -14.27  -7.95    -6.08-226.225951             -0.0000

Converged after 63 iterations.

Dipole moment: (10.681033, 1.410904, -6.261621) |e|*Ang

Total magnetic moment: (0.000000, 0.000000, -0.000000)
Local magnetic moments:
   0 O  ( 0.000000,  0.000000, -0.000592)
   1 O  ( 0.000000,  0.000000,  0.000550)
   2 O  ( 0.000000,  0.000000,  0.000548)
   3 O  ( 0.000000,  0.000000, -0.000552)
   4 O  ( 0.000000,  0.000000,  0.000528)
   5 O  ( 0.000000,  0.000000, -0.000532)
   6 O  ( 0.000000,  0.000000, -0.000612)
   7 O  ( 0.000000,  0.000000,  0.000570)
   8 O  ( 0.000000,  0.000000,  0.028557)
   9 O  ( 0.000000,  0.000000, -0.028696)
  10 O  ( 0.000000,  0.000000, -0.028699)
  11 O  ( 0.000000,  0.000000,  0.028716)
  12 Mn ( 0.000000,  0.000000,  4.447785)
  13 Mn ( 0.000000,  0.000000, -4.448290)
  14 Mn ( 0.000000,  0.000000, -4.448145)
  15 Mn ( 0.000000,  0.000000,  4.448280)
  16 P  ( 0.000000,  0.000000,  0.001642)
  17 P  ( 0.000000,  0.000000, -0.001518)
  18 P  ( 0.000000,  0.000000, -0.001558)
  19 P  ( 0.000000,  0.000000,  0.001542)
  20 O  ( 0.000000,  0.000000,  0.025538)
  21 O  ( 0.000000,  0.000000, -0.025313)
  22 O  ( 0.000000,  0.000000, -0.025312)
  23 O  ( 0.000000,  0.000000,  0.025319)
  24 Li ( 0.000000,  0.000000,  0.000000)
  25 Li ( 0.000000,  0.000000,  0.000012)
  26 Li ( 0.000000,  0.000000,  0.000000)
  27 Li ( 0.000000,  0.000000,  0.000012)

Energy contributions relative to reference atoms: (reference = -196157.275402)

Kinetic:       +216.646965
Potential:     -194.682752
External:        +0.000000
XC:            -250.233271
Entropy (-ST):   -0.000000
Local:           +2.043106
--------------------------
Free energy:   -226.225951
Extrapolated:  -226.225951

Spin contamination: 9.560574 electrons
Showing only first 2 kpts
                      Up                     Down
 Kpt  Band  Eigenvalues  Occupancy  Eigenvalues  Occupancy
  0    88      5.11373    1.00000      5.10947    1.00000
  0    89      5.14318    1.00000      5.13417    1.00000
  0    90      7.28831    0.00000      7.28977    0.00000
  0    91      7.30578    0.00000      7.30798    0.00000

  1    88      5.13963    1.00000      5.13518    1.00000
  1    89      5.17378    1.00000      5.16459    1.00000
  1    90      7.23118    0.00000      7.23222    0.00000
  1    91      7.24309    0.00000      7.24565    0.00000


Fermi level: 6.10204

Gap: 1.964 eV
Transition (v -> c):
  (s=0, k=69, n=89, [-0.08, 0.42, -0.12]) -> (s=0, k=58, n=90, [-0.08, -0.08, 0.12])
Writing to born-0.01-20z-.gpw (mode='all')

Timing:                              incl.     excl.
-----------------------------------------------------------
Hamiltonian:                         0.259     0.003   0.0% |
 Atomic:                             0.069     0.069   0.0% |
  XC Correction:                     0.000     0.000   0.0% |
 Calculate atomic Hamiltonians:      0.094     0.094   0.0% |
 Communicate:                        0.000     0.000   0.0% |
 Initialize Hamiltonian:             0.000     0.000   0.0% |
 Poisson:                            0.001     0.001   0.0% |
 XC 3D grid:                         0.091     0.091   0.0% |
LCAO initialization:                70.192     0.716   0.0% |
 LCAO eigensolver:                  18.009     0.002   0.0% |
  Calculate projections:             0.029     0.029   0.0% |
  DenseAtomicCorrection:             0.043     0.043   0.0% |
  Distribute overlap matrix:         0.005     0.005   0.0% |
  Orbital Layouts:                   0.279     0.279   0.0% |
  Potential matrix:                 17.568    17.568   0.5% |
  Sum over cells:                    0.084     0.084   0.0% |
 LCAO to grid:                      50.186    50.186   1.3% ||
 Set positions (LCAO WFS):           1.281     0.181   0.0% |
  Basic WFS set positions:           0.001     0.001   0.0% |
  Basis functions set positions:     0.000     0.000   0.0% |
  P tci:                             0.514     0.514   0.0% |
  ST tci:                            0.368     0.368   0.0% |
  mktci:                             0.216     0.216   0.0% |
PWDescriptor:                        0.026     0.026   0.0% |
SCF-cycle:                        1489.009     6.648   0.2% |
 Davidson:                        1265.792   405.800  10.5% |---|
  Apply H:                          84.143    81.772   2.1% ||
   HMM T:                            2.371     2.371   0.1% |
  Subspace diag:                   181.613     0.187   0.0% |
   calc_h_matrix:                  115.688    31.696   0.8% |
    Apply H:                        83.992    81.687   2.1% ||
     HMM T:                          2.305     2.305   0.1% |
   diagonalize:                      6.414     6.414   0.2% |
   rotate_psi:                      59.323    59.323   1.5% ||
  calc. matrices:                  378.358   211.648   5.5% |-|
   Apply H:                        166.710   162.056   4.2% |-|
    HMM T:                           4.654     4.654   0.1% |
  diagonalize:                      97.580    97.580   2.5% ||
  rotate_psi:                      118.299   118.299   3.1% ||
 Density:                           50.481     0.001   0.0% |
  Atomic density matrices:           0.850     0.850   0.0% |
  Mix:                               8.645     8.645   0.2% |
  Multipole moments:                 0.023     0.023   0.0% |
  Pseudo density:                   40.962    40.960   1.1% |
   Symmetrize density:               0.002     0.002   0.0% |
 Forces:                           148.365   148.365   3.9% |-|
 Hamiltonian:                       15.440     0.137   0.0% |
  Atomic:                            3.582     3.582   0.1% |
   XC Correction:                    0.000     0.000   0.0% |
  Calculate atomic Hamiltonians:     5.873     5.873   0.2% |
  Communicate:                       0.022     0.022   0.0% |
  Poisson:                           0.057     0.057   0.0% |
  XC 3D grid:                        5.769     5.769   0.1% |
 Orthonormalize:                     2.284     0.003   0.0% |
  calc_s_matrix:                     0.264     0.264   0.0% |
  inverse-cholesky:                  0.040     0.040   0.0% |
  projections:                       1.488     1.488   0.0% |
  rotate_psi_s:                      0.489     0.489   0.0% |
Set symmetry:                        0.000     0.000   0.0% |
Other:                            2290.889  2290.889  59.5% |-----------------------|
-----------------------------------------------------------
Total:                                      3850.375 100.0%

Memory usage: 14.08 GiB
Date: Wed Mar 31 21:42:35 2021
