
  ___ ___ ___ _ _ _  
 |   |   |_  | | | | 
 | | | | | . | | | | 
 |__ |  _|___|_____|  20.10.1b1
 |___|_|             

User:   madkru@g064.nifl.fysik.dtu.dk
Date:   Sun Mar 21 20:43:54 2021
Arch:   x86_64
Pid:    60512
Python: 3.7.4
gpaw:   /home/niflheim/madkru/venv_folder/gpaw/gpaw (d0d1ca1c71)
_gpaw:  /home/niflheim/madkru/venv_folder/gpaw/build/lib.linux-x86_64-sandybridge-3.7/
        _gpaw.cpython-37m-x86_64-linux-gnu.so (4fd39e8b1e)
ase:    /home/niflheim/madkru/venv_folder/ase/ase (version 3.21.0b1-7e6c206a91)
numpy:  /home/niflheim/madkru/venv_folder/lib/python3.7/site-packages/numpy (version 1.19.4)
scipy:  /home/niflheim/madkru/venv_folder/lib/python3.7/site-packages/scipy (version 1.5.4)
libxc:  4.3.4
units:  Angstrom and eV
cores: 32
OMP_NUM_THREADS: 1

Input parameters:
  convergence: {bands: occupied,
                density: 0.0001,
                eigenstates: 4e-08,
                energy: 0.0005,
                forces: 1e-06}
  kpts: [6 6 4]
  mode: {ecut: 600.0,
         gammacentered: False,
         name: pw}
  occupations: {fixmagmom: False,
                name: fermi-dirac,
                width: 0.001}
  symmetry: {point_group: False,
             time_reversal: False}

System changes: positions, numbers, cell, pbc, initial_charges, initial_magmoms 

Initialize ...

O-setup:
  name: Oxygen
  id: 9b9d51c344dea68c822856295a461509
  Z: 8.0
  valence: 6
  core: 2
  charge: 0.0
  file: /home/modules/software/GPAW-setups/0.9.20000/O.LDA.gz
  compensation charges: gauss, rc=0.21, lmax=2
  cutoffs: 1.17(filt), 0.83(core),
  valence states:
                energy  radius
    2s(2.00)   -23.752   0.688
    2p(4.00)    -9.195   0.598
    *s           3.459   0.688
    *p          18.016   0.598
    *d           0.000   0.619

  Using partial waves for O as LCAO basis

Mn-setup:
  name: Manganese
  id: 0d715a8018be061a6e9ea6f2d364ac92
  Z: 25.0
  valence: 15
  core: 10
  charge: 0.0
  file: /home/modules/software/GPAW-setups/0.9.20000/Mn.LDA.gz
  compensation charges: gauss, rc=0.38, lmax=2
  cutoffs: 2.14(filt), 0.86(core),
  valence states:
                energy  radius
    3s(2.00)   -85.387   1.275
    4s(2.00)    -5.282   1.275
    3p(6.00)   -54.493   1.281
    4p(0.00)    -1.471   1.281
    3d(5.00)    -7.009   1.138
    *d          20.203   1.138

  Using partial waves for Mn as LCAO basis

P-setup:
  name: Phosphorus
  id: a5561c299094968922a179ab894d2e2d
  Z: 15.0
  valence: 5
  core: 10
  charge: 0.0
  file: /home/modules/software/GPAW-setups/0.9.20000/P.LDA.gz
  compensation charges: gauss, rc=0.30, lmax=2
  cutoffs: 1.69(filt), 1.81(core),
  valence states:
                energy  radius
    3s(2.00)   -14.015   0.953
    3p(3.00)    -5.596   0.953
    *s          13.197   0.953
    *p          21.615   0.953
    *d           0.000   0.953

  Using partial waves for P as LCAO basis

Li-setup:
  name: Lithium
  id: b73562207f97a71b6967473b66fe8b65
  Z: 3.0
  valence: 1
  core: 2
  charge: 0.0
  file: /home/modules/software/GPAW-setups/0.9.20000/Li.LDA.gz
  compensation charges: gauss, rc=0.33, lmax=2
  cutoffs: 1.91(filt), 2.55(core),
  valence states:
                energy  radius
    2s(1.00)    -2.874   1.058
    2p(0.00)    -1.126   1.058
    *s          24.338   1.058

  Using partial waves for Li as LCAO basis

Reference energy: -196157.275402

Spin-polarized calculation.
Magnetic moment: 0.000000

Convergence criteria:
  Maximum total energy change: 0.0005 eV / electron
  Maximum integral of absolute density change: 0.0001 electrons
  Maximum integral of absolute eigenstate change: 4e-08 eV^2
  Maximum change in atomic force: 1e-06 eV / Ang
  Maximum number of iterations: 333

Symmetries present (total): 1

  ( 1  0  0)
  ( 0  1  0)
  ( 0  0  1)

144 k-points: 6 x 6 x 4 Monkhorst-Pack grid
144 k-points in the irreducible part of the Brillouin zone
       k-points in crystal coordinates                weights
   0:    -0.41666667   -0.41666667   -0.37500000          1/144
   1:    -0.41666667   -0.41666667   -0.12500000          1/144
   2:    -0.41666667   -0.41666667    0.12500000          1/144
   3:    -0.41666667   -0.41666667    0.37500000          1/144
   4:    -0.41666667   -0.25000000   -0.37500000          1/144
   5:    -0.41666667   -0.25000000   -0.12500000          1/144
   6:    -0.41666667   -0.25000000    0.12500000          1/144
   7:    -0.41666667   -0.25000000    0.37500000          1/144
   8:    -0.41666667   -0.08333333   -0.37500000          1/144
   9:    -0.41666667   -0.08333333   -0.12500000          1/144
          ...
 143:     0.41666667    0.41666667    0.37500000          1/144

Wave functions: Plane wave expansion
  Cutoff energy: 600.000 eV
  Number of coefficients (min, max): 10068, 10125
  Pulay-stress correction: 0.000000 eV/Ang^3 (de/decut=0.000000)
  Using FFTW library
  ScaLapack parameters: grid=1x1, blocksize=None
  Wavefunction extrapolation:
    Improved wavefunction reuse through dual PAW basis 

  Fermi-Dirac: width=0.0010 eV

Eigensolver
   Davidson(niter=2, smin=None, normalize=True) 

Densities:
  Coarse grid: 60*35*27 grid
  Fine grid: 120*70*54 grid
  Total Charge: 0.000000 

Density mixing:
  Method: difference
  Backend: pulay
  Linear mixing parameter: 0.05
  Mixing with 5 old densities
  Damping of long wave oscillations: 50 

Hamiltonian:
  XC and Coulomb potentials evaluated on a 120*70*54 grid
  Using the LDA Exchange-Correlation functional
 

Memory estimate:
  Process memory now: 12709.08 MiB
  Calculator: 375.55 MiB
    Density: 20.02 MiB
      Arrays: 7.57 MiB
      Localized functions: 9.42 MiB
      Mixer: 3.03 MiB
    Hamiltonian: 5.90 MiB
      Arrays: 5.62 MiB
      XC: 0.00 MiB
      Poisson: 0.00 MiB
      vbar: 0.27 MiB
    Wavefunctions: 349.64 MiB
      Arrays psit_nG: 311.46 MiB
      Eigensolver: 19.99 MiB
      Projections: 5.41 MiB
      Projectors: 9.73 MiB
      PW-descriptor: 3.03 MiB

Total number of cores used: 32
Parallelization over k-points: 16
Domain decomposition: 2 x 1 x 1

Number of atoms: 28
Number of atomic orbitals: 148
Number of bands in calculation: 112
Number of valence electrons: 180
Bands to converge: occupied

... initialized

Initializing position-dependent things.

Density initialized from atomic densities
Creating initial wave functions:
  112 bands from LCAO basis set

     .-------------------------.  
    /|         OP              |  
   / |O            O        O  |  
  /  |       O            O  P |  
 *   |O    Mn      O           |  
 |   |          OLi          O |  
 |   .P-O--------------Mn------.  
 |  /          Li    O  Mn  O /   
 | /Li O           PO        /    
 |/       Mn                /     
 *Li-----------------------*      

Positions:
   0 O     -1.360678   -2.541161   -1.202221    ( 0.0000,  0.0000,  0.0000)
   1 O     -3.121941    2.976855    1.167242    ( 0.0000,  0.0000,  0.0000)
   2 O      2.107533    0.508090    1.540712    ( 0.0000,  0.0000,  0.0000)
   3 O      3.879373   -0.072395   -0.828750    ( 0.0000,  0.0000,  0.0000)
   4 O      2.107821    2.976875    1.540792    ( 0.0000,  0.0000,  0.0000)
   5 O      3.869084   -2.541141   -0.828671    ( 0.0000,  0.0000,  0.0000)
   6 O     -1.360390   -0.072375   -1.202141    ( 0.0000,  0.0000,  0.0000)
   7 O     -3.122230    0.508109    1.167321    ( 0.0000,  0.0000,  0.0000)
   8 O     -4.413461   -1.306992   -0.794251    ( 0.0000,  0.0000,  0.0000)
   9 O     -0.069585    1.742707    1.575662    ( 0.0000,  0.0000,  0.0000)
  10 O      5.160604    1.742707    1.132822    ( 0.0000,  0.0000,  0.0000)
  11 O      0.816728   -1.306992   -1.237091    ( 0.0000,  0.0000,  0.0000)
  12 Mn    -2.570809   -1.307302    0.247161    ( 0.0000,  0.0000,  1.0000)
  13 Mn    -1.912021    1.743016   -2.122906    ( 0.0000,  0.0000, -1.0000)
  14 Mn     3.317952    1.743017    0.091411    ( 0.0000,  0.0000, -1.0000)
  15 Mn     2.659164   -1.307302    2.461478    ( 0.0000,  0.0000,  1.0000)
  16 P     -0.620664   -1.306816   -1.828465    ( 0.0000,  0.0000,  0.0000)
  17 P     -3.862097    1.742530    0.541238    ( 0.0000,  0.0000,  0.0000)
  18 P      1.367807    1.742530    2.167036    ( 0.0000,  0.0000,  0.0000)
  19 P      4.609240   -1.306816   -0.202666    ( 0.0000,  0.0000,  0.0000)
  20 O     -0.646437   -1.306845    1.374751    ( 0.0000,  0.0000,  0.0000)
  21 O     -3.836504    1.742559   -0.995565    ( 0.0000,  0.0000,  0.0000)
  22 O      1.393580    1.742559   -1.036179    ( 0.0000,  0.0000,  0.0000)
  23 O      4.583647   -1.306845    1.334136    ( 0.0000,  0.0000,  0.0000)
  24 Li    -4.856429   -2.832143   -2.200714    ( 0.0000,  0.0000,  0.0000)
  25 Li     0.373571   -2.832143    0.169286    ( 0.0000,  0.0000,  0.0000)
  26 Li    -4.856429    0.217857   -2.200714    ( 0.0000,  0.0000,  0.0000)
  27 Li     0.373571    0.217857    0.169286    ( 0.0000,  0.0000,  0.0000)

Unit cell:
           periodic     x           y           z      points  spacing
  1. axis:    yes   10.460000    0.000000    0.000000    60     0.1743
  2. axis:    yes    0.000000    6.100000    0.000000    35     0.1743
  3. axis:    yes    0.000000    0.000000    4.740000    27     0.1756

  Lengths:  10.460000   6.100000   4.740000
  Angles:   90.000000  90.000000  90.000000

Effective grid spacing dv^(1/3) = 0.1747

                     log10-error:           total        iterations:
           time      wfs    density  force  energy       poisson  magmom
iter:   1  20:46:53                       -231.921224             +0.0000
iter:   2  20:47:33  -0.55  -0.94         -231.746214             +0.0001
iter:   3  20:48:12  -0.72  -0.98         -220.585221             +0.0002
iter:   4  20:48:52  -0.95  -1.20         -218.868990             +0.0001
iter:   5  20:49:31  -1.93  -1.36         -222.057978             +0.0000
iter:   6  20:50:11  -1.99  -1.45         -220.993807             -0.0162
iter:   7  20:50:50  -2.23  -1.67         -224.341322             -0.2613
iter:   8  20:51:29  -1.76  -1.89         -226.750612             +0.2381
iter:   9  20:52:09  -2.42  -1.86         -227.715227             +0.0641
iter:  10  20:52:48  -1.84  -1.78         -226.576327             -0.0012
iter:  11  20:53:28  -1.94  -2.03         -226.450341             +0.0066
iter:  12  20:54:07  -3.00  -2.24         -226.373834             -0.0069
iter:  13  20:54:46  -2.69  -2.29         -226.231825             +0.0052
iter:  14  20:55:26  -3.49  -2.82         -226.231908             +0.0008
iter:  15  20:56:05  -4.31  -2.97         -226.230890             -0.0005
iter:  16  20:56:45  -4.61  -3.02         -226.228984             -0.0001
iter:  17  20:57:24  -4.37  -3.11         -226.227829             -0.0001
iter:  18  20:58:03  -5.54  -3.55         -226.227717             -0.0000
iter:  19  20:58:43  -5.80  -3.65         -226.227664             -0.0001
iter:  20  20:59:22  -5.55  -3.70         -226.227389             -0.0000
iter:  21  21:00:02  -5.85  -4.01         -226.227383             -0.0000
iter:  22  21:00:41  -6.96  -4.10         -226.227375             +0.0000
iter:  23  21:01:21  -6.55  -4.13         -226.227368             +0.0000
iter:  24  21:02:00  -7.39  -4.31         -226.227365             -0.0000
iter:  25  21:02:40  -6.99  -4.40         -226.227367             -0.0000
iter:  26  21:03:30  -7.54  -4.48         -226.227366             -0.0000
iter:  27  21:04:20  -7.69  -4.55    -2.52-226.227363             -0.0000
iter:  28  21:05:10  -8.52  -4.69    -2.97-226.227362             -0.0000
iter:  29  21:05:49  -7.29  -4.72         -226.227362             -0.0000
iter:  30  21:06:39  -8.63  -4.98    -2.38-226.227362             -0.0000
iter:  31  21:07:30  -8.39  -5.03    -3.05-226.227362             -0.0000
iter:  32  21:08:20  -9.38  -5.15    -3.31-226.227362             -0.0000
iter:  33  21:09:09  -7.79  -5.27    -2.69-226.227362             -0.0000
iter:  34  21:09:59  -8.72  -5.25    -3.04-226.227361             -0.0000
iter:  35  21:10:49  -8.37  -5.48    -3.04-226.227361             -0.0000
iter:  36  21:11:39  -9.34  -5.63    -3.17-226.227361             -0.0000
iter:  37  21:12:29 -10.49  -6.23    -4.24-226.227361             -0.0000
iter:  38  21:13:19 -10.59  -6.26    -4.14-226.227361             -0.0000
iter:  39  21:14:09 -10.80  -6.42    -4.28-226.227361             -0.0000
iter:  40  21:15:00 -11.55  -6.58    -4.81-226.227361             -0.0000
iter:  41  21:15:50 -12.43  -6.63    -5.19-226.227361             +0.0000
iter:  42  21:16:40 -11.55  -6.65    -4.52-226.227361             +0.0000
iter:  43  21:17:30 -12.65  -6.79    -5.18-226.227361             +0.0000
iter:  44  21:18:20 -11.71  -6.83    -4.46-226.227361             -0.0000
iter:  45  21:19:10 -12.74  -7.13    -5.15-226.227361             +0.0000
iter:  46  21:20:00 -12.94  -7.26    -5.40-226.227361             +0.0000
iter:  47  21:20:50 -13.32  -7.34    -5.59-226.227361             +0.0000
iter:  48  21:21:40 -12.59  -7.39    -5.00-226.227361             +0.0000
iter:  49  21:22:31 -13.58  -7.73    -5.68-226.227361             +0.0000
iter:  50  21:23:21 -13.08  -7.82    -5.50-226.227361             +0.0000
iter:  51  21:24:11 -14.13  -7.81    -5.65-226.227361             +0.0000
iter:  52  21:25:01 -13.81  -8.02    -5.73-226.227361             +0.0000
iter:  53  21:25:51 -15.23  -8.25    -6.47-226.227361             +0.0000

Converged after 53 iterations.

Dipole moment: (10.666594, 1.408923, -6.272590) |e|*Ang

Total magnetic moment: (0.000000, 0.000000, 0.000000)
Local magnetic moments:
   0 O  ( 0.000000,  0.000000, -0.000538)
   1 O  ( 0.000000,  0.000000,  0.000513)
   2 O  ( 0.000000,  0.000000,  0.000560)
   3 O  ( 0.000000,  0.000000, -0.000596)
   4 O  ( 0.000000,  0.000000,  0.000585)
   5 O  ( 0.000000,  0.000000, -0.000552)
   6 O  ( 0.000000,  0.000000, -0.000558)
   7 O  ( 0.000000,  0.000000,  0.000529)
   8 O  ( 0.000000,  0.000000,  0.028812)
   9 O  ( 0.000000,  0.000000, -0.028647)
  10 O  ( 0.000000,  0.000000, -0.028739)
  11 O  ( 0.000000,  0.000000,  0.028701)
  12 Mn ( 0.000000,  0.000000,  4.448180)
  13 Mn ( 0.000000,  0.000000, -4.448246)
  14 Mn ( 0.000000,  0.000000, -4.448890)
  15 Mn ( 0.000000,  0.000000,  4.448804)
  16 P  ( 0.000000,  0.000000,  0.001547)
  17 P  ( 0.000000,  0.000000, -0.001531)
  18 P  ( 0.000000,  0.000000, -0.001569)
  19 P  ( 0.000000,  0.000000,  0.001504)
  20 O  ( 0.000000,  0.000000,  0.025272)
  21 O  ( 0.000000,  0.000000, -0.025331)
  22 O  ( 0.000000,  0.000000, -0.025279)
  23 O  ( 0.000000,  0.000000,  0.025341)
  24 Li ( 0.000000,  0.000000,  0.000003)
  25 Li ( 0.000000,  0.000000, -0.000000)
  26 Li ( 0.000000,  0.000000, -0.000004)
  27 Li ( 0.000000,  0.000000,  0.000000)

Energy contributions relative to reference atoms: (reference = -196157.275402)

Kinetic:       +217.621169
Potential:     -195.441752
External:        +0.000000
XC:            -250.447603
Entropy (-ST):   -0.000000
Local:           +2.040824
--------------------------
Free energy:   -226.227361
Extrapolated:  -226.227361

Spin contamination: 9.561201 electrons
Showing only first 2 kpts
                      Up                     Down
 Kpt  Band  Eigenvalues  Occupancy  Eigenvalues  Occupancy
  0    88      5.10635    0.00694      5.10601    0.00694
  0    89      5.13544    0.00694      5.13143    0.00694
  0    90      7.28487    0.00000      7.28513    0.00000
  0    91      7.30531    0.00000      7.30536    0.00000

  1    88      5.13200    0.00694      5.13186    0.00694
  1    89      5.16587    0.00694      5.16180    0.00694
  1    90      7.22730    0.00000      7.22562    0.00000
  1    91      7.24296    0.00000      7.24327    0.00000


Fermi level: 6.59070

Gap: 1.967 eV
Transition (v -> c):
  (s=0, k=69, n=89, [-0.08, 0.42, -0.12]) -> (s=1, k=58, n=90, [-0.08, -0.08, 0.12])
Writing to born-0.01-3x+.gpw (mode='all')

Timing:                              incl.     excl.
-----------------------------------------------------------
Hamiltonian:                         0.413     0.003   0.0% |
 Atomic:                             0.054     0.054   0.0% |
  XC Correction:                     0.000     0.000   0.0% |
 Calculate atomic Hamiltonians:      0.183     0.183   0.0% |
 Communicate:                        0.002     0.002   0.0% |
 Initialize Hamiltonian:             0.000     0.000   0.0% |
 Poisson:                            0.002     0.002   0.0% |
 XC 3D grid:                         0.170     0.170   0.0% |
LCAO initialization:               133.658     0.677   0.0% |
 LCAO eigensolver:                  33.786     0.002   0.0% |
  Calculate projections:             0.056     0.056   0.0% |
  DenseAtomicCorrection:             0.082     0.082   0.0% |
  Distribute overlap matrix:         0.135     0.135   0.0% |
  Orbital Layouts:                   0.362     0.362   0.0% |
  Potential matrix:                 33.046    33.046   0.6% |
  Sum over cells:                    0.101     0.101   0.0% |
 LCAO to grid:                      96.933    96.933   1.7% ||
 Set positions (LCAO WFS):           2.263     0.345   0.0% |
  Basic WFS set positions:           0.002     0.002   0.0% |
  Basis functions set positions:     0.000     0.000   0.0% |
  P tci:                             1.057     1.057   0.0% |
  ST tci:                            0.653     0.653   0.0% |
  mktci:                             0.206     0.206   0.0% |
PWDescriptor:                        0.025     0.025   0.0% |
SCF-cycle:                        2380.690    18.534   0.3% |
 Davidson:                        1970.375   646.019  11.3% |----|
  Apply H:                         135.475   131.269   2.3% ||
   HMM T:                            4.206     4.206   0.1% |
  Subspace diag:                   288.997     0.163   0.0% |
   calc_h_matrix:                  186.263    52.228   0.9% |
    Apply H:                       134.035   129.975   2.3% ||
     HMM T:                          4.060     4.060   0.1% |
   diagonalize:                      6.437     6.437   0.1% |
   rotate_psi:                      96.135    96.135   1.7% ||
  calc. matrices:                  616.530   349.842   6.1% |-|
   Apply H:                        266.688   258.732   4.5% |-|
    HMM T:                           7.956     7.956   0.1% |
  diagonalize:                      87.914    87.914   1.5% ||
  rotate_psi:                      195.439   195.439   3.4% ||
 Density:                           79.209     0.001   0.0% |
  Atomic density matrices:           1.442     1.442   0.0% |
  Mix:                              12.890    12.890   0.2% |
  Multipole moments:                 0.030     0.030   0.0% |
  Pseudo density:                   64.846    64.845   1.1% |
   Symmetrize density:               0.002     0.002   0.0% |
 Forces:                           286.223   286.223   5.0% |-|
 Hamiltonian:                       21.948     0.126   0.0% |
  Atomic:                            2.839     2.839   0.0% |
   XC Correction:                    0.000     0.000   0.0% |
  Calculate atomic Hamiltonians:     9.522     9.522   0.2% |
  Communicate:                       0.096     0.096   0.0% |
  Poisson:                           0.085     0.085   0.0% |
  XC 3D grid:                        9.279     9.279   0.2% |
 Orthonormalize:                     4.402     0.003   0.0% |
  calc_s_matrix:                     0.523     0.523   0.0% |
  inverse-cholesky:                  0.055     0.055   0.0% |
  projections:                       2.887     2.887   0.1% |
  rotate_psi_s:                      0.933     0.933   0.0% |
Set symmetry:                        0.000     0.000   0.0% |
Other:                            3209.359  3209.359  56.1% |---------------------|
-----------------------------------------------------------
Total:                                      5724.146 100.0%

Memory usage: 12.47 GiB
Date: Sun Mar 21 22:19:18 2021
