
  ___ ___ ___ _ _ _  
 |   |   |_  | | | | 
 | | | | | . | | | | 
 |__ |  _|___|_____|  20.10.1b1
 |___|_|             

User:   madkru@g064.nifl.fysik.dtu.dk
Date:   Mon Mar 22 00:19:03 2021
Arch:   x86_64
Pid:    60512
Python: 3.7.4
gpaw:   /home/niflheim/madkru/venv_folder/gpaw/gpaw (d0d1ca1c71)
_gpaw:  /home/niflheim/madkru/venv_folder/gpaw/build/lib.linux-x86_64-sandybridge-3.7/
        _gpaw.cpython-37m-x86_64-linux-gnu.so (4fd39e8b1e)
ase:    /home/niflheim/madkru/venv_folder/ase/ase (version 3.21.0b1-7e6c206a91)
numpy:  /home/niflheim/madkru/venv_folder/lib/python3.7/site-packages/numpy (version 1.19.4)
scipy:  /home/niflheim/madkru/venv_folder/lib/python3.7/site-packages/scipy (version 1.5.4)
libxc:  4.3.4
units:  Angstrom and eV
cores: 32
OMP_NUM_THREADS: 1

Input parameters:
  convergence: {bands: occupied,
                density: 0.0001,
                eigenstates: 4e-08,
                energy: 0.0005,
                forces: 1e-06}
  kpts: [6 6 4]
  mode: {ecut: 600.0,
         gammacentered: False,
         name: pw}
  occupations: {fixmagmom: False,
                name: fermi-dirac,
                width: 0.001}
  symmetry: {point_group: False,
             time_reversal: False}

System changes: positions, numbers, cell, pbc, initial_charges, initial_magmoms 

Initialize ...

O-setup:
  name: Oxygen
  id: 9b9d51c344dea68c822856295a461509
  Z: 8.0
  valence: 6
  core: 2
  charge: 0.0
  file: /home/modules/software/GPAW-setups/0.9.20000/O.LDA.gz
  compensation charges: gauss, rc=0.21, lmax=2
  cutoffs: 1.17(filt), 0.83(core),
  valence states:
                energy  radius
    2s(2.00)   -23.752   0.688
    2p(4.00)    -9.195   0.598
    *s           3.459   0.688
    *p          18.016   0.598
    *d           0.000   0.619

  Using partial waves for O as LCAO basis

Mn-setup:
  name: Manganese
  id: 0d715a8018be061a6e9ea6f2d364ac92
  Z: 25.0
  valence: 15
  core: 10
  charge: 0.0
  file: /home/modules/software/GPAW-setups/0.9.20000/Mn.LDA.gz
  compensation charges: gauss, rc=0.38, lmax=2
  cutoffs: 2.14(filt), 0.86(core),
  valence states:
                energy  radius
    3s(2.00)   -85.387   1.275
    4s(2.00)    -5.282   1.275
    3p(6.00)   -54.493   1.281
    4p(0.00)    -1.471   1.281
    3d(5.00)    -7.009   1.138
    *d          20.203   1.138

  Using partial waves for Mn as LCAO basis

P-setup:
  name: Phosphorus
  id: a5561c299094968922a179ab894d2e2d
  Z: 15.0
  valence: 5
  core: 10
  charge: 0.0
  file: /home/modules/software/GPAW-setups/0.9.20000/P.LDA.gz
  compensation charges: gauss, rc=0.30, lmax=2
  cutoffs: 1.69(filt), 1.81(core),
  valence states:
                energy  radius
    3s(2.00)   -14.015   0.953
    3p(3.00)    -5.596   0.953
    *s          13.197   0.953
    *p          21.615   0.953
    *d           0.000   0.953

  Using partial waves for P as LCAO basis

Li-setup:
  name: Lithium
  id: b73562207f97a71b6967473b66fe8b65
  Z: 3.0
  valence: 1
  core: 2
  charge: 0.0
  file: /home/modules/software/GPAW-setups/0.9.20000/Li.LDA.gz
  compensation charges: gauss, rc=0.33, lmax=2
  cutoffs: 1.91(filt), 2.55(core),
  valence states:
                energy  radius
    2s(1.00)    -2.874   1.058
    2p(0.00)    -1.126   1.058
    *s          24.338   1.058

  Using partial waves for Li as LCAO basis

Reference energy: -196157.275402

Spin-polarized calculation.
Magnetic moment: 0.000000

Convergence criteria:
  Maximum total energy change: 0.0005 eV / electron
  Maximum integral of absolute density change: 0.0001 electrons
  Maximum integral of absolute eigenstate change: 4e-08 eV^2
  Maximum change in atomic force: 1e-06 eV / Ang
  Maximum number of iterations: 333

Symmetries present (total): 1

  ( 1  0  0)
  ( 0  1  0)
  ( 0  0  1)

144 k-points: 6 x 6 x 4 Monkhorst-Pack grid
144 k-points in the irreducible part of the Brillouin zone
       k-points in crystal coordinates                weights
   0:    -0.41666667   -0.41666667   -0.37500000          1/144
   1:    -0.41666667   -0.41666667   -0.12500000          1/144
   2:    -0.41666667   -0.41666667    0.12500000          1/144
   3:    -0.41666667   -0.41666667    0.37500000          1/144
   4:    -0.41666667   -0.25000000   -0.37500000          1/144
   5:    -0.41666667   -0.25000000   -0.12500000          1/144
   6:    -0.41666667   -0.25000000    0.12500000          1/144
   7:    -0.41666667   -0.25000000    0.37500000          1/144
   8:    -0.41666667   -0.08333333   -0.37500000          1/144
   9:    -0.41666667   -0.08333333   -0.12500000          1/144
          ...
 143:     0.41666667    0.41666667    0.37500000          1/144

Wave functions: Plane wave expansion
  Cutoff energy: 600.000 eV
  Number of coefficients (min, max): 10068, 10125
  Pulay-stress correction: 0.000000 eV/Ang^3 (de/decut=0.000000)
  Using FFTW library
  ScaLapack parameters: grid=1x1, blocksize=None
  Wavefunction extrapolation:
    Improved wavefunction reuse through dual PAW basis 

  Fermi-Dirac: width=0.0010 eV

Eigensolver
   Davidson(niter=2, smin=None, normalize=True) 

Densities:
  Coarse grid: 60*35*27 grid
  Fine grid: 120*70*54 grid
  Total Charge: 0.000000 

Density mixing:
  Method: difference
  Backend: pulay
  Linear mixing parameter: 0.05
  Mixing with 5 old densities
  Damping of long wave oscillations: 50 

Hamiltonian:
  XC and Coulomb potentials evaluated on a 120*70*54 grid
  Using the LDA Exchange-Correlation functional
 

Memory estimate:
  Process memory now: 12809.94 MiB
  Calculator: 375.55 MiB
    Density: 20.02 MiB
      Arrays: 7.57 MiB
      Localized functions: 9.42 MiB
      Mixer: 3.03 MiB
    Hamiltonian: 5.90 MiB
      Arrays: 5.62 MiB
      XC: 0.00 MiB
      Poisson: 0.00 MiB
      vbar: 0.27 MiB
    Wavefunctions: 349.64 MiB
      Arrays psit_nG: 311.46 MiB
      Eigensolver: 19.99 MiB
      Projections: 5.41 MiB
      Projectors: 9.73 MiB
      PW-descriptor: 3.03 MiB

Total number of cores used: 32
Parallelization over k-points: 16
Domain decomposition: 2 x 1 x 1

Number of atoms: 28
Number of atomic orbitals: 148
Number of bands in calculation: 112
Number of valence electrons: 180
Bands to converge: occupied

... initialized

Initializing position-dependent things.

Density initialized from atomic densities
Creating initial wave functions:
  112 bands from LCAO basis set

     .-------------------------.  
    /|         OP              |  
   / |O            O        O  |  
  /  |       O            O  P |  
 *   |O    Mn      O           |  
 |   |          OLi          O |  
 |   .P-O--------------Mn------.  
 |  /          Li    O  Mn  O /   
 | /Li O           PO        /    
 |/       Mn                /     
 *Li-----------------------*      

Positions:
   0 O     -1.360678   -2.541161   -1.202221    ( 0.0000,  0.0000,  0.0000)
   1 O     -3.121941    2.976855    1.167242    ( 0.0000,  0.0000,  0.0000)
   2 O      2.107533    0.508090    1.540712    ( 0.0000,  0.0000,  0.0000)
   3 O      3.869373   -0.072395   -0.818750    ( 0.0000,  0.0000,  0.0000)
   4 O      2.107821    2.976875    1.540792    ( 0.0000,  0.0000,  0.0000)
   5 O      3.869084   -2.541141   -0.828671    ( 0.0000,  0.0000,  0.0000)
   6 O     -1.360390   -0.072375   -1.202141    ( 0.0000,  0.0000,  0.0000)
   7 O     -3.122230    0.508109    1.167321    ( 0.0000,  0.0000,  0.0000)
   8 O     -4.413461   -1.306992   -0.794251    ( 0.0000,  0.0000,  0.0000)
   9 O     -0.069585    1.742707    1.575662    ( 0.0000,  0.0000,  0.0000)
  10 O      5.160604    1.742707    1.132822    ( 0.0000,  0.0000,  0.0000)
  11 O      0.816728   -1.306992   -1.237091    ( 0.0000,  0.0000,  0.0000)
  12 Mn    -2.570809   -1.307302    0.247161    ( 0.0000,  0.0000,  1.0000)
  13 Mn    -1.912021    1.743016   -2.122906    ( 0.0000,  0.0000, -1.0000)
  14 Mn     3.317952    1.743017    0.091411    ( 0.0000,  0.0000, -1.0000)
  15 Mn     2.659164   -1.307302    2.461478    ( 0.0000,  0.0000,  1.0000)
  16 P     -0.620664   -1.306816   -1.828465    ( 0.0000,  0.0000,  0.0000)
  17 P     -3.862097    1.742530    0.541238    ( 0.0000,  0.0000,  0.0000)
  18 P      1.367807    1.742530    2.167036    ( 0.0000,  0.0000,  0.0000)
  19 P      4.609240   -1.306816   -0.202666    ( 0.0000,  0.0000,  0.0000)
  20 O     -0.646437   -1.306845    1.374751    ( 0.0000,  0.0000,  0.0000)
  21 O     -3.836504    1.742559   -0.995565    ( 0.0000,  0.0000,  0.0000)
  22 O      1.393580    1.742559   -1.036179    ( 0.0000,  0.0000,  0.0000)
  23 O      4.583647   -1.306845    1.334136    ( 0.0000,  0.0000,  0.0000)
  24 Li    -4.856429   -2.832143   -2.200714    ( 0.0000,  0.0000,  0.0000)
  25 Li     0.373571   -2.832143    0.169286    ( 0.0000,  0.0000,  0.0000)
  26 Li    -4.856429    0.217857   -2.200714    ( 0.0000,  0.0000,  0.0000)
  27 Li     0.373571    0.217857    0.169286    ( 0.0000,  0.0000,  0.0000)

Unit cell:
           periodic     x           y           z      points  spacing
  1. axis:    yes   10.460000    0.000000    0.000000    60     0.1743
  2. axis:    yes    0.000000    6.100000    0.000000    35     0.1743
  3. axis:    yes    0.000000    0.000000    4.740000    27     0.1756

  Lengths:  10.460000   6.100000   4.740000
  Angles:   90.000000  90.000000  90.000000

Effective grid spacing dv^(1/3) = 0.1747

                     log10-error:           total        iterations:
           time      wfs    density  force  energy       poisson  magmom
iter:   1  00:22:01                       -231.918693             +0.0000
iter:   2  00:22:40  -0.55  -0.94         -231.737990             +0.0052
iter:   3  00:23:20  -0.72  -0.98         -220.591013             +0.0065
iter:   4  00:23:59  -0.95  -1.20         -218.878627             +0.0022
iter:   5  00:24:39  -1.93  -1.36         -221.986376             +0.0014
iter:   6  00:25:18  -1.99  -1.45         -221.046545             +0.0006
iter:   7  00:25:58  -2.25  -1.68         -224.397556             +0.0004
iter:   8  00:26:37  -1.60  -1.89         -226.272298             +0.0000
iter:   9  00:27:17  -2.31  -1.87         -227.562726             +0.0000
iter:  10  00:27:56  -1.56  -1.80         -226.495756             +0.0000
iter:  11  00:28:35  -2.43  -2.14         -226.481327             +0.0000
iter:  12  00:29:15  -2.50  -2.19         -226.540626             -0.0000
iter:  13  00:29:54  -1.54  -2.20         -226.723185             -0.0000
iter:  14  00:30:33  -2.16  -2.28         -226.235460             -0.0000
iter:  15  00:31:13  -3.23  -2.92         -226.234702             -0.0000
iter:  16  00:31:52  -3.37  -2.98         -226.246108             +0.0000
iter:  17  00:32:31  -3.29  -2.92         -226.227183             +0.0000
iter:  18  00:33:11  -4.02  -3.16         -226.230530             +0.0000
iter:  19  00:33:50  -4.00  -3.15         -226.228499             +0.0000
iter:  20  00:34:29  -4.13  -3.36         -226.229126             +0.0000
iter:  21  00:35:09  -5.14  -3.35         -226.228328             +0.0000
iter:  22  00:35:48  -4.38  -3.58         -226.227836             +0.0000
iter:  23  00:36:27  -5.29  -3.84         -226.227453             +0.0000
iter:  24  00:37:07  -6.51  -4.13         -226.227459             +0.0000
iter:  25  00:37:46  -6.49  -4.17         -226.227465             -0.0000
iter:  26  00:38:25  -6.54  -4.32         -226.227460             -0.0000
iter:  27  00:39:05  -6.59  -4.34         -226.227464             -0.0000
iter:  28  00:39:55  -7.84  -4.45         -226.227461             -0.0000
iter:  29  00:40:34  -6.63  -4.51         -226.227455             -0.0000
iter:  30  00:41:24  -7.59  -4.85    -2.34-226.227453             -0.0000
iter:  31  00:42:14  -8.08  -5.17    -2.69-226.227453             -0.0000
iter:  32  00:43:04  -9.03  -5.27    -3.41-226.227453             -0.0000
iter:  33  00:43:54  -8.33  -5.32    -3.26-226.227453             -0.0000
iter:  34  00:44:44  -9.38  -5.41    -3.63-226.227453             -0.0000
iter:  35  00:45:34  -8.90  -5.44    -3.12-226.227453             -0.0000
iter:  36  00:46:24  -9.56  -5.73    -3.48-226.227453             -0.0000
iter:  37  00:47:14 -10.31  -5.84    -3.85-226.227453             +0.0000
iter:  38  00:48:04  -9.61  -5.90    -3.67-226.227453             +0.0000
iter:  39  00:48:54 -10.38  -6.08    -3.88-226.227453             +0.0000
iter:  40  00:49:44 -10.42  -6.16    -3.87-226.227453             +0.0000
iter:  41  00:50:34 -10.49  -6.25    -3.97-226.227453             +0.0000
iter:  42  00:51:23 -11.22  -6.65    -4.65-226.227453             +0.0000
iter:  43  00:52:13 -11.93  -6.78    -5.16-226.227453             +0.0000
iter:  44  00:53:03 -11.47  -6.83    -4.88-226.227453             -0.0000
iter:  45  00:53:53 -12.02  -6.93    -4.91-226.227453             -0.0000
iter:  46  00:54:43 -12.81  -7.02    -5.04-226.227453             +0.0000
iter:  47  00:55:33 -12.81  -7.08    -5.08-226.227453             -0.0000
iter:  48  00:56:23 -12.83  -7.15    -5.39-226.227453             -0.0000
iter:  49  00:57:13 -13.37  -7.23    -5.63-226.227453             -0.0000
iter:  50  00:58:03 -12.30  -7.26    -5.18-226.227453             -0.0000
iter:  51  00:58:53 -13.27  -7.40    -5.60-226.227453             -0.0000
iter:  52  00:59:43 -12.87  -7.48    -5.46-226.227453             -0.0000
iter:  53  01:00:32 -14.17  -7.72    -6.01-226.227453             -0.0000

Converged after 53 iterations.

Dipole moment: (10.670695, 1.409133, -6.240085) |e|*Ang

Total magnetic moment: (0.000000, 0.000000, -0.000000)
Local magnetic moments:
   0 O  ( 0.000000,  0.000000, -0.000526)
   1 O  ( 0.000000,  0.000000,  0.000520)
   2 O  ( 0.000000,  0.000000,  0.000493)
   3 O  ( 0.000000,  0.000000, -0.000837)
   4 O  ( 0.000000,  0.000000,  0.000649)
   5 O  ( 0.000000,  0.000000, -0.000539)
   6 O  ( 0.000000,  0.000000, -0.000542)
   7 O  ( 0.000000,  0.000000,  0.000543)
   8 O  ( 0.000000,  0.000000,  0.028614)
   9 O  ( 0.000000,  0.000000, -0.028694)
  10 O  ( 0.000000,  0.000000, -0.028745)
  11 O  ( 0.000000,  0.000000,  0.028691)
  12 Mn ( 0.000000,  0.000000,  4.448154)
  13 Mn ( 0.000000,  0.000000, -4.448249)
  14 Mn ( 0.000000,  0.000000, -4.447815)
  15 Mn ( 0.000000,  0.000000,  4.448660)
  16 P  ( 0.000000,  0.000000,  0.001546)
  17 P  ( 0.000000,  0.000000, -0.001551)
  18 P  ( 0.000000,  0.000000, -0.001564)
  19 P  ( 0.000000,  0.000000,  0.001375)
  20 O  ( 0.000000,  0.000000,  0.025311)
  21 O  ( 0.000000,  0.000000, -0.025314)
  22 O  ( 0.000000,  0.000000, -0.025330)
  23 O  ( 0.000000,  0.000000,  0.025327)
  24 Li ( 0.000000,  0.000000, -0.000000)
  25 Li ( 0.000000,  0.000000, -0.000001)
  26 Li ( 0.000000,  0.000000, -0.000006)
  27 Li ( 0.000000,  0.000000,  0.000001)

Energy contributions relative to reference atoms: (reference = -196157.275402)

Kinetic:       +217.600144
Potential:     -195.426804
External:        +0.000000
XC:            -250.441352
Entropy (-ST):   -0.000000
Local:           +2.040559
--------------------------
Free energy:   -226.227453
Extrapolated:  -226.227453

Spin contamination: 9.560535 electrons
Showing only first 2 kpts
                      Up                     Down
 Kpt  Band  Eigenvalues  Occupancy  Eigenvalues  Occupancy
  0    88      5.10686    0.00694      5.11124    0.00694
  0    89      5.13283    0.00694      5.13610    0.00694
  0    90      7.28838    0.00000      7.28578    0.00000
  0    91      7.30617    0.00000      7.30417    0.00000

  1    88      5.13266    0.00694      5.13681    0.00694
  1    89      5.16285    0.00694      5.16630    0.00694
  1    90      7.23128    0.00000      7.22899    0.00000
  1    91      7.24347    0.00000      7.24186    0.00000


Fermi level: 6.45555

Gap: 1.969 eV
Transition (v -> c):
  (s=1, k=74, n=89, [0.08, -0.42, 0.12]) -> (s=1, k=62, n=90, [-0.08, 0.08, 0.12])
Writing to born-0.01-3z+.gpw (mode='all')

Timing:                              incl.     excl.
-----------------------------------------------------------
Hamiltonian:                         0.413     0.003   0.0% |
 Atomic:                             0.054     0.054   0.0% |
  XC Correction:                     0.000     0.000   0.0% |
 Calculate atomic Hamiltonians:      0.182     0.182   0.0% |
 Communicate:                        0.002     0.002   0.0% |
 Initialize Hamiltonian:             0.000     0.000   0.0% |
 Poisson:                            0.002     0.002   0.0% |
 XC 3D grid:                         0.170     0.170   0.0% |
LCAO initialization:               133.484     0.678   0.0% |
 LCAO eigensolver:                  33.754     0.002   0.0% |
  Calculate projections:             0.056     0.056   0.0% |
  DenseAtomicCorrection:             0.083     0.083   0.0% |
  Distribute overlap matrix:         0.098     0.098   0.0% |
  Orbital Layouts:                   0.364     0.364   0.0% |
  Potential matrix:                 33.050    33.050   0.6% |
  Sum over cells:                    0.101     0.101   0.0% |
 LCAO to grid:                      96.788    96.788   1.6% ||
 Set positions (LCAO WFS):           2.264     0.346   0.0% |
  Basic WFS set positions:           0.001     0.001   0.0% |
  Basis functions set positions:     0.000     0.000   0.0% |
  P tci:                             1.056     1.056   0.0% |
  ST tci:                            0.655     0.655   0.0% |
  mktci:                             0.206     0.206   0.0% |
PWDescriptor:                        0.025     0.025   0.0% |
SCF-cycle:                        2353.257     5.660   0.1% |
 Davidson:                        1976.094   645.572  11.0% |---|
  Apply H:                         137.469   133.079   2.3% ||
   HMM T:                            4.390     4.390   0.1% |
  Subspace diag:                   291.551     0.167   0.0% |
   calc_h_matrix:                  188.537    52.393   0.9% |
    Apply H:                       136.144   131.918   2.2% ||
     HMM T:                          4.225     4.225   0.1% |
   diagonalize:                      6.496     6.496   0.1% |
   rotate_psi:                      96.351    96.351   1.6% ||
  calc. matrices:                  617.514   350.503   6.0% |-|
   Apply H:                        267.011   259.009   4.4% |-|
    HMM T:                           8.002     8.002   0.1% |
  diagonalize:                      88.248    88.248   1.5% ||
  rotate_psi:                      195.740   195.740   3.3% ||
 Density:                           79.219     0.001   0.0% |
  Atomic density matrices:           1.430     1.430   0.0% |
  Mix:                              12.847    12.847   0.2% |
  Multipole moments:                 0.031     0.031   0.0% |
  Pseudo density:                   64.911    64.909   1.1% |
   Symmetrize density:               0.002     0.002   0.0% |
 Forces:                           265.941   265.941   4.5% |-|
 Hamiltonian:                       21.937     0.133   0.0% |
  Atomic:                            2.858     2.857   0.0% |
   XC Correction:                    0.000     0.000   0.0% |
  Calculate atomic Hamiltonians:     9.500     9.500   0.2% |
  Communicate:                       0.092     0.092   0.0% |
  Poisson:                           0.080     0.080   0.0% |
  XC 3D grid:                        9.275     9.275   0.2% |
 Orthonormalize:                     4.406     0.004   0.0% |
  calc_s_matrix:                     0.524     0.524   0.0% |
  inverse-cholesky:                  0.055     0.055   0.0% |
  projections:                       2.890     2.890   0.0% |
  rotate_psi_s:                      0.934     0.934   0.0% |
Set symmetry:                        0.000     0.000   0.0% |
Other:                            3395.074  3395.074  57.7% |----------------------|
-----------------------------------------------------------
Total:                                      5882.253 100.0%

Memory usage: 12.55 GiB
Date: Mon Mar 22 01:57:06 2021
