
  ___ ___ ___ _ _ _  
 |   |   |_  | | | | 
 | | | | | . | | | | 
 |__ |  _|___|_____|  20.10.1b1
 |___|_|             

User:   madkru@g064.nifl.fysik.dtu.dk
Date:   Mon Mar 22 11:37:19 2021
Arch:   x86_64
Pid:    60512
Python: 3.7.4
gpaw:   /home/niflheim/madkru/venv_folder/gpaw/gpaw (d0d1ca1c71)
_gpaw:  /home/niflheim/madkru/venv_folder/gpaw/build/lib.linux-x86_64-sandybridge-3.7/
        _gpaw.cpython-37m-x86_64-linux-gnu.so (4fd39e8b1e)
ase:    /home/niflheim/madkru/venv_folder/ase/ase (version 3.21.0b1-7e6c206a91)
numpy:  /home/niflheim/madkru/venv_folder/lib/python3.7/site-packages/numpy (version 1.19.4)
scipy:  /home/niflheim/madkru/venv_folder/lib/python3.7/site-packages/scipy (version 1.5.4)
libxc:  4.3.4
units:  Angstrom and eV
cores: 32
OMP_NUM_THREADS: 1

Input parameters:
  convergence: {bands: occupied,
                density: 0.0001,
                eigenstates: 4e-08,
                energy: 0.0005,
                forces: 1e-06}
  kpts: [6 6 4]
  mode: {ecut: 600.0,
         gammacentered: False,
         name: pw}
  occupations: {fixmagmom: False,
                name: fermi-dirac,
                width: 0.001}
  symmetry: {point_group: False,
             time_reversal: False}

System changes: positions, numbers, cell, pbc, initial_charges, initial_magmoms 

Initialize ...

O-setup:
  name: Oxygen
  id: 9b9d51c344dea68c822856295a461509
  Z: 8.0
  valence: 6
  core: 2
  charge: 0.0
  file: /home/modules/software/GPAW-setups/0.9.20000/O.LDA.gz
  compensation charges: gauss, rc=0.21, lmax=2
  cutoffs: 1.17(filt), 0.83(core),
  valence states:
                energy  radius
    2s(2.00)   -23.752   0.688
    2p(4.00)    -9.195   0.598
    *s           3.459   0.688
    *p          18.016   0.598
    *d           0.000   0.619

  Using partial waves for O as LCAO basis

Mn-setup:
  name: Manganese
  id: 0d715a8018be061a6e9ea6f2d364ac92
  Z: 25.0
  valence: 15
  core: 10
  charge: 0.0
  file: /home/modules/software/GPAW-setups/0.9.20000/Mn.LDA.gz
  compensation charges: gauss, rc=0.38, lmax=2
  cutoffs: 2.14(filt), 0.86(core),
  valence states:
                energy  radius
    3s(2.00)   -85.387   1.275
    4s(2.00)    -5.282   1.275
    3p(6.00)   -54.493   1.281
    4p(0.00)    -1.471   1.281
    3d(5.00)    -7.009   1.138
    *d          20.203   1.138

  Using partial waves for Mn as LCAO basis

P-setup:
  name: Phosphorus
  id: a5561c299094968922a179ab894d2e2d
  Z: 15.0
  valence: 5
  core: 10
  charge: 0.0
  file: /home/modules/software/GPAW-setups/0.9.20000/P.LDA.gz
  compensation charges: gauss, rc=0.30, lmax=2
  cutoffs: 1.69(filt), 1.81(core),
  valence states:
                energy  radius
    3s(2.00)   -14.015   0.953
    3p(3.00)    -5.596   0.953
    *s          13.197   0.953
    *p          21.615   0.953
    *d           0.000   0.953

  Using partial waves for P as LCAO basis

Li-setup:
  name: Lithium
  id: b73562207f97a71b6967473b66fe8b65
  Z: 3.0
  valence: 1
  core: 2
  charge: 0.0
  file: /home/modules/software/GPAW-setups/0.9.20000/Li.LDA.gz
  compensation charges: gauss, rc=0.33, lmax=2
  cutoffs: 1.91(filt), 2.55(core),
  valence states:
                energy  radius
    2s(1.00)    -2.874   1.058
    2p(0.00)    -1.126   1.058
    *s          24.338   1.058

  Using partial waves for Li as LCAO basis

Reference energy: -196157.275402

Spin-polarized calculation.
Magnetic moment: 0.000000

Convergence criteria:
  Maximum total energy change: 0.0005 eV / electron
  Maximum integral of absolute density change: 0.0001 electrons
  Maximum integral of absolute eigenstate change: 4e-08 eV^2
  Maximum change in atomic force: 1e-06 eV / Ang
  Maximum number of iterations: 333

Symmetries present (total): 1

  ( 1  0  0)
  ( 0  1  0)
  ( 0  0  1)

144 k-points: 6 x 6 x 4 Monkhorst-Pack grid
144 k-points in the irreducible part of the Brillouin zone
       k-points in crystal coordinates                weights
   0:    -0.41666667   -0.41666667   -0.37500000          1/144
   1:    -0.41666667   -0.41666667   -0.12500000          1/144
   2:    -0.41666667   -0.41666667    0.12500000          1/144
   3:    -0.41666667   -0.41666667    0.37500000          1/144
   4:    -0.41666667   -0.25000000   -0.37500000          1/144
   5:    -0.41666667   -0.25000000   -0.12500000          1/144
   6:    -0.41666667   -0.25000000    0.12500000          1/144
   7:    -0.41666667   -0.25000000    0.37500000          1/144
   8:    -0.41666667   -0.08333333   -0.37500000          1/144
   9:    -0.41666667   -0.08333333   -0.12500000          1/144
          ...
 143:     0.41666667    0.41666667    0.37500000          1/144

Wave functions: Plane wave expansion
  Cutoff energy: 600.000 eV
  Number of coefficients (min, max): 10068, 10125
  Pulay-stress correction: 0.000000 eV/Ang^3 (de/decut=0.000000)
  Using FFTW library
  ScaLapack parameters: grid=1x1, blocksize=None
  Wavefunction extrapolation:
    Improved wavefunction reuse through dual PAW basis 

  Fermi-Dirac: width=0.0010 eV

Eigensolver
   Davidson(niter=2, smin=None, normalize=True) 

Densities:
  Coarse grid: 60*35*27 grid
  Fine grid: 120*70*54 grid
  Total Charge: 0.000000 

Density mixing:
  Method: difference
  Backend: pulay
  Linear mixing parameter: 0.05
  Mixing with 5 old densities
  Damping of long wave oscillations: 50 

Hamiltonian:
  XC and Coulomb potentials evaluated on a 120*70*54 grid
  Using the LDA Exchange-Correlation functional
 

Memory estimate:
  Process memory now: 13153.48 MiB
  Calculator: 375.55 MiB
    Density: 20.02 MiB
      Arrays: 7.57 MiB
      Localized functions: 9.42 MiB
      Mixer: 3.03 MiB
    Hamiltonian: 5.90 MiB
      Arrays: 5.62 MiB
      XC: 0.00 MiB
      Poisson: 0.00 MiB
      vbar: 0.27 MiB
    Wavefunctions: 349.64 MiB
      Arrays psit_nG: 311.46 MiB
      Eigensolver: 19.99 MiB
      Projections: 5.41 MiB
      Projectors: 9.73 MiB
      PW-descriptor: 3.03 MiB

Total number of cores used: 32
Parallelization over k-points: 16
Domain decomposition: 2 x 1 x 1

Number of atoms: 28
Number of atomic orbitals: 148
Number of bands in calculation: 112
Number of valence electrons: 180
Bands to converge: occupied

... initialized

Initializing position-dependent things.

Density initialized from atomic densities
Creating initial wave functions:
  112 bands from LCAO basis set

     .-------------------------.  
    /|         OP              |  
   / |O            O        O  |  
  /  |       O            O  P |  
 *   |O    Mn      O           |  
 |   |          OLi          O |  
 |   .P-O--------------Mn------.  
 |  /          Li    O  Mn  O /   
 | /Li O           PO        /    
 |/       Mn                /     
 *Li-----------------------*      

Positions:
   0 O     -1.360678   -2.541161   -1.202221    ( 0.0000,  0.0000,  0.0000)
   1 O     -3.121941    2.976855    1.167242    ( 0.0000,  0.0000,  0.0000)
   2 O      2.107533    0.508090    1.540712    ( 0.0000,  0.0000,  0.0000)
   3 O      3.869373   -0.072395   -0.828750    ( 0.0000,  0.0000,  0.0000)
   4 O      2.107821    2.976875    1.540792    ( 0.0000,  0.0000,  0.0000)
   5 O      3.869084   -2.541141   -0.828671    ( 0.0000,  0.0000,  0.0000)
   6 O     -1.370390   -0.072375   -1.202141    ( 0.0000,  0.0000,  0.0000)
   7 O     -3.122230    0.508109    1.167321    ( 0.0000,  0.0000,  0.0000)
   8 O     -4.413461   -1.306992   -0.794251    ( 0.0000,  0.0000,  0.0000)
   9 O     -0.069585    1.742707    1.575662    ( 0.0000,  0.0000,  0.0000)
  10 O      5.160604    1.742707    1.132822    ( 0.0000,  0.0000,  0.0000)
  11 O      0.816728   -1.306992   -1.237091    ( 0.0000,  0.0000,  0.0000)
  12 Mn    -2.570809   -1.307302    0.247161    ( 0.0000,  0.0000,  1.0000)
  13 Mn    -1.912021    1.743016   -2.122906    ( 0.0000,  0.0000, -1.0000)
  14 Mn     3.317952    1.743017    0.091411    ( 0.0000,  0.0000, -1.0000)
  15 Mn     2.659164   -1.307302    2.461478    ( 0.0000,  0.0000,  1.0000)
  16 P     -0.620664   -1.306816   -1.828465    ( 0.0000,  0.0000,  0.0000)
  17 P     -3.862097    1.742530    0.541238    ( 0.0000,  0.0000,  0.0000)
  18 P      1.367807    1.742530    2.167036    ( 0.0000,  0.0000,  0.0000)
  19 P      4.609240   -1.306816   -0.202666    ( 0.0000,  0.0000,  0.0000)
  20 O     -0.646437   -1.306845    1.374751    ( 0.0000,  0.0000,  0.0000)
  21 O     -3.836504    1.742559   -0.995565    ( 0.0000,  0.0000,  0.0000)
  22 O      1.393580    1.742559   -1.036179    ( 0.0000,  0.0000,  0.0000)
  23 O      4.583647   -1.306845    1.334136    ( 0.0000,  0.0000,  0.0000)
  24 Li    -4.856429   -2.832143   -2.200714    ( 0.0000,  0.0000,  0.0000)
  25 Li     0.373571   -2.832143    0.169286    ( 0.0000,  0.0000,  0.0000)
  26 Li    -4.856429    0.217857   -2.200714    ( 0.0000,  0.0000,  0.0000)
  27 Li     0.373571    0.217857    0.169286    ( 0.0000,  0.0000,  0.0000)

Unit cell:
           periodic     x           y           z      points  spacing
  1. axis:    yes   10.460000    0.000000    0.000000    60     0.1743
  2. axis:    yes    0.000000    6.100000    0.000000    35     0.1743
  3. axis:    yes    0.000000    0.000000    4.740000    27     0.1756

  Lengths:  10.460000   6.100000   4.740000
  Angles:   90.000000  90.000000  90.000000

Effective grid spacing dv^(1/3) = 0.1747

                     log10-error:           total        iterations:
           time      wfs    density  force  energy       poisson  magmom
iter:   1  11:40:21                       -231.918793             +0.0000
iter:   2  11:41:01  -0.55  -0.94         -231.715232             +0.0103
iter:   3  11:41:40  -0.72  -0.98         -220.590252             +0.0129
iter:   4  11:42:19  -0.95  -1.20         -218.877644             +0.0217
iter:   5  11:42:59  -1.93  -1.36         -222.400633             +0.0114
iter:   6  11:43:38  -2.01  -1.40         -221.915142             +0.0215
iter:   7  11:44:17  -1.80  -1.55         -224.579003             -0.0079
iter:   8  11:44:57  -2.32  -1.59         -224.596218             -1.3706
iter:   9  11:45:36  -2.62  -1.81         -226.055166             -1.4413
iter:  10  11:46:16  -1.84  -1.82         -226.734450             -0.4547
iter:  11  11:46:55  -1.78  -1.97         -227.586597             -0.1394
iter:  12  11:47:35  -2.80  -1.90         -227.451567             -0.1382
iter:  13  11:48:14  -3.18  -1.93         -227.550973             -0.0404
iter:  14  11:48:53  -3.16  -1.95         -228.143529             +0.0140
iter:  15  11:49:33  -2.55  -1.86         -226.614464             -0.0085
iter:  16  11:50:12  -2.62  -1.99         -225.675472             -0.0019
iter:  17  11:50:51  -2.98  -2.17         -226.025866             -0.0025
iter:  18  11:51:31  -2.55  -2.07         -225.595846             -0.0007
iter:  19  11:52:10  -3.06  -2.31         -225.600212             -0.0007
iter:  20  11:52:49  -2.93  -2.36         -226.218077             -0.0002
iter:  21  11:53:28  -3.11  -2.45         -226.292969             +0.0000
iter:  22  11:54:08  -3.06  -2.53         -226.266280             +0.0000
iter:  23  11:54:47  -3.89  -2.78         -226.251551             +0.0000
iter:  24  11:55:26  -3.28  -2.96         -226.230861             +0.0000
iter:  25  11:56:06  -4.03  -3.13         -226.231594             +0.0000
iter:  26  11:56:45  -3.71  -3.13         -226.230733             +0.0000
iter:  27  11:57:24  -4.33  -3.35         -226.227919             +0.0000
iter:  28  11:58:03  -4.88  -3.37         -226.228038             -0.0000
iter:  29  11:58:43  -5.80  -3.44         -226.227887             -0.0000
iter:  30  11:59:22  -5.40  -3.55         -226.227499             +0.0000
iter:  31  12:00:01  -5.96  -3.64         -226.227464             -0.0000
iter:  32  12:00:41  -6.02  -3.67         -226.227461             +0.0000
iter:  33  12:01:20  -5.57  -3.81         -226.227490             -0.0000
iter:  34  12:01:59  -6.18  -3.87         -226.227491             +0.0000
iter:  35  12:02:39  -5.53  -3.91         -226.227417             +0.0000
iter:  36  12:03:18  -6.15  -4.12         -226.227392             +0.0000
iter:  37  12:03:57  -6.51  -4.45         -226.227378             +0.0000
iter:  38  12:04:47  -7.51  -4.53         -226.227379             +0.0000
iter:  39  12:05:27  -6.98  -4.60         -226.227379             +0.0000
iter:  40  12:06:06  -7.11  -4.75         -226.227376             +0.0000
iter:  41  12:06:56  -7.98  -4.97    -2.21-226.227376             +0.0000
iter:  42  12:07:46  -8.83  -5.01    -2.88-226.227376             +0.0000
iter:  43  12:08:36  -8.02  -5.12    -2.99-226.227376             -0.0000
iter:  44  12:09:26  -8.30  -5.31    -2.91-226.227376             +0.0000
iter:  45  12:10:16  -9.46  -5.54    -3.80-226.227376             +0.0000
iter:  46  12:11:05  -8.95  -5.57    -3.45-226.227376             +0.0000
iter:  47  12:11:55  -9.54  -5.74    -3.50-226.227376             +0.0000
iter:  48  12:12:45  -9.45  -5.84    -3.50-226.227376             +0.0000
iter:  49  12:13:35 -10.04  -5.94    -3.82-226.227376             +0.0000
iter:  50  12:14:25 -10.01  -6.26    -3.92-226.227376             +0.0000
iter:  51  12:15:15 -11.23  -6.52    -4.44-226.227376             +0.0000
iter:  52  12:16:05 -11.35  -6.58    -4.44-226.227376             +0.0000
iter:  53  12:16:54 -11.63  -6.86    -4.87-226.227376             +0.0000
iter:  54  12:17:44 -12.46  -6.95    -5.28-226.227376             +0.0000
iter:  55  12:18:34 -12.16  -6.98    -4.98-226.227376             +0.0000
iter:  56  12:19:24 -12.35  -7.14    -5.08-226.227376             +0.0000
iter:  57  12:20:14 -13.26  -7.25    -5.50-226.227376             +0.0000
iter:  58  12:21:04 -13.02  -7.31    -5.40-226.227376             +0.0000
iter:  59  12:21:54 -12.68  -7.42    -5.09-226.227376             +0.0000
iter:  60  12:22:44 -13.54  -7.49    -5.67-226.227376             +0.0000
iter:  61  12:23:34 -12.27  -7.54    -5.11-226.227376             +0.0000
iter:  62  12:24:24 -12.98  -7.72    -5.43-226.227376             +0.0000
iter:  63  12:25:14 -14.07  -8.01    -6.31-226.227376             +0.0000

Converged after 63 iterations.

Dipole moment: (10.667711, 1.415097, -6.269320) |e|*Ang

Total magnetic moment: (0.000000, 0.000000, 0.000000)
Local magnetic moments:
   0 O  ( 0.000000,  0.000000, -0.000499)
   1 O  ( 0.000000,  0.000000,  0.000466)
   2 O  ( 0.000000,  0.000000,  0.000561)
   3 O  ( 0.000000,  0.000000, -0.000534)
   4 O  ( 0.000000,  0.000000,  0.000538)
   5 O  ( 0.000000,  0.000000, -0.000515)
   6 O  ( 0.000000,  0.000000, -0.000494)
   7 O  ( 0.000000,  0.000000,  0.000531)
   8 O  ( 0.000000,  0.000000,  0.028693)
   9 O  ( 0.000000,  0.000000, -0.028654)
  10 O  ( 0.000000,  0.000000, -0.028747)
  11 O  ( 0.000000,  0.000000,  0.028583)
  12 Mn ( 0.000000,  0.000000,  4.447578)
  13 Mn ( 0.000000,  0.000000, -4.447496)
  14 Mn ( 0.000000,  0.000000, -4.448154)
  15 Mn ( 0.000000,  0.000000,  4.448220)
  16 P  ( 0.000000,  0.000000,  0.001599)
  17 P  ( 0.000000,  0.000000, -0.001532)
  18 P  ( 0.000000,  0.000000, -0.001570)
  19 P  ( 0.000000,  0.000000,  0.001554)
  20 O  ( 0.000000,  0.000000,  0.025279)
  21 O  ( 0.000000,  0.000000, -0.025342)
  22 O  ( 0.000000,  0.000000, -0.025290)
  23 O  ( 0.000000,  0.000000,  0.025348)
  24 Li ( 0.000000,  0.000000,  0.000000)
  25 Li ( 0.000000,  0.000000, -0.000003)
  26 Li ( 0.000000,  0.000000, -0.000000)
  27 Li ( 0.000000,  0.000000,  0.000004)

Energy contributions relative to reference atoms: (reference = -196157.275402)

Kinetic:       +217.087423
Potential:     -195.035930
External:        +0.000000
XC:            -250.320361
Entropy (-ST):   -0.000000
Local:           +2.041492
--------------------------
Free energy:   -226.227376
Extrapolated:  -226.227376

Spin contamination: 9.559608 electrons
Showing only first 2 kpts
                      Up                     Down
 Kpt  Band  Eigenvalues  Occupancy  Eigenvalues  Occupancy
  0    88      5.10898    0.00694      5.11275    0.00694
  0    89      5.13772    0.00694      5.13826    0.00694
  0    90      7.28980    0.00000      7.28934    0.00000
  0    91      7.31016    0.00000      7.30983    0.00000

  1    88      5.13474    0.00694      5.13868    0.00694
  1    89      5.16820    0.00694      5.16848    0.00694
  1    90      7.23217    0.00000      7.23169    0.00000
  1    91      7.24779    0.00000      7.24943    0.00000


Fermi level: 5.78212

Gap: 1.970 eV
Transition (v -> c):
  (s=1, k=93, n=89, [0.08, 0.42, -0.12]) -> (s=1, k=85, n=90, [0.08, 0.08, -0.12])
Writing to born-0.01-6x-.gpw (mode='all')

Timing:                              incl.     excl.
-----------------------------------------------------------
Hamiltonian:                         0.415     0.002   0.0% |
 Atomic:                             0.054     0.054   0.0% |
  XC Correction:                     0.000     0.000   0.0% |
 Calculate atomic Hamiltonians:      0.180     0.180   0.0% |
 Communicate:                        0.002     0.002   0.0% |
 Initialize Hamiltonian:             0.000     0.000   0.0% |
 Poisson:                            0.001     0.001   0.0% |
 XC 3D grid:                         0.175     0.175   0.0% |
LCAO initialization:               138.178     0.677   0.0% |
 LCAO eigensolver:                  34.178     0.003   0.0% |
  Calculate projections:             0.057     0.057   0.0% |
  DenseAtomicCorrection:             0.083     0.083   0.0% |
  Distribute overlap matrix:         0.351     0.351   0.0% |
  Orbital Layouts:                   0.362     0.362   0.0% |
  Potential matrix:                 33.224    33.224   0.5% |
  Sum over cells:                    0.100     0.100   0.0% |
 LCAO to grid:                     101.031   101.031   1.5% ||
 Set positions (LCAO WFS):           2.292     0.345   0.0% |
  Basic WFS set positions:           0.001     0.001   0.0% |
  Basis functions set positions:     0.000     0.000   0.0% |
  P tci:                             1.055     1.055   0.0% |
  ST tci:                            0.652     0.652   0.0% |
  mktci:                             0.238     0.238   0.0% |
PWDescriptor:                        0.025     0.025   0.0% |
SCF-cycle:                        2734.053     7.201   0.1% |
 Davidson:                        2347.618   767.846  11.4% |----|
  Apply H:                         163.288   157.833   2.3% ||
   HMM T:                            5.455     5.455   0.1% |
  Subspace diag:                   345.569     0.204   0.0% |
   calc_h_matrix:                  223.168    62.313   0.9% |
    Apply H:                       160.855   155.631   2.3% ||
     HMM T:                          5.225     5.225   0.1% |
   diagonalize:                      7.635     7.635   0.1% |
   rotate_psi:                     114.562   114.562   1.7% ||
  calc. matrices:                  733.200   416.562   6.2% |-|
   Apply H:                        316.637   306.940   4.5% |-|
    HMM T:                           9.698     9.698   0.1% |
  diagonalize:                     104.993   104.993   1.6% ||
  rotate_psi:                      232.722   232.722   3.4% ||
 Density:                           93.827     0.002   0.0% |
  Atomic density matrices:           1.712     1.712   0.0% |
  Mix:                              15.292    15.292   0.2% |
  Multipole moments:                 0.038     0.038   0.0% |
  Pseudo density:                   76.784    76.782   1.1% |
   Symmetrize density:               0.002     0.002   0.0% |
 Forces:                           254.906   254.906   3.8% |-|
 Hamiltonian:                       26.097     0.147   0.0% |
  Atomic:                            3.417     3.417   0.1% |
   XC Correction:                    0.000     0.000   0.0% |
  Calculate atomic Hamiltonians:    11.248    11.248   0.2% |
  Communicate:                       0.104     0.104   0.0% |
  Poisson:                           0.105     0.105   0.0% |
  XC 3D grid:                       11.075    11.075   0.2% |
 Orthonormalize:                     4.405     0.004   0.0% |
  calc_s_matrix:                     0.524     0.524   0.0% |
  inverse-cholesky:                  0.054     0.054   0.0% |
  projections:                       2.890     2.890   0.0% |
  rotate_psi_s:                      0.933     0.933   0.0% |
Set symmetry:                        0.000     0.000   0.0% |
Other:                            3874.480  3874.480  57.4% |----------------------|
-----------------------------------------------------------
Total:                                      6747.151 100.0%

Memory usage: 12.88 GiB
Date: Mon Mar 22 13:29:46 2021
