
  ___ ___ ___ _ _ _  
 |   |   |_  | | | | 
 | | | | | . | | | | 
 |__ |  _|___|_____|  20.10.1b1
 |___|_|             

User:   madkru@g064.nifl.fysik.dtu.dk
Date:   Sun Mar 21 14:23:15 2021
Arch:   x86_64
Pid:    60512
Python: 3.7.4
gpaw:   /home/niflheim/madkru/venv_folder/gpaw/gpaw (d0d1ca1c71)
_gpaw:  /home/niflheim/madkru/venv_folder/gpaw/build/lib.linux-x86_64-sandybridge-3.7/
        _gpaw.cpython-37m-x86_64-linux-gnu.so (4fd39e8b1e)
ase:    /home/niflheim/madkru/venv_folder/ase/ase (version 3.21.0b1-7e6c206a91)
numpy:  /home/niflheim/madkru/venv_folder/lib/python3.7/site-packages/numpy (version 1.19.4)
scipy:  /home/niflheim/madkru/venv_folder/lib/python3.7/site-packages/scipy (version 1.5.4)
libxc:  4.3.4
units:  Angstrom and eV
cores: 32
OMP_NUM_THREADS: 1

Input parameters:
  convergence: {bands: occupied,
                density: 0.0001,
                eigenstates: 4e-08,
                energy: 0.0005,
                forces: 1e-06}
  kpts: [6 6 4]
  mode: {ecut: 600.0,
         gammacentered: False,
         name: pw}
  occupations: {fixmagmom: False,
                name: fermi-dirac,
                width: 0.001}
  symmetry: {point_group: False,
             time_reversal: False}

System changes: positions, numbers, cell, pbc, initial_charges, initial_magmoms 

Initialize ...

O-setup:
  name: Oxygen
  id: 9b9d51c344dea68c822856295a461509
  Z: 8.0
  valence: 6
  core: 2
  charge: 0.0
  file: /home/modules/software/GPAW-setups/0.9.20000/O.LDA.gz
  compensation charges: gauss, rc=0.21, lmax=2
  cutoffs: 1.17(filt), 0.83(core),
  valence states:
                energy  radius
    2s(2.00)   -23.752   0.688
    2p(4.00)    -9.195   0.598
    *s           3.459   0.688
    *p          18.016   0.598
    *d           0.000   0.619

  Using partial waves for O as LCAO basis

Mn-setup:
  name: Manganese
  id: 0d715a8018be061a6e9ea6f2d364ac92
  Z: 25.0
  valence: 15
  core: 10
  charge: 0.0
  file: /home/modules/software/GPAW-setups/0.9.20000/Mn.LDA.gz
  compensation charges: gauss, rc=0.38, lmax=2
  cutoffs: 2.14(filt), 0.86(core),
  valence states:
                energy  radius
    3s(2.00)   -85.387   1.275
    4s(2.00)    -5.282   1.275
    3p(6.00)   -54.493   1.281
    4p(0.00)    -1.471   1.281
    3d(5.00)    -7.009   1.138
    *d          20.203   1.138

  Using partial waves for Mn as LCAO basis

P-setup:
  name: Phosphorus
  id: a5561c299094968922a179ab894d2e2d
  Z: 15.0
  valence: 5
  core: 10
  charge: 0.0
  file: /home/modules/software/GPAW-setups/0.9.20000/P.LDA.gz
  compensation charges: gauss, rc=0.30, lmax=2
  cutoffs: 1.69(filt), 1.81(core),
  valence states:
                energy  radius
    3s(2.00)   -14.015   0.953
    3p(3.00)    -5.596   0.953
    *s          13.197   0.953
    *p          21.615   0.953
    *d           0.000   0.953

  Using partial waves for P as LCAO basis

Li-setup:
  name: Lithium
  id: b73562207f97a71b6967473b66fe8b65
  Z: 3.0
  valence: 1
  core: 2
  charge: 0.0
  file: /home/modules/software/GPAW-setups/0.9.20000/Li.LDA.gz
  compensation charges: gauss, rc=0.33, lmax=2
  cutoffs: 1.91(filt), 2.55(core),
  valence states:
                energy  radius
    2s(1.00)    -2.874   1.058
    2p(0.00)    -1.126   1.058
    *s          24.338   1.058

  Using partial waves for Li as LCAO basis

Reference energy: -196157.275402

Spin-polarized calculation.
Magnetic moment: 0.000000

Convergence criteria:
  Maximum total energy change: 0.0005 eV / electron
  Maximum integral of absolute density change: 0.0001 electrons
  Maximum integral of absolute eigenstate change: 4e-08 eV^2
  Maximum change in atomic force: 1e-06 eV / Ang
  Maximum number of iterations: 333

Symmetries present (total): 1

  ( 1  0  0)
  ( 0  1  0)
  ( 0  0  1)

144 k-points: 6 x 6 x 4 Monkhorst-Pack grid
144 k-points in the irreducible part of the Brillouin zone
       k-points in crystal coordinates                weights
   0:    -0.41666667   -0.41666667   -0.37500000          1/144
   1:    -0.41666667   -0.41666667   -0.12500000          1/144
   2:    -0.41666667   -0.41666667    0.12500000          1/144
   3:    -0.41666667   -0.41666667    0.37500000          1/144
   4:    -0.41666667   -0.25000000   -0.37500000          1/144
   5:    -0.41666667   -0.25000000   -0.12500000          1/144
   6:    -0.41666667   -0.25000000    0.12500000          1/144
   7:    -0.41666667   -0.25000000    0.37500000          1/144
   8:    -0.41666667   -0.08333333   -0.37500000          1/144
   9:    -0.41666667   -0.08333333   -0.12500000          1/144
          ...
 143:     0.41666667    0.41666667    0.37500000          1/144

Wave functions: Plane wave expansion
  Cutoff energy: 600.000 eV
  Number of coefficients (min, max): 10068, 10125
  Pulay-stress correction: 0.000000 eV/Ang^3 (de/decut=0.000000)
  Using FFTW library
  ScaLapack parameters: grid=1x1, blocksize=None
  Wavefunction extrapolation:
    Improved wavefunction reuse through dual PAW basis 

  Fermi-Dirac: width=0.0010 eV

Eigensolver
   Davidson(niter=2, smin=None, normalize=True) 

Densities:
  Coarse grid: 60*35*27 grid
  Fine grid: 120*70*54 grid
  Total Charge: 0.000000 

Density mixing:
  Method: difference
  Backend: pulay
  Linear mixing parameter: 0.05
  Mixing with 5 old densities
  Damping of long wave oscillations: 50 

Hamiltonian:
  XC and Coulomb potentials evaluated on a 120*70*54 grid
  Using the LDA Exchange-Correlation functional
 

Memory estimate:
  Process memory now: 12541.94 MiB
  Calculator: 375.55 MiB
    Density: 20.02 MiB
      Arrays: 7.57 MiB
      Localized functions: 9.42 MiB
      Mixer: 3.03 MiB
    Hamiltonian: 5.90 MiB
      Arrays: 5.62 MiB
      XC: 0.00 MiB
      Poisson: 0.00 MiB
      vbar: 0.27 MiB
    Wavefunctions: 349.64 MiB
      Arrays psit_nG: 311.46 MiB
      Eigensolver: 19.99 MiB
      Projections: 5.41 MiB
      Projectors: 9.73 MiB
      PW-descriptor: 3.03 MiB

Total number of cores used: 32
Parallelization over k-points: 16
Domain decomposition: 2 x 1 x 1

Number of atoms: 28
Number of atomic orbitals: 148
Number of bands in calculation: 112
Number of valence electrons: 180
Bands to converge: occupied

... initialized

Initializing position-dependent things.

Density initialized from atomic densities
Creating initial wave functions:
  112 bands from LCAO basis set

     .-------------------------.  
    /|         OP              |  
   / |O            O        O  |  
  /  |       O            O  P |  
 *   |O    Mn      O           |  
 |   |          OLi          O |  
 |   .P-O--------------Mn------.  
 |  /          Li    O  Mn  O /   
 | /Li O           PO        /    
 |/       Mn                /     
 *Li-----------------------*      

Positions:
   0 O     -1.360678   -2.541161   -1.202221    ( 0.0000,  0.0000,  0.0000)
   1 O     -3.121941    2.976855    1.167242    ( 0.0000,  0.0000,  0.0000)
   2 O      2.097533    0.508090    1.540712    ( 0.0000,  0.0000,  0.0000)
   3 O      3.869373   -0.072395   -0.828750    ( 0.0000,  0.0000,  0.0000)
   4 O      2.107821    2.976875    1.540792    ( 0.0000,  0.0000,  0.0000)
   5 O      3.869084   -2.541141   -0.828671    ( 0.0000,  0.0000,  0.0000)
   6 O     -1.360390   -0.072375   -1.202141    ( 0.0000,  0.0000,  0.0000)
   7 O     -3.122230    0.508109    1.167321    ( 0.0000,  0.0000,  0.0000)
   8 O     -4.413461   -1.306992   -0.794251    ( 0.0000,  0.0000,  0.0000)
   9 O     -0.069585    1.742707    1.575662    ( 0.0000,  0.0000,  0.0000)
  10 O      5.160604    1.742707    1.132822    ( 0.0000,  0.0000,  0.0000)
  11 O      0.816728   -1.306992   -1.237091    ( 0.0000,  0.0000,  0.0000)
  12 Mn    -2.570809   -1.307302    0.247161    ( 0.0000,  0.0000,  1.0000)
  13 Mn    -1.912021    1.743016   -2.122906    ( 0.0000,  0.0000, -1.0000)
  14 Mn     3.317952    1.743017    0.091411    ( 0.0000,  0.0000, -1.0000)
  15 Mn     2.659164   -1.307302    2.461478    ( 0.0000,  0.0000,  1.0000)
  16 P     -0.620664   -1.306816   -1.828465    ( 0.0000,  0.0000,  0.0000)
  17 P     -3.862097    1.742530    0.541238    ( 0.0000,  0.0000,  0.0000)
  18 P      1.367807    1.742530    2.167036    ( 0.0000,  0.0000,  0.0000)
  19 P      4.609240   -1.306816   -0.202666    ( 0.0000,  0.0000,  0.0000)
  20 O     -0.646437   -1.306845    1.374751    ( 0.0000,  0.0000,  0.0000)
  21 O     -3.836504    1.742559   -0.995565    ( 0.0000,  0.0000,  0.0000)
  22 O      1.393580    1.742559   -1.036179    ( 0.0000,  0.0000,  0.0000)
  23 O      4.583647   -1.306845    1.334136    ( 0.0000,  0.0000,  0.0000)
  24 Li    -4.856429   -2.832143   -2.200714    ( 0.0000,  0.0000,  0.0000)
  25 Li     0.373571   -2.832143    0.169286    ( 0.0000,  0.0000,  0.0000)
  26 Li    -4.856429    0.217857   -2.200714    ( 0.0000,  0.0000,  0.0000)
  27 Li     0.373571    0.217857    0.169286    ( 0.0000,  0.0000,  0.0000)

Unit cell:
           periodic     x           y           z      points  spacing
  1. axis:    yes   10.460000    0.000000    0.000000    60     0.1743
  2. axis:    yes    0.000000    6.100000    0.000000    35     0.1743
  3. axis:    yes    0.000000    0.000000    4.740000    27     0.1756

  Lengths:  10.460000   6.100000   4.740000
  Angles:   90.000000  90.000000  90.000000

Effective grid spacing dv^(1/3) = 0.1747

                     log10-error:           total        iterations:
           time      wfs    density  force  energy       poisson  magmom
iter:   1  14:26:13                       -231.921212             +0.0000
iter:   2  14:26:53  -0.55  -0.94         -231.746215             +0.0104
iter:   3  14:27:32  -0.72  -0.98         -220.586451             +0.0130
iter:   4  14:28:12  -0.94  -1.20         -218.871342             +0.0044
iter:   5  14:28:52  -1.93  -1.36         -222.181399             +0.0028
iter:   6  14:29:31  -1.98  -1.44         -220.933345             +0.0013
iter:   7  14:30:11  -2.14  -1.66         -224.277735             +0.0008
iter:   8  14:30:50  -1.81  -1.88         -226.663285             +0.0001
iter:   9  14:31:30  -2.59  -1.84         -227.522158             +0.0001
iter:  10  14:32:09  -2.03  -1.78         -226.687974             +0.0000
iter:  11  14:32:49  -2.35  -1.96         -226.444246             +0.0000
iter:  12  14:33:28  -2.09  -2.25         -226.406634             +0.0000
iter:  13  14:34:07  -3.29  -2.35         -226.317560             +0.0000
iter:  14  14:34:47  -2.74  -2.44         -226.239109             -0.0000
iter:  15  14:35:26  -3.04  -2.71         -226.240902             +0.0000
iter:  16  14:36:06  -3.96  -2.98         -226.230725             +0.0000
iter:  17  14:36:45  -4.67  -3.04         -226.229514             +0.0000
iter:  18  14:37:24  -4.00  -3.09         -226.230082             +0.0000
iter:  19  14:38:04  -4.19  -3.25         -226.228410             +0.0000
iter:  20  14:38:43  -5.20  -3.50         -226.228384             +0.0000
iter:  21  14:39:23  -5.51  -3.55         -226.227844             -0.0000
iter:  22  14:40:02  -5.09  -3.69         -226.227955             -0.0000
iter:  23  14:40:41  -4.93  -3.75         -226.227361             -0.0000
iter:  24  14:41:21  -5.77  -4.00         -226.227388             -0.0000
iter:  25  14:42:00  -6.25  -4.04         -226.227383             -0.0000
iter:  26  14:42:39  -6.95  -4.13         -226.227380             +0.0000
iter:  27  14:43:19  -7.00  -4.16         -226.227372             +0.0000
iter:  28  14:43:58  -7.06  -4.20         -226.227372             +0.0000
iter:  29  14:44:38  -6.66  -4.25         -226.227376             +0.0000
iter:  30  14:45:28  -7.96  -4.48         -226.227372             +0.0000
iter:  31  14:46:07  -6.65  -4.51         -226.227372             +0.0000
iter:  32  14:46:57  -7.54  -4.71    -2.45-226.227369             +0.0000
iter:  33  14:47:47  -7.53  -4.82    -2.40-226.227369             +0.0000
iter:  34  14:48:37  -8.54  -5.20    -3.14-226.227368             -0.0000
iter:  35  14:49:27  -8.57  -5.34    -3.02-226.227368             +0.0000
iter:  36  14:50:17  -9.09  -5.41    -3.59-226.227368             -0.0000
iter:  37  14:51:07  -8.97  -5.49    -3.63-226.227368             -0.0000
iter:  38  14:51:57  -9.29  -5.60    -3.76-226.227368             -0.0000
iter:  39  14:52:47 -10.09  -5.67    -3.92-226.227368             +0.0000
iter:  40  14:53:37  -9.41  -5.72    -3.74-226.227368             +0.0000
iter:  41  14:54:27 -10.07  -5.97    -4.08-226.227368             +0.0000
iter:  42  14:55:17 -10.80  -6.03    -4.56-226.227368             +0.0000
iter:  43  14:56:07 -10.35  -6.07    -4.20-226.227368             +0.0000
iter:  44  14:56:57 -11.12  -6.22    -4.61-226.227368             +0.0000
iter:  45  14:57:47 -10.50  -6.25    -4.25-226.227368             +0.0000
iter:  46  14:58:37 -10.97  -6.33    -4.23-226.227368             +0.0000
iter:  47  14:59:27 -11.30  -6.45    -4.49-226.227368             +0.0000
iter:  48  15:00:16 -11.46  -6.69    -4.83-226.227368             +0.0000
iter:  49  15:01:06 -11.75  -6.79    -4.98-226.227368             +0.0000
iter:  50  15:01:56 -12.55  -6.87    -5.14-226.227368             +0.0000
iter:  51  15:02:46 -12.97  -6.92    -5.01-226.227368             +0.0000
iter:  52  15:03:36 -12.54  -7.03    -5.27-226.227368             +0.0000
iter:  53  15:04:26 -11.83  -7.08    -4.86-226.227368             +0.0000
iter:  54  15:05:16 -12.92  -7.29    -5.67-226.227368             +0.0000
iter:  55  15:06:06 -12.26  -7.29    -4.96-226.227368             +0.0000
iter:  56  15:06:56 -12.85  -7.43    -5.26-226.227368             +0.0000
iter:  57  15:07:46 -13.39  -7.62    -5.91-226.227368             +0.0000
iter:  58  15:08:36 -13.65  -7.63    -5.82-226.227368             +0.0000
iter:  59  15:09:26 -14.12  -7.66    -6.10-226.227368             +0.0000

Converged after 59 iterations.

Dipole moment: (10.672872, 1.416050, -6.269414) |e|*Ang

Total magnetic moment: (0.000000, 0.000000, 0.000000)
Local magnetic moments:
   0 O  ( 0.000000,  0.000000, -0.000498)
   1 O  ( 0.000000,  0.000000,  0.000552)
   2 O  ( 0.000000,  0.000000,  0.000580)
   3 O  ( 0.000000,  0.000000, -0.000576)
   4 O  ( 0.000000,  0.000000,  0.000536)
   5 O  ( 0.000000,  0.000000, -0.000601)
   6 O  ( 0.000000,  0.000000, -0.000514)
   7 O  ( 0.000000,  0.000000,  0.000573)
   8 O  ( 0.000000,  0.000000,  0.028638)
   9 O  ( 0.000000,  0.000000, -0.028820)
  10 O  ( 0.000000,  0.000000, -0.028692)
  11 O  ( 0.000000,  0.000000,  0.028748)
  12 Mn ( 0.000000,  0.000000,  4.448168)
  13 Mn ( 0.000000,  0.000000, -4.448257)
  14 Mn ( 0.000000,  0.000000, -4.448724)
  15 Mn ( 0.000000,  0.000000,  4.448970)
  16 P  ( 0.000000,  0.000000,  0.001546)
  17 P  ( 0.000000,  0.000000, -0.001533)
  18 P  ( 0.000000,  0.000000, -0.001518)
  19 P  ( 0.000000,  0.000000,  0.001555)
  20 O  ( 0.000000,  0.000000,  0.025339)
  21 O  ( 0.000000,  0.000000, -0.025264)
  22 O  ( 0.000000,  0.000000, -0.025350)
  23 O  ( 0.000000,  0.000000,  0.025269)
  24 Li ( 0.000000,  0.000000,  0.000000)
  25 Li ( 0.000000,  0.000000, -0.000003)
  26 Li ( 0.000000,  0.000000, -0.000000)
  27 Li ( 0.000000,  0.000000,  0.000004)

Energy contributions relative to reference atoms: (reference = -196157.275402)

Kinetic:       +217.621059
Potential:     -195.441494
External:        +0.000000
XC:            -250.447612
Entropy (-ST):   -0.000000
Local:           +2.040678
--------------------------
Free energy:   -226.227368
Extrapolated:  -226.227368

Spin contamination: 9.561193 electrons
Showing only first 2 kpts
                      Up                     Down
 Kpt  Band  Eigenvalues  Occupancy  Eigenvalues  Occupancy
  0    88      5.10529    0.00694      5.10729    0.00694
  0    89      5.13219    0.00694      5.13462    0.00694
  0    90      7.28363    0.00000      7.28582    0.00000
  0    91      7.30711    0.00000      7.30417    0.00000

  1    88      5.13109    0.00694      5.13335    0.00694
  1    89      5.16260    0.00694      5.16466    0.00694
  1    90      7.22403    0.00000      7.22840    0.00000
  1    91      7.24499    0.00000      7.24180    0.00000


Fermi level: 6.49017

Gap: 1.967 eV
Transition (v -> c):
  (s=1, k=70, n=89, [-0.08, 0.42, 0.12]) -> (s=0, k=86, n=90, [0.08, 0.08, 0.12])
Writing to born-0.01-2x-.gpw (mode='all')

Timing:                              incl.     excl.
-----------------------------------------------------------
Hamiltonian:                         0.414     0.003   0.0% |
 Atomic:                             0.054     0.054   0.0% |
  XC Correction:                     0.000     0.000   0.0% |
 Calculate atomic Hamiltonians:      0.181     0.181   0.0% |
 Communicate:                        0.002     0.002   0.0% |
 Initialize Hamiltonian:             0.000     0.000   0.0% |
 Poisson:                            0.002     0.002   0.0% |
 XC 3D grid:                         0.173     0.173   0.0% |
LCAO initialization:               129.423     0.677   0.0% |
 LCAO eigensolver:                  33.868     0.003   0.0% |
  Calculate projections:             0.057     0.057   0.0% |
  DenseAtomicCorrection:             0.083     0.083   0.0% |
  Distribute overlap matrix:         0.242     0.242   0.0% |
  Orbital Layouts:                   0.363     0.363   0.0% |
  Potential matrix:                 33.032    33.032   0.5% |
  Sum over cells:                    0.088     0.088   0.0% |
 LCAO to grid:                      92.583    92.583   1.5% ||
 Set positions (LCAO WFS):           2.295     0.345   0.0% |
  Basic WFS set positions:           0.001     0.001   0.0% |
  Basis functions set positions:     0.000     0.000   0.0% |
  P tci:                             1.087     1.087   0.0% |
  ST tci:                            0.656     0.656   0.0% |
  mktci:                             0.206     0.206   0.0% |
PWDescriptor:                        0.025     0.025   0.0% |
SCF-cycle:                        2638.719     6.598   0.1% |
 Davidson:                        2207.554   717.952  11.8% |----|
  Apply H:                         156.686   151.297   2.5% ||
   HMM T:                            5.388     5.388   0.1% |
  Subspace diag:                   326.922     0.191   0.0% |
   calc_h_matrix:                  212.145    58.400   1.0% |
    Apply H:                       153.745   148.654   2.4% ||
     HMM T:                          5.091     5.091   0.1% |
   diagonalize:                      7.275     7.275   0.1% |
   rotate_psi:                     107.311   107.311   1.8% ||
  calc. matrices:                  689.131   390.044   6.4% |--|
   Apply H:                        299.087   289.898   4.8% |-|
    HMM T:                           9.190     9.190   0.2% |
  diagonalize:                      98.547    98.547   1.6% ||
  rotate_psi:                      218.316   218.316   3.6% ||
 Density:                           87.789     0.002   0.0% |
  Atomic density matrices:           1.558     1.558   0.0% |
  Mix:                              14.440    14.440   0.2% |
  Multipole moments:                 0.035     0.035   0.0% |
  Pseudo density:                   71.755    71.753   1.2% |
   Symmetrize density:               0.002     0.002   0.0% |
 Forces:                           307.862   307.862   5.1% |-|
 Hamiltonian:                       24.504     0.139   0.0% |
  Atomic:                            3.175     3.175   0.1% |
   XC Correction:                    0.000     0.000   0.0% |
  Calculate atomic Hamiltonians:    10.610    10.610   0.2% |
  Communicate:                       0.107     0.107   0.0% |
  Poisson:                           0.102     0.102   0.0% |
  XC 3D grid:                       10.370    10.370   0.2% |
 Orthonormalize:                     4.413     0.003   0.0% |
  calc_s_matrix:                     0.524     0.524   0.0% |
  inverse-cholesky:                  0.054     0.054   0.0% |
  projections:                       2.899     2.899   0.0% |
  rotate_psi_s:                      0.932     0.932   0.0% |
Set symmetry:                        0.000     0.000   0.0% |
Other:                            3316.979  3316.979  54.5% |---------------------|
-----------------------------------------------------------
Total:                                      6085.561 100.0%

Memory usage: 12.25 GiB
Date: Sun Mar 21 16:04:41 2021
