
  ___ ___ ___ _ _ _  
 |   |   |_  | | | | 
 | | | | | . | | | | 
 |__ |  _|___|_____|  21.1.1b1
 |___|_|             

User:   madkru@g043.nifl.fysik.dtu.dk
Date:   Tue Mar 30 17:33:21 2021
Arch:   x86_64
Pid:    39387
Python: 3.8.6
gpaw:   /home/niflheim/madkru/venv_madkru/gpaw/gpaw (e6f0d78a31)
_gpaw:  /home/niflheim/madkru/venv_madkru/gpaw/build/lib.linux-x86_64-sandybridge-3.8/
        _gpaw.cpython-38-x86_64-linux-gnu.so (e6f0d78a31)
ase:    /home/niflheim/madkru/venv_madkru/ase/ase (version 3.22.0b1-4d5a73cb29)
numpy:  /home/modules/software/SciPy-bundle/2020.11-foss-2020b/lib/python3.8/site-packages/numpy (version 1.19.4)
scipy:  /home/modules/software/SciPy-bundle/2020.11-foss-2020b/lib/python3.8/site-packages/scipy (version 1.5.4)
libxc:  4.3.4
units:  Angstrom and eV
cores: 64
OpenMP: False
OMP_NUM_THREADS: 1

Input parameters:
  convergence: {bands: occupied,
                density: 0.0001,
                eigenstates: 4e-08,
                energy: 0.0005,
                forces: 1e-06}
  kpts: [6 6 4]
  maxiter: 1000
  mode: {ecut: 600.0,
         gammacentered: False,
         name: pw}
  occupations: {fixmagmom: False,
                name: fermi-dirac,
                width: 0.001}
  symmetry: {point_group: False,
             time_reversal: False}

System changes: positions, numbers, cell, pbc, initial_charges, initial_magmoms 

Initialize ...

O-setup:
  name: Oxygen
  id: 9b9d51c344dea68c822856295a461509
  Z: 8.0
  valence: 6
  core: 2
  charge: 0.0
  file: /home/modules/software/GPAW-setups/0.9.20000/O.LDA.gz
  compensation charges: gauss, rc=0.21, lmax=2
  cutoffs: 1.17(filt), 0.83(core),
  valence states:
                energy  radius
    2s(2.00)   -23.752   0.688
    2p(4.00)    -9.195   0.598
    *s           3.459   0.688
    *p          18.016   0.598
    *d           0.000   0.619

  Using partial waves for O as LCAO basis

Mn-setup:
  name: Manganese
  id: 0d715a8018be061a6e9ea6f2d364ac92
  Z: 25.0
  valence: 15
  core: 10
  charge: 0.0
  file: /home/modules/software/GPAW-setups/0.9.20000/Mn.LDA.gz
  compensation charges: gauss, rc=0.38, lmax=2
  cutoffs: 2.14(filt), 0.86(core),
  valence states:
                energy  radius
    3s(2.00)   -85.387   1.275
    4s(2.00)    -5.282   1.275
    3p(6.00)   -54.493   1.281
    4p(0.00)    -1.471   1.281
    3d(5.00)    -7.009   1.138
    *d          20.203   1.138

  Using partial waves for Mn as LCAO basis

P-setup:
  name: Phosphorus
  id: a5561c299094968922a179ab894d2e2d
  Z: 15.0
  valence: 5
  core: 10
  charge: 0.0
  file: /home/modules/software/GPAW-setups/0.9.20000/P.LDA.gz
  compensation charges: gauss, rc=0.30, lmax=2
  cutoffs: 1.69(filt), 1.81(core),
  valence states:
                energy  radius
    3s(2.00)   -14.015   0.953
    3p(3.00)    -5.596   0.953
    *s          13.197   0.953
    *p          21.615   0.953
    *d           0.000   0.953

  Using partial waves for P as LCAO basis

Li-setup:
  name: Lithium
  id: b73562207f97a71b6967473b66fe8b65
  Z: 3.0
  valence: 1
  core: 2
  charge: 0.0
  file: /home/modules/software/GPAW-setups/0.9.20000/Li.LDA.gz
  compensation charges: gauss, rc=0.33, lmax=2
  cutoffs: 1.91(filt), 2.55(core),
  valence states:
                energy  radius
    2s(1.00)    -2.874   1.058
    2p(0.00)    -1.126   1.058
    *s          24.338   1.058

  Using partial waves for Li as LCAO basis

Reference energy: -196157.275402

Spin-polarized calculation.
Magnetic moment: 0.000000

Convergence criteria:
  Maximum total energy change: 0.0005 eV / electron
  Maximum integral of absolute density change: 0.0001 electrons
  Maximum integral of absolute eigenstate change: 4e-08 eV^2
  Maximum change in atomic force: 1e-06 eV / Ang
  Maximum number of iterations: 1000

Symmetries present (total): 1

  ( 1  0  0)
  ( 0  1  0)
  ( 0  0  1)

144 k-points: 6 x 6 x 4 Monkhorst-Pack grid
144 k-points in the irreducible part of the Brillouin zone
       k-points in crystal coordinates                weights
   0:    -0.41666667   -0.41666667   -0.37500000          1/144
   1:    -0.41666667   -0.41666667   -0.12500000          1/144
   2:    -0.41666667   -0.41666667    0.12500000          1/144
   3:    -0.41666667   -0.41666667    0.37500000          1/144
   4:    -0.41666667   -0.25000000   -0.37500000          1/144
   5:    -0.41666667   -0.25000000   -0.12500000          1/144
   6:    -0.41666667   -0.25000000    0.12500000          1/144
   7:    -0.41666667   -0.25000000    0.37500000          1/144
   8:    -0.41666667   -0.08333333   -0.37500000          1/144
   9:    -0.41666667   -0.08333333   -0.12500000          1/144
          ...
 143:     0.41666667    0.41666667    0.37500000          1/144

Wave functions: Plane wave expansion
  Cutoff energy: 600.000 eV
  Number of coefficients (min, max): 10068, 10125
  Pulay-stress correction: 0.000000 eV/Ang^3 (de/decut=0.000000)
  Using FFTW library
  ScaLapack parameters: grid=1x1, blocksize=None
  Wavefunction extrapolation:
    Improved wavefunction reuse through dual PAW basis 

  Fermi-Dirac: width=0.0010 eV

Eigensolver
   Davidson(niter=2) 

Densities:
  Coarse grid: 60*35*27 grid
  Fine grid: 120*70*54 grid
  Total Charge: 0.000000 

Density mixing:
  Method: difference
  Backend: pulay
  Linear mixing parameter: 0.05
  Mixing with 5 old densities
  Damping of long wave oscillations: 50 

Hamiltonian:
  XC and Coulomb potentials evaluated on a 120*70*54 grid
  Using the LDA Exchange-Correlation functional
 

Memory estimate:
  Process memory now: 12875.03 MiB
  Calculator: 354.82 MiB
    Density: 10.06 MiB
      Arrays: 3.79 MiB
      Localized functions: 4.71 MiB
      Mixer: 1.56 MiB
    Hamiltonian: 2.95 MiB
      Arrays: 2.82 MiB
      XC: 0.00 MiB
      Poisson: 0.00 MiB
      vbar: 0.14 MiB
    Wavefunctions: 341.80 MiB
      Arrays psit_nG: 311.46 MiB
      Eigensolver: 19.99 MiB
      Projections: 2.71 MiB
      Projectors: 4.87 MiB
      PW-descriptor: 2.77 MiB

Total number of cores used: 64
Parallelization over k-points: 16
Domain decomposition: 2 x 2 x 1

Number of atoms: 28
Number of atomic orbitals: 148
Number of bands in calculation: 112
Number of valence electrons: 180
Bands to converge: occupied

... initialized

Initializing position-dependent things.

Density initialized from atomic densities
Creating initial wave functions:
  112 bands from LCAO basis set

     .-------------------------.  
    /|         OP              |  
   / |O            O        O  |  
  /  |       O            O  P |  
 *   |O    Mn      O           |  
 |   |          OLi          O |  
 |   .P-O--------------Mn------.  
 |  /          Li    O  Mn  O /   
 | /Li O           PO        /    
 |/       Mn                /     
 *Li-----------------------*      

Positions:
   0 O     -1.360678   -2.541161   -1.202221    ( 0.0000,  0.0000,  0.0000)
   1 O     -3.121941    2.976855    1.167242    ( 0.0000,  0.0000,  0.0000)
   2 O      2.107533    0.508090    1.540712    ( 0.0000,  0.0000,  0.0000)
   3 O      3.869373   -0.072395   -0.828750    ( 0.0000,  0.0000,  0.0000)
   4 O      2.107821    2.976875    1.540792    ( 0.0000,  0.0000,  0.0000)
   5 O      3.869084   -2.541141   -0.828671    ( 0.0000,  0.0000,  0.0000)
   6 O     -1.360390   -0.072375   -1.202141    ( 0.0000,  0.0000,  0.0000)
   7 O     -3.122230    0.508109    1.167321    ( 0.0000,  0.0000,  0.0000)
   8 O     -4.413461   -1.306992   -0.794251    ( 0.0000,  0.0000,  0.0000)
   9 O     -0.069585    1.742707    1.575662    ( 0.0000,  0.0000,  0.0000)
  10 O      5.160604    1.742707    1.132822    ( 0.0000,  0.0000,  0.0000)
  11 O      0.816728   -1.306992   -1.237091    ( 0.0000,  0.0000,  0.0000)
  12 Mn    -2.570809   -1.307302    0.247161    ( 0.0000,  0.0000,  1.0000)
  13 Mn    -1.922021    1.743016   -2.122906    ( 0.0000,  0.0000, -1.0000)
  14 Mn     3.317952    1.743017    0.091411    ( 0.0000,  0.0000, -1.0000)
  15 Mn     2.659164   -1.307302    2.461478    ( 0.0000,  0.0000,  1.0000)
  16 P     -0.620664   -1.306816   -1.828465    ( 0.0000,  0.0000,  0.0000)
  17 P     -3.862097    1.742530    0.541238    ( 0.0000,  0.0000,  0.0000)
  18 P      1.367807    1.742530    2.167036    ( 0.0000,  0.0000,  0.0000)
  19 P      4.609240   -1.306816   -0.202666    ( 0.0000,  0.0000,  0.0000)
  20 O     -0.646437   -1.306845    1.374751    ( 0.0000,  0.0000,  0.0000)
  21 O     -3.836504    1.742559   -0.995565    ( 0.0000,  0.0000,  0.0000)
  22 O      1.393580    1.742559   -1.036179    ( 0.0000,  0.0000,  0.0000)
  23 O      4.583647   -1.306845    1.334136    ( 0.0000,  0.0000,  0.0000)
  24 Li    -4.856429   -2.832143   -2.200714    ( 0.0000,  0.0000,  0.0000)
  25 Li     0.373571   -2.832143    0.169286    ( 0.0000,  0.0000,  0.0000)
  26 Li    -4.856429    0.217857   -2.200714    ( 0.0000,  0.0000,  0.0000)
  27 Li     0.373571    0.217857    0.169286    ( 0.0000,  0.0000,  0.0000)

Unit cell:
           periodic     x           y           z      points  spacing
  1. axis:    yes   10.460000    0.000000    0.000000    60     0.1743
  2. axis:    yes    0.000000    6.100000    0.000000    35     0.1743
  3. axis:    yes    0.000000    0.000000    4.740000    27     0.1756

  Lengths:  10.460000   6.100000   4.740000
  Angles:   90.000000  90.000000  90.000000

Effective grid spacing dv^(1/3) = 0.1747

                     log10-error:           total        iterations:
           time      wfs    density  force  energy       poisson  magmom
iter:   1  17:34:56                       -231.921338             +0.0000
iter:   2  17:35:17  -0.55  -0.94         -231.718274             +0.0053
iter:   3  17:35:38  -0.72  -0.98         -220.577229             +0.0067
iter:   4  17:36:00  -0.96  -1.20         -218.849990             +0.0022
iter:   5  17:36:21  -1.93  -1.36         -221.159486             +0.0014
iter:   6  17:36:42  -1.98  -1.50         -219.933166             +0.1944
iter:   7  17:37:03  -2.25  -1.67         -222.368632             -0.0084
iter:   8  17:37:25  -2.73  -1.90         -219.382845             -0.0039
iter:   9  17:37:46  -2.56  -1.98         -221.666014             +0.0881
iter:  10  17:38:07  -2.20  -1.98         -224.876805             +0.0061
iter:  11  17:38:28  -2.81  -1.89         -226.361308             +0.0115
iter:  12  17:38:50  -2.46  -1.85         -227.138433             +0.0056
iter:  13  17:39:11  -2.47  -1.88         -226.931695             +0.0017
iter:  14  17:39:32  -2.88  -1.94         -226.706560             +0.0005
iter:  15  17:39:53  -1.79  -2.00         -226.569397             +0.0002
iter:  16  17:40:15  -3.06  -2.31         -226.403003             +0.0002
iter:  17  17:40:36  -3.08  -2.39         -226.292801             +0.0000
iter:  18  17:40:57  -2.72  -2.51         -226.264716             -0.0000
iter:  19  17:41:18  -3.22  -2.76         -226.282706             -0.0000
iter:  20  17:41:40  -4.02  -2.80         -226.260975             -0.0000
iter:  21  17:42:01  -3.48  -2.89         -226.231920             -0.0000
iter:  22  17:42:22  -4.25  -3.01         -226.229453             -0.0000
iter:  23  17:42:43  -4.33  -3.06         -226.227985             +0.0000
iter:  24  17:43:05  -4.11  -3.21         -226.230136             -0.0000
iter:  25  17:43:26  -5.04  -3.32         -226.229855             -0.0000
iter:  26  17:43:47  -5.48  -3.35         -226.228856             -0.0000
iter:  27  17:44:08  -4.64  -3.40         -226.228262             +0.0000
iter:  28  17:44:29  -5.29  -3.61         -226.228061             -0.0000
iter:  29  17:44:51  -5.26  -3.67         -226.227731             +0.0000
iter:  30  17:45:12  -5.65  -3.84         -226.227701             +0.0000
iter:  31  17:45:33  -6.09  -3.88         -226.227684             +0.0000
iter:  32  17:45:54  -6.36  -3.94         -226.227606             -0.0000
iter:  33  17:46:15  -5.75  -4.04         -226.227607             +0.0000
iter:  34  17:46:37  -6.66  -4.29         -226.227604             -0.0000
iter:  35  17:46:58  -6.47  -4.36         -226.227578             +0.0000
iter:  36  17:47:19  -7.17  -4.56         -226.227576             +0.0000
iter:  37  17:47:40  -7.32  -4.62         -226.227574             -0.0000
iter:  38  17:48:07  -7.75  -4.91         -226.227573             -0.0000
iter:  39  17:48:34  -7.67  -4.98    -2.72-226.227574             -0.0000
iter:  40  17:49:01  -8.36  -5.20    -3.05-226.227573             -0.0000
iter:  41  17:49:27  -8.64  -5.36    -3.32-226.227573             -0.0000
iter:  42  17:49:54  -8.67  -5.43    -3.20-226.227573             -0.0000
iter:  43  17:50:21  -8.58  -5.65    -3.13-226.227573             -0.0000
iter:  44  17:50:48  -9.91  -5.89    -3.93-226.227573             -0.0000
iter:  45  17:51:14  -9.33  -5.92    -3.62-226.227573             -0.0000
iter:  46  17:51:41  -9.65  -5.97    -3.55-226.227573             -0.0000
iter:  47  17:52:08 -11.03  -6.33    -4.71-226.227573             -0.0000
iter:  48  17:52:34 -10.22  -6.37    -3.97-226.227573             -0.0000
iter:  49  17:53:01 -11.04  -6.56    -4.35-226.227573             -0.0000
iter:  50  17:53:28 -11.99  -6.79    -5.03-226.227573             -0.0000
iter:  51  17:53:55 -11.37  -6.84    -4.46-226.227573             -0.0000
iter:  52  17:54:21 -11.26  -6.92    -4.42-226.227573             -0.0000
iter:  53  17:54:48 -12.53  -7.14    -4.96-226.227573             -0.0000
iter:  54  17:55:15 -11.77  -7.24    -4.72-226.227573             +0.0000
iter:  55  17:55:41 -12.03  -7.23    -4.81-226.227573             +0.0000
iter:  56  17:56:08 -13.17  -7.61    -5.39-226.227573             +0.0000
iter:  57  17:56:35 -12.97  -7.69    -5.40-226.227573             -0.0000
iter:  58  17:57:01 -12.90  -7.72    -5.20-226.227573             -0.0000
iter:  59  17:57:28 -13.85  -8.09    -5.73-226.227573             +0.0000
iter:  60  17:57:55 -14.51  -8.17    -6.14-226.227573             +0.0000

Converged after 60 iterations.

Dipole moment: (10.659419, 1.411496, -6.269422) |e|*Ang

Total magnetic moment: (0.000000, 0.000000, 0.000000)
Local magnetic moments:
   0 O  ( 0.000000,  0.000000, -0.000280)
   1 O  ( 0.000000,  0.000000,  0.000173)
   2 O  ( 0.000000,  0.000000,  0.000560)
   3 O  ( 0.000000,  0.000000, -0.000575)
   4 O  ( 0.000000,  0.000000,  0.000540)
   5 O  ( 0.000000,  0.000000, -0.000556)
   6 O  ( 0.000000,  0.000000, -0.000300)
   7 O  ( 0.000000,  0.000000,  0.000193)
   8 O  ( 0.000000,  0.000000,  0.028662)
   9 O  ( 0.000000,  0.000000, -0.028258)
  10 O  ( 0.000000,  0.000000, -0.028625)
  11 O  ( 0.000000,  0.000000,  0.028723)
  12 Mn ( 0.000000,  0.000000,  4.447976)
  13 Mn ( 0.000000,  0.000000, -4.448507)
  14 Mn ( 0.000000,  0.000000, -4.448129)
  15 Mn ( 0.000000,  0.000000,  4.448251)
  16 P  ( 0.000000,  0.000000,  0.001603)
  17 P  ( 0.000000,  0.000000, -0.001713)
  18 P  ( 0.000000,  0.000000, -0.001434)
  19 P  ( 0.000000,  0.000000,  0.001539)
  20 O  ( 0.000000,  0.000000,  0.025370)
  21 O  ( 0.000000,  0.000000, -0.025679)
  22 O  ( 0.000000,  0.000000, -0.025345)
  23 O  ( 0.000000,  0.000000,  0.025274)
  24 Li ( 0.000000,  0.000000,  0.000003)
  25 Li ( 0.000000,  0.000000,  0.000010)
  26 Li ( 0.000000,  0.000000,  0.000003)
  27 Li ( 0.000000,  0.000000,  0.000010)

Energy contributions relative to reference atoms: (reference = -196157.275402)

Kinetic:       +217.353322
Potential:     -195.233150
External:        +0.000000
XC:            -250.388935
Entropy (-ST):   -0.000000
Local:           +2.041191
--------------------------
Free energy:   -226.227573
Extrapolated:  -226.227573

Spin contamination: 9.559995 electrons
Showing only first 2 kpts
                      Up                     Down
 Kpt  Band  Eigenvalues  Occupancy  Eigenvalues  Occupancy
  0    88      5.10885    1.00000      5.10664    1.00000
  0    89      5.13369    1.00000      5.13352    1.00000
  0    90      7.28915    0.00000      7.28737    0.00000
  0    91      7.30740    0.00000      7.30680    0.00000

  1    88      5.13465    1.00000      5.13304    1.00000
  1    89      5.16415    1.00000      5.16379    1.00000
  1    90      7.23259    0.00000      7.22975    0.00000
  1    91      7.24524    0.00000      7.24427    0.00000


Fermi level: 6.09543

Gap: 1.972 eV
Transition (v -> c):
  (s=0, k=73, n=89, [0.08, -0.42, -0.12]) -> (s=1, k=86, n=90, [0.08, 0.08, 0.12])
Writing to born-0.01-13x-.gpw (mode='all')

Timing:                              incl.     excl.
-----------------------------------------------------------
Hamiltonian:                         0.271     0.002   0.0% |
 Atomic:                             0.083     0.083   0.0% |
  XC Correction:                     0.000     0.000   0.0% |
 Calculate atomic Hamiltonians:      0.092     0.092   0.0% |
 Communicate:                        0.001     0.001   0.0% |
 Initialize Hamiltonian:             0.000     0.000   0.0% |
 Poisson:                            0.001     0.001   0.0% |
 XC 3D grid:                         0.091     0.091   0.0% |
LCAO initialization:                69.957     0.677   0.0% |
 LCAO eigensolver:                  18.022     0.002   0.0% |
  Calculate projections:             0.029     0.029   0.0% |
  DenseAtomicCorrection:             0.043     0.043   0.0% |
  Distribute overlap matrix:         0.120     0.120   0.0% |
  Orbital Layouts:                   0.278     0.278   0.0% |
  Potential matrix:                 17.458    17.458   0.5% |
  Sum over cells:                    0.091     0.091   0.0% |
 LCAO to grid:                      49.945    49.945   1.4% ||
 Set positions (LCAO WFS):           1.314     0.208   0.0% |
  Basic WFS set positions:           0.002     0.002   0.0% |
  Basis functions set positions:     0.000     0.000   0.0% |
  P tci:                             0.516     0.516   0.0% |
  ST tci:                            0.371     0.371   0.0% |
  mktci:                             0.217     0.217   0.0% |
PWDescriptor:                        0.026     0.026   0.0% |
SCF-cycle:                        1403.001     4.938   0.1% |
 Davidson:                        1206.742   386.438  10.8% |---|
  Apply H:                          80.707    78.330   2.2% ||
   HMM T:                            2.377     2.377   0.1% |
  Subspace diag:                   173.476     0.177   0.0% |
   calc_h_matrix:                  110.704    30.131   0.8% |
    Apply H:                        80.573    78.295   2.2% ||
     HMM T:                          2.277     2.277   0.1% |
   diagonalize:                      6.097     6.097   0.2% |
   rotate_psi:                      56.498    56.498   1.6% ||
  calc. matrices:                  360.662   201.162   5.6% |-|
   Apply H:                        159.500   154.907   4.3% |-|
    HMM T:                           4.593     4.593   0.1% |
  diagonalize:                      92.913    92.913   2.6% ||
  rotate_psi:                      112.546   112.546   3.2% ||
 Density:                           47.963     0.001   0.0% |
  Atomic density matrices:           0.787     0.787   0.0% |
  Mix:                               8.167     8.167   0.2% |
  Multipole moments:                 0.021     0.021   0.0% |
  Pseudo density:                   38.987    38.985   1.1% |
   Symmetrize density:               0.002     0.002   0.0% |
 Forces:                           126.383   126.383   3.5% ||
 Hamiltonian:                       14.686     0.131   0.0% |
  Atomic:                            3.378     3.378   0.1% |
   XC Correction:                    0.000     0.000   0.0% |
  Calculate atomic Hamiltonians:     5.610     5.610   0.2% |
  Communicate:                       0.032     0.032   0.0% |
  Poisson:                           0.054     0.054   0.0% |
  XC 3D grid:                        5.481     5.481   0.2% |
 Orthonormalize:                     2.288     0.003   0.0% |
  calc_s_matrix:                     0.266     0.266   0.0% |
  inverse-cholesky:                  0.040     0.040   0.0% |
  projections:                       1.489     1.489   0.0% |
  rotate_psi_s:                      0.490     0.490   0.0% |
Set symmetry:                        0.000     0.000   0.0% |
Other:                            2088.702  2088.702  58.6% |----------------------|
-----------------------------------------------------------
Total:                                      3561.957 100.0%

Memory usage: 12.61 GiB
Date: Tue Mar 30 18:32:42 2021
