
  ___ ___ ___ _ _ _  
 |   |   |_  | | | | 
 | | | | | . | | | | 
 |__ |  _|___|_____|  20.10.1b1
 |___|_|             

User:   madkru@g064.nifl.fysik.dtu.dk
Date:   Sun Mar 21 08:37:09 2021
Arch:   x86_64
Pid:    60512
Python: 3.7.4
gpaw:   /home/niflheim/madkru/venv_folder/gpaw/gpaw (d0d1ca1c71)
_gpaw:  /home/niflheim/madkru/venv_folder/gpaw/build/lib.linux-x86_64-sandybridge-3.7/
        _gpaw.cpython-37m-x86_64-linux-gnu.so (4fd39e8b1e)
ase:    /home/niflheim/madkru/venv_folder/ase/ase (version 3.21.0b1-7e6c206a91)
numpy:  /home/niflheim/madkru/venv_folder/lib/python3.7/site-packages/numpy (version 1.19.4)
scipy:  /home/niflheim/madkru/venv_folder/lib/python3.7/site-packages/scipy (version 1.5.4)
libxc:  4.3.4
units:  Angstrom and eV
cores: 32
OMP_NUM_THREADS: 1

Input parameters:
  convergence: {bands: occupied,
                density: 0.0001,
                eigenstates: 4e-08,
                energy: 0.0005,
                forces: 1e-06}
  kpts: [6 6 4]
  mode: {ecut: 600.0,
         gammacentered: False,
         name: pw}
  occupations: {fixmagmom: False,
                name: fermi-dirac,
                width: 0.001}
  symmetry: {point_group: False,
             time_reversal: False}

System changes: positions, numbers, cell, pbc, initial_charges, initial_magmoms 

Initialize ...

O-setup:
  name: Oxygen
  id: 9b9d51c344dea68c822856295a461509
  Z: 8.0
  valence: 6
  core: 2
  charge: 0.0
  file: /home/modules/software/GPAW-setups/0.9.20000/O.LDA.gz
  compensation charges: gauss, rc=0.21, lmax=2
  cutoffs: 1.17(filt), 0.83(core),
  valence states:
                energy  radius
    2s(2.00)   -23.752   0.688
    2p(4.00)    -9.195   0.598
    *s           3.459   0.688
    *p          18.016   0.598
    *d           0.000   0.619

  Using partial waves for O as LCAO basis

Mn-setup:
  name: Manganese
  id: 0d715a8018be061a6e9ea6f2d364ac92
  Z: 25.0
  valence: 15
  core: 10
  charge: 0.0
  file: /home/modules/software/GPAW-setups/0.9.20000/Mn.LDA.gz
  compensation charges: gauss, rc=0.38, lmax=2
  cutoffs: 2.14(filt), 0.86(core),
  valence states:
                energy  radius
    3s(2.00)   -85.387   1.275
    4s(2.00)    -5.282   1.275
    3p(6.00)   -54.493   1.281
    4p(0.00)    -1.471   1.281
    3d(5.00)    -7.009   1.138
    *d          20.203   1.138

  Using partial waves for Mn as LCAO basis

P-setup:
  name: Phosphorus
  id: a5561c299094968922a179ab894d2e2d
  Z: 15.0
  valence: 5
  core: 10
  charge: 0.0
  file: /home/modules/software/GPAW-setups/0.9.20000/P.LDA.gz
  compensation charges: gauss, rc=0.30, lmax=2
  cutoffs: 1.69(filt), 1.81(core),
  valence states:
                energy  radius
    3s(2.00)   -14.015   0.953
    3p(3.00)    -5.596   0.953
    *s          13.197   0.953
    *p          21.615   0.953
    *d           0.000   0.953

  Using partial waves for P as LCAO basis

Li-setup:
  name: Lithium
  id: b73562207f97a71b6967473b66fe8b65
  Z: 3.0
  valence: 1
  core: 2
  charge: 0.0
  file: /home/modules/software/GPAW-setups/0.9.20000/Li.LDA.gz
  compensation charges: gauss, rc=0.33, lmax=2
  cutoffs: 1.91(filt), 2.55(core),
  valence states:
                energy  radius
    2s(1.00)    -2.874   1.058
    2p(0.00)    -1.126   1.058
    *s          24.338   1.058

  Using partial waves for Li as LCAO basis

Reference energy: -196157.275402

Spin-polarized calculation.
Magnetic moment: 0.000000

Convergence criteria:
  Maximum total energy change: 0.0005 eV / electron
  Maximum integral of absolute density change: 0.0001 electrons
  Maximum integral of absolute eigenstate change: 4e-08 eV^2
  Maximum change in atomic force: 1e-06 eV / Ang
  Maximum number of iterations: 333

Symmetries present (total): 1

  ( 1  0  0)
  ( 0  1  0)
  ( 0  0  1)

144 k-points: 6 x 6 x 4 Monkhorst-Pack grid
144 k-points in the irreducible part of the Brillouin zone
       k-points in crystal coordinates                weights
   0:    -0.41666667   -0.41666667   -0.37500000          1/144
   1:    -0.41666667   -0.41666667   -0.12500000          1/144
   2:    -0.41666667   -0.41666667    0.12500000          1/144
   3:    -0.41666667   -0.41666667    0.37500000          1/144
   4:    -0.41666667   -0.25000000   -0.37500000          1/144
   5:    -0.41666667   -0.25000000   -0.12500000          1/144
   6:    -0.41666667   -0.25000000    0.12500000          1/144
   7:    -0.41666667   -0.25000000    0.37500000          1/144
   8:    -0.41666667   -0.08333333   -0.37500000          1/144
   9:    -0.41666667   -0.08333333   -0.12500000          1/144
          ...
 143:     0.41666667    0.41666667    0.37500000          1/144

Wave functions: Plane wave expansion
  Cutoff energy: 600.000 eV
  Number of coefficients (min, max): 10068, 10125
  Pulay-stress correction: 0.000000 eV/Ang^3 (de/decut=0.000000)
  Using FFTW library
  ScaLapack parameters: grid=1x1, blocksize=None
  Wavefunction extrapolation:
    Improved wavefunction reuse through dual PAW basis 

  Fermi-Dirac: width=0.0010 eV

Eigensolver
   Davidson(niter=2, smin=None, normalize=True) 

Densities:
  Coarse grid: 60*35*27 grid
  Fine grid: 120*70*54 grid
  Total Charge: 0.000000 

Density mixing:
  Method: difference
  Backend: pulay
  Linear mixing parameter: 0.05
  Mixing with 5 old densities
  Damping of long wave oscillations: 50 

Hamiltonian:
  XC and Coulomb potentials evaluated on a 120*70*54 grid
  Using the LDA Exchange-Correlation functional
 

Memory estimate:
  Process memory now: 12299.66 MiB
  Calculator: 375.55 MiB
    Density: 20.02 MiB
      Arrays: 7.57 MiB
      Localized functions: 9.42 MiB
      Mixer: 3.03 MiB
    Hamiltonian: 5.90 MiB
      Arrays: 5.62 MiB
      XC: 0.00 MiB
      Poisson: 0.00 MiB
      vbar: 0.27 MiB
    Wavefunctions: 349.64 MiB
      Arrays psit_nG: 311.46 MiB
      Eigensolver: 19.99 MiB
      Projections: 5.41 MiB
      Projectors: 9.73 MiB
      PW-descriptor: 3.03 MiB

Total number of cores used: 32
Parallelization over k-points: 16
Domain decomposition: 2 x 1 x 1

Number of atoms: 28
Number of atomic orbitals: 148
Number of bands in calculation: 112
Number of valence electrons: 180
Bands to converge: occupied

... initialized

Initializing position-dependent things.

Density initialized from atomic densities
Creating initial wave functions:
  112 bands from LCAO basis set

     .-------------------------.  
    /|         OP              |  
   / |O            O        O  |  
  /  |       O            O  P |  
 *   |O    Mn      O           |  
 |   |          OLi          O |  
 |   .P-O--------------Mn------.  
 |  /          Li    O  Mn  O /   
 | /Li O           PO        /    
 |/       Mn                /     
 *Li-----------------------*      

Positions:
   0 O     -1.360678   -2.541161   -1.202221    ( 0.0000,  0.0000,  0.0000)
   1 O     -3.131941    2.976855    1.167242    ( 0.0000,  0.0000,  0.0000)
   2 O      2.107533    0.508090    1.540712    ( 0.0000,  0.0000,  0.0000)
   3 O      3.869373   -0.072395   -0.828750    ( 0.0000,  0.0000,  0.0000)
   4 O      2.107821    2.976875    1.540792    ( 0.0000,  0.0000,  0.0000)
   5 O      3.869084   -2.541141   -0.828671    ( 0.0000,  0.0000,  0.0000)
   6 O     -1.360390   -0.072375   -1.202141    ( 0.0000,  0.0000,  0.0000)
   7 O     -3.122230    0.508109    1.167321    ( 0.0000,  0.0000,  0.0000)
   8 O     -4.413461   -1.306992   -0.794251    ( 0.0000,  0.0000,  0.0000)
   9 O     -0.069585    1.742707    1.575662    ( 0.0000,  0.0000,  0.0000)
  10 O      5.160604    1.742707    1.132822    ( 0.0000,  0.0000,  0.0000)
  11 O      0.816728   -1.306992   -1.237091    ( 0.0000,  0.0000,  0.0000)
  12 Mn    -2.570809   -1.307302    0.247161    ( 0.0000,  0.0000,  1.0000)
  13 Mn    -1.912021    1.743016   -2.122906    ( 0.0000,  0.0000, -1.0000)
  14 Mn     3.317952    1.743017    0.091411    ( 0.0000,  0.0000, -1.0000)
  15 Mn     2.659164   -1.307302    2.461478    ( 0.0000,  0.0000,  1.0000)
  16 P     -0.620664   -1.306816   -1.828465    ( 0.0000,  0.0000,  0.0000)
  17 P     -3.862097    1.742530    0.541238    ( 0.0000,  0.0000,  0.0000)
  18 P      1.367807    1.742530    2.167036    ( 0.0000,  0.0000,  0.0000)
  19 P      4.609240   -1.306816   -0.202666    ( 0.0000,  0.0000,  0.0000)
  20 O     -0.646437   -1.306845    1.374751    ( 0.0000,  0.0000,  0.0000)
  21 O     -3.836504    1.742559   -0.995565    ( 0.0000,  0.0000,  0.0000)
  22 O      1.393580    1.742559   -1.036179    ( 0.0000,  0.0000,  0.0000)
  23 O      4.583647   -1.306845    1.334136    ( 0.0000,  0.0000,  0.0000)
  24 Li    -4.856429   -2.832143   -2.200714    ( 0.0000,  0.0000,  0.0000)
  25 Li     0.373571   -2.832143    0.169286    ( 0.0000,  0.0000,  0.0000)
  26 Li    -4.856429    0.217857   -2.200714    ( 0.0000,  0.0000,  0.0000)
  27 Li     0.373571    0.217857    0.169286    ( 0.0000,  0.0000,  0.0000)

Unit cell:
           periodic     x           y           z      points  spacing
  1. axis:    yes   10.460000    0.000000    0.000000    60     0.1743
  2. axis:    yes    0.000000    6.100000    0.000000    35     0.1743
  3. axis:    yes    0.000000    0.000000    4.740000    27     0.1756

  Lengths:  10.460000   6.100000   4.740000
  Angles:   90.000000  90.000000  90.000000

Effective grid spacing dv^(1/3) = 0.1747

                     log10-error:           total        iterations:
           time      wfs    density  force  energy       poisson  magmom
iter:   1  08:40:04                       -231.921181             +0.0000
iter:   2  08:40:43  -0.55  -0.94         -231.746217             +0.0104
iter:   3  08:41:22  -0.72  -0.98         -220.588161             +0.0130
iter:   4  08:42:02  -0.94  -1.20         -218.875024             +0.0048
iter:   5  08:42:41  -1.94  -1.36         -222.303943             +0.0030
iter:   6  08:43:21  -1.99  -1.41         -221.529200             +0.0072
iter:   7  08:44:00  -1.83  -1.59         -224.897149             +0.1948
iter:   8  08:44:39  -2.34  -1.65         -225.065472             -0.9713
iter:   9  08:45:18  -2.67  -1.83         -226.308046             -1.0081
iter:  10  08:45:58  -2.65  -1.82         -227.159186             -0.3148
iter:  11  08:46:37  -2.48  -1.79         -227.011671             -0.0783
iter:  12  08:47:16  -3.12  -1.77         -226.916903             -0.0143
iter:  13  08:47:55  -1.76  -1.80         -226.813548             +0.0011
iter:  14  08:48:35  -2.26  -2.12         -226.374603             -0.0053
iter:  15  08:49:14  -2.15  -2.18         -226.528639             -0.0016
iter:  16  08:49:53  -3.02  -2.38         -226.351704             -0.0014
iter:  17  08:50:32  -3.78  -2.52         -226.310139             -0.0004
iter:  18  08:51:11  -2.78  -2.59         -226.227875             +0.0001
iter:  19  08:51:50  -3.36  -2.82         -226.234644             -0.0001
iter:  20  08:52:30  -3.96  -2.85         -226.229804             -0.0000
iter:  21  08:53:09  -5.09  -3.12         -226.229535             -0.0000
iter:  22  08:53:48  -4.11  -3.17         -226.228601             +0.0000
iter:  23  08:54:27  -4.72  -3.39         -226.227623             -0.0000
iter:  24  08:55:07  -5.85  -3.64         -226.227574             -0.0000
iter:  25  08:55:46  -5.23  -3.67         -226.227531             +0.0000
iter:  26  08:56:25  -5.65  -3.86         -226.227385             -0.0000
iter:  27  08:57:04  -5.84  -4.21         -226.227390             -0.0000
iter:  28  08:57:44  -6.22  -4.16         -226.227377             -0.0000
iter:  29  08:58:23  -6.85  -4.44         -226.227385             -0.0000
iter:  30  08:59:13  -7.44  -4.51         -226.227377             +0.0000
iter:  31  08:59:52  -7.36  -4.59         -226.227372             -0.0000
iter:  32  09:00:31  -7.27  -4.67         -226.227372             -0.0000
iter:  33  09:01:21  -7.68  -4.84    -2.37-226.227370             -0.0000
iter:  34  09:02:11  -8.10  -4.99    -3.04-226.227370             -0.0000
iter:  35  09:03:01  -8.50  -5.07    -3.26-226.227370             -0.0000
iter:  36  09:03:51  -9.06  -5.24    -3.14-226.227370             -0.0000
iter:  37  09:04:41  -9.18  -5.37    -3.27-226.227370             +0.0000
iter:  38  09:05:31  -9.16  -5.50    -3.25-226.227369             -0.0000
iter:  39  09:06:21  -9.31  -5.61    -3.52-226.227369             +0.0000
iter:  40  09:07:11  -9.69  -5.69    -3.92-226.227369             -0.0000
iter:  41  09:08:00 -10.12  -5.75    -4.35-226.227369             +0.0000
iter:  42  09:08:50 -10.11  -5.78    -3.88-226.227369             +0.0000
iter:  43  09:09:40 -10.60  -5.85    -4.54-226.227369             +0.0000
iter:  44  09:10:30 -10.02  -5.87    -3.41-226.227369             +0.0000
iter:  45  09:11:20 -10.82  -6.15    -4.28-226.227369             +0.0000
iter:  46  09:12:10 -11.31  -6.22    -4.64-226.227369             +0.0000
iter:  47  09:12:59 -11.35  -6.29    -4.67-226.227369             +0.0000
iter:  48  09:13:49 -10.74  -6.37    -4.11-226.227369             +0.0000
iter:  49  09:14:39 -11.74  -6.78    -4.91-226.227369             +0.0000
iter:  50  09:15:29 -11.82  -6.83    -4.72-226.227369             +0.0000
iter:  51  09:16:19 -11.63  -6.91    -4.46-226.227369             +0.0000
iter:  52  09:17:09 -12.54  -7.15    -5.40-226.227369             +0.0000
iter:  53  09:17:59 -11.78  -7.19    -4.79-226.227369             -0.0000
iter:  54  09:18:49 -12.52  -7.19    -5.09-226.227369             -0.0000
iter:  55  09:19:39 -13.52  -7.51    -5.87-226.227369             -0.0000
iter:  56  09:20:29 -13.14  -7.56    -5.04-226.227369             -0.0000
iter:  57  09:21:19 -13.02  -7.66    -5.48-226.227369             -0.0000
iter:  58  09:22:09 -13.70  -7.75    -5.79-226.227369             -0.0000
iter:  59  09:22:59 -14.43  -8.00    -5.95-226.227369             -0.0000
iter:  60  09:23:49 -14.35  -8.08    -6.25-226.227369             -0.0000

Converged after 60 iterations.

Dipole moment: (10.676185, 1.414141, -6.268613) |e|*Ang

Total magnetic moment: (0.000000, 0.000000, -0.000000)
Local magnetic moments:
   0 O  ( 0.000000,  0.000000, -0.000540)
   1 O  ( 0.000000,  0.000000,  0.000576)
   2 O  ( 0.000000,  0.000000,  0.000557)
   3 O  ( 0.000000,  0.000000, -0.000534)
   4 O  ( 0.000000,  0.000000,  0.000537)
   5 O  ( 0.000000,  0.000000, -0.000510)
   6 O  ( 0.000000,  0.000000, -0.000605)
   7 O  ( 0.000000,  0.000000,  0.000571)
   8 O  ( 0.000000,  0.000000,  0.028739)
   9 O  ( 0.000000,  0.000000, -0.028701)
  10 O  ( 0.000000,  0.000000, -0.028812)
  11 O  ( 0.000000,  0.000000,  0.028647)
  12 Mn ( 0.000000,  0.000000,  4.448891)
  13 Mn ( 0.000000,  0.000000, -4.448804)
  14 Mn ( 0.000000,  0.000000, -4.448178)
  15 Mn ( 0.000000,  0.000000,  4.448247)
  16 P  ( 0.000000,  0.000000,  0.001569)
  17 P  ( 0.000000,  0.000000, -0.001504)
  18 P  ( 0.000000,  0.000000, -0.001547)
  19 P  ( 0.000000,  0.000000,  0.001531)
  20 O  ( 0.000000,  0.000000,  0.025278)
  21 O  ( 0.000000,  0.000000, -0.025341)
  22 O  ( 0.000000,  0.000000, -0.025273)
  23 O  ( 0.000000,  0.000000,  0.025330)
  24 Li ( 0.000000,  0.000000,  0.000004)
  25 Li ( 0.000000,  0.000000, -0.000000)
  26 Li ( 0.000000,  0.000000, -0.000003)
  27 Li ( 0.000000,  0.000000,  0.000000)

Energy contributions relative to reference atoms: (reference = -196157.275402)

Kinetic:       +217.621163
Potential:     -195.441572
External:        +0.000000
XC:            -250.447641
Entropy (-ST):   -0.000000
Local:           +2.040681
--------------------------
Free energy:   -226.227369
Extrapolated:  -226.227369

Spin contamination: 9.561188 electrons
Showing only first 2 kpts
                      Up                     Down
 Kpt  Band  Eigenvalues  Occupancy  Eigenvalues  Occupancy
  0    88      5.10595    0.00694      5.10654    0.00694
  0    89      5.13152    0.00694      5.13538    0.00694
  0    90      7.28515    0.00000      7.28498    0.00000
  0    91      7.30533    0.00000      7.30522    0.00000

  1    88      5.13185    0.00694      5.13214    0.00694
  1    89      5.16184    0.00694      5.16588    0.00694
  1    90      7.22559    0.00000      7.22738    0.00000
  1    91      7.24330    0.00000      7.24291    0.00000


Fermi level: 6.01614

Gap: 1.967 eV
Transition (v -> c):
  (s=1, k=49, n=89, [-0.08, -0.42, -0.12]) -> (s=0, k=81, n=90, [0.08, -0.08, -0.12])
Writing to born-0.01-1x-.gpw (mode='all')

Timing:                              incl.     excl.
-----------------------------------------------------------
Hamiltonian:                         0.415     0.003   0.0% |
 Atomic:                             0.055     0.055   0.0% |
  XC Correction:                     0.000     0.000   0.0% |
 Calculate atomic Hamiltonians:      0.180     0.180   0.0% |
 Communicate:                        0.001     0.001   0.0% |
 Initialize Hamiltonian:             0.000     0.000   0.0% |
 Poisson:                            0.002     0.002   0.0% |
 XC 3D grid:                         0.175     0.175   0.0% |
LCAO initialization:               127.441     0.678   0.0% |
 LCAO eigensolver:                  33.832     0.002   0.0% |
  Calculate projections:             0.057     0.057   0.0% |
  DenseAtomicCorrection:             0.083     0.083   0.0% |
  Distribute overlap matrix:         0.054     0.054   0.0% |
  Orbital Layouts:                   0.364     0.364   0.0% |
  Potential matrix:                 33.185    33.185   0.5% |
  Sum over cells:                    0.087     0.087   0.0% |
 LCAO to grid:                      90.655    90.655   1.4% ||
 Set positions (LCAO WFS):           2.277     0.346   0.0% |
  Basic WFS set positions:           0.001     0.001   0.0% |
  Basis functions set positions:     0.000     0.000   0.0% |
  P tci:                             1.064     1.064   0.0% |
  ST tci:                            0.658     0.658   0.0% |
  mktci:                             0.207     0.207   0.0% |
PWDescriptor:                        0.025     0.025   0.0% |
SCF-cycle:                        2670.434     5.507   0.1% |
 Davidson:                        2238.029   730.937  11.5% |----|
  Apply H:                         156.815   151.500   2.4% ||
   HMM T:                            5.315     5.315   0.1% |
  Subspace diag:                   330.115     0.190   0.0% |
   calc_h_matrix:                  213.491    59.374   0.9% |
    Apply H:                       154.117   149.058   2.3% ||
     HMM T:                          5.059     5.059   0.1% |
   diagonalize:                      7.344     7.344   0.1% |
   rotate_psi:                     109.090   109.090   1.7% ||
  calc. matrices:                  698.207   396.684   6.3% |--|
   Apply H:                        301.523   292.087   4.6% |-|
    HMM T:                           9.435     9.435   0.1% |
  diagonalize:                     100.345   100.345   1.6% ||
  rotate_psi:                      221.611   221.611   3.5% ||
 Density:                           88.789     0.002   0.0% |
  Atomic density matrices:           1.600     1.600   0.0% |
  Mix:                              14.573    14.573   0.2% |
  Multipole moments:                 0.036     0.036   0.0% |
  Pseudo density:                   72.578    72.576   1.1% |
   Symmetrize density:               0.002     0.002   0.0% |
 Forces:                           308.757   308.757   4.9% |-|
 Hamiltonian:                       24.943     0.141   0.0% |
  Atomic:                            3.233     3.232   0.1% |
   XC Correction:                    0.000     0.000   0.0% |
  Calculate atomic Hamiltonians:    10.778    10.778   0.2% |
  Communicate:                       0.107     0.107   0.0% |
  Poisson:                           0.101     0.101   0.0% |
  XC 3D grid:                       10.584    10.584   0.2% |
 Orthonormalize:                     4.409     0.004   0.0% |
  calc_s_matrix:                     0.524     0.524   0.0% |
  inverse-cholesky:                  0.055     0.055   0.0% |
  projections:                       2.894     2.894   0.0% |
  rotate_psi_s:                      0.932     0.932   0.0% |
Set symmetry:                        0.000     0.000   0.0% |
Other:                            3545.192  3545.192  55.9% |---------------------|
-----------------------------------------------------------
Total:                                      6343.507 100.0%

Memory usage: 12.04 GiB
Date: Sun Mar 21 10:22:52 2021
