
  ___ ___ ___ _ _ _  
 |   |   |_  | | | | 
 | | | | | . | | | | 
 |__ |  _|___|_____|  21.1.1b1
 |___|_|             

User:   madkru@g043.nifl.fysik.dtu.dk
Date:   Wed Mar 31 18:50:35 2021
Arch:   x86_64
Pid:    39387
Python: 3.8.6
gpaw:   /home/niflheim/madkru/venv_madkru/gpaw/gpaw (e6f0d78a31)
_gpaw:  /home/niflheim/madkru/venv_madkru/gpaw/build/lib.linux-x86_64-sandybridge-3.8/
        _gpaw.cpython-38-x86_64-linux-gnu.so (e6f0d78a31)
ase:    /home/niflheim/madkru/venv_madkru/ase/ase (version 3.22.0b1-4d5a73cb29)
numpy:  /home/modules/software/SciPy-bundle/2020.11-foss-2020b/lib/python3.8/site-packages/numpy (version 1.19.4)
scipy:  /home/modules/software/SciPy-bundle/2020.11-foss-2020b/lib/python3.8/site-packages/scipy (version 1.5.4)
libxc:  4.3.4
units:  Angstrom and eV
cores: 64
OpenMP: False
OMP_NUM_THREADS: 1

Input parameters:
  convergence: {bands: occupied,
                density: 0.0001,
                eigenstates: 4e-08,
                energy: 0.0005,
                forces: 1e-06}
  kpts: [6 6 4]
  maxiter: 1000
  mode: {ecut: 600.0,
         gammacentered: False,
         name: pw}
  occupations: {fixmagmom: False,
                name: fermi-dirac,
                width: 0.001}
  symmetry: {point_group: False,
             time_reversal: False}

System changes: positions, numbers, cell, pbc, initial_charges, initial_magmoms 

Initialize ...

O-setup:
  name: Oxygen
  id: 9b9d51c344dea68c822856295a461509
  Z: 8.0
  valence: 6
  core: 2
  charge: 0.0
  file: /home/modules/software/GPAW-setups/0.9.20000/O.LDA.gz
  compensation charges: gauss, rc=0.21, lmax=2
  cutoffs: 1.17(filt), 0.83(core),
  valence states:
                energy  radius
    2s(2.00)   -23.752   0.688
    2p(4.00)    -9.195   0.598
    *s           3.459   0.688
    *p          18.016   0.598
    *d           0.000   0.619

  Using partial waves for O as LCAO basis

Mn-setup:
  name: Manganese
  id: 0d715a8018be061a6e9ea6f2d364ac92
  Z: 25.0
  valence: 15
  core: 10
  charge: 0.0
  file: /home/modules/software/GPAW-setups/0.9.20000/Mn.LDA.gz
  compensation charges: gauss, rc=0.38, lmax=2
  cutoffs: 2.14(filt), 0.86(core),
  valence states:
                energy  radius
    3s(2.00)   -85.387   1.275
    4s(2.00)    -5.282   1.275
    3p(6.00)   -54.493   1.281
    4p(0.00)    -1.471   1.281
    3d(5.00)    -7.009   1.138
    *d          20.203   1.138

  Using partial waves for Mn as LCAO basis

P-setup:
  name: Phosphorus
  id: a5561c299094968922a179ab894d2e2d
  Z: 15.0
  valence: 5
  core: 10
  charge: 0.0
  file: /home/modules/software/GPAW-setups/0.9.20000/P.LDA.gz
  compensation charges: gauss, rc=0.30, lmax=2
  cutoffs: 1.69(filt), 1.81(core),
  valence states:
                energy  radius
    3s(2.00)   -14.015   0.953
    3p(3.00)    -5.596   0.953
    *s          13.197   0.953
    *p          21.615   0.953
    *d           0.000   0.953

  Using partial waves for P as LCAO basis

Li-setup:
  name: Lithium
  id: b73562207f97a71b6967473b66fe8b65
  Z: 3.0
  valence: 1
  core: 2
  charge: 0.0
  file: /home/modules/software/GPAW-setups/0.9.20000/Li.LDA.gz
  compensation charges: gauss, rc=0.33, lmax=2
  cutoffs: 1.91(filt), 2.55(core),
  valence states:
                energy  radius
    2s(1.00)    -2.874   1.058
    2p(0.00)    -1.126   1.058
    *s          24.338   1.058

  Using partial waves for Li as LCAO basis

Reference energy: -196157.275402

Spin-polarized calculation.
Magnetic moment: 0.000000

Convergence criteria:
  Maximum total energy change: 0.0005 eV / electron
  Maximum integral of absolute density change: 0.0001 electrons
  Maximum integral of absolute eigenstate change: 4e-08 eV^2
  Maximum change in atomic force: 1e-06 eV / Ang
  Maximum number of iterations: 1000

Symmetries present (total): 1

  ( 1  0  0)
  ( 0  1  0)
  ( 0  0  1)

144 k-points: 6 x 6 x 4 Monkhorst-Pack grid
144 k-points in the irreducible part of the Brillouin zone
       k-points in crystal coordinates                weights
   0:    -0.41666667   -0.41666667   -0.37500000          1/144
   1:    -0.41666667   -0.41666667   -0.12500000          1/144
   2:    -0.41666667   -0.41666667    0.12500000          1/144
   3:    -0.41666667   -0.41666667    0.37500000          1/144
   4:    -0.41666667   -0.25000000   -0.37500000          1/144
   5:    -0.41666667   -0.25000000   -0.12500000          1/144
   6:    -0.41666667   -0.25000000    0.12500000          1/144
   7:    -0.41666667   -0.25000000    0.37500000          1/144
   8:    -0.41666667   -0.08333333   -0.37500000          1/144
   9:    -0.41666667   -0.08333333   -0.12500000          1/144
          ...
 143:     0.41666667    0.41666667    0.37500000          1/144

Wave functions: Plane wave expansion
  Cutoff energy: 600.000 eV
  Number of coefficients (min, max): 10068, 10125
  Pulay-stress correction: 0.000000 eV/Ang^3 (de/decut=0.000000)
  Using FFTW library
  ScaLapack parameters: grid=1x1, blocksize=None
  Wavefunction extrapolation:
    Improved wavefunction reuse through dual PAW basis 

  Fermi-Dirac: width=0.0010 eV

Eigensolver
   Davidson(niter=2) 

Densities:
  Coarse grid: 60*35*27 grid
  Fine grid: 120*70*54 grid
  Total Charge: 0.000000 

Density mixing:
  Method: difference
  Backend: pulay
  Linear mixing parameter: 0.05
  Mixing with 5 old densities
  Damping of long wave oscillations: 50 

Hamiltonian:
  XC and Coulomb potentials evaluated on a 120*70*54 grid
  Using the LDA Exchange-Correlation functional
 

Memory estimate:
  Process memory now: 14415.33 MiB
  Calculator: 354.82 MiB
    Density: 10.06 MiB
      Arrays: 3.79 MiB
      Localized functions: 4.71 MiB
      Mixer: 1.56 MiB
    Hamiltonian: 2.95 MiB
      Arrays: 2.82 MiB
      XC: 0.00 MiB
      Poisson: 0.00 MiB
      vbar: 0.14 MiB
    Wavefunctions: 341.80 MiB
      Arrays psit_nG: 311.46 MiB
      Eigensolver: 19.99 MiB
      Projections: 2.71 MiB
      Projectors: 4.87 MiB
      PW-descriptor: 2.77 MiB

Total number of cores used: 64
Parallelization over k-points: 16
Domain decomposition: 2 x 2 x 1

Number of atoms: 28
Number of atomic orbitals: 148
Number of bands in calculation: 112
Number of valence electrons: 180
Bands to converge: occupied

... initialized

Initializing position-dependent things.

Density initialized from atomic densities
Creating initial wave functions:
  112 bands from LCAO basis set

     .-------------------------.  
    /|         OP              |  
   / |O            O        O  |  
  /  |       O            O  P |  
 *   |O    Mn      O           |  
 |   |          OLi          O |  
 |   .P-O--------------Mn------.  
 |  /          Li    O  Mn  O /   
 | /Li O           PO        /    
 |/       Mn                /     
 *Li-----------------------*      

Positions:
   0 O     -1.360678   -2.541161   -1.202221    ( 0.0000,  0.0000,  0.0000)
   1 O     -3.121941    2.976855    1.167242    ( 0.0000,  0.0000,  0.0000)
   2 O      2.107533    0.508090    1.540712    ( 0.0000,  0.0000,  0.0000)
   3 O      3.869373   -0.072395   -0.828750    ( 0.0000,  0.0000,  0.0000)
   4 O      2.107821    2.976875    1.540792    ( 0.0000,  0.0000,  0.0000)
   5 O      3.869084   -2.541141   -0.828671    ( 0.0000,  0.0000,  0.0000)
   6 O     -1.360390   -0.072375   -1.202141    ( 0.0000,  0.0000,  0.0000)
   7 O     -3.122230    0.508109    1.167321    ( 0.0000,  0.0000,  0.0000)
   8 O     -4.413461   -1.306992   -0.794251    ( 0.0000,  0.0000,  0.0000)
   9 O     -0.069585    1.742707    1.575662    ( 0.0000,  0.0000,  0.0000)
  10 O      5.160604    1.742707    1.132822    ( 0.0000,  0.0000,  0.0000)
  11 O      0.816728   -1.306992   -1.237091    ( 0.0000,  0.0000,  0.0000)
  12 Mn    -2.570809   -1.307302    0.247161    ( 0.0000,  0.0000,  1.0000)
  13 Mn    -1.912021    1.743016   -2.122906    ( 0.0000,  0.0000, -1.0000)
  14 Mn     3.317952    1.743017    0.091411    ( 0.0000,  0.0000, -1.0000)
  15 Mn     2.659164   -1.307302    2.461478    ( 0.0000,  0.0000,  1.0000)
  16 P     -0.620664   -1.306816   -1.828465    ( 0.0000,  0.0000,  0.0000)
  17 P     -3.862097    1.742530    0.541238    ( 0.0000,  0.0000,  0.0000)
  18 P      1.367807    1.742530    2.167036    ( 0.0000,  0.0000,  0.0000)
  19 P      4.609240   -1.306816   -0.202666    ( 0.0000,  0.0000,  0.0000)
  20 O     -0.636437   -1.306845    1.374751    ( 0.0000,  0.0000,  0.0000)
  21 O     -3.836504    1.742559   -0.995565    ( 0.0000,  0.0000,  0.0000)
  22 O      1.393580    1.742559   -1.036179    ( 0.0000,  0.0000,  0.0000)
  23 O      4.583647   -1.306845    1.334136    ( 0.0000,  0.0000,  0.0000)
  24 Li    -4.856429   -2.832143   -2.200714    ( 0.0000,  0.0000,  0.0000)
  25 Li     0.373571   -2.832143    0.169286    ( 0.0000,  0.0000,  0.0000)
  26 Li    -4.856429    0.217857   -2.200714    ( 0.0000,  0.0000,  0.0000)
  27 Li     0.373571    0.217857    0.169286    ( 0.0000,  0.0000,  0.0000)

Unit cell:
           periodic     x           y           z      points  spacing
  1. axis:    yes   10.460000    0.000000    0.000000    60     0.1743
  2. axis:    yes    0.000000    6.100000    0.000000    35     0.1743
  3. axis:    yes    0.000000    0.000000    4.740000    27     0.1756

  Lengths:  10.460000   6.100000   4.740000
  Angles:   90.000000  90.000000  90.000000

Effective grid spacing dv^(1/3) = 0.1747

                     log10-error:           total        iterations:
           time      wfs    density  force  energy       poisson  magmom
iter:   1  18:52:10                       -231.918953             +0.0000
iter:   2  18:52:32  -0.55  -0.94         -231.740325             +0.0060
iter:   3  18:52:53  -0.72  -0.98         -220.576644             +0.0075
iter:   4  18:53:14  -0.96  -1.20         -218.855393             +0.0025
iter:   5  18:53:35  -1.93  -1.36         -220.856022             +0.0016
iter:   6  18:53:57  -1.87  -1.53         -219.701184             +0.0009
iter:   7  18:54:18  -2.10  -1.60         -223.139109             -0.3074
iter:   8  18:54:39  -2.52  -1.88         -220.364241             -0.5267
iter:   9  18:55:00  -1.66  -1.91         -226.872662             +0.0741
iter:  10  18:55:22  -3.12  -1.85         -227.094512             +0.0037
iter:  11  18:55:43  -2.54  -1.84         -226.927828             +0.0003
iter:  12  18:56:04  -2.96  -1.90         -226.805126             +0.0001
iter:  13  18:56:25  -1.70  -1.88         -227.885072             +0.0001
iter:  14  18:56:47  -2.36  -1.83         -228.349672             +0.0000
iter:  15  18:57:08  -1.75  -1.74         -226.977483             +0.0000
iter:  16  18:57:29  -2.03  -1.95         -226.923762             +0.0000
iter:  17  18:57:50  -1.44  -2.02         -229.458140             +0.0000
iter:  18  18:58:12  -2.26  -1.83         -226.831962             +0.0000
iter:  19  18:58:33  -2.92  -2.06         -226.618861             +0.0000
iter:  20  18:58:54  -2.16  -2.10         -226.309301             +0.0000
iter:  21  18:59:15  -2.13  -2.25         -226.527945             +0.0000
iter:  22  18:59:36  -3.23  -2.52         -226.459117             +0.0000
iter:  23  18:59:58  -2.70  -2.62         -226.263053             -0.0000
iter:  24  19:00:19  -3.05  -2.76         -226.238227             -0.0000
iter:  25  19:00:40  -3.41  -2.80         -226.236977             -0.0000
iter:  26  19:01:01  -4.03  -2.92         -226.237451             -0.0000
iter:  27  19:01:22  -3.94  -2.96         -226.229288             -0.0000
iter:  28  19:01:44  -4.57  -3.10         -226.229570             -0.0000
iter:  29  19:02:05  -4.51  -3.17         -226.229766             +0.0000
iter:  30  19:02:26  -4.34  -3.35         -226.232000             -0.0000
iter:  31  19:02:47  -4.14  -3.48         -226.227644             +0.0000
iter:  32  19:03:09  -5.61  -3.90         -226.227688             +0.0000
iter:  33  19:03:30  -5.33  -3.95         -226.228026             -0.0000
iter:  34  19:03:52  -5.63  -4.00         -226.227714             +0.0000
iter:  35  19:04:13  -6.20  -4.23         -226.227681             +0.0000
iter:  36  19:04:34  -5.94  -4.32         -226.227678             +0.0000
iter:  37  19:04:55  -6.98  -4.50         -226.227670             +0.0000
iter:  38  19:05:22  -7.89  -4.68         -226.227668             -0.0000
iter:  39  19:05:43  -7.28  -4.70         -226.227669             +0.0000
iter:  40  19:06:10  -7.48  -4.97    -2.56-226.227668             +0.0000
iter:  41  19:06:37  -8.89  -5.25    -3.52-226.227668             +0.0000
iter:  42  19:07:03  -7.78  -5.27    -2.91-226.227669             +0.0000
iter:  43  19:07:30  -8.47  -5.23    -3.13-226.227668             +0.0000
iter:  44  19:07:57  -8.99  -5.48    -3.65-226.227668             +0.0000
iter:  45  19:08:23  -8.59  -5.53    -3.03-226.227668             +0.0000
iter:  46  19:08:50  -9.68  -5.78    -3.46-226.227668             +0.0000
iter:  47  19:09:17  -9.26  -6.03    -3.57-226.227668             +0.0000
iter:  48  19:09:44 -10.10  -6.02    -4.19-226.227668             +0.0000
iter:  49  19:10:10 -10.26  -6.14    -4.06-226.227668             +0.0000
iter:  50  19:10:37 -11.15  -6.28    -4.48-226.227668             +0.0000
iter:  51  19:11:04 -11.20  -6.33    -4.07-226.227668             +0.0000
iter:  52  19:11:30 -11.53  -6.41    -4.70-226.227668             +0.0000
iter:  53  19:11:57 -10.79  -6.45    -4.20-226.227668             +0.0000
iter:  54  19:12:24 -11.56  -6.60    -4.93-226.227668             +0.0000
iter:  55  19:12:51 -11.63  -6.64    -4.78-226.227668             +0.0000
iter:  56  19:13:17 -11.74  -6.72    -4.57-226.227668             +0.0000
iter:  57  19:13:44 -11.52  -6.96    -4.62-226.227668             +0.0000
iter:  58  19:14:11 -12.18  -7.05    -5.09-226.227668             +0.0000
iter:  59  19:14:37 -12.79  -7.13    -5.27-226.227668             +0.0000
iter:  60  19:15:04 -12.28  -7.28    -4.97-226.227668             +0.0000
iter:  61  19:15:31 -12.86  -7.47    -5.04-226.227668             +0.0000
iter:  62  19:15:58 -13.27  -7.72    -5.71-226.227668             +0.0000
iter:  63  19:16:24 -13.13  -7.79    -5.43-226.227668             +0.0000
iter:  64  19:16:51 -14.03  -8.02    -5.78-226.227668             +0.0000
iter:  65  19:17:18 -14.54  -8.05    -5.98-226.227668             +0.0000
iter:  66  19:17:44 -14.35  -8.12    -5.93-226.227668             +0.0000
iter:  67  19:18:11 -14.38  -8.18    -6.14-226.227668             +0.0000

Converged after 67 iterations.

Dipole moment: (10.831193, 1.409731, -6.268939) |e|*Ang

Total magnetic moment: (0.000000, 0.000000, 0.000000)
Local magnetic moments:
   0 O  ( 0.000000,  0.000000, -0.000511)
   1 O  ( 0.000000,  0.000000,  0.000490)
   2 O  ( 0.000000,  0.000000,  0.000490)
   3 O  ( 0.000000,  0.000000, -0.000568)
   4 O  ( 0.000000,  0.000000,  0.000470)
   5 O  ( 0.000000,  0.000000, -0.000548)
   6 O  ( 0.000000,  0.000000, -0.000531)
   7 O  ( 0.000000,  0.000000,  0.000510)
   8 O  ( 0.000000,  0.000000,  0.028846)
   9 O  ( 0.000000,  0.000000, -0.028776)
  10 O  ( 0.000000,  0.000000, -0.028647)
  11 O  ( 0.000000,  0.000000,  0.028681)
  12 Mn ( 0.000000,  0.000000,  4.448531)
  13 Mn ( 0.000000,  0.000000, -4.448265)
  14 Mn ( 0.000000,  0.000000, -4.448178)
  15 Mn ( 0.000000,  0.000000,  4.448335)
  16 P  ( 0.000000,  0.000000,  0.001367)
  17 P  ( 0.000000,  0.000000, -0.001572)
  18 P  ( 0.000000,  0.000000, -0.001552)
  19 P  ( 0.000000,  0.000000,  0.001538)
  20 O  ( 0.000000,  0.000000,  0.025236)
  21 O  ( 0.000000,  0.000000, -0.025298)
  22 O  ( 0.000000,  0.000000, -0.025327)
  23 O  ( 0.000000,  0.000000,  0.025275)
  24 Li ( 0.000000,  0.000000, -0.000000)
  25 Li ( 0.000000,  0.000000, -0.000003)
  26 Li ( 0.000000,  0.000000, -0.000000)
  27 Li ( 0.000000,  0.000000, -0.000003)

Energy contributions relative to reference atoms: (reference = -196157.275402)

Kinetic:       +217.281122
Potential:     -195.179392
External:        +0.000000
XC:            -250.371005
Entropy (-ST):   -0.000000
Local:           +2.041607
--------------------------
Free energy:   -226.227668
Extrapolated:  -226.227668

Spin contamination: 9.560543 electrons
Showing only first 2 kpts
                      Up                     Down
 Kpt  Band  Eigenvalues  Occupancy  Eigenvalues  Occupancy
  0    88      5.10043    1.00000      5.10787    1.00000
  0    89      5.13186    1.00000      5.13364    1.00000
  0    90      7.28697    0.00000      7.28049    0.00000
  0    91      7.30516    0.00000      7.30680    0.00000

  1    88      5.12557    1.00000      5.13369    1.00000
  1    89      5.16149    1.00000      5.16408    1.00000
  1    90      7.22954    0.00000      7.22331    0.00000
  1    91      7.24275    0.00000      7.24527    0.00000


Fermi level: 6.10411

Gap: 1.968 eV
Transition (v -> c):
  (s=1, k=74, n=89, [0.08, -0.42, 0.12]) -> (s=1, k=86, n=90, [0.08, 0.08, 0.12])
Writing to born-0.01-20x+.gpw (mode='all')

Timing:                              incl.     excl.
-----------------------------------------------------------
Hamiltonian:                         0.269     0.002   0.0% |
 Atomic:                             0.085     0.085   0.0% |
  XC Correction:                     0.000     0.000   0.0% |
 Calculate atomic Hamiltonians:      0.090     0.090   0.0% |
 Communicate:                        0.000     0.000   0.0% |
 Initialize Hamiltonian:             0.000     0.000   0.0% |
 Poisson:                            0.001     0.001   0.0% |
 XC 3D grid:                         0.091     0.091   0.0% |
LCAO initialization:                71.032     0.674   0.0% |
 LCAO eigensolver:                  17.942     0.003   0.0% |
  Calculate projections:             0.029     0.029   0.0% |
  DenseAtomicCorrection:             0.043     0.043   0.0% |
  Distribute overlap matrix:         0.005     0.005   0.0% |
  Orbital Layouts:                   0.278     0.278   0.0% |
  Potential matrix:                 17.500    17.500   0.5% |
  Sum over cells:                    0.085     0.085   0.0% |
 LCAO to grid:                      51.138    51.138   1.3% ||
 Set positions (LCAO WFS):           1.278     0.179   0.0% |
  Basic WFS set positions:           0.001     0.001   0.0% |
  Basis functions set positions:     0.000     0.000   0.0% |
  P tci:                             0.516     0.516   0.0% |
  ST tci:                            0.368     0.368   0.0% |
  mktci:                             0.213     0.213   0.0% |
PWDescriptor:                        0.025     0.025   0.0% |
SCF-cycle:                        1583.726     4.613   0.1% |
 Davidson:                        1347.645   431.169  11.1% |---|
  Apply H:                          90.270    87.598   2.3% ||
   HMM T:                            2.672     2.672   0.1% |
  Subspace diag:                   193.778     0.195   0.0% |
   calc_h_matrix:                  123.545    33.763   0.9% |
    Apply H:                        89.782    87.263   2.3% ||
     HMM T:                          2.518     2.518   0.1% |
   diagonalize:                      6.815     6.815   0.2% |
   rotate_psi:                      63.224    63.224   1.6% ||
  calc. matrices:                  402.501   224.846   5.8% |-|
   Apply H:                        177.655   172.546   4.5% |-|
    HMM T:                           5.109     5.109   0.1% |
  diagonalize:                     103.840   103.840   2.7% ||
  rotate_psi:                      126.088   126.088   3.3% ||
 Density:                           53.743     0.002   0.0% |
  Atomic density matrices:           0.890     0.890   0.0% |
  Mix:                               9.130     9.130   0.2% |
  Multipole moments:                 0.025     0.025   0.0% |
  Pseudo density:                   43.697    43.695   1.1% |
   Symmetrize density:               0.002     0.002   0.0% |
 Forces:                           159.045   159.045   4.1% |-|
 Hamiltonian:                       16.375     0.140   0.0% |
  Atomic:                            3.866     3.866   0.1% |
   XC Correction:                    0.000     0.000   0.0% |
  Calculate atomic Hamiltonians:     6.190     6.190   0.2% |
  Communicate:                       0.009     0.009   0.0% |
  Poisson:                           0.061     0.061   0.0% |
  XC 3D grid:                        6.108     6.108   0.2% |
 Orthonormalize:                     2.304     0.003   0.0% |
  calc_s_matrix:                     0.266     0.266   0.0% |
  inverse-cholesky:                  0.041     0.041   0.0% |
  projections:                       1.507     1.507   0.0% |
  rotate_psi_s:                      0.486     0.486   0.0% |
Set symmetry:                        0.000     0.000   0.0% |
Other:                            2212.758  2212.758  57.2% |----------------------|
-----------------------------------------------------------
Total:                                      3867.809 100.0%

Memory usage: 14.08 GiB
Date: Wed Mar 31 19:55:03 2021
