
  ___ ___ ___ _ _ _  
 |   |   |_  | | | | 
 | | | | | . | | | | 
 |__ |  _|___|_____|  21.1.1b1
 |___|_|             

User:   madkru@i009.nifl.fysik.dtu.dk
Date:   Fri Apr  2 08:01:03 2021
Arch:   x86_64
Pid:    31381
Python: 3.8.6
gpaw:   /home/niflheim/madkru/venv_madkru/gpaw/gpaw (e6f0d78a31)
_gpaw:  /home/niflheim/madkru/venv_madkru/gpaw/build/lib.linux-x86_64-ivybridge-3.8/
        _gpaw.cpython-38-x86_64-linux-gnu.so (e6f0d78a31)
ase:    /home/niflheim/madkru/venv_madkru/ase/ase (version 3.22.0b1-4d5a73cb29)
numpy:  /home/modules/software/SciPy-bundle/2020.11-foss-2020b/lib/python3.8/site-packages/numpy (version 1.19.4)
scipy:  /home/modules/software/SciPy-bundle/2020.11-foss-2020b/lib/python3.8/site-packages/scipy (version 1.5.4)
libxc:  4.3.4
units:  Angstrom and eV
cores: 64
OpenMP: False
OMP_NUM_THREADS: 1

Input parameters:
  convergence: {bands: occupied,
                density: 0.0001,
                eigenstates: 4e-08,
                energy: 0.0005,
                forces: 1e-06}
  kpts: [6 6 4]
  maxiter: 1000
  mode: {ecut: 600.0,
         gammacentered: False,
         name: pw}
  occupations: {fixmagmom: False,
                name: fermi-dirac,
                width: 0.001}
  symmetry: {point_group: False,
             time_reversal: False}

System changes: positions, numbers, cell, pbc, initial_charges, initial_magmoms 

Initialize ...

O-setup:
  name: Oxygen
  id: 9b9d51c344dea68c822856295a461509
  Z: 8.0
  valence: 6
  core: 2
  charge: 0.0
  file: /home/modules/software/GPAW-setups/0.9.20000/O.LDA.gz
  compensation charges: gauss, rc=0.21, lmax=2
  cutoffs: 1.17(filt), 0.83(core),
  valence states:
                energy  radius
    2s(2.00)   -23.752   0.688
    2p(4.00)    -9.195   0.598
    *s           3.459   0.688
    *p          18.016   0.598
    *d           0.000   0.619

  Using partial waves for O as LCAO basis

Mn-setup:
  name: Manganese
  id: 0d715a8018be061a6e9ea6f2d364ac92
  Z: 25.0
  valence: 15
  core: 10
  charge: 0.0
  file: /home/modules/software/GPAW-setups/0.9.20000/Mn.LDA.gz
  compensation charges: gauss, rc=0.38, lmax=2
  cutoffs: 2.14(filt), 0.86(core),
  valence states:
                energy  radius
    3s(2.00)   -85.387   1.275
    4s(2.00)    -5.282   1.275
    3p(6.00)   -54.493   1.281
    4p(0.00)    -1.471   1.281
    3d(5.00)    -7.009   1.138
    *d          20.203   1.138

  Using partial waves for Mn as LCAO basis

P-setup:
  name: Phosphorus
  id: a5561c299094968922a179ab894d2e2d
  Z: 15.0
  valence: 5
  core: 10
  charge: 0.0
  file: /home/modules/software/GPAW-setups/0.9.20000/P.LDA.gz
  compensation charges: gauss, rc=0.30, lmax=2
  cutoffs: 1.69(filt), 1.81(core),
  valence states:
                energy  radius
    3s(2.00)   -14.015   0.953
    3p(3.00)    -5.596   0.953
    *s          13.197   0.953
    *p          21.615   0.953
    *d           0.000   0.953

  Using partial waves for P as LCAO basis

Li-setup:
  name: Lithium
  id: b73562207f97a71b6967473b66fe8b65
  Z: 3.0
  valence: 1
  core: 2
  charge: 0.0
  file: /home/modules/software/GPAW-setups/0.9.20000/Li.LDA.gz
  compensation charges: gauss, rc=0.33, lmax=2
  cutoffs: 1.91(filt), 2.55(core),
  valence states:
                energy  radius
    2s(1.00)    -2.874   1.058
    2p(0.00)    -1.126   1.058
    *s          24.338   1.058

  Using partial waves for Li as LCAO basis

Reference energy: -196157.275402

Spin-polarized calculation.
Magnetic moment: 0.000000

Convergence criteria:
  Maximum total energy change: 0.0005 eV / electron
  Maximum integral of absolute density change: 0.0001 electrons
  Maximum integral of absolute eigenstate change: 4e-08 eV^2
  Maximum change in atomic force: 1e-06 eV / Ang
  Maximum number of iterations: 1000

Symmetries present (total): 1

  ( 1  0  0)
  ( 0  1  0)
  ( 0  0  1)

144 k-points: 6 x 6 x 4 Monkhorst-Pack grid
144 k-points in the irreducible part of the Brillouin zone
       k-points in crystal coordinates                weights
   0:    -0.41666667   -0.41666667   -0.37500000          1/144
   1:    -0.41666667   -0.41666667   -0.12500000          1/144
   2:    -0.41666667   -0.41666667    0.12500000          1/144
   3:    -0.41666667   -0.41666667    0.37500000          1/144
   4:    -0.41666667   -0.25000000   -0.37500000          1/144
   5:    -0.41666667   -0.25000000   -0.12500000          1/144
   6:    -0.41666667   -0.25000000    0.12500000          1/144
   7:    -0.41666667   -0.25000000    0.37500000          1/144
   8:    -0.41666667   -0.08333333   -0.37500000          1/144
   9:    -0.41666667   -0.08333333   -0.12500000          1/144
          ...
 143:     0.41666667    0.41666667    0.37500000          1/144

Wave functions: Plane wave expansion
  Cutoff energy: 600.000 eV
  Number of coefficients (min, max): 10068, 10125
  Pulay-stress correction: 0.000000 eV/Ang^3 (de/decut=0.000000)
  Using FFTW library
  ScaLapack parameters: grid=1x1, blocksize=None
  Wavefunction extrapolation:
    Improved wavefunction reuse through dual PAW basis 

  Fermi-Dirac: width=0.0010 eV

Eigensolver
   Davidson(niter=2) 

Densities:
  Coarse grid: 60*35*27 grid
  Fine grid: 120*70*54 grid
  Total Charge: 0.000000 

Density mixing:
  Method: difference
  Backend: pulay
  Linear mixing parameter: 0.05
  Mixing with 5 old densities
  Damping of long wave oscillations: 50 

Hamiltonian:
  XC and Coulomb potentials evaluated on a 120*70*54 grid
  Using the LDA Exchange-Correlation functional
 

Memory estimate:
  Process memory now: 12721.17 MiB
  Calculator: 354.82 MiB
    Density: 10.06 MiB
      Arrays: 3.79 MiB
      Localized functions: 4.71 MiB
      Mixer: 1.56 MiB
    Hamiltonian: 2.95 MiB
      Arrays: 2.82 MiB
      XC: 0.00 MiB
      Poisson: 0.00 MiB
      vbar: 0.14 MiB
    Wavefunctions: 341.80 MiB
      Arrays psit_nG: 311.46 MiB
      Eigensolver: 19.99 MiB
      Projections: 2.71 MiB
      Projectors: 4.87 MiB
      PW-descriptor: 2.77 MiB

Total number of cores used: 64
Parallelization over k-points: 16
Domain decomposition: 2 x 2 x 1

Number of atoms: 28
Number of atomic orbitals: 148
Number of bands in calculation: 112
Number of valence electrons: 180
Bands to converge: occupied

... initialized

Initializing position-dependent things.

Density initialized from atomic densities
Creating initial wave functions:
  112 bands from LCAO basis set

     .-------------------------.  
    /|         OP              |  
   / |O            O        O  |  
  /  |       O            O  P |  
 *   |O    Mn      O           |  
 |   |          OLi          O |  
 |   .P-O--------------Mn------.  
 |  /          Li    O  Mn  O /   
 | /Li O           PO        /    
 |/       Mn                /     
 *Li-----------------------*      

Positions:
   0 O     -1.360678   -2.541161   -1.202221    ( 0.0000,  0.0000,  0.0000)
   1 O     -3.121941    2.976855    1.167242    ( 0.0000,  0.0000,  0.0000)
   2 O      2.107533    0.508090    1.540712    ( 0.0000,  0.0000,  0.0000)
   3 O      3.869373   -0.072395   -0.828750    ( 0.0000,  0.0000,  0.0000)
   4 O      2.107821    2.976875    1.540792    ( 0.0000,  0.0000,  0.0000)
   5 O      3.869084   -2.541141   -0.828671    ( 0.0000,  0.0000,  0.0000)
   6 O     -1.360390   -0.072375   -1.202141    ( 0.0000,  0.0000,  0.0000)
   7 O     -3.122230    0.508109    1.167321    ( 0.0000,  0.0000,  0.0000)
   8 O     -4.413461   -1.306992   -0.794251    ( 0.0000,  0.0000,  0.0000)
   9 O     -0.069585    1.742707    1.575662    ( 0.0000,  0.0000,  0.0000)
  10 O      5.160604    1.742707    1.132822    ( 0.0000,  0.0000,  0.0000)
  11 O      0.816728   -1.306992   -1.237091    ( 0.0000,  0.0000,  0.0000)
  12 Mn    -2.570809   -1.307302    0.247161    ( 0.0000,  0.0000,  1.0000)
  13 Mn    -1.912021    1.743016   -2.122906    ( 0.0000,  0.0000, -1.0000)
  14 Mn     3.317952    1.743017    0.091411    ( 0.0000,  0.0000, -1.0000)
  15 Mn     2.659164   -1.307302    2.461478    ( 0.0000,  0.0000,  1.0000)
  16 P     -0.620664   -1.306816   -1.828465    ( 0.0000,  0.0000,  0.0000)
  17 P     -3.862097    1.742530    0.541238    ( 0.0000,  0.0000,  0.0000)
  18 P      1.367807    1.742530    2.167036    ( 0.0000,  0.0000,  0.0000)
  19 P      4.609240   -1.306816   -0.202666    ( 0.0000,  0.0000,  0.0000)
  20 O     -0.646437   -1.306845    1.374751    ( 0.0000,  0.0000,  0.0000)
  21 O     -3.836504    1.742559   -0.995565    ( 0.0000,  0.0000,  0.0000)
  22 O      1.393580    1.742559   -1.036179    ( 0.0000,  0.0000,  0.0000)
  23 O      4.583647   -1.306845    1.334136    ( 0.0000,  0.0000,  0.0000)
  24 Li    -4.856429   -2.832143   -2.200714    ( 0.0000,  0.0000,  0.0000)
  25 Li     0.373571   -2.832143    0.179286    ( 0.0000,  0.0000,  0.0000)
  26 Li    -4.856429    0.217857   -2.200714    ( 0.0000,  0.0000,  0.0000)
  27 Li     0.373571    0.217857    0.169286    ( 0.0000,  0.0000,  0.0000)

Unit cell:
           periodic     x           y           z      points  spacing
  1. axis:    yes   10.460000    0.000000    0.000000    60     0.1743
  2. axis:    yes    0.000000    6.100000    0.000000    35     0.1743
  3. axis:    yes    0.000000    0.000000    4.740000    27     0.1756

  Lengths:  10.460000   6.100000   4.740000
  Angles:   90.000000  90.000000  90.000000

Effective grid spacing dv^(1/3) = 0.1747

                     log10-error:           total        iterations:
           time      wfs    density  force  energy       poisson  magmom
iter:   1  08:02:32                       -231.920315             +0.0000
iter:   2  08:02:53  -0.55  -0.94         -231.730954             +0.0058
iter:   3  08:03:14  -0.72  -0.98         -220.584886             +0.0072
iter:   4  08:03:35  -0.96  -1.20         -218.866362             +0.0024
iter:   5  08:03:55  -1.94  -1.36         -221.261836             +0.0015
iter:   6  08:04:16  -1.99  -1.50         -219.963790             +0.0008
iter:   7  08:04:37  -2.21  -1.68         -222.916029             +0.1871
iter:   8  08:04:57  -2.73  -1.89         -219.860199             +0.2575
iter:   9  08:05:18  -2.20  -1.94         -224.944941             +0.6892
iter:  10  08:05:39  -2.26  -1.87         -227.216203             +0.0399
iter:  11  08:06:00  -2.93  -1.84         -227.291769             -0.0139
iter:  12  08:06:20  -2.95  -1.81         -227.211881             -0.0040
iter:  13  08:06:41  -1.41  -1.79         -228.658184             -0.0034
iter:  14  08:07:02  -2.80  -1.87         -227.184240             -0.0012
iter:  15  08:07:22  -2.93  -2.05         -227.362386             -0.0002
iter:  16  08:07:43  -2.60  -2.04         -226.754486             -0.0006
iter:  17  08:08:04  -2.25  -2.07         -226.567898             -0.0002
iter:  18  08:08:24  -2.02  -2.07         -227.042539             -0.0001
iter:  19  08:08:45  -2.83  -2.12         -226.604537             -0.0001
iter:  20  08:09:06  -3.52  -2.18         -226.646681             +0.0000
iter:  21  08:09:26  -3.07  -2.20         -226.590404             -0.0000
iter:  22  08:09:47  -3.11  -2.27         -226.405129             -0.0000
iter:  23  08:10:08  -2.35  -2.31         -226.263995             -0.0000
iter:  24  08:10:28  -3.25  -2.46         -226.234526             -0.0000
iter:  25  08:10:49  -3.31  -2.77         -226.244945             -0.0000
iter:  26  08:11:10  -4.21  -2.95         -226.244917             -0.0000
iter:  27  08:11:31  -3.79  -3.03         -226.229139             -0.0000
iter:  28  08:11:51  -4.49  -3.06         -226.233355             -0.0000
iter:  29  08:12:12  -4.61  -3.19         -226.230299             -0.0000
iter:  30  08:12:33  -4.14  -3.58         -226.227954             -0.0000
iter:  31  08:12:54  -5.40  -3.68         -226.227882             -0.0000
iter:  32  08:13:14  -5.80  -3.78         -226.227917             +0.0000
iter:  33  08:13:35  -6.00  -3.88         -226.227941             +0.0000
iter:  34  08:13:56  -6.52  -3.92         -226.227962             +0.0000
iter:  35  08:14:16  -5.82  -3.96         -226.227932             +0.0000
iter:  36  08:14:37  -6.89  -4.11         -226.227917             +0.0000
iter:  37  08:14:58  -6.75  -4.15         -226.227914             +0.0000
iter:  38  08:15:19  -6.79  -4.24         -226.227921             +0.0000
iter:  39  08:15:39  -6.63  -4.29         -226.227916             +0.0000
iter:  40  08:16:05  -7.77  -4.42         -226.227916             +0.0000
iter:  41  08:16:26  -6.92  -4.46         -226.227914             -0.0000
iter:  42  08:16:52  -7.60  -4.62    -2.25-226.227913             +0.0000
iter:  43  08:17:18  -8.01  -4.68    -2.91-226.227914             +0.0000
iter:  44  08:17:43  -8.34  -4.71    -2.98-226.227914             +0.0000
iter:  45  08:18:09  -8.31  -4.75    -2.84-226.227914             +0.0000
iter:  46  08:18:35  -8.05  -4.93    -3.07-226.227913             +0.0000
iter:  47  08:19:01  -8.16  -4.96    -3.15-226.227913             +0.0000
iter:  48  08:19:27  -8.70  -5.01    -2.93-226.227912             +0.0000
iter:  49  08:19:53  -8.07  -5.13    -2.98-226.227912             -0.0000
iter:  50  08:20:19  -8.89  -5.35    -3.27-226.227912             +0.0000
iter:  51  08:20:45  -9.76  -5.47    -3.70-226.227912             +0.0000
iter:  52  08:21:10  -8.92  -5.49    -3.43-226.227912             +0.0000
iter:  53  08:21:36  -9.96  -5.55    -3.73-226.227912             +0.0000
iter:  54  08:22:02 -10.33  -5.63    -3.99-226.227912             -0.0000
iter:  55  08:22:28  -9.19  -5.70    -3.56-226.227912             +0.0000
iter:  56  08:22:54 -10.02  -6.05    -3.97-226.227912             +0.0000
iter:  57  08:23:20  -9.62  -6.10    -3.67-226.227912             +0.0000
iter:  58  08:23:46 -10.35  -6.35    -4.21-226.227912             +0.0000
iter:  59  08:24:12 -11.14  -6.59    -4.69-226.227912             +0.0000
iter:  60  08:24:37 -11.48  -6.68    -4.40-226.227912             +0.0000
iter:  61  08:25:03 -11.30  -6.88    -4.72-226.227912             +0.0000
iter:  62  08:25:29 -12.65  -7.02    -5.34-226.227912             +0.0000
iter:  63  08:25:55 -11.54  -7.06    -4.60-226.227912             +0.0000
iter:  64  08:26:21 -12.21  -7.29    -5.04-226.227912             +0.0000
iter:  65  08:26:47 -13.62  -7.51    -5.50-226.227912             +0.0000
iter:  66  08:27:13 -13.20  -7.56    -5.64-226.227912             +0.0000
iter:  67  08:27:39 -13.70  -7.64    -5.64-226.227912             +0.0000
iter:  68  08:28:05 -14.46  -7.70    -6.31-226.227912             +0.0000

Converged after 68 iterations.

Dipole moment: (10.672225, 1.411803, -6.318073) |e|*Ang

Total magnetic moment: (0.000000, 0.000000, 0.000000)
Local magnetic moments:
   0 O  ( 0.000000,  0.000000, -0.000514)
   1 O  ( 0.000000,  0.000000,  0.000531)
   2 O  ( 0.000000,  0.000000,  0.000533)
   3 O  ( 0.000000,  0.000000, -0.000555)
   4 O  ( 0.000000,  0.000000,  0.000523)
   5 O  ( 0.000000,  0.000000, -0.000537)
   6 O  ( 0.000000,  0.000000, -0.000543)
   7 O  ( 0.000000,  0.000000,  0.000552)
   8 O  ( 0.000000,  0.000000,  0.028695)
   9 O  ( 0.000000,  0.000000, -0.028661)
  10 O  ( 0.000000,  0.000000, -0.028690)
  11 O  ( 0.000000,  0.000000,  0.028742)
  12 Mn ( 0.000000,  0.000000,  4.448141)
  13 Mn ( 0.000000,  0.000000, -4.448252)
  14 Mn ( 0.000000,  0.000000, -4.448182)
  15 Mn ( 0.000000,  0.000000,  4.448229)
  16 P  ( 0.000000,  0.000000,  0.001557)
  17 P  ( 0.000000,  0.000000, -0.001543)
  18 P  ( 0.000000,  0.000000, -0.001558)
  19 P  ( 0.000000,  0.000000,  0.001544)
  20 O  ( 0.000000,  0.000000,  0.025296)
  21 O  ( 0.000000,  0.000000, -0.025312)
  22 O  ( 0.000000,  0.000000, -0.025333)
  23 O  ( 0.000000,  0.000000,  0.025300)
  24 Li ( 0.000000,  0.000000, -0.000000)
  25 Li ( 0.000000,  0.000000, -0.000008)
  26 Li ( 0.000000,  0.000000,  0.000000)
  27 Li ( 0.000000,  0.000000,  0.000001)

Energy contributions relative to reference atoms: (reference = -196157.275402)

Kinetic:       +217.352812
Potential:     -195.237683
External:        +0.000000
XC:            -250.384192
Entropy (-ST):   -0.000000
Local:           +2.041151
--------------------------
Free energy:   -226.227912
Extrapolated:  -226.227912

Spin contamination: 9.560411 electrons
Showing only first 2 kpts
                      Up                     Down
 Kpt  Band  Eigenvalues  Occupancy  Eigenvalues  Occupancy
  0    88      5.10993    1.00000      5.10984    1.00000
  0    89      5.13442    1.00000      5.13432    1.00000
  0    90      7.28864    0.00000      7.28865    0.00000
  0    91      7.30638    0.00000      7.30633    0.00000

  1    88      5.13568    1.00000      5.13554    1.00000
  1    89      5.16487    1.00000      5.16478    1.00000
  1    90      7.23136    0.00000      7.23152    0.00000
  1    91      7.24360    0.00000      7.24371    0.00000


Fermi level: 6.72915

Gap: 1.972 eV
Transition (v -> c):
  (s=0, k=70, n=89, [-0.08, 0.42, 0.12]) -> (s=0, k=82, n=90, [0.08, -0.08, 0.12])
Writing to born-0.01-25z+.gpw (mode='all')

Timing:                              incl.     excl.
-----------------------------------------------------------
Hamiltonian:                         0.221     0.002   0.0% |
 Atomic:                             0.051     0.051   0.0% |
  XC Correction:                     0.000     0.000   0.0% |
 Calculate atomic Hamiltonians:      0.083     0.083   0.0% |
 Communicate:                        0.000     0.000   0.0% |
 Initialize Hamiltonian:             0.000     0.000   0.0% |
 Poisson:                            0.001     0.001   0.0% |
 XC 3D grid:                         0.084     0.084   0.0% |
LCAO initialization:                65.948     0.648   0.0% |
 LCAO eigensolver:                  16.710     0.002   0.0% |
  Calculate projections:             0.029     0.029   0.0% |
  DenseAtomicCorrection:             0.046     0.046   0.0% |
  Distribute overlap matrix:         0.011     0.011   0.0% |
  Orbital Layouts:                   0.262     0.262   0.0% |
  Potential matrix:                 16.261    16.261   0.4% |
  Sum over cells:                    0.099     0.099   0.0% |
 LCAO to grid:                      47.299    47.299   1.3% ||
 Set positions (LCAO WFS):           1.291     0.179   0.0% |
  Basic WFS set positions:           0.001     0.001   0.0% |
  Basis functions set positions:     0.000     0.000   0.0% |
  P tci:                             0.538     0.538   0.0% |
  ST tci:                            0.361     0.361   0.0% |
  mktci:                             0.212     0.212   0.0% |
PWDescriptor:                        0.024     0.024   0.0% |
SCF-cycle:                        1554.098     1.277   0.0% |
 Davidson:                        1338.927   428.311  11.6% |----|
  Apply H:                          88.629    86.012   2.3% ||
   HMM T:                            2.616     2.616   0.1% |
  Subspace diag:                   191.655     0.196   0.0% |
   calc_h_matrix:                  121.597    33.877   0.9% |
    Apply H:                        87.721    85.233   2.3% ||
     HMM T:                          2.488     2.488   0.1% |
   diagonalize:                      6.939     6.939   0.2% |
   rotate_psi:                      62.923    62.923   1.7% ||
  calc. matrices:                  401.536   227.579   6.2% |-|
   Apply H:                        173.957   169.014   4.6% |-|
    HMM T:                           4.943     4.943   0.1% |
  diagonalize:                     102.168   102.168   2.8% ||
  rotate_psi:                      126.628   126.628   3.4% ||
 Density:                           51.613     0.002   0.0% |
  Atomic density matrices:           0.898     0.898   0.0% |
  Mix:                               8.457     8.457   0.2% |
  Multipole moments:                 0.025     0.025   0.0% |
  Pseudo density:                   42.231    42.229   1.1% |
   Symmetrize density:               0.002     0.002   0.0% |
 Forces:                           144.964   144.964   3.9% |-|
 Hamiltonian:                       15.055     0.140   0.0% |
  Atomic:                            3.562     3.562   0.1% |
   XC Correction:                    0.000     0.000   0.0% |
  Calculate atomic Hamiltonians:     5.622     5.622   0.2% |
  Communicate:                       0.009     0.009   0.0% |
  Poisson:                           0.052     0.052   0.0% |
  XC 3D grid:                        5.670     5.670   0.2% |
 Orthonormalize:                     2.262     0.003   0.0% |
  calc_s_matrix:                     0.266     0.266   0.0% |
  inverse-cholesky:                  0.040     0.040   0.0% |
  projections:                       1.474     1.474   0.0% |
  rotate_psi_s:                      0.480     0.480   0.0% |
Set symmetry:                        0.000     0.000   0.0% |
Other:                            2071.270  2071.270  56.1% |---------------------|
-----------------------------------------------------------
Total:                                      3691.560 100.0%

Memory usage: 12.44 GiB
Date: Fri Apr  2 09:02:35 2021
