
  ___ ___ ___ _ _ _  
 |   |   |_  | | | | 
 | | | | | . | | | | 
 |__ |  _|___|_____|  21.1.1b1
 |___|_|             

User:   madkru@i009.nifl.fysik.dtu.dk
Date:   Fri Apr  2 01:46:37 2021
Arch:   x86_64
Pid:    31381
Python: 3.8.6
gpaw:   /home/niflheim/madkru/venv_madkru/gpaw/gpaw (e6f0d78a31)
_gpaw:  /home/niflheim/madkru/venv_madkru/gpaw/build/lib.linux-x86_64-ivybridge-3.8/
        _gpaw.cpython-38-x86_64-linux-gnu.so (e6f0d78a31)
ase:    /home/niflheim/madkru/venv_madkru/ase/ase (version 3.22.0b1-4d5a73cb29)
numpy:  /home/modules/software/SciPy-bundle/2020.11-foss-2020b/lib/python3.8/site-packages/numpy (version 1.19.4)
scipy:  /home/modules/software/SciPy-bundle/2020.11-foss-2020b/lib/python3.8/site-packages/scipy (version 1.5.4)
libxc:  4.3.4
units:  Angstrom and eV
cores: 64
OpenMP: False
OMP_NUM_THREADS: 1

Input parameters:
  convergence: {bands: occupied,
                density: 0.0001,
                eigenstates: 4e-08,
                energy: 0.0005,
                forces: 1e-06}
  kpts: [6 6 4]
  maxiter: 1000
  mode: {ecut: 600.0,
         gammacentered: False,
         name: pw}
  occupations: {fixmagmom: False,
                name: fermi-dirac,
                width: 0.001}
  symmetry: {point_group: False,
             time_reversal: False}

System changes: positions, numbers, cell, pbc, initial_charges, initial_magmoms 

Initialize ...

O-setup:
  name: Oxygen
  id: 9b9d51c344dea68c822856295a461509
  Z: 8.0
  valence: 6
  core: 2
  charge: 0.0
  file: /home/modules/software/GPAW-setups/0.9.20000/O.LDA.gz
  compensation charges: gauss, rc=0.21, lmax=2
  cutoffs: 1.17(filt), 0.83(core),
  valence states:
                energy  radius
    2s(2.00)   -23.752   0.688
    2p(4.00)    -9.195   0.598
    *s           3.459   0.688
    *p          18.016   0.598
    *d           0.000   0.619

  Using partial waves for O as LCAO basis

Mn-setup:
  name: Manganese
  id: 0d715a8018be061a6e9ea6f2d364ac92
  Z: 25.0
  valence: 15
  core: 10
  charge: 0.0
  file: /home/modules/software/GPAW-setups/0.9.20000/Mn.LDA.gz
  compensation charges: gauss, rc=0.38, lmax=2
  cutoffs: 2.14(filt), 0.86(core),
  valence states:
                energy  radius
    3s(2.00)   -85.387   1.275
    4s(2.00)    -5.282   1.275
    3p(6.00)   -54.493   1.281
    4p(0.00)    -1.471   1.281
    3d(5.00)    -7.009   1.138
    *d          20.203   1.138

  Using partial waves for Mn as LCAO basis

P-setup:
  name: Phosphorus
  id: a5561c299094968922a179ab894d2e2d
  Z: 15.0
  valence: 5
  core: 10
  charge: 0.0
  file: /home/modules/software/GPAW-setups/0.9.20000/P.LDA.gz
  compensation charges: gauss, rc=0.30, lmax=2
  cutoffs: 1.69(filt), 1.81(core),
  valence states:
                energy  radius
    3s(2.00)   -14.015   0.953
    3p(3.00)    -5.596   0.953
    *s          13.197   0.953
    *p          21.615   0.953
    *d           0.000   0.953

  Using partial waves for P as LCAO basis

Li-setup:
  name: Lithium
  id: b73562207f97a71b6967473b66fe8b65
  Z: 3.0
  valence: 1
  core: 2
  charge: 0.0
  file: /home/modules/software/GPAW-setups/0.9.20000/Li.LDA.gz
  compensation charges: gauss, rc=0.33, lmax=2
  cutoffs: 1.91(filt), 2.55(core),
  valence states:
                energy  radius
    2s(1.00)    -2.874   1.058
    2p(0.00)    -1.126   1.058
    *s          24.338   1.058

  Using partial waves for Li as LCAO basis

Reference energy: -196157.275402

Spin-polarized calculation.
Magnetic moment: 0.000000

Convergence criteria:
  Maximum total energy change: 0.0005 eV / electron
  Maximum integral of absolute density change: 0.0001 electrons
  Maximum integral of absolute eigenstate change: 4e-08 eV^2
  Maximum change in atomic force: 1e-06 eV / Ang
  Maximum number of iterations: 1000

Symmetries present (total): 1

  ( 1  0  0)
  ( 0  1  0)
  ( 0  0  1)

144 k-points: 6 x 6 x 4 Monkhorst-Pack grid
144 k-points in the irreducible part of the Brillouin zone
       k-points in crystal coordinates                weights
   0:    -0.41666667   -0.41666667   -0.37500000          1/144
   1:    -0.41666667   -0.41666667   -0.12500000          1/144
   2:    -0.41666667   -0.41666667    0.12500000          1/144
   3:    -0.41666667   -0.41666667    0.37500000          1/144
   4:    -0.41666667   -0.25000000   -0.37500000          1/144
   5:    -0.41666667   -0.25000000   -0.12500000          1/144
   6:    -0.41666667   -0.25000000    0.12500000          1/144
   7:    -0.41666667   -0.25000000    0.37500000          1/144
   8:    -0.41666667   -0.08333333   -0.37500000          1/144
   9:    -0.41666667   -0.08333333   -0.12500000          1/144
          ...
 143:     0.41666667    0.41666667    0.37500000          1/144

Wave functions: Plane wave expansion
  Cutoff energy: 600.000 eV
  Number of coefficients (min, max): 10068, 10125
  Pulay-stress correction: 0.000000 eV/Ang^3 (de/decut=0.000000)
  Using FFTW library
  ScaLapack parameters: grid=1x1, blocksize=None
  Wavefunction extrapolation:
    Improved wavefunction reuse through dual PAW basis 

  Fermi-Dirac: width=0.0010 eV

Eigensolver
   Davidson(niter=2) 

Densities:
  Coarse grid: 60*35*27 grid
  Fine grid: 120*70*54 grid
  Total Charge: 0.000000 

Density mixing:
  Method: difference
  Backend: pulay
  Linear mixing parameter: 0.05
  Mixing with 5 old densities
  Damping of long wave oscillations: 50 

Hamiltonian:
  XC and Coulomb potentials evaluated on a 120*70*54 grid
  Using the LDA Exchange-Correlation functional
 

Memory estimate:
  Process memory now: 12399.39 MiB
  Calculator: 354.82 MiB
    Density: 10.06 MiB
      Arrays: 3.79 MiB
      Localized functions: 4.71 MiB
      Mixer: 1.56 MiB
    Hamiltonian: 2.95 MiB
      Arrays: 2.82 MiB
      XC: 0.00 MiB
      Poisson: 0.00 MiB
      vbar: 0.14 MiB
    Wavefunctions: 341.80 MiB
      Arrays psit_nG: 311.46 MiB
      Eigensolver: 19.99 MiB
      Projections: 2.71 MiB
      Projectors: 4.87 MiB
      PW-descriptor: 2.77 MiB

Total number of cores used: 64
Parallelization over k-points: 16
Domain decomposition: 2 x 2 x 1

Number of atoms: 28
Number of atomic orbitals: 148
Number of bands in calculation: 112
Number of valence electrons: 180
Bands to converge: occupied

... initialized

Initializing position-dependent things.

Density initialized from atomic densities
Creating initial wave functions:
  112 bands from LCAO basis set

     .-------------------------.  
    /|         OP              |  
   / |O            O        O  |  
  /  |       O            O  P |  
 *   |O    Mn      O           |  
 |   |          OLi          O |  
 |   .P-O--------------Mn------.  
 |  /          Li    O  Mn  O /   
 | /Li O           PO        /    
 |/       Mn                /     
 *Li-----------------------*      

Positions:
   0 O     -1.360678   -2.541161   -1.202221    ( 0.0000,  0.0000,  0.0000)
   1 O     -3.121941    2.976855    1.167242    ( 0.0000,  0.0000,  0.0000)
   2 O      2.107533    0.508090    1.540712    ( 0.0000,  0.0000,  0.0000)
   3 O      3.869373   -0.072395   -0.828750    ( 0.0000,  0.0000,  0.0000)
   4 O      2.107821    2.976875    1.540792    ( 0.0000,  0.0000,  0.0000)
   5 O      3.869084   -2.541141   -0.828671    ( 0.0000,  0.0000,  0.0000)
   6 O     -1.360390   -0.072375   -1.202141    ( 0.0000,  0.0000,  0.0000)
   7 O     -3.122230    0.508109    1.167321    ( 0.0000,  0.0000,  0.0000)
   8 O     -4.413461   -1.306992   -0.794251    ( 0.0000,  0.0000,  0.0000)
   9 O     -0.069585    1.742707    1.575662    ( 0.0000,  0.0000,  0.0000)
  10 O      5.160604    1.742707    1.132822    ( 0.0000,  0.0000,  0.0000)
  11 O      0.816728   -1.306992   -1.237091    ( 0.0000,  0.0000,  0.0000)
  12 Mn    -2.570809   -1.307302    0.247161    ( 0.0000,  0.0000,  1.0000)
  13 Mn    -1.912021    1.743016   -2.122906    ( 0.0000,  0.0000, -1.0000)
  14 Mn     3.317952    1.743017    0.091411    ( 0.0000,  0.0000, -1.0000)
  15 Mn     2.659164   -1.307302    2.461478    ( 0.0000,  0.0000,  1.0000)
  16 P     -0.620664   -1.306816   -1.828465    ( 0.0000,  0.0000,  0.0000)
  17 P     -3.862097    1.742530    0.541238    ( 0.0000,  0.0000,  0.0000)
  18 P      1.367807    1.742530    2.167036    ( 0.0000,  0.0000,  0.0000)
  19 P      4.609240   -1.306816   -0.202666    ( 0.0000,  0.0000,  0.0000)
  20 O     -0.646437   -1.306845    1.374751    ( 0.0000,  0.0000,  0.0000)
  21 O     -3.836504    1.742559   -0.995565    ( 0.0000,  0.0000,  0.0000)
  22 O      1.393580    1.742559   -1.036179    ( 0.0000,  0.0000,  0.0000)
  23 O      4.583647   -1.306845    1.334136    ( 0.0000,  0.0000,  0.0000)
  24 Li    -4.866429   -2.832143   -2.200714    ( 0.0000,  0.0000,  0.0000)
  25 Li     0.373571   -2.832143    0.169286    ( 0.0000,  0.0000,  0.0000)
  26 Li    -4.856429    0.217857   -2.200714    ( 0.0000,  0.0000,  0.0000)
  27 Li     0.373571    0.217857    0.169286    ( 0.0000,  0.0000,  0.0000)

Unit cell:
           periodic     x           y           z      points  spacing
  1. axis:    yes   10.460000    0.000000    0.000000    60     0.1743
  2. axis:    yes    0.000000    6.100000    0.000000    35     0.1743
  3. axis:    yes    0.000000    0.000000    4.740000    27     0.1756

  Lengths:  10.460000   6.100000   4.740000
  Angles:   90.000000  90.000000  90.000000

Effective grid spacing dv^(1/3) = 0.1747

                     log10-error:           total        iterations:
           time      wfs    density  force  energy       poisson  magmom
iter:   1  01:48:06                       -231.920417             +0.0000
iter:   2  01:48:27  -0.55  -0.94         -231.731010             +0.0020
iter:   3  01:48:48  -0.72  -0.98         -220.584045             +0.0026
iter:   4  01:49:08  -0.96  -1.20         -218.864135             +0.0008
iter:   5  01:49:29  -1.94  -1.36         -220.842542             +0.0005
iter:   6  01:49:50  -1.85  -1.53         -219.492856             +0.0002
iter:   7  01:50:10  -2.21  -1.64         -220.729807             +0.4568
iter:   8  01:50:31  -2.68  -1.93         -218.753559             +0.3413
iter:   9  01:50:52  -2.45  -1.99         -220.689613             -0.4292
iter:  10  01:51:12  -2.37  -2.04         -224.017794             -0.4998
iter:  11  01:51:33  -2.56  -1.94         -225.678416             -0.3505
iter:  12  01:51:54  -2.50  -1.91         -227.068996             -0.0286
iter:  13  01:52:14  -3.53  -1.89         -227.185476             -0.0141
iter:  14  01:52:35  -1.67  -1.88         -226.848595             -0.0044
iter:  15  01:52:56  -2.18  -2.09         -227.340380             -0.0039
iter:  16  01:53:16  -2.40  -2.04         -226.800732             -0.0016
iter:  17  01:53:37  -1.80  -2.15         -226.637586             +0.0002
iter:  18  01:53:58  -2.34  -2.13         -226.518474             -0.0001
iter:  19  01:54:18  -2.48  -2.23         -226.438716             +0.0001
iter:  20  01:54:39  -2.77  -2.36         -226.371736             -0.0000
iter:  21  01:55:00  -2.56  -2.44         -226.234405             -0.0000
iter:  22  01:55:20  -3.48  -2.60         -226.242536             -0.0000
iter:  23  01:55:41  -2.97  -2.65         -226.263561             +0.0000
iter:  24  01:56:02  -3.89  -2.87         -226.240278             -0.0000
iter:  25  01:56:22  -4.32  -3.04         -226.233986             -0.0000
iter:  26  01:56:43  -4.50  -3.10         -226.238040             -0.0000
iter:  27  01:57:04  -4.19  -3.19         -226.230859             -0.0000
iter:  28  01:57:24  -4.95  -3.30         -226.230433             -0.0000
iter:  29  01:57:45  -4.40  -3.38         -226.228550             -0.0000
iter:  30  01:58:06  -4.76  -3.74         -226.228024             -0.0000
iter:  31  01:58:27  -6.17  -3.82         -226.227997             -0.0000
iter:  32  01:58:47  -5.85  -3.84         -226.228034             -0.0000
iter:  33  01:59:08  -5.75  -3.95         -226.227994             -0.0000
iter:  34  01:59:29  -5.72  -3.99         -226.227976             -0.0000
iter:  35  01:59:49  -6.23  -4.14         -226.228002             +0.0000
iter:  36  02:00:10  -6.23  -4.20         -226.227960             -0.0000
iter:  37  02:00:30  -7.19  -4.47         -226.227960             -0.0000
iter:  38  02:00:51  -7.20  -4.57         -226.227963             +0.0000
iter:  39  02:01:17  -7.95  -4.72         -226.227961             +0.0000
iter:  40  02:01:38  -7.39  -4.79         -226.227958             +0.0000
iter:  41  02:02:03  -8.18  -4.90    -2.44-226.227957             +0.0000
iter:  42  02:02:29  -7.74  -4.93    -2.58-226.227958             +0.0000
iter:  43  02:02:55  -7.48  -5.11    -2.55-226.227957             +0.0000
iter:  44  02:03:21  -8.64  -5.21    -3.03-226.227957             +0.0000
iter:  45  02:03:47  -8.57  -5.29    -3.17-226.227957             +0.0000
iter:  46  02:04:13  -8.49  -5.41    -3.10-226.227957             +0.0000
iter:  47  02:04:39  -8.67  -5.60    -3.20-226.227957             +0.0000
iter:  48  02:05:05  -9.52  -5.74    -3.73-226.227957             +0.0000
iter:  49  02:05:30  -9.07  -5.82    -3.46-226.227957             +0.0000
iter:  50  02:05:56  -9.95  -6.03    -3.96-226.227957             +0.0000
iter:  51  02:06:22 -10.35  -6.08    -4.11-226.227957             +0.0000
iter:  52  02:06:48 -10.94  -6.17    -4.11-226.227957             +0.0000
iter:  53  02:07:14 -10.47  -6.24    -4.10-226.227957             +0.0000
iter:  54  02:07:40 -10.91  -6.29    -4.51-226.227957             +0.0000
iter:  55  02:08:05 -10.51  -6.32    -3.96-226.227957             +0.0000
iter:  56  02:08:31 -11.34  -6.58    -4.67-226.227957             +0.0000
iter:  57  02:08:57 -10.61  -6.66    -4.39-226.227957             +0.0000
iter:  58  02:09:23 -11.58  -6.87    -4.84-226.227957             +0.0000
iter:  59  02:09:49 -11.64  -6.97    -4.75-226.227957             +0.0000
iter:  60  02:10:15 -12.90  -7.07    -5.47-226.227957             +0.0000
iter:  61  02:10:41 -11.92  -7.10    -4.86-226.227957             +0.0000
iter:  62  02:11:07 -12.71  -7.30    -5.32-226.227957             +0.0000
iter:  63  02:11:32 -12.27  -7.35    -5.07-226.227957             +0.0000
iter:  64  02:11:58 -13.08  -7.58    -5.31-226.227957             +0.0000
iter:  65  02:12:24 -13.83  -7.86    -5.63-226.227957             +0.0000
iter:  66  02:12:50 -14.16  -7.98    -5.86-226.227957             +0.0000
iter:  67  02:13:16 -13.96  -8.09    -5.93-226.227957             +0.0000
iter:  68  02:13:42 -14.40  -8.23    -6.23-226.227957             +0.0000

Converged after 68 iterations.

Dipole moment: (10.668213, 1.412451, -6.270042) |e|*Ang

Total magnetic moment: (0.000000, 0.000000, 0.000000)
Local magnetic moments:
   0 O  ( 0.000000,  0.000000, -0.000518)
   1 O  ( 0.000000,  0.000000,  0.000550)
   2 O  ( 0.000000,  0.000000,  0.000539)
   3 O  ( 0.000000,  0.000000, -0.000554)
   4 O  ( 0.000000,  0.000000,  0.000518)
   5 O  ( 0.000000,  0.000000, -0.000517)
   6 O  ( 0.000000,  0.000000, -0.000537)
   7 O  ( 0.000000,  0.000000,  0.000553)
   8 O  ( 0.000000,  0.000000,  0.028648)
   9 O  ( 0.000000,  0.000000, -0.028663)
  10 O  ( 0.000000,  0.000000, -0.028737)
  11 O  ( 0.000000,  0.000000,  0.028740)
  12 Mn ( 0.000000,  0.000000,  4.448230)
  13 Mn ( 0.000000,  0.000000, -4.448294)
  14 Mn ( 0.000000,  0.000000, -4.448091)
  15 Mn ( 0.000000,  0.000000,  4.448186)
  16 P  ( 0.000000,  0.000000,  0.001552)
  17 P  ( 0.000000,  0.000000, -0.001534)
  18 P  ( 0.000000,  0.000000, -0.001563)
  19 P  ( 0.000000,  0.000000,  0.001553)
  20 O  ( 0.000000,  0.000000,  0.025307)
  21 O  ( 0.000000,  0.000000, -0.025300)
  22 O  ( 0.000000,  0.000000, -0.025323)
  23 O  ( 0.000000,  0.000000,  0.025312)
  24 Li ( 0.000000,  0.000000, -0.000014)
  25 Li ( 0.000000,  0.000000, -0.000000)
  26 Li ( 0.000000,  0.000000,  0.000000)
  27 Li ( 0.000000,  0.000000, -0.000000)

Energy contributions relative to reference atoms: (reference = -196157.275402)

Kinetic:       +217.352006
Potential:     -195.237087
External:        +0.000000
XC:            -250.384027
Entropy (-ST):   -0.000000
Local:           +2.041151
--------------------------
Free energy:   -226.227957
Extrapolated:  -226.227957

Spin contamination: 9.560410 electrons
Showing only first 2 kpts
                      Up                     Down
 Kpt  Band  Eigenvalues  Occupancy  Eigenvalues  Occupancy
  0    88      5.10909    1.00000      5.10969    1.00000
  0    89      5.13512    1.00000      5.13461    1.00000
  0    90      7.28730    0.00000      7.28822    0.00000
  0    91      7.30769    0.00000      7.30674    0.00000

  1    88      5.13483    1.00000      5.13554    1.00000
  1    89      5.16553    1.00000      5.16498    1.00000
  1    90      7.22961    0.00000      7.23074    0.00000
  1    91      7.24536    0.00000      7.24444    0.00000


Fermi level: 6.21751

Gap: 1.971 eV
Transition (v -> c):
  (s=1, k=73, n=89, [0.08, -0.42, -0.12]) -> (s=0, k=57, n=90, [-0.08, -0.08, -0.12])
Writing to born-0.01-24x-.gpw (mode='all')

Timing:                              incl.     excl.
-----------------------------------------------------------
Hamiltonian:                         0.221     0.002   0.0% |
 Atomic:                             0.051     0.051   0.0% |
  XC Correction:                     0.000     0.000   0.0% |
 Calculate atomic Hamiltonians:      0.084     0.084   0.0% |
 Communicate:                        0.000     0.000   0.0% |
 Initialize Hamiltonian:             0.000     0.000   0.0% |
 Poisson:                            0.001     0.001   0.0% |
 XC 3D grid:                         0.083     0.083   0.0% |
LCAO initialization:                65.381     0.648   0.0% |
 LCAO eigensolver:                  16.641     0.002   0.0% |
  Calculate projections:             0.029     0.029   0.0% |
  DenseAtomicCorrection:             0.045     0.045   0.0% |
  Distribute overlap matrix:         0.026     0.026   0.0% |
  Orbital Layouts:                   0.259     0.259   0.0% |
  Potential matrix:                 16.197    16.197   0.4% |
  Sum over cells:                    0.082     0.082   0.0% |
 LCAO to grid:                      46.834    46.834   1.3% ||
 Set positions (LCAO WFS):           1.258     0.178   0.0% |
  Basic WFS set positions:           0.002     0.002   0.0% |
  Basis functions set positions:     0.000     0.000   0.0% |
  P tci:                             0.506     0.506   0.0% |
  ST tci:                            0.359     0.359   0.0% |
  mktci:                             0.213     0.213   0.0% |
PWDescriptor:                        0.023     0.023   0.0% |
SCF-cycle:                        1558.285     2.474   0.1% |
 Davidson:                        1336.894   428.291  11.4% |----|
  Apply H:                          87.837    85.313   2.3% ||
   HMM T:                            2.524     2.524   0.1% |
  Subspace diag:                   191.258     0.193   0.0% |
   calc_h_matrix:                  121.092    33.799   0.9% |
    Apply H:                        87.293    84.829   2.3% ||
     HMM T:                          2.464     2.464   0.1% |
   diagonalize:                      6.840     6.840   0.2% |
   rotate_psi:                      63.133    63.133   1.7% ||
  calc. matrices:                  401.049   227.174   6.1% |-|
   Apply H:                        173.875   169.012   4.5% |-|
    HMM T:                           4.863     4.863   0.1% |
  diagonalize:                     101.822   101.822   2.7% ||
  rotate_psi:                      126.637   126.637   3.4% ||
 Density:                           51.326     0.002   0.0% |
  Atomic density matrices:           0.886     0.886   0.0% |
  Mix:                               8.343     8.343   0.2% |
  Multipole moments:                 0.024     0.024   0.0% |
  Pseudo density:                   42.072    42.070   1.1% |
   Symmetrize density:               0.002     0.002   0.0% |
 Forces:                           150.238   150.238   4.0% |-|
 Hamiltonian:                       15.090     0.140   0.0% |
  Atomic:                            3.624     3.624   0.1% |
   XC Correction:                    0.000     0.000   0.0% |
  Calculate atomic Hamiltonians:     5.605     5.605   0.1% |
  Communicate:                       0.014     0.014   0.0% |
  Poisson:                           0.050     0.050   0.0% |
  XC 3D grid:                        5.656     5.656   0.2% |
 Orthonormalize:                     2.262     0.003   0.0% |
  calc_s_matrix:                     0.265     0.265   0.0% |
  inverse-cholesky:                  0.041     0.041   0.0% |
  projections:                       1.474     1.474   0.0% |
  rotate_psi_s:                      0.479     0.479   0.0% |
Set symmetry:                        0.000     0.000   0.0% |
Other:                            2121.210  2121.210  56.6% |----------------------|
-----------------------------------------------------------
Total:                                      3745.121 100.0%

Memory usage: 12.15 GiB
Date: Fri Apr  2 02:49:02 2021
