
  ___ ___ ___ _ _ _  
 |   |   |_  | | | | 
 | | | | | . | | | | 
 |__ |  _|___|_____|  20.10.1b1
 |___|_|             

User:   madkru@g064.nifl.fysik.dtu.dk
Date:   Mon Mar 22 21:58:51 2021
Arch:   x86_64
Pid:    60512
Python: 3.7.4
gpaw:   /home/niflheim/madkru/venv_folder/gpaw/gpaw (d0d1ca1c71)
_gpaw:  /home/niflheim/madkru/venv_folder/gpaw/build/lib.linux-x86_64-sandybridge-3.7/
        _gpaw.cpython-37m-x86_64-linux-gnu.so (4fd39e8b1e)
ase:    /home/niflheim/madkru/venv_folder/ase/ase (version 3.21.0b1-7e6c206a91)
numpy:  /home/niflheim/madkru/venv_folder/lib/python3.7/site-packages/numpy (version 1.19.4)
scipy:  /home/niflheim/madkru/venv_folder/lib/python3.7/site-packages/scipy (version 1.5.4)
libxc:  4.3.4
units:  Angstrom and eV
cores: 32
OMP_NUM_THREADS: 1

Input parameters:
  convergence: {bands: occupied,
                density: 0.0001,
                eigenstates: 4e-08,
                energy: 0.0005,
                forces: 1e-06}
  kpts: [6 6 4]
  mode: {ecut: 600.0,
         gammacentered: False,
         name: pw}
  occupations: {fixmagmom: False,
                name: fermi-dirac,
                width: 0.001}
  symmetry: {point_group: False,
             time_reversal: False}

System changes: positions, numbers, cell, pbc, initial_charges, initial_magmoms 

Initialize ...

O-setup:
  name: Oxygen
  id: 9b9d51c344dea68c822856295a461509
  Z: 8.0
  valence: 6
  core: 2
  charge: 0.0
  file: /home/modules/software/GPAW-setups/0.9.20000/O.LDA.gz
  compensation charges: gauss, rc=0.21, lmax=2
  cutoffs: 1.17(filt), 0.83(core),
  valence states:
                energy  radius
    2s(2.00)   -23.752   0.688
    2p(4.00)    -9.195   0.598
    *s           3.459   0.688
    *p          18.016   0.598
    *d           0.000   0.619

  Using partial waves for O as LCAO basis

Mn-setup:
  name: Manganese
  id: 0d715a8018be061a6e9ea6f2d364ac92
  Z: 25.0
  valence: 15
  core: 10
  charge: 0.0
  file: /home/modules/software/GPAW-setups/0.9.20000/Mn.LDA.gz
  compensation charges: gauss, rc=0.38, lmax=2
  cutoffs: 2.14(filt), 0.86(core),
  valence states:
                energy  radius
    3s(2.00)   -85.387   1.275
    4s(2.00)    -5.282   1.275
    3p(6.00)   -54.493   1.281
    4p(0.00)    -1.471   1.281
    3d(5.00)    -7.009   1.138
    *d          20.203   1.138

  Using partial waves for Mn as LCAO basis

P-setup:
  name: Phosphorus
  id: a5561c299094968922a179ab894d2e2d
  Z: 15.0
  valence: 5
  core: 10
  charge: 0.0
  file: /home/modules/software/GPAW-setups/0.9.20000/P.LDA.gz
  compensation charges: gauss, rc=0.30, lmax=2
  cutoffs: 1.69(filt), 1.81(core),
  valence states:
                energy  radius
    3s(2.00)   -14.015   0.953
    3p(3.00)    -5.596   0.953
    *s          13.197   0.953
    *p          21.615   0.953
    *d           0.000   0.953

  Using partial waves for P as LCAO basis

Li-setup:
  name: Lithium
  id: b73562207f97a71b6967473b66fe8b65
  Z: 3.0
  valence: 1
  core: 2
  charge: 0.0
  file: /home/modules/software/GPAW-setups/0.9.20000/Li.LDA.gz
  compensation charges: gauss, rc=0.33, lmax=2
  cutoffs: 1.91(filt), 2.55(core),
  valence states:
                energy  radius
    2s(1.00)    -2.874   1.058
    2p(0.00)    -1.126   1.058
    *s          24.338   1.058

  Using partial waves for Li as LCAO basis

Reference energy: -196157.275402

Spin-polarized calculation.
Magnetic moment: 0.000000

Convergence criteria:
  Maximum total energy change: 0.0005 eV / electron
  Maximum integral of absolute density change: 0.0001 electrons
  Maximum integral of absolute eigenstate change: 4e-08 eV^2
  Maximum change in atomic force: 1e-06 eV / Ang
  Maximum number of iterations: 333

Symmetries present (total): 1

  ( 1  0  0)
  ( 0  1  0)
  ( 0  0  1)

144 k-points: 6 x 6 x 4 Monkhorst-Pack grid
144 k-points in the irreducible part of the Brillouin zone
       k-points in crystal coordinates                weights
   0:    -0.41666667   -0.41666667   -0.37500000          1/144
   1:    -0.41666667   -0.41666667   -0.12500000          1/144
   2:    -0.41666667   -0.41666667    0.12500000          1/144
   3:    -0.41666667   -0.41666667    0.37500000          1/144
   4:    -0.41666667   -0.25000000   -0.37500000          1/144
   5:    -0.41666667   -0.25000000   -0.12500000          1/144
   6:    -0.41666667   -0.25000000    0.12500000          1/144
   7:    -0.41666667   -0.25000000    0.37500000          1/144
   8:    -0.41666667   -0.08333333   -0.37500000          1/144
   9:    -0.41666667   -0.08333333   -0.12500000          1/144
          ...
 143:     0.41666667    0.41666667    0.37500000          1/144

Wave functions: Plane wave expansion
  Cutoff energy: 600.000 eV
  Number of coefficients (min, max): 10068, 10125
  Pulay-stress correction: 0.000000 eV/Ang^3 (de/decut=0.000000)
  Using FFTW library
  ScaLapack parameters: grid=1x1, blocksize=None
  Wavefunction extrapolation:
    Improved wavefunction reuse through dual PAW basis 

  Fermi-Dirac: width=0.0010 eV

Eigensolver
   Davidson(niter=2, smin=None, normalize=True) 

Densities:
  Coarse grid: 60*35*27 grid
  Fine grid: 120*70*54 grid
  Total Charge: 0.000000 

Density mixing:
  Method: difference
  Backend: pulay
  Linear mixing parameter: 0.05
  Mixing with 5 old densities
  Damping of long wave oscillations: 50 

Hamiltonian:
  XC and Coulomb potentials evaluated on a 120*70*54 grid
  Using the LDA Exchange-Correlation functional
 

Memory estimate:
  Process memory now: 13498.57 MiB
  Calculator: 375.55 MiB
    Density: 20.02 MiB
      Arrays: 7.57 MiB
      Localized functions: 9.42 MiB
      Mixer: 3.03 MiB
    Hamiltonian: 5.90 MiB
      Arrays: 5.62 MiB
      XC: 0.00 MiB
      Poisson: 0.00 MiB
      vbar: 0.27 MiB
    Wavefunctions: 349.64 MiB
      Arrays psit_nG: 311.46 MiB
      Eigensolver: 19.99 MiB
      Projections: 5.41 MiB
      Projectors: 9.73 MiB
      PW-descriptor: 3.03 MiB

Total number of cores used: 32
Parallelization over k-points: 16
Domain decomposition: 2 x 1 x 1

Number of atoms: 28
Number of atomic orbitals: 148
Number of bands in calculation: 112
Number of valence electrons: 180
Bands to converge: occupied

... initialized

Initializing position-dependent things.

Density initialized from atomic densities
Creating initial wave functions:
  112 bands from LCAO basis set

     .-------------------------.  
    /|         OP              |  
   / |O            O        O  |  
  /  |       O            O  P |  
 *   |O    Mn      O           |  
 |   |          OLi          O |  
 |   .P-O--------------Mn------.  
 |  /          Li    O  Mn  O /   
 | /Li O           PO        /    
 |/       Mn                /     
 *Li-----------------------*      

Positions:
   0 O     -1.360678   -2.541161   -1.202221    ( 0.0000,  0.0000,  0.0000)
   1 O     -3.121941    2.976855    1.167242    ( 0.0000,  0.0000,  0.0000)
   2 O      2.107533    0.508090    1.540712    ( 0.0000,  0.0000,  0.0000)
   3 O      3.869373   -0.072395   -0.828750    ( 0.0000,  0.0000,  0.0000)
   4 O      2.107821    2.976875    1.540792    ( 0.0000,  0.0000,  0.0000)
   5 O      3.869084   -2.541141   -0.828671    ( 0.0000,  0.0000,  0.0000)
   6 O     -1.360390   -0.072375   -1.202141    ( 0.0000,  0.0000,  0.0000)
   7 O     -3.122230    0.508109    1.177321    ( 0.0000,  0.0000,  0.0000)
   8 O     -4.413461   -1.306992   -0.794251    ( 0.0000,  0.0000,  0.0000)
   9 O     -0.069585    1.742707    1.575662    ( 0.0000,  0.0000,  0.0000)
  10 O      5.160604    1.742707    1.132822    ( 0.0000,  0.0000,  0.0000)
  11 O      0.816728   -1.306992   -1.237091    ( 0.0000,  0.0000,  0.0000)
  12 Mn    -2.570809   -1.307302    0.247161    ( 0.0000,  0.0000,  1.0000)
  13 Mn    -1.912021    1.743016   -2.122906    ( 0.0000,  0.0000, -1.0000)
  14 Mn     3.317952    1.743017    0.091411    ( 0.0000,  0.0000, -1.0000)
  15 Mn     2.659164   -1.307302    2.461478    ( 0.0000,  0.0000,  1.0000)
  16 P     -0.620664   -1.306816   -1.828465    ( 0.0000,  0.0000,  0.0000)
  17 P     -3.862097    1.742530    0.541238    ( 0.0000,  0.0000,  0.0000)
  18 P      1.367807    1.742530    2.167036    ( 0.0000,  0.0000,  0.0000)
  19 P      4.609240   -1.306816   -0.202666    ( 0.0000,  0.0000,  0.0000)
  20 O     -0.646437   -1.306845    1.374751    ( 0.0000,  0.0000,  0.0000)
  21 O     -3.836504    1.742559   -0.995565    ( 0.0000,  0.0000,  0.0000)
  22 O      1.393580    1.742559   -1.036179    ( 0.0000,  0.0000,  0.0000)
  23 O      4.583647   -1.306845    1.334136    ( 0.0000,  0.0000,  0.0000)
  24 Li    -4.856429   -2.832143   -2.200714    ( 0.0000,  0.0000,  0.0000)
  25 Li     0.373571   -2.832143    0.169286    ( 0.0000,  0.0000,  0.0000)
  26 Li    -4.856429    0.217857   -2.200714    ( 0.0000,  0.0000,  0.0000)
  27 Li     0.373571    0.217857    0.169286    ( 0.0000,  0.0000,  0.0000)

Unit cell:
           periodic     x           y           z      points  spacing
  1. axis:    yes   10.460000    0.000000    0.000000    60     0.1743
  2. axis:    yes    0.000000    6.100000    0.000000    35     0.1743
  3. axis:    yes    0.000000    0.000000    4.740000    27     0.1756

  Lengths:  10.460000   6.100000   4.740000
  Angles:   90.000000  90.000000  90.000000

Effective grid spacing dv^(1/3) = 0.1747

                     log10-error:           total        iterations:
           time      wfs    density  force  energy       poisson  magmom
iter:   1  22:01:51                       -231.921428             +0.0000
iter:   2  22:02:31  -0.55  -0.94         -231.723316             +0.0052
iter:   3  22:03:10  -0.72  -0.98         -220.579214             +0.0066
iter:   4  22:03:50  -0.96  -1.20         -218.855644             +0.0022
iter:   5  22:04:29  -1.94  -1.36         -220.909199             +0.0014
iter:   6  22:05:08  -1.89  -1.53         -219.767530             +0.1446
iter:   7  22:05:48  -2.21  -1.64         -221.930534             -0.2754
iter:   8  22:06:27  -2.61  -1.90         -219.289918             -0.3270
iter:   9  22:07:06  -2.30  -1.94         -222.480184             -1.5869
iter:  10  22:07:45  -2.28  -1.90         -225.594067             -2.2371
iter:  11  22:08:25  -2.73  -1.87         -226.565742             -1.5547
iter:  12  22:09:04  -3.34  -1.84         -226.325870             -1.8547
iter:  13  22:09:43  -2.77  -1.84         -227.385056             -0.2069
iter:  14  22:10:23  -2.60  -1.83         -227.017056             -0.0368
iter:  15  22:11:02  -1.45  -1.86         -229.337655             -0.0232
iter:  16  22:11:41  -2.77  -1.79         -228.951980             -0.0112
iter:  17  22:12:20  -2.06  -1.80         -226.330027             +0.0686
iter:  18  22:13:00  -1.83  -1.95         -226.368568             +0.0178
iter:  19  22:13:39  -2.69  -2.31         -226.300806             +0.0047
iter:  20  22:14:18  -3.22  -2.38         -226.278893             +0.0002
iter:  21  22:14:57  -2.95  -2.44         -226.254446             +0.0002
iter:  22  22:15:37  -3.81  -2.65         -226.262601             +0.0001
iter:  23  22:16:16  -4.25  -2.62         -226.248799             +0.0000
iter:  24  22:16:55  -3.90  -2.62         -226.243772             +0.0000
iter:  25  22:17:34  -3.46  -2.69         -226.242942             +0.0000
iter:  26  22:18:14  -3.76  -2.80         -226.233543             +0.0000
iter:  27  22:18:53  -4.60  -2.86         -226.232194             +0.0000
iter:  28  22:19:32  -4.08  -2.99         -226.232072             -0.0000
iter:  29  22:20:11  -5.29  -3.20         -226.230475             -0.0000
iter:  30  22:20:51  -4.51  -3.25         -226.228443             +0.0000
iter:  31  22:21:30  -5.29  -3.45         -226.228391             -0.0000
iter:  32  22:22:09  -5.66  -3.48         -226.227972             -0.0000
iter:  33  22:22:49  -5.60  -3.55         -226.227719             -0.0000
iter:  34  22:23:28  -5.11  -3.61         -226.227530             -0.0000
iter:  35  22:24:07  -5.21  -3.79         -226.227609             -0.0000
iter:  36  22:24:47  -6.21  -3.91         -226.227568             +0.0000
iter:  37  22:25:26  -6.54  -4.01         -226.227549             +0.0000
iter:  38  22:26:05  -6.49  -4.08         -226.227530             -0.0000
iter:  39  22:26:44  -6.74  -4.36         -226.227515             -0.0000
iter:  40  22:27:24  -6.67  -4.45         -226.227504             -0.0000
iter:  41  22:28:03  -7.11  -4.55         -226.227503             -0.0000
iter:  42  22:28:53  -8.26  -4.70         -226.227503             -0.0000
iter:  43  22:29:32  -7.25  -4.72         -226.227503             -0.0000
iter:  44  22:30:22  -7.84  -4.85    -2.88-226.227503             +0.0000
iter:  45  22:31:12  -7.96  -4.99    -2.97-226.227503             +0.0000
iter:  46  22:32:02  -8.79  -5.01    -3.39-226.227503             +0.0000
iter:  47  22:32:51  -7.79  -5.05    -2.63-226.227502             +0.0000
iter:  48  22:33:41  -8.99  -5.37    -3.45-226.227502             +0.0000
iter:  49  22:34:31  -9.83  -5.44    -3.76-226.227502             +0.0000
iter:  50  22:35:21  -9.05  -5.52    -3.55-226.227502             +0.0000
iter:  51  22:36:11  -9.22  -5.62    -3.35-226.227502             +0.0000
iter:  52  22:37:01  -9.95  -5.70    -3.53-226.227502             +0.0000
iter:  53  22:37:51  -9.94  -6.03    -4.00-226.227502             +0.0000
iter:  54  22:38:41 -10.09  -6.14    -4.09-226.227502             +0.0000
iter:  55  22:39:31 -10.90  -6.49    -4.64-226.227502             +0.0000
iter:  56  22:40:21 -10.81  -6.55    -4.29-226.227502             +0.0000
iter:  57  22:41:11 -11.36  -6.62    -4.45-226.227502             +0.0000
iter:  58  22:42:01 -11.75  -6.74    -4.85-226.227502             +0.0000
iter:  59  22:42:51 -12.79  -6.82    -5.38-226.227502             +0.0000
iter:  60  22:43:40 -11.50  -6.87    -4.78-226.227502             +0.0000
iter:  61  22:44:30 -12.95  -7.18    -5.29-226.227502             +0.0000
iter:  62  22:45:20 -13.01  -7.25    -5.23-226.227502             +0.0000
iter:  63  22:46:10 -12.20  -7.34    -5.17-226.227502             +0.0000
iter:  64  22:47:00 -12.76  -7.33    -5.22-226.227502             +0.0000
iter:  65  22:47:50 -13.28  -7.43    -5.80-226.227502             +0.0000
iter:  66  22:48:40 -13.09  -7.47    -5.21-226.227502             +0.0000
iter:  67  22:49:30 -12.94  -7.68    -5.48-226.227502             +0.0000
iter:  68  22:50:20 -14.36  -7.84    -6.08-226.227502             +0.0000

Converged after 68 iterations.

Dipole moment: (10.670721, 1.410365, -6.266767) |e|*Ang

Total magnetic moment: (0.000000, 0.000000, 0.000000)
Local magnetic moments:
   0 O  ( 0.000000,  0.000000, -0.000386)
   1 O  ( 0.000000,  0.000000,  0.000527)
   2 O  ( 0.000000,  0.000000,  0.000534)
   3 O  ( 0.000000,  0.000000, -0.000564)
   4 O  ( 0.000000,  0.000000,  0.000510)
   5 O  ( 0.000000,  0.000000, -0.000547)
   6 O  ( 0.000000,  0.000000, -0.000583)
   7 O  ( 0.000000,  0.000000,  0.000271)
   8 O  ( 0.000000,  0.000000,  0.028640)
   9 O  ( 0.000000,  0.000000, -0.028712)
  10 O  ( 0.000000,  0.000000, -0.028771)
  11 O  ( 0.000000,  0.000000,  0.028709)
  12 Mn ( 0.000000,  0.000000,  4.448496)
  13 Mn ( 0.000000,  0.000000, -4.447800)
  14 Mn ( 0.000000,  0.000000, -4.448169)
  15 Mn ( 0.000000,  0.000000,  4.448232)
  16 P  ( 0.000000,  0.000000,  0.001551)
  17 P  ( 0.000000,  0.000000, -0.001713)
  18 P  ( 0.000000,  0.000000, -0.001569)
  19 P  ( 0.000000,  0.000000,  0.001536)
  20 O  ( 0.000000,  0.000000,  0.025300)
  21 O  ( 0.000000,  0.000000, -0.025285)
  22 O  ( 0.000000,  0.000000, -0.025318)
  23 O  ( 0.000000,  0.000000,  0.025298)
  24 Li ( 0.000000,  0.000000, -0.000000)
  25 Li ( 0.000000,  0.000000, -0.000001)
  26 Li ( 0.000000,  0.000000, -0.000006)
  27 Li ( 0.000000,  0.000000,  0.000001)

Energy contributions relative to reference atoms: (reference = -196157.275402)

Kinetic:       +217.106775
Potential:     -195.049550
External:        +0.000000
XC:            -250.326471
Entropy (-ST):   -0.000000
Local:           +2.041744
--------------------------
Free energy:   -226.227502
Extrapolated:  -226.227502

Spin contamination: 9.560292 electrons
Showing only first 2 kpts
                      Up                     Down
 Kpt  Band  Eigenvalues  Occupancy  Eigenvalues  Occupancy
  0    88      5.10827    0.00694      5.11262    0.00694
  0    89      5.13289    0.00694      5.13629    0.00694
  0    90      7.29072    0.00000      7.28890    0.00000
  0    91      7.30929    0.00000      7.30654    0.00000

  1    88      5.13423    0.00694      5.13827    0.00694
  1    89      5.16351    0.00694      5.16719    0.00694
  1    90      7.23302    0.00000      7.23159    0.00000
  1    91      7.24628    0.00000      7.24383    0.00000


Fermi level: 5.99296

Gap: 1.970 eV
Transition (v -> c):
  (s=1, k=73, n=89, [0.08, -0.42, -0.12]) -> (s=1, k=85, n=90, [0.08, 0.08, -0.12])
Writing to born-0.01-7z+.gpw (mode='all')

Timing:                              incl.     excl.
-----------------------------------------------------------
Hamiltonian:                         0.414     0.002   0.0% |
 Atomic:                             0.054     0.054   0.0% |
  XC Correction:                     0.000     0.000   0.0% |
 Calculate atomic Hamiltonians:      0.181     0.181   0.0% |
 Communicate:                        0.002     0.002   0.0% |
 Initialize Hamiltonian:             0.000     0.000   0.0% |
 Poisson:                            0.001     0.001   0.0% |
 XC 3D grid:                         0.173     0.173   0.0% |
LCAO initialization:               135.514     0.677   0.0% |
 LCAO eigensolver:                  34.120     0.002   0.0% |
  Calculate projections:             0.057     0.057   0.0% |
  DenseAtomicCorrection:             0.083     0.083   0.0% |
  Distribute overlap matrix:         0.126     0.126   0.0% |
  Orbital Layouts:                   0.363     0.363   0.0% |
  Potential matrix:                 33.389    33.389   0.4% |
  Sum over cells:                    0.101     0.101   0.0% |
 LCAO to grid:                      98.446    98.446   1.3% ||
 Set positions (LCAO WFS):           2.272     0.345   0.0% |
  Basic WFS set positions:           0.001     0.001   0.0% |
  Basis functions set positions:     0.000     0.000   0.0% |
  P tci:                             1.056     1.056   0.0% |
  ST tci:                            0.660     0.660   0.0% |
  mktci:                             0.209     0.209   0.0% |
PWDescriptor:                        0.025     0.025   0.0% |
SCF-cycle:                        2950.904     4.519   0.1% |
 Davidson:                        2536.989   828.295  10.5% |---|
  Apply H:                         177.692   171.792   2.2% ||
   HMM T:                            5.900     5.900   0.1% |
  Subspace diag:                   374.428     0.220   0.0% |
   calc_h_matrix:                  242.279    67.309   0.9% |
    Apply H:                       174.970   169.344   2.2% ||
     HMM T:                          5.626     5.626   0.1% |
   diagonalize:                      8.334     8.334   0.1% |
   rotate_psi:                     123.595   123.595   1.6% ||
  calc. matrices:                  792.218   449.837   5.7% |-|
   Apply H:                        342.381   331.936   4.2% |-|
    HMM T:                          10.445    10.445   0.1% |
  diagonalize:                     113.332   113.332   1.4% ||
  rotate_psi:                      251.024   251.024   3.2% ||
 Density:                          100.665     0.002   0.0% |
  Atomic density matrices:           1.770     1.770   0.0% |
  Mix:                              16.486    16.486   0.2% |
  Multipole moments:                 0.040     0.040   0.0% |
  Pseudo density:                   82.367    82.364   1.0% |
   Symmetrize density:               0.002     0.002   0.0% |
 Forces:                           275.985   275.985   3.5% ||
 Hamiltonian:                       28.334     0.161   0.0% |
  Atomic:                            3.669     3.668   0.0% |
   XC Correction:                    0.000     0.000   0.0% |
  Calculate atomic Hamiltonians:    12.287    12.287   0.2% |
  Communicate:                       0.126     0.126   0.0% |
  Poisson:                           0.113     0.113   0.0% |
  XC 3D grid:                       11.978    11.978   0.2% |
 Orthonormalize:                     4.412     0.004   0.0% |
  calc_s_matrix:                     0.524     0.524   0.0% |
  inverse-cholesky:                  0.056     0.056   0.0% |
  projections:                       2.895     2.895   0.0% |
  rotate_psi_s:                      0.933     0.933   0.0% |
Set symmetry:                        0.000     0.000   0.0% |
Other:                            4776.325  4776.325  60.7% |-----------------------|
-----------------------------------------------------------
Total:                                      7863.183 100.0%

Memory usage: 13.18 GiB
Date: Tue Mar 23 00:09:54 2021
