
  ___ ___ ___ _ _ _  
 |   |   |_  | | | | 
 | | | | | . | | | | 
 |__ |  _|___|_____|  21.1.1b1
 |___|_|             

User:   madkru@g043.nifl.fysik.dtu.dk
Date:   Tue Mar 30 11:03:37 2021
Arch:   x86_64
Pid:    39387
Python: 3.8.6
gpaw:   /home/niflheim/madkru/venv_madkru/gpaw/gpaw (e6f0d78a31)
_gpaw:  /home/niflheim/madkru/venv_madkru/gpaw/build/lib.linux-x86_64-sandybridge-3.8/
        _gpaw.cpython-38-x86_64-linux-gnu.so (e6f0d78a31)
ase:    /home/niflheim/madkru/venv_madkru/ase/ase (version 3.22.0b1-4d5a73cb29)
numpy:  /home/modules/software/SciPy-bundle/2020.11-foss-2020b/lib/python3.8/site-packages/numpy (version 1.19.4)
scipy:  /home/modules/software/SciPy-bundle/2020.11-foss-2020b/lib/python3.8/site-packages/scipy (version 1.5.4)
libxc:  4.3.4
units:  Angstrom and eV
cores: 64
OpenMP: False
OMP_NUM_THREADS: 1

Input parameters:
  convergence: {bands: occupied,
                density: 0.0001,
                eigenstates: 4e-08,
                energy: 0.0005,
                forces: 1e-06}
  kpts: [6 6 4]
  maxiter: 1000
  mode: {ecut: 600.0,
         gammacentered: False,
         name: pw}
  occupations: {fixmagmom: False,
                name: fermi-dirac,
                width: 0.001}
  symmetry: {point_group: False,
             time_reversal: False}

System changes: positions, numbers, cell, pbc, initial_charges, initial_magmoms 

Initialize ...

O-setup:
  name: Oxygen
  id: 9b9d51c344dea68c822856295a461509
  Z: 8.0
  valence: 6
  core: 2
  charge: 0.0
  file: /home/modules/software/GPAW-setups/0.9.20000/O.LDA.gz
  compensation charges: gauss, rc=0.21, lmax=2
  cutoffs: 1.17(filt), 0.83(core),
  valence states:
                energy  radius
    2s(2.00)   -23.752   0.688
    2p(4.00)    -9.195   0.598
    *s           3.459   0.688
    *p          18.016   0.598
    *d           0.000   0.619

  Using partial waves for O as LCAO basis

Mn-setup:
  name: Manganese
  id: 0d715a8018be061a6e9ea6f2d364ac92
  Z: 25.0
  valence: 15
  core: 10
  charge: 0.0
  file: /home/modules/software/GPAW-setups/0.9.20000/Mn.LDA.gz
  compensation charges: gauss, rc=0.38, lmax=2
  cutoffs: 2.14(filt), 0.86(core),
  valence states:
                energy  radius
    3s(2.00)   -85.387   1.275
    4s(2.00)    -5.282   1.275
    3p(6.00)   -54.493   1.281
    4p(0.00)    -1.471   1.281
    3d(5.00)    -7.009   1.138
    *d          20.203   1.138

  Using partial waves for Mn as LCAO basis

P-setup:
  name: Phosphorus
  id: a5561c299094968922a179ab894d2e2d
  Z: 15.0
  valence: 5
  core: 10
  charge: 0.0
  file: /home/modules/software/GPAW-setups/0.9.20000/P.LDA.gz
  compensation charges: gauss, rc=0.30, lmax=2
  cutoffs: 1.69(filt), 1.81(core),
  valence states:
                energy  radius
    3s(2.00)   -14.015   0.953
    3p(3.00)    -5.596   0.953
    *s          13.197   0.953
    *p          21.615   0.953
    *d           0.000   0.953

  Using partial waves for P as LCAO basis

Li-setup:
  name: Lithium
  id: b73562207f97a71b6967473b66fe8b65
  Z: 3.0
  valence: 1
  core: 2
  charge: 0.0
  file: /home/modules/software/GPAW-setups/0.9.20000/Li.LDA.gz
  compensation charges: gauss, rc=0.33, lmax=2
  cutoffs: 1.91(filt), 2.55(core),
  valence states:
                energy  radius
    2s(1.00)    -2.874   1.058
    2p(0.00)    -1.126   1.058
    *s          24.338   1.058

  Using partial waves for Li as LCAO basis

Reference energy: -196157.275402

Spin-polarized calculation.
Magnetic moment: 0.000000

Convergence criteria:
  Maximum total energy change: 0.0005 eV / electron
  Maximum integral of absolute density change: 0.0001 electrons
  Maximum integral of absolute eigenstate change: 4e-08 eV^2
  Maximum change in atomic force: 1e-06 eV / Ang
  Maximum number of iterations: 1000

Symmetries present (total): 1

  ( 1  0  0)
  ( 0  1  0)
  ( 0  0  1)

144 k-points: 6 x 6 x 4 Monkhorst-Pack grid
144 k-points in the irreducible part of the Brillouin zone
       k-points in crystal coordinates                weights
   0:    -0.41666667   -0.41666667   -0.37500000          1/144
   1:    -0.41666667   -0.41666667   -0.12500000          1/144
   2:    -0.41666667   -0.41666667    0.12500000          1/144
   3:    -0.41666667   -0.41666667    0.37500000          1/144
   4:    -0.41666667   -0.25000000   -0.37500000          1/144
   5:    -0.41666667   -0.25000000   -0.12500000          1/144
   6:    -0.41666667   -0.25000000    0.12500000          1/144
   7:    -0.41666667   -0.25000000    0.37500000          1/144
   8:    -0.41666667   -0.08333333   -0.37500000          1/144
   9:    -0.41666667   -0.08333333   -0.12500000          1/144
          ...
 143:     0.41666667    0.41666667    0.37500000          1/144

Wave functions: Plane wave expansion
  Cutoff energy: 600.000 eV
  Number of coefficients (min, max): 10068, 10125
  Pulay-stress correction: 0.000000 eV/Ang^3 (de/decut=0.000000)
  Using FFTW library
  ScaLapack parameters: grid=1x1, blocksize=None
  Wavefunction extrapolation:
    Improved wavefunction reuse through dual PAW basis 

  Fermi-Dirac: width=0.0010 eV

Eigensolver
   Davidson(niter=2) 

Densities:
  Coarse grid: 60*35*27 grid
  Fine grid: 120*70*54 grid
  Total Charge: 0.000000 

Density mixing:
  Method: difference
  Backend: pulay
  Linear mixing parameter: 0.05
  Mixing with 5 old densities
  Damping of long wave oscillations: 50 

Hamiltonian:
  XC and Coulomb potentials evaluated on a 120*70*54 grid
  Using the LDA Exchange-Correlation functional
 

Memory estimate:
  Process memory now: 12588.66 MiB
  Calculator: 354.82 MiB
    Density: 10.06 MiB
      Arrays: 3.79 MiB
      Localized functions: 4.71 MiB
      Mixer: 1.56 MiB
    Hamiltonian: 2.95 MiB
      Arrays: 2.82 MiB
      XC: 0.00 MiB
      Poisson: 0.00 MiB
      vbar: 0.14 MiB
    Wavefunctions: 341.80 MiB
      Arrays psit_nG: 311.46 MiB
      Eigensolver: 19.99 MiB
      Projections: 2.71 MiB
      Projectors: 4.87 MiB
      PW-descriptor: 2.77 MiB

Total number of cores used: 64
Parallelization over k-points: 16
Domain decomposition: 2 x 2 x 1

Number of atoms: 28
Number of atomic orbitals: 148
Number of bands in calculation: 112
Number of valence electrons: 180
Bands to converge: occupied

... initialized

Initializing position-dependent things.

Density initialized from atomic densities
Creating initial wave functions:
  112 bands from LCAO basis set

     .-------------------------.  
    /|         OP              |  
   / |O            O        O  |  
  /  |       O            O  P |  
 *   |O    Mn      O           |  
 |   |          OLi          O |  
 |   .P-O--------------Mn------.  
 |  /          Li    O  Mn  O /   
 | /Li O           PO        /    
 |/       Mn                /     
 *Li-----------------------*      

Positions:
   0 O     -1.360678   -2.541161   -1.202221    ( 0.0000,  0.0000,  0.0000)
   1 O     -3.121941    2.976855    1.167242    ( 0.0000,  0.0000,  0.0000)
   2 O      2.107533    0.508090    1.540712    ( 0.0000,  0.0000,  0.0000)
   3 O      3.869373   -0.072395   -0.828750    ( 0.0000,  0.0000,  0.0000)
   4 O      2.107821    2.976875    1.540792    ( 0.0000,  0.0000,  0.0000)
   5 O      3.869084   -2.541141   -0.828671    ( 0.0000,  0.0000,  0.0000)
   6 O     -1.360390   -0.072375   -1.202141    ( 0.0000,  0.0000,  0.0000)
   7 O     -3.122230    0.508109    1.167321    ( 0.0000,  0.0000,  0.0000)
   8 O     -4.413461   -1.306992   -0.794251    ( 0.0000,  0.0000,  0.0000)
   9 O     -0.069585    1.742707    1.575662    ( 0.0000,  0.0000,  0.0000)
  10 O      5.160604    1.742707    1.132822    ( 0.0000,  0.0000,  0.0000)
  11 O      0.826728   -1.306992   -1.237091    ( 0.0000,  0.0000,  0.0000)
  12 Mn    -2.570809   -1.307302    0.247161    ( 0.0000,  0.0000,  1.0000)
  13 Mn    -1.912021    1.743016   -2.122906    ( 0.0000,  0.0000, -1.0000)
  14 Mn     3.317952    1.743017    0.091411    ( 0.0000,  0.0000, -1.0000)
  15 Mn     2.659164   -1.307302    2.461478    ( 0.0000,  0.0000,  1.0000)
  16 P     -0.620664   -1.306816   -1.828465    ( 0.0000,  0.0000,  0.0000)
  17 P     -3.862097    1.742530    0.541238    ( 0.0000,  0.0000,  0.0000)
  18 P      1.367807    1.742530    2.167036    ( 0.0000,  0.0000,  0.0000)
  19 P      4.609240   -1.306816   -0.202666    ( 0.0000,  0.0000,  0.0000)
  20 O     -0.646437   -1.306845    1.374751    ( 0.0000,  0.0000,  0.0000)
  21 O     -3.836504    1.742559   -0.995565    ( 0.0000,  0.0000,  0.0000)
  22 O      1.393580    1.742559   -1.036179    ( 0.0000,  0.0000,  0.0000)
  23 O      4.583647   -1.306845    1.334136    ( 0.0000,  0.0000,  0.0000)
  24 Li    -4.856429   -2.832143   -2.200714    ( 0.0000,  0.0000,  0.0000)
  25 Li     0.373571   -2.832143    0.169286    ( 0.0000,  0.0000,  0.0000)
  26 Li    -4.856429    0.217857   -2.200714    ( 0.0000,  0.0000,  0.0000)
  27 Li     0.373571    0.217857    0.169286    ( 0.0000,  0.0000,  0.0000)

Unit cell:
           periodic     x           y           z      points  spacing
  1. axis:    yes   10.460000    0.000000    0.000000    60     0.1743
  2. axis:    yes    0.000000    6.100000    0.000000    35     0.1743
  3. axis:    yes    0.000000    0.000000    4.740000    27     0.1756

  Lengths:  10.460000   6.100000   4.740000
  Angles:   90.000000  90.000000  90.000000

Effective grid spacing dv^(1/3) = 0.1747

                     log10-error:           total        iterations:
           time      wfs    density  force  energy       poisson  magmom
iter:   1  11:05:12                       -231.917030             +0.0000
iter:   2  11:05:33  -0.55  -0.94         -231.714611             +0.0097
iter:   3  11:05:55  -0.72  -0.98         -220.594506             +0.0121
iter:   4  11:06:16  -0.95  -1.20         -218.884322             +0.0040
iter:   5  11:06:37  -1.93  -1.36         -221.887885             +0.0026
iter:   6  11:06:59  -1.99  -1.46         -220.957508             +0.0012
iter:   7  11:07:20  -2.25  -1.67         -224.591073             +0.0007
iter:   8  11:07:41  -1.88  -1.88         -226.724230             +0.0002
iter:   9  11:08:02  -2.26  -1.86         -228.075879             +0.0000
iter:  10  11:08:23  -2.04  -1.75         -226.846261             -0.0000
iter:  11  11:08:45  -1.64  -1.95         -226.481370             -0.0000
iter:  12  11:09:06  -2.98  -2.27         -226.347365             -0.0000
iter:  13  11:09:27  -2.46  -2.33         -226.332858             +0.0000
iter:  14  11:09:48  -3.01  -2.41         -226.295977             +0.0000
iter:  15  11:10:09  -2.89  -2.54         -226.233039             -0.0000
iter:  16  11:10:31  -3.59  -2.92         -226.233204             +0.0000
iter:  17  11:10:52  -3.91  -3.00         -226.226567             -0.0000
iter:  18  11:11:13  -4.38  -3.18         -226.227262             -0.0000
iter:  19  11:11:34  -4.38  -3.24         -226.226473             -0.0000
iter:  20  11:11:56  -5.56  -3.50         -226.226267             -0.0000
iter:  21  11:12:17  -5.43  -3.89         -226.226183             -0.0000
iter:  22  11:12:38  -6.72  -4.00         -226.226181             -0.0000
iter:  23  11:12:59  -6.33  -4.06         -226.226160             -0.0000
iter:  24  11:13:21  -6.85  -4.29         -226.226158             -0.0000
iter:  25  11:13:42  -7.27  -4.36         -226.226153             -0.0000
iter:  26  11:14:03  -7.30  -4.41         -226.226149             -0.0000
iter:  27  11:14:30  -7.50  -4.70         -226.226147             -0.0000
iter:  28  11:14:56  -7.62  -4.87    -2.79-226.226146             -0.0000
iter:  29  11:15:23  -8.09  -4.99    -2.88-226.226146             -0.0000
iter:  30  11:15:50  -9.10  -5.26    -3.79-226.226146             -0.0000
iter:  31  11:16:17  -8.77  -5.31    -3.60-226.226146             -0.0000
iter:  32  11:16:43  -9.23  -5.40    -3.42-226.226146             -0.0000
iter:  33  11:17:10  -8.86  -5.56    -3.31-226.226146             -0.0000
iter:  34  11:17:37  -9.99  -5.77    -4.02-226.226146             -0.0000
iter:  35  11:18:03  -9.23  -5.81    -3.35-226.226146             -0.0000
iter:  36  11:18:30  -9.64  -6.00    -3.65-226.226146             -0.0000
iter:  37  11:18:57 -10.76  -6.32    -4.47-226.226146             -0.0000
iter:  38  11:19:23 -10.95  -6.36    -4.17-226.226146             -0.0000
iter:  39  11:19:50 -10.56  -6.46    -4.09-226.226146             -0.0000
iter:  40  11:20:17 -10.62  -6.44    -4.22-226.226146             -0.0000
iter:  41  11:20:43 -11.38  -6.63    -4.49-226.226146             -0.0000
iter:  42  11:21:10 -11.66  -6.69    -4.76-226.226146             -0.0000
iter:  43  11:21:37 -11.96  -6.76    -4.86-226.226146             -0.0000
iter:  44  11:22:04 -12.27  -6.85    -4.77-226.226146             -0.0000
iter:  45  11:22:30 -12.82  -6.89    -5.02-226.226146             -0.0000
iter:  46  11:22:57 -12.55  -6.94    -4.92-226.226146             -0.0000
iter:  47  11:23:24 -13.48  -7.00    -5.67-226.226146             -0.0000
iter:  48  11:23:50 -12.08  -7.03    -4.86-226.226146             -0.0000
iter:  49  11:24:17 -13.33  -7.24    -5.37-226.226146             -0.0000
iter:  50  11:24:44 -12.34  -7.29    -5.04-226.226146             -0.0000
iter:  51  11:25:10 -12.95  -7.40    -5.26-226.226146             -0.0000
iter:  52  11:25:37 -12.80  -7.46    -5.14-226.226146             -0.0000
iter:  53  11:26:04 -13.11  -7.60    -5.34-226.226146             -0.0000
iter:  54  11:26:31 -14.03  -7.80    -5.86-226.226146             -0.0000
iter:  55  11:26:57 -14.25  -7.92    -5.94-226.226146             -0.0000
iter:  56  11:27:24 -14.31  -8.03    -5.90-226.226146             -0.0000
iter:  57  11:27:51 -14.69  -8.14    -6.09-226.226146             -0.0000

Converged after 57 iterations.

Dipole moment: (10.752703, 1.410696, -6.269238) |e|*Ang

Total magnetic moment: (0.000000, 0.000000, -0.000000)
Local magnetic moments:
   0 O  ( 0.000000,  0.000000, -0.000432)
   1 O  ( 0.000000,  0.000000,  0.000537)
   2 O  ( 0.000000,  0.000000,  0.000552)
   3 O  ( 0.000000,  0.000000, -0.000576)
   4 O  ( 0.000000,  0.000000,  0.000532)
   5 O  ( 0.000000,  0.000000, -0.000556)
   6 O  ( 0.000000,  0.000000, -0.000452)
   7 O  ( 0.000000,  0.000000,  0.000557)
   8 O  ( 0.000000,  0.000000,  0.028779)
   9 O  ( 0.000000,  0.000000, -0.028779)
  10 O  ( 0.000000,  0.000000, -0.028613)
  11 O  ( 0.000000,  0.000000,  0.029078)
  12 Mn ( 0.000000,  0.000000,  4.448177)
  13 Mn ( 0.000000,  0.000000, -4.448231)
  14 Mn ( 0.000000,  0.000000, -4.448081)
  15 Mn ( 0.000000,  0.000000,  4.447073)
  16 P  ( 0.000000,  0.000000,  0.001752)
  17 P  ( 0.000000,  0.000000, -0.001558)
  18 P  ( 0.000000,  0.000000, -0.001523)
  19 P  ( 0.000000,  0.000000,  0.001541)
  20 O  ( 0.000000,  0.000000,  0.025277)
  21 O  ( 0.000000,  0.000000, -0.025305)
  22 O  ( 0.000000,  0.000000, -0.025312)
  23 O  ( 0.000000,  0.000000,  0.025115)
  24 Li ( 0.000000,  0.000000,  0.000001)
  25 Li ( 0.000000,  0.000000,  0.000024)
  26 Li ( 0.000000,  0.000000,  0.000001)
  27 Li ( 0.000000,  0.000000,  0.000024)

Energy contributions relative to reference atoms: (reference = -196157.275402)

Kinetic:       +216.755504
Potential:     -194.774131
External:        +0.000000
XC:            -250.249833
Entropy (-ST):   -0.000000
Local:           +2.042313
--------------------------
Free energy:   -226.226146
Extrapolated:  -226.226146

Spin contamination: 9.560275 electrons
Showing only first 2 kpts
                      Up                     Down
 Kpt  Band  Eigenvalues  Occupancy  Eigenvalues  Occupancy
  0    88      5.11022    1.00000      5.10599    1.00000
  0    89      5.15527    1.00000      5.13688    1.00000
  0    90      7.28520    0.00000      7.28431    0.00000
  0    91      7.30831    0.00000      7.31856    0.00000

  1    88      5.13744    1.00000      5.13203    1.00000
  1    89      5.18518    1.00000      5.16704    1.00000
  1    90      7.22706    0.00000      7.22576    0.00000
  1    91      7.24677    0.00000      7.25791    0.00000


Fermi level: 6.44088

Gap: 1.954 eV
Transition (v -> c):
  (s=0, k=70, n=89, [-0.08, 0.42, 0.12]) -> (s=0, k=58, n=90, [-0.08, -0.08, 0.12])
Writing to born-0.01-11x+.gpw (mode='all')

Timing:                              incl.     excl.
-----------------------------------------------------------
Hamiltonian:                         0.266     0.002   0.0% |
 Atomic:                             0.079     0.079   0.0% |
  XC Correction:                     0.000     0.000   0.0% |
 Calculate atomic Hamiltonians:      0.091     0.091   0.0% |
 Communicate:                        0.000     0.000   0.0% |
 Initialize Hamiltonian:             0.000     0.000   0.0% |
 Poisson:                            0.001     0.001   0.0% |
 XC 3D grid:                         0.093     0.093   0.0% |
LCAO initialization:                69.914     0.706   0.0% |
 LCAO eigensolver:                  17.894     0.002   0.0% |
  Calculate projections:             0.029     0.029   0.0% |
  DenseAtomicCorrection:             0.043     0.043   0.0% |
  Distribute overlap matrix:         0.005     0.005   0.0% |
  Orbital Layouts:                   0.277     0.277   0.0% |
  Potential matrix:                 17.454    17.454   0.5% |
  Sum over cells:                    0.084     0.084   0.0% |
 LCAO to grid:                      50.029    50.029   1.4% ||
 Set positions (LCAO WFS):           1.285     0.182   0.0% |
  Basic WFS set positions:           0.001     0.001   0.0% |
  Basis functions set positions:     0.000     0.000   0.0% |
  P tci:                             0.517     0.517   0.0% |
  ST tci:                            0.371     0.371   0.0% |
  mktci:                             0.213     0.213   0.0% |
PWDescriptor:                        0.025     0.025   0.0% |
SCF-cycle:                        1382.608     5.907   0.2% |
 Davidson:                        1144.618   367.145  10.3% |---|
  Apply H:                          76.231    73.845   2.1% ||
   HMM T:                            2.386     2.386   0.1% |
  Subspace diag:                   163.921     0.167   0.0% |
   calc_h_matrix:                  104.291    28.630   0.8% |
    Apply H:                        75.662    73.373   2.1% ||
     HMM T:                          2.289     2.289   0.1% |
   diagonalize:                      5.854     5.854   0.2% |
   rotate_psi:                      53.609    53.609   1.5% ||
  calc. matrices:                  342.278   191.158   5.4% |-|
   Apply H:                        151.120   146.461   4.1% |-|
    HMM T:                           4.659     4.659   0.1% |
  diagonalize:                      88.104    88.104   2.5% ||
  rotate_psi:                      106.939   106.939   3.0% ||
 Density:                           45.562     0.001   0.0% |
  Atomic density matrices:           0.742     0.742   0.0% |
  Mix:                               7.906     7.906   0.2% |
  Multipole moments:                 0.020     0.020   0.0% |
  Pseudo density:                   36.892    36.891   1.0% |
   Symmetrize density:               0.002     0.002   0.0% |
 Forces:                           170.324   170.324   4.8% |-|
 Hamiltonian:                       13.899     0.118   0.0% |
  Atomic:                            3.160     3.159   0.1% |
   XC Correction:                    0.000     0.000   0.0% |
  Calculate atomic Hamiltonians:     5.350     5.350   0.2% |
  Communicate:                       0.009     0.009   0.0% |
  Poisson:                           0.051     0.051   0.0% |
  XC 3D grid:                        5.210     5.210   0.1% |
 Orthonormalize:                     2.297     0.003   0.0% |
  calc_s_matrix:                     0.267     0.267   0.0% |
  inverse-cholesky:                  0.039     0.039   0.0% |
  projections:                       1.497     1.497   0.0% |
  rotate_psi_s:                      0.490     0.490   0.0% |
Set symmetry:                        0.000     0.000   0.0% |
Other:                            2103.737  2103.737  59.2% |-----------------------|
-----------------------------------------------------------
Total:                                      3556.550 100.0%

Memory usage: 12.30 GiB
Date: Tue Mar 30 12:02:53 2021
