
  ___ ___ ___ _ _ _  
 |   |   |_  | | | | 
 | | | | | . | | | | 
 |__ |  _|___|_____|  21.1.1b1
 |___|_|             

User:   madkru@g043.nifl.fysik.dtu.dk
Date:   Tue Mar 30 13:55:20 2021
Arch:   x86_64
Pid:    39387
Python: 3.8.6
gpaw:   /home/niflheim/madkru/venv_madkru/gpaw/gpaw (e6f0d78a31)
_gpaw:  /home/niflheim/madkru/venv_madkru/gpaw/build/lib.linux-x86_64-sandybridge-3.8/
        _gpaw.cpython-38-x86_64-linux-gnu.so (e6f0d78a31)
ase:    /home/niflheim/madkru/venv_madkru/ase/ase (version 3.22.0b1-4d5a73cb29)
numpy:  /home/modules/software/SciPy-bundle/2020.11-foss-2020b/lib/python3.8/site-packages/numpy (version 1.19.4)
scipy:  /home/modules/software/SciPy-bundle/2020.11-foss-2020b/lib/python3.8/site-packages/scipy (version 1.5.4)
libxc:  4.3.4
units:  Angstrom and eV
cores: 64
OpenMP: False
OMP_NUM_THREADS: 1

Input parameters:
  convergence: {bands: occupied,
                density: 0.0001,
                eigenstates: 4e-08,
                energy: 0.0005,
                forces: 1e-06}
  kpts: [6 6 4]
  maxiter: 1000
  mode: {ecut: 600.0,
         gammacentered: False,
         name: pw}
  occupations: {fixmagmom: False,
                name: fermi-dirac,
                width: 0.001}
  symmetry: {point_group: False,
             time_reversal: False}

System changes: positions, numbers, cell, pbc, initial_charges, initial_magmoms 

Initialize ...

O-setup:
  name: Oxygen
  id: 9b9d51c344dea68c822856295a461509
  Z: 8.0
  valence: 6
  core: 2
  charge: 0.0
  file: /home/modules/software/GPAW-setups/0.9.20000/O.LDA.gz
  compensation charges: gauss, rc=0.21, lmax=2
  cutoffs: 1.17(filt), 0.83(core),
  valence states:
                energy  radius
    2s(2.00)   -23.752   0.688
    2p(4.00)    -9.195   0.598
    *s           3.459   0.688
    *p          18.016   0.598
    *d           0.000   0.619

  Using partial waves for O as LCAO basis

Mn-setup:
  name: Manganese
  id: 0d715a8018be061a6e9ea6f2d364ac92
  Z: 25.0
  valence: 15
  core: 10
  charge: 0.0
  file: /home/modules/software/GPAW-setups/0.9.20000/Mn.LDA.gz
  compensation charges: gauss, rc=0.38, lmax=2
  cutoffs: 2.14(filt), 0.86(core),
  valence states:
                energy  radius
    3s(2.00)   -85.387   1.275
    4s(2.00)    -5.282   1.275
    3p(6.00)   -54.493   1.281
    4p(0.00)    -1.471   1.281
    3d(5.00)    -7.009   1.138
    *d          20.203   1.138

  Using partial waves for Mn as LCAO basis

P-setup:
  name: Phosphorus
  id: a5561c299094968922a179ab894d2e2d
  Z: 15.0
  valence: 5
  core: 10
  charge: 0.0
  file: /home/modules/software/GPAW-setups/0.9.20000/P.LDA.gz
  compensation charges: gauss, rc=0.30, lmax=2
  cutoffs: 1.69(filt), 1.81(core),
  valence states:
                energy  radius
    3s(2.00)   -14.015   0.953
    3p(3.00)    -5.596   0.953
    *s          13.197   0.953
    *p          21.615   0.953
    *d           0.000   0.953

  Using partial waves for P as LCAO basis

Li-setup:
  name: Lithium
  id: b73562207f97a71b6967473b66fe8b65
  Z: 3.0
  valence: 1
  core: 2
  charge: 0.0
  file: /home/modules/software/GPAW-setups/0.9.20000/Li.LDA.gz
  compensation charges: gauss, rc=0.33, lmax=2
  cutoffs: 1.91(filt), 2.55(core),
  valence states:
                energy  radius
    2s(1.00)    -2.874   1.058
    2p(0.00)    -1.126   1.058
    *s          24.338   1.058

  Using partial waves for Li as LCAO basis

Reference energy: -196157.275402

Spin-polarized calculation.
Magnetic moment: 0.000000

Convergence criteria:
  Maximum total energy change: 0.0005 eV / electron
  Maximum integral of absolute density change: 0.0001 electrons
  Maximum integral of absolute eigenstate change: 4e-08 eV^2
  Maximum change in atomic force: 1e-06 eV / Ang
  Maximum number of iterations: 1000

Symmetries present (total): 1

  ( 1  0  0)
  ( 0  1  0)
  ( 0  0  1)

144 k-points: 6 x 6 x 4 Monkhorst-Pack grid
144 k-points in the irreducible part of the Brillouin zone
       k-points in crystal coordinates                weights
   0:    -0.41666667   -0.41666667   -0.37500000          1/144
   1:    -0.41666667   -0.41666667   -0.12500000          1/144
   2:    -0.41666667   -0.41666667    0.12500000          1/144
   3:    -0.41666667   -0.41666667    0.37500000          1/144
   4:    -0.41666667   -0.25000000   -0.37500000          1/144
   5:    -0.41666667   -0.25000000   -0.12500000          1/144
   6:    -0.41666667   -0.25000000    0.12500000          1/144
   7:    -0.41666667   -0.25000000    0.37500000          1/144
   8:    -0.41666667   -0.08333333   -0.37500000          1/144
   9:    -0.41666667   -0.08333333   -0.12500000          1/144
          ...
 143:     0.41666667    0.41666667    0.37500000          1/144

Wave functions: Plane wave expansion
  Cutoff energy: 600.000 eV
  Number of coefficients (min, max): 10068, 10125
  Pulay-stress correction: 0.000000 eV/Ang^3 (de/decut=0.000000)
  Using FFTW library
  ScaLapack parameters: grid=1x1, blocksize=None
  Wavefunction extrapolation:
    Improved wavefunction reuse through dual PAW basis 

  Fermi-Dirac: width=0.0010 eV

Eigensolver
   Davidson(niter=2) 

Densities:
  Coarse grid: 60*35*27 grid
  Fine grid: 120*70*54 grid
  Total Charge: 0.000000 

Density mixing:
  Method: difference
  Backend: pulay
  Linear mixing parameter: 0.05
  Mixing with 5 old densities
  Damping of long wave oscillations: 50 

Hamiltonian:
  XC and Coulomb potentials evaluated on a 120*70*54 grid
  Using the LDA Exchange-Correlation functional
 

Memory estimate:
  Process memory now: 12708.02 MiB
  Calculator: 354.82 MiB
    Density: 10.06 MiB
      Arrays: 3.79 MiB
      Localized functions: 4.71 MiB
      Mixer: 1.56 MiB
    Hamiltonian: 2.95 MiB
      Arrays: 2.82 MiB
      XC: 0.00 MiB
      Poisson: 0.00 MiB
      vbar: 0.14 MiB
    Wavefunctions: 341.80 MiB
      Arrays psit_nG: 311.46 MiB
      Eigensolver: 19.99 MiB
      Projections: 2.71 MiB
      Projectors: 4.87 MiB
      PW-descriptor: 2.77 MiB

Total number of cores used: 64
Parallelization over k-points: 16
Domain decomposition: 2 x 2 x 1

Number of atoms: 28
Number of atomic orbitals: 148
Number of bands in calculation: 112
Number of valence electrons: 180
Bands to converge: occupied

... initialized

Initializing position-dependent things.

Density initialized from atomic densities
Creating initial wave functions:
  112 bands from LCAO basis set

     .-------------------------.  
    /|         OP              |  
   / |O            O        O  |  
  /  |       O            O  P |  
 *   |O    Mn      O           |  
 |   |          OLi          O |  
 |   .P-O--------------Mn------.  
 |  /          Li    O  Mn  O /   
 | /Li O           PO        /    
 |/       Mn                /     
 *Li-----------------------*      

Positions:
   0 O     -1.360678   -2.541161   -1.202221    ( 0.0000,  0.0000,  0.0000)
   1 O     -3.121941    2.976855    1.167242    ( 0.0000,  0.0000,  0.0000)
   2 O      2.107533    0.508090    1.540712    ( 0.0000,  0.0000,  0.0000)
   3 O      3.869373   -0.072395   -0.828750    ( 0.0000,  0.0000,  0.0000)
   4 O      2.107821    2.976875    1.540792    ( 0.0000,  0.0000,  0.0000)
   5 O      3.869084   -2.541141   -0.828671    ( 0.0000,  0.0000,  0.0000)
   6 O     -1.360390   -0.072375   -1.202141    ( 0.0000,  0.0000,  0.0000)
   7 O     -3.122230    0.508109    1.167321    ( 0.0000,  0.0000,  0.0000)
   8 O     -4.413461   -1.306992   -0.794251    ( 0.0000,  0.0000,  0.0000)
   9 O     -0.069585    1.742707    1.575662    ( 0.0000,  0.0000,  0.0000)
  10 O      5.160604    1.742707    1.132822    ( 0.0000,  0.0000,  0.0000)
  11 O      0.816728   -1.306992   -1.237091    ( 0.0000,  0.0000,  0.0000)
  12 Mn    -2.580809   -1.307302    0.247161    ( 0.0000,  0.0000,  1.0000)
  13 Mn    -1.912021    1.743016   -2.122906    ( 0.0000,  0.0000, -1.0000)
  14 Mn     3.317952    1.743017    0.091411    ( 0.0000,  0.0000, -1.0000)
  15 Mn     2.659164   -1.307302    2.461478    ( 0.0000,  0.0000,  1.0000)
  16 P     -0.620664   -1.306816   -1.828465    ( 0.0000,  0.0000,  0.0000)
  17 P     -3.862097    1.742530    0.541238    ( 0.0000,  0.0000,  0.0000)
  18 P      1.367807    1.742530    2.167036    ( 0.0000,  0.0000,  0.0000)
  19 P      4.609240   -1.306816   -0.202666    ( 0.0000,  0.0000,  0.0000)
  20 O     -0.646437   -1.306845    1.374751    ( 0.0000,  0.0000,  0.0000)
  21 O     -3.836504    1.742559   -0.995565    ( 0.0000,  0.0000,  0.0000)
  22 O      1.393580    1.742559   -1.036179    ( 0.0000,  0.0000,  0.0000)
  23 O      4.583647   -1.306845    1.334136    ( 0.0000,  0.0000,  0.0000)
  24 Li    -4.856429   -2.832143   -2.200714    ( 0.0000,  0.0000,  0.0000)
  25 Li     0.373571   -2.832143    0.169286    ( 0.0000,  0.0000,  0.0000)
  26 Li    -4.856429    0.217857   -2.200714    ( 0.0000,  0.0000,  0.0000)
  27 Li     0.373571    0.217857    0.169286    ( 0.0000,  0.0000,  0.0000)

Unit cell:
           periodic     x           y           z      points  spacing
  1. axis:    yes   10.460000    0.000000    0.000000    60     0.1743
  2. axis:    yes    0.000000    6.100000    0.000000    35     0.1743
  3. axis:    yes    0.000000    0.000000    4.740000    27     0.1756

  Lengths:  10.460000   6.100000   4.740000
  Angles:   90.000000  90.000000  90.000000

Effective grid spacing dv^(1/3) = 0.1747

                     log10-error:           total        iterations:
           time      wfs    density  force  energy       poisson  magmom
iter:   1  13:56:54                       -231.919110             +0.0000
iter:   2  13:57:16  -0.55  -0.94         -231.743286             +0.0051
iter:   3  13:57:37  -0.72  -0.98         -220.592203             +0.0064
iter:   4  13:57:58  -0.96  -1.20         -218.883824             +0.0021
iter:   5  13:58:19  -1.93  -1.36         -221.138648             +0.0014
iter:   6  13:58:41  -1.97  -1.51         -219.966709             +0.1970
iter:   7  13:59:02  -2.23  -1.68         -222.604739             -0.1842
iter:   8  13:59:23  -2.72  -1.90         -219.684889             -0.2213
iter:   9  13:59:44  -2.36  -1.95         -223.468916             +0.2452
iter:  10  14:00:06  -2.33  -1.90         -226.072181             +0.0997
iter:  11  14:00:27  -2.43  -1.89         -227.121796             -0.0156
iter:  12  14:00:48  -2.41  -1.83         -226.900264             -0.0010
iter:  13  14:01:09  -2.68  -1.95         -226.771112             -0.0013
iter:  14  14:01:31  -1.49  -2.01         -228.147146             -0.0003
iter:  15  14:01:52  -2.67  -1.95         -228.090970             -0.0004
iter:  16  14:02:13  -2.70  -1.95         -228.365219             -0.0003
iter:  17  14:02:34  -1.87  -1.95         -224.589335             -0.0001
iter:  18  14:02:56  -3.11  -2.16         -225.590035             -0.0001
iter:  19  14:03:17  -2.65  -2.26         -226.320099             -0.0000
iter:  20  14:03:38  -2.54  -2.33         -226.277819             -0.0000
iter:  21  14:04:00  -2.94  -2.46         -226.316060             -0.0000
iter:  22  14:04:21  -3.75  -2.54         -226.262226             -0.0000
iter:  23  14:04:42  -3.33  -2.66         -226.234360             +0.0000
iter:  24  14:05:03  -4.31  -3.01         -226.232818             +0.0000
iter:  25  14:05:25  -3.74  -3.05         -226.231822             +0.0000
iter:  26  14:05:46  -4.45  -3.39         -226.228546             +0.0000
iter:  27  14:06:07  -5.10  -3.48         -226.228183             +0.0000
iter:  28  14:06:28  -5.20  -3.48         -226.227909             -0.0000
iter:  29  14:06:49  -4.73  -3.60         -226.227824             +0.0000
iter:  30  14:07:11  -5.67  -3.87         -226.227808             +0.0000
iter:  31  14:07:32  -5.53  -3.96         -226.227597             -0.0000
iter:  32  14:07:53  -6.10  -4.15         -226.227582             -0.0000
iter:  33  14:08:14  -6.40  -4.36         -226.227579             -0.0000
iter:  34  14:08:35  -7.13  -4.57         -226.227580             -0.0000
iter:  35  14:09:02  -7.68  -4.63         -226.227578             -0.0000
iter:  36  14:09:29  -7.51  -4.69    -2.46-226.227576             -0.0000
iter:  37  14:09:50  -7.32  -4.86         -226.227574             -0.0000
iter:  38  14:10:17  -7.97  -5.21    -2.41-226.227574             -0.0000
iter:  39  14:10:43  -8.12  -5.28    -2.91-226.227574             -0.0000
iter:  40  14:11:10  -9.12  -5.40    -3.45-226.227574             +0.0000
iter:  41  14:11:37  -8.75  -5.53    -3.39-226.227574             +0.0000
iter:  42  14:12:03  -9.28  -5.62    -3.27-226.227574             +0.0000
iter:  43  14:12:30  -8.81  -5.65    -3.19-226.227574             +0.0000
iter:  44  14:12:57  -9.35  -5.84    -3.61-226.227574             +0.0000
iter:  45  14:13:24  -9.74  -6.10    -3.82-226.227574             +0.0000
iter:  46  14:13:50  -9.95  -6.11    -3.81-226.227574             +0.0000
iter:  47  14:14:17 -11.45  -6.57    -4.64-226.227574             +0.0000
iter:  48  14:14:44 -10.85  -6.61    -4.42-226.227574             +0.0000
iter:  49  14:15:10 -10.96  -6.71    -4.40-226.227574             +0.0000
iter:  50  14:15:37 -12.11  -6.81    -4.81-226.227574             +0.0000
iter:  51  14:16:04 -13.18  -6.90    -5.97-226.227574             +0.0000
iter:  52  14:16:30 -12.53  -6.90    -5.06-226.227574             +0.0000
iter:  53  14:16:57 -12.32  -6.96    -4.65-226.227574             +0.0000
iter:  54  14:17:24 -12.91  -7.17    -5.50-226.227574             +0.0000
iter:  55  14:17:50 -12.71  -7.20    -5.18-226.227574             +0.0000
iter:  56  14:18:17 -12.84  -7.24    -5.40-226.227574             +0.0000
iter:  57  14:18:44 -13.04  -7.25    -5.28-226.227574             +0.0000
iter:  58  14:19:11 -13.67  -7.33    -5.80-226.227574             +0.0000
iter:  59  14:19:37 -13.28  -7.36    -4.92-226.227574             +0.0000
iter:  60  14:20:04 -13.14  -7.71    -5.45-226.227574             +0.0000
iter:  61  14:20:31 -13.99  -7.81    -5.64-226.227574             +0.0000
iter:  62  14:20:57 -14.30  -7.88    -6.18-226.227574             +0.0000

Converged after 62 iterations.

Dipole moment: (10.661306, 1.412154, -6.269339) |e|*Ang

Total magnetic moment: (0.000000, 0.000000, 0.000000)
Local magnetic moments:
   0 O  ( 0.000000,  0.000000, -0.000874)
   1 O  ( 0.000000,  0.000000,  0.000772)
   2 O  ( 0.000000,  0.000000,  0.000516)
   3 O  ( 0.000000,  0.000000, -0.000531)
   4 O  ( 0.000000,  0.000000,  0.000496)
   5 O  ( 0.000000,  0.000000, -0.000511)
   6 O  ( 0.000000,  0.000000, -0.000894)
   7 O  ( 0.000000,  0.000000,  0.000792)
   8 O  ( 0.000000,  0.000000,  0.029140)
   9 O  ( 0.000000,  0.000000, -0.028731)
  10 O  ( 0.000000,  0.000000, -0.028672)
  11 O  ( 0.000000,  0.000000,  0.028769)
  12 Mn ( 0.000000,  0.000000,  4.447811)
  13 Mn ( 0.000000,  0.000000, -4.448411)
  14 Mn ( 0.000000,  0.000000, -4.448150)
  15 Mn ( 0.000000,  0.000000,  4.448271)
  16 P  ( 0.000000,  0.000000,  0.001392)
  17 P  ( 0.000000,  0.000000, -0.001499)
  18 P  ( 0.000000,  0.000000, -0.001562)
  19 P  ( 0.000000,  0.000000,  0.001671)
  20 O  ( 0.000000,  0.000000,  0.024943)
  21 O  ( 0.000000,  0.000000, -0.025250)
  22 O  ( 0.000000,  0.000000, -0.025347)
  23 O  ( 0.000000,  0.000000,  0.025277)
  24 Li ( 0.000000,  0.000000,  0.000010)
  25 Li ( 0.000000,  0.000000,  0.000003)
  26 Li ( 0.000000,  0.000000,  0.000010)
  27 Li ( 0.000000,  0.000000,  0.000003)

Energy contributions relative to reference atoms: (reference = -196157.275402)

Kinetic:       +217.357184
Potential:     -195.246126
External:        +0.000000
XC:            -250.379701
Entropy (-ST):   -0.000000
Local:           +2.041069
--------------------------
Free energy:   -226.227574
Extrapolated:  -226.227574

Spin contamination: 9.560809 electrons
Showing only first 2 kpts
                      Up                     Down
 Kpt  Band  Eigenvalues  Occupancy  Eigenvalues  Occupancy
  0    88      5.11067    1.00000      5.11051    1.00000
  0    89      5.13772    1.00000      5.13549    1.00000
  0    90      7.28822    0.00000      7.28763    0.00000
  0    91      7.30778    0.00000      7.30550    0.00000

  1    88      5.13627    1.00000      5.13627    1.00000
  1    89      5.16781    1.00000      5.16581    1.00000
  1    90      7.23083    0.00000      7.22977    0.00000
  1    91      7.24542    0.00000      7.24238    0.00000


Fermi level: 6.19964

Gap: 1.967 eV
Transition (v -> c):
  (s=0, k=69, n=89, [-0.08, 0.42, -0.12]) -> (s=1, k=86, n=90, [0.08, 0.08, 0.12])
Writing to born-0.01-12x-.gpw (mode='all')

Timing:                              incl.     excl.
-----------------------------------------------------------
Hamiltonian:                         0.258     0.002   0.0% |
 Atomic:                             0.068     0.068   0.0% |
  XC Correction:                     0.000     0.000   0.0% |
 Calculate atomic Hamiltonians:      0.094     0.094   0.0% |
 Communicate:                        0.001     0.001   0.0% |
 Initialize Hamiltonian:             0.000     0.000   0.0% |
 Poisson:                            0.001     0.001   0.0% |
 XC 3D grid:                         0.091     0.091   0.0% |
LCAO initialization:                69.618     0.674   0.0% |
 LCAO eigensolver:                  17.980     0.002   0.0% |
  Calculate projections:             0.029     0.029   0.0% |
  DenseAtomicCorrection:             0.043     0.043   0.0% |
  Distribute overlap matrix:         0.030     0.030   0.0% |
  Orbital Layouts:                   0.278     0.278   0.0% |
  Potential matrix:                 17.501    17.501   0.5% |
  Sum over cells:                    0.097     0.097   0.0% |
 LCAO to grid:                      49.687    49.687   1.3% ||
 Set positions (LCAO WFS):           1.277     0.180   0.0% |
  Basic WFS set positions:           0.002     0.002   0.0% |
  Basis functions set positions:     0.000     0.000   0.0% |
  P tci:                             0.515     0.515   0.0% |
  ST tci:                            0.369     0.369   0.0% |
  mktci:                             0.212     0.212   0.0% |
PWDescriptor:                        0.025     0.025   0.0% |
SCF-cycle:                        1466.628     6.284   0.2% |
 Davidson:                        1245.207   398.421  10.6% |---|
  Apply H:                          83.408    80.952   2.1% ||
   HMM T:                            2.456     2.456   0.1% |
  Subspace diag:                   178.640     0.181   0.0% |
   calc_h_matrix:                  113.949    31.168   0.8% |
    Apply H:                        82.781    80.460   2.1% ||
     HMM T:                          2.321     2.321   0.1% |
   diagonalize:                      6.253     6.253   0.2% |
   rotate_psi:                      58.257    58.257   1.5% ||
  calc. matrices:                  372.173   207.917   5.5% |-|
   Apply H:                        164.256   159.545   4.2% |-|
    HMM T:                           4.711     4.711   0.1% |
  diagonalize:                      96.261    96.261   2.5% ||
  rotate_psi:                      116.302   116.302   3.1% ||
 Density:                           49.519     0.002   0.0% |
  Atomic density matrices:           0.821     0.821   0.0% |
  Mix:                               8.475     8.475   0.2% |
  Multipole moments:                 0.022     0.022   0.0% |
  Pseudo density:                   40.200    40.199   1.1% |
   Symmetrize density:               0.002     0.002   0.0% |
 Forces:                           148.210   148.210   3.9% |-|
 Hamiltonian:                       15.113     0.133   0.0% |
  Atomic:                            3.461     3.461   0.1% |
   XC Correction:                    0.000     0.000   0.0% |
  Calculate atomic Hamiltonians:     5.777     5.777   0.2% |
  Communicate:                       0.020     0.020   0.0% |
  Poisson:                           0.056     0.056   0.0% |
  XC 3D grid:                        5.666     5.666   0.2% |
 Orthonormalize:                     2.295     0.003   0.0% |
  calc_s_matrix:                     0.266     0.266   0.0% |
  inverse-cholesky:                  0.041     0.041   0.0% |
  projections:                       1.495     1.495   0.0% |
  rotate_psi_s:                      0.490     0.490   0.0% |
Set symmetry:                        0.000     0.000   0.0% |
Other:                            2238.438  2238.438  59.3% |-----------------------|
-----------------------------------------------------------
Total:                                      3774.967 100.0%

Memory usage: 12.45 GiB
Date: Tue Mar 30 14:58:15 2021
