
  ___ ___ ___ _ _ _  
 |   |   |_  | | | | 
 | | | | | . | | | | 
 |__ |  _|___|_____|  20.10.1b1
 |___|_|             

User:   madkru@g064.nifl.fysik.dtu.dk
Date:   Mon Mar 22 02:54:17 2021
Arch:   x86_64
Pid:    60512
Python: 3.7.4
gpaw:   /home/niflheim/madkru/venv_folder/gpaw/gpaw (d0d1ca1c71)
_gpaw:  /home/niflheim/madkru/venv_folder/gpaw/build/lib.linux-x86_64-sandybridge-3.7/
        _gpaw.cpython-37m-x86_64-linux-gnu.so (4fd39e8b1e)
ase:    /home/niflheim/madkru/venv_folder/ase/ase (version 3.21.0b1-7e6c206a91)
numpy:  /home/niflheim/madkru/venv_folder/lib/python3.7/site-packages/numpy (version 1.19.4)
scipy:  /home/niflheim/madkru/venv_folder/lib/python3.7/site-packages/scipy (version 1.5.4)
libxc:  4.3.4
units:  Angstrom and eV
cores: 32
OMP_NUM_THREADS: 1

Input parameters:
  convergence: {bands: occupied,
                density: 0.0001,
                eigenstates: 4e-08,
                energy: 0.0005,
                forces: 1e-06}
  kpts: [6 6 4]
  mode: {ecut: 600.0,
         gammacentered: False,
         name: pw}
  occupations: {fixmagmom: False,
                name: fermi-dirac,
                width: 0.001}
  symmetry: {point_group: False,
             time_reversal: False}

System changes: positions, numbers, cell, pbc, initial_charges, initial_magmoms 

Initialize ...

O-setup:
  name: Oxygen
  id: 9b9d51c344dea68c822856295a461509
  Z: 8.0
  valence: 6
  core: 2
  charge: 0.0
  file: /home/modules/software/GPAW-setups/0.9.20000/O.LDA.gz
  compensation charges: gauss, rc=0.21, lmax=2
  cutoffs: 1.17(filt), 0.83(core),
  valence states:
                energy  radius
    2s(2.00)   -23.752   0.688
    2p(4.00)    -9.195   0.598
    *s           3.459   0.688
    *p          18.016   0.598
    *d           0.000   0.619

  Using partial waves for O as LCAO basis

Mn-setup:
  name: Manganese
  id: 0d715a8018be061a6e9ea6f2d364ac92
  Z: 25.0
  valence: 15
  core: 10
  charge: 0.0
  file: /home/modules/software/GPAW-setups/0.9.20000/Mn.LDA.gz
  compensation charges: gauss, rc=0.38, lmax=2
  cutoffs: 2.14(filt), 0.86(core),
  valence states:
                energy  radius
    3s(2.00)   -85.387   1.275
    4s(2.00)    -5.282   1.275
    3p(6.00)   -54.493   1.281
    4p(0.00)    -1.471   1.281
    3d(5.00)    -7.009   1.138
    *d          20.203   1.138

  Using partial waves for Mn as LCAO basis

P-setup:
  name: Phosphorus
  id: a5561c299094968922a179ab894d2e2d
  Z: 15.0
  valence: 5
  core: 10
  charge: 0.0
  file: /home/modules/software/GPAW-setups/0.9.20000/P.LDA.gz
  compensation charges: gauss, rc=0.30, lmax=2
  cutoffs: 1.69(filt), 1.81(core),
  valence states:
                energy  radius
    3s(2.00)   -14.015   0.953
    3p(3.00)    -5.596   0.953
    *s          13.197   0.953
    *p          21.615   0.953
    *d           0.000   0.953

  Using partial waves for P as LCAO basis

Li-setup:
  name: Lithium
  id: b73562207f97a71b6967473b66fe8b65
  Z: 3.0
  valence: 1
  core: 2
  charge: 0.0
  file: /home/modules/software/GPAW-setups/0.9.20000/Li.LDA.gz
  compensation charges: gauss, rc=0.33, lmax=2
  cutoffs: 1.91(filt), 2.55(core),
  valence states:
                energy  radius
    2s(1.00)    -2.874   1.058
    2p(0.00)    -1.126   1.058
    *s          24.338   1.058

  Using partial waves for Li as LCAO basis

Reference energy: -196157.275402

Spin-polarized calculation.
Magnetic moment: 0.000000

Convergence criteria:
  Maximum total energy change: 0.0005 eV / electron
  Maximum integral of absolute density change: 0.0001 electrons
  Maximum integral of absolute eigenstate change: 4e-08 eV^2
  Maximum change in atomic force: 1e-06 eV / Ang
  Maximum number of iterations: 333

Symmetries present (total): 1

  ( 1  0  0)
  ( 0  1  0)
  ( 0  0  1)

144 k-points: 6 x 6 x 4 Monkhorst-Pack grid
144 k-points in the irreducible part of the Brillouin zone
       k-points in crystal coordinates                weights
   0:    -0.41666667   -0.41666667   -0.37500000          1/144
   1:    -0.41666667   -0.41666667   -0.12500000          1/144
   2:    -0.41666667   -0.41666667    0.12500000          1/144
   3:    -0.41666667   -0.41666667    0.37500000          1/144
   4:    -0.41666667   -0.25000000   -0.37500000          1/144
   5:    -0.41666667   -0.25000000   -0.12500000          1/144
   6:    -0.41666667   -0.25000000    0.12500000          1/144
   7:    -0.41666667   -0.25000000    0.37500000          1/144
   8:    -0.41666667   -0.08333333   -0.37500000          1/144
   9:    -0.41666667   -0.08333333   -0.12500000          1/144
          ...
 143:     0.41666667    0.41666667    0.37500000          1/144

Wave functions: Plane wave expansion
  Cutoff energy: 600.000 eV
  Number of coefficients (min, max): 10068, 10125
  Pulay-stress correction: 0.000000 eV/Ang^3 (de/decut=0.000000)
  Using FFTW library
  ScaLapack parameters: grid=1x1, blocksize=None
  Wavefunction extrapolation:
    Improved wavefunction reuse through dual PAW basis 

  Fermi-Dirac: width=0.0010 eV

Eigensolver
   Davidson(niter=2, smin=None, normalize=True) 

Densities:
  Coarse grid: 60*35*27 grid
  Fine grid: 120*70*54 grid
  Total Charge: 0.000000 

Density mixing:
  Method: difference
  Backend: pulay
  Linear mixing parameter: 0.05
  Mixing with 5 old densities
  Damping of long wave oscillations: 50 

Hamiltonian:
  XC and Coulomb potentials evaluated on a 120*70*54 grid
  Using the LDA Exchange-Correlation functional
 

Memory estimate:
  Process memory now: 12894.18 MiB
  Calculator: 375.55 MiB
    Density: 20.02 MiB
      Arrays: 7.57 MiB
      Localized functions: 9.42 MiB
      Mixer: 3.03 MiB
    Hamiltonian: 5.90 MiB
      Arrays: 5.62 MiB
      XC: 0.00 MiB
      Poisson: 0.00 MiB
      vbar: 0.27 MiB
    Wavefunctions: 349.64 MiB
      Arrays psit_nG: 311.46 MiB
      Eigensolver: 19.99 MiB
      Projections: 5.41 MiB
      Projectors: 9.73 MiB
      PW-descriptor: 3.03 MiB

Total number of cores used: 32
Parallelization over k-points: 16
Domain decomposition: 2 x 1 x 1

Number of atoms: 28
Number of atomic orbitals: 148
Number of bands in calculation: 112
Number of valence electrons: 180
Bands to converge: occupied

... initialized

Initializing position-dependent things.

Density initialized from atomic densities
Creating initial wave functions:
  112 bands from LCAO basis set

     .-------------------------.  
    /|         OP              |  
   / |O            O        O  |  
  /  |       O            O  P |  
 *   |O    Mn      O           |  
 |   |          OLi          O |  
 |   .P-O--------------Mn------.  
 |  /          Li    O  Mn  O /   
 | /Li O           PO        /    
 |/       Mn                /     
 *Li-----------------------*      

Positions:
   0 O     -1.360678   -2.541161   -1.202221    ( 0.0000,  0.0000,  0.0000)
   1 O     -3.121941    2.976855    1.167242    ( 0.0000,  0.0000,  0.0000)
   2 O      2.107533    0.508090    1.540712    ( 0.0000,  0.0000,  0.0000)
   3 O      3.869373   -0.072395   -0.828750    ( 0.0000,  0.0000,  0.0000)
   4 O      2.107821    2.966875    1.540792    ( 0.0000,  0.0000,  0.0000)
   5 O      3.869084   -2.541141   -0.828671    ( 0.0000,  0.0000,  0.0000)
   6 O     -1.360390   -0.072375   -1.202141    ( 0.0000,  0.0000,  0.0000)
   7 O     -3.122230    0.508109    1.167321    ( 0.0000,  0.0000,  0.0000)
   8 O     -4.413461   -1.306992   -0.794251    ( 0.0000,  0.0000,  0.0000)
   9 O     -0.069585    1.742707    1.575662    ( 0.0000,  0.0000,  0.0000)
  10 O      5.160604    1.742707    1.132822    ( 0.0000,  0.0000,  0.0000)
  11 O      0.816728   -1.306992   -1.237091    ( 0.0000,  0.0000,  0.0000)
  12 Mn    -2.570809   -1.307302    0.247161    ( 0.0000,  0.0000,  1.0000)
  13 Mn    -1.912021    1.743016   -2.122906    ( 0.0000,  0.0000, -1.0000)
  14 Mn     3.317952    1.743017    0.091411    ( 0.0000,  0.0000, -1.0000)
  15 Mn     2.659164   -1.307302    2.461478    ( 0.0000,  0.0000,  1.0000)
  16 P     -0.620664   -1.306816   -1.828465    ( 0.0000,  0.0000,  0.0000)
  17 P     -3.862097    1.742530    0.541238    ( 0.0000,  0.0000,  0.0000)
  18 P      1.367807    1.742530    2.167036    ( 0.0000,  0.0000,  0.0000)
  19 P      4.609240   -1.306816   -0.202666    ( 0.0000,  0.0000,  0.0000)
  20 O     -0.646437   -1.306845    1.374751    ( 0.0000,  0.0000,  0.0000)
  21 O     -3.836504    1.742559   -0.995565    ( 0.0000,  0.0000,  0.0000)
  22 O      1.393580    1.742559   -1.036179    ( 0.0000,  0.0000,  0.0000)
  23 O      4.583647   -1.306845    1.334136    ( 0.0000,  0.0000,  0.0000)
  24 Li    -4.856429   -2.832143   -2.200714    ( 0.0000,  0.0000,  0.0000)
  25 Li     0.373571   -2.832143    0.169286    ( 0.0000,  0.0000,  0.0000)
  26 Li    -4.856429    0.217857   -2.200714    ( 0.0000,  0.0000,  0.0000)
  27 Li     0.373571    0.217857    0.169286    ( 0.0000,  0.0000,  0.0000)

Unit cell:
           periodic     x           y           z      points  spacing
  1. axis:    yes   10.460000    0.000000    0.000000    60     0.1743
  2. axis:    yes    0.000000    6.100000    0.000000    35     0.1743
  3. axis:    yes    0.000000    0.000000    4.740000    27     0.1756

  Lengths:  10.460000   6.100000   4.740000
  Angles:   90.000000  90.000000  90.000000

Effective grid spacing dv^(1/3) = 0.1747

                     log10-error:           total        iterations:
           time      wfs    density  force  energy       poisson  magmom
iter:   1  02:57:17                       -231.917083             +0.0000
iter:   2  02:57:57  -0.55  -0.94         -231.742455             +0.0148
iter:   3  02:58:36  -0.72  -0.98         -220.583180             +0.0186
iter:   4  02:59:16  -0.95  -1.20         -218.864207             +0.0061
iter:   5  02:59:55  -1.93  -1.36         -222.157268             +0.0039
iter:   6  03:00:34  -1.99  -1.44         -221.128512             +0.0017
iter:   7  03:01:14  -2.25  -1.68         -223.889431             +0.0012
iter:   8  03:01:53  -1.66  -1.89         -226.480053             +0.0001
iter:   9  03:02:32  -2.06  -1.94         -226.591874             +0.0001
iter:  10  03:03:12  -2.30  -1.98         -226.575861             +0.0000
iter:  11  03:03:51  -2.46  -2.05         -226.526148             +0.0000
iter:  12  03:04:31  -2.39  -2.15         -226.258657             -0.0000
iter:  13  03:05:10  -2.69  -2.36         -226.243836             +0.0000
iter:  14  03:05:49  -3.43  -2.61         -226.230745             +0.0000
iter:  15  03:06:29  -3.81  -2.81         -226.229580             +0.0000
iter:  16  03:07:08  -4.57  -3.15         -226.228797             +0.0000
iter:  17  03:07:48  -4.74  -3.15         -226.227195             +0.0000
iter:  18  03:08:27  -5.27  -3.47         -226.226898             +0.0000
iter:  19  03:09:06  -4.77  -3.51         -226.226801             +0.0000
iter:  20  03:09:45  -5.02  -3.41         -226.226607             +0.0000
iter:  21  03:10:25  -6.40  -3.90         -226.226619             +0.0000
iter:  22  03:11:04  -5.55  -3.93         -226.226665             +0.0000
iter:  23  03:11:44  -6.08  -3.82         -226.226618             +0.0000
iter:  24  03:12:23  -6.83  -4.12         -226.226613             +0.0000
iter:  25  03:13:02  -6.96  -4.26         -226.226611             -0.0000
iter:  26  03:13:41  -6.93  -4.35         -226.226602             -0.0000
iter:  27  03:14:31  -7.72  -4.57         -226.226598             -0.0000
iter:  28  03:15:11  -7.09  -4.63         -226.226594             -0.0000
iter:  29  03:16:01  -7.98  -4.72    -2.68-226.226594             -0.0000
iter:  30  03:16:51  -8.09  -4.74    -2.95-226.226595             +0.0000
iter:  31  03:17:40  -8.01  -4.80    -2.96-226.226594             +0.0000
iter:  32  03:18:30  -8.40  -4.86    -2.81-226.226595             +0.0000
iter:  33  03:19:20  -9.08  -4.93    -3.28-226.226595             +0.0000
iter:  34  03:20:10  -7.92  -4.96    -2.90-226.226594             -0.0000
iter:  35  03:21:00  -9.06  -5.32    -3.44-226.226594             +0.0000
iter:  36  03:21:50  -9.75  -5.41    -3.76-226.226594             +0.0000
iter:  37  03:22:40  -9.14  -5.49    -3.42-226.226594             +0.0000
iter:  38  03:23:30  -9.69  -5.68    -3.56-226.226594             +0.0000
iter:  39  03:24:20 -10.34  -5.76    -4.24-226.226594             -0.0000
iter:  40  03:25:10  -9.56  -5.79    -3.48-226.226594             +0.0000
iter:  41  03:26:00 -10.30  -5.93    -4.03-226.226594             +0.0000
iter:  42  03:26:50  -9.38  -5.98    -3.67-226.226594             +0.0000
iter:  43  03:27:40 -10.51  -5.99    -3.99-226.226594             +0.0000
iter:  44  03:28:30 -10.27  -6.12    -4.15-226.226594             +0.0000
iter:  45  03:29:20 -10.26  -6.19    -3.74-226.226594             +0.0000
iter:  46  03:30:10 -10.47  -6.33    -4.14-226.226594             +0.0000
iter:  47  03:31:00 -10.99  -6.66    -4.58-226.226594             +0.0000
iter:  48  03:31:50 -11.07  -6.75    -4.44-226.226594             +0.0000
iter:  49  03:32:40 -11.60  -7.08    -4.70-226.226594             +0.0000
iter:  50  03:33:30 -12.06  -7.03    -4.88-226.226594             +0.0000
iter:  51  03:34:20 -12.70  -7.22    -5.43-226.226594             +0.0000
iter:  52  03:35:10 -13.25  -7.27    -5.18-226.226594             +0.0000
iter:  53  03:36:00 -13.76  -7.32    -6.01-226.226594             +0.0000

Converged after 53 iterations.

Dipole moment: (10.670775, 1.417009, -6.270755) |e|*Ang

Total magnetic moment: (0.000000, 0.000000, 0.000000)
Local magnetic moments:
   0 O  ( 0.000000,  0.000000, -0.000503)
   1 O  ( 0.000000,  0.000000,  0.000546)
   2 O  ( 0.000000,  0.000000,  0.000682)
   3 O  ( 0.000000,  0.000000, -0.000337)
   4 O  ( 0.000000,  0.000000,  0.000133)
   5 O  ( 0.000000,  0.000000, -0.000566)
   6 O  ( 0.000000,  0.000000, -0.000530)
   7 O  ( 0.000000,  0.000000,  0.000563)
   8 O  ( 0.000000,  0.000000,  0.028676)
   9 O  ( 0.000000,  0.000000, -0.028908)
  10 O  ( 0.000000,  0.000000, -0.028682)
  11 O  ( 0.000000,  0.000000,  0.028690)
  12 Mn ( 0.000000,  0.000000,  4.448148)
  13 Mn ( 0.000000,  0.000000, -4.448340)
  14 Mn ( 0.000000,  0.000000, -4.448329)
  15 Mn ( 0.000000,  0.000000,  4.449532)
  16 P  ( 0.000000,  0.000000,  0.001540)
  17 P  ( 0.000000,  0.000000, -0.001550)
  18 P  ( 0.000000,  0.000000, -0.001857)
  19 P  ( 0.000000,  0.000000,  0.001530)
  20 O  ( 0.000000,  0.000000,  0.025315)
  21 O  ( 0.000000,  0.000000, -0.025284)
  22 O  ( 0.000000,  0.000000, -0.025441)
  23 O  ( 0.000000,  0.000000,  0.025263)
  24 Li ( 0.000000,  0.000000, -0.000001)
  25 Li ( 0.000000,  0.000000, -0.000016)
  26 Li ( 0.000000,  0.000000, -0.000001)
  27 Li ( 0.000000,  0.000000, -0.000001)

Energy contributions relative to reference atoms: (reference = -196157.275402)

Kinetic:       +217.880545
Potential:     -195.646293
External:        +0.000000
XC:            -250.500933
Entropy (-ST):   -0.000000
Local:           +2.040086
--------------------------
Free energy:   -226.226594
Extrapolated:  -226.226594

Spin contamination: 9.561362 electrons
Showing only first 2 kpts
                      Up                     Down
 Kpt  Band  Eigenvalues  Occupancy  Eigenvalues  Occupancy
  0    88      5.10182    0.00694      5.11245    0.00694
  0    89      5.12984    0.00694      5.13715    0.00694
  0    90      7.29131    0.00000      7.28374    0.00000
  0    91      7.30887    0.00000      7.30198    0.00000

  1    88      5.12781    0.00694      5.13815    0.00694
  1    89      5.16005    0.00694      5.16780    0.00694
  1    90      7.23487    0.00000      7.22633    0.00000
  1    91      7.24662    0.00000      7.23971    0.00000


Fermi level: 6.46267

Gap: 1.965 eV
Transition (v -> c):
  (s=1, k=69, n=89, [-0.08, 0.42, -0.12]) -> (s=1, k=85, n=90, [0.08, 0.08, -0.12])
Writing to born-0.01-4y-.gpw (mode='all')

Timing:                              incl.     excl.
-----------------------------------------------------------
Hamiltonian:                         0.411     0.002   0.0% |
 Atomic:                             0.054     0.054   0.0% |
  XC Correction:                     0.000     0.000   0.0% |
 Calculate atomic Hamiltonians:      0.177     0.177   0.0% |
 Communicate:                        0.002     0.002   0.0% |
 Initialize Hamiltonian:             0.000     0.000   0.0% |
 Poisson:                            0.001     0.001   0.0% |
 XC 3D grid:                         0.175     0.175   0.0% |
LCAO initialization:               132.902     0.713   0.0% |
 LCAO eigensolver:                  33.742     0.002   0.0% |
  Calculate projections:             0.056     0.056   0.0% |
  DenseAtomicCorrection:             0.083     0.083   0.0% |
  Distribute overlap matrix:         0.114     0.114   0.0% |
  Orbital Layouts:                   0.363     0.363   0.0% |
  Potential matrix:                 33.034    33.034   0.6% |
  Sum over cells:                    0.088     0.088   0.0% |
 LCAO to grid:                      96.179    96.179   1.7% ||
 Set positions (LCAO WFS):           2.268     0.347   0.0% |
  Basic WFS set positions:           0.001     0.001   0.0% |
  Basis functions set positions:     0.000     0.000   0.0% |
  P tci:                             1.057     1.057   0.0% |
  ST tci:                            0.655     0.655   0.0% |
  mktci:                             0.207     0.207   0.0% |
PWDescriptor:                        0.026     0.026   0.0% |
SCF-cycle:                        2367.279    10.129   0.2% |
 Davidson:                        1975.672   645.352  11.3% |----|
  Apply H:                         137.984   133.096   2.3% ||
   HMM T:                            4.888     4.888   0.1% |
  Subspace diag:                   291.346     0.168   0.0% |
   calc_h_matrix:                  188.249    52.374   0.9% |
    Apply H:                       135.876   131.205   2.3% ||
     HMM T:                          4.671     4.671   0.1% |
   diagonalize:                      6.525     6.525   0.1% |
   rotate_psi:                      96.404    96.404   1.7% ||
  calc. matrices:                  616.814   350.004   6.1% |-|
   Apply H:                        266.810   258.169   4.5% |-|
    HMM T:                           8.641     8.641   0.2% |
  diagonalize:                      88.385    88.385   1.5% ||
  rotate_psi:                      195.790   195.790   3.4% ||
 Density:                           78.675     0.001   0.0% |
  Atomic density matrices:           1.323     1.323   0.0% |
  Mix:                              12.883    12.883   0.2% |
  Multipole moments:                 0.032     0.032   0.0% |
  Pseudo density:                   64.435    64.434   1.1% |
   Symmetrize density:               0.002     0.002   0.0% |
 Forces:                           276.457   276.457   4.8% |-|
 Hamiltonian:                       21.949     0.121   0.0% |
  Atomic:                            2.839     2.839   0.0% |
   XC Correction:                    0.000     0.000   0.0% |
  Calculate atomic Hamiltonians:     9.479     9.479   0.2% |
  Communicate:                       0.098     0.098   0.0% |
  Poisson:                           0.085     0.085   0.0% |
  XC 3D grid:                        9.327     9.327   0.2% |
 Orthonormalize:                     4.397     0.004   0.0% |
  calc_s_matrix:                     0.523     0.523   0.0% |
  inverse-cholesky:                  0.054     0.054   0.0% |
  projections:                       2.885     2.885   0.1% |
  rotate_psi_s:                      0.932     0.932   0.0% |
Set symmetry:                        0.000     0.000   0.0% |
Other:                            3204.271  3204.271  56.2% |---------------------|
-----------------------------------------------------------
Total:                                      5704.889 100.0%

Memory usage: 12.59 GiB
Date: Mon Mar 22 04:29:22 2021
