
  ___ ___ ___ _ _ _  
 |   |   |_  | | | | 
 | | | | | . | | | | 
 |__ |  _|___|_____|  21.1.1b1
 |___|_|             

User:   madkru@g043.nifl.fysik.dtu.dk
Date:   Wed Mar 31 23:34:46 2021
Arch:   x86_64
Pid:    39387
Python: 3.8.6
gpaw:   /home/niflheim/madkru/venv_madkru/gpaw/gpaw (e6f0d78a31)
_gpaw:  /home/niflheim/madkru/venv_madkru/gpaw/build/lib.linux-x86_64-sandybridge-3.8/
        _gpaw.cpython-38-x86_64-linux-gnu.so (e6f0d78a31)
ase:    /home/niflheim/madkru/venv_madkru/ase/ase (version 3.22.0b1-4d5a73cb29)
numpy:  /home/modules/software/SciPy-bundle/2020.11-foss-2020b/lib/python3.8/site-packages/numpy (version 1.19.4)
scipy:  /home/modules/software/SciPy-bundle/2020.11-foss-2020b/lib/python3.8/site-packages/scipy (version 1.5.4)
libxc:  4.3.4
units:  Angstrom and eV
cores: 64
OpenMP: False
OMP_NUM_THREADS: 1

Input parameters:
  convergence: {bands: occupied,
                density: 0.0001,
                eigenstates: 4e-08,
                energy: 0.0005,
                forces: 1e-06}
  kpts: [6 6 4]
  maxiter: 1000
  mode: {ecut: 600.0,
         gammacentered: False,
         name: pw}
  occupations: {fixmagmom: False,
                name: fermi-dirac,
                width: 0.001}
  symmetry: {point_group: False,
             time_reversal: False}

System changes: positions, numbers, cell, pbc, initial_charges, initial_magmoms 

Initialize ...

O-setup:
  name: Oxygen
  id: 9b9d51c344dea68c822856295a461509
  Z: 8.0
  valence: 6
  core: 2
  charge: 0.0
  file: /home/modules/software/GPAW-setups/0.9.20000/O.LDA.gz
  compensation charges: gauss, rc=0.21, lmax=2
  cutoffs: 1.17(filt), 0.83(core),
  valence states:
                energy  radius
    2s(2.00)   -23.752   0.688
    2p(4.00)    -9.195   0.598
    *s           3.459   0.688
    *p          18.016   0.598
    *d           0.000   0.619

  Using partial waves for O as LCAO basis

Mn-setup:
  name: Manganese
  id: 0d715a8018be061a6e9ea6f2d364ac92
  Z: 25.0
  valence: 15
  core: 10
  charge: 0.0
  file: /home/modules/software/GPAW-setups/0.9.20000/Mn.LDA.gz
  compensation charges: gauss, rc=0.38, lmax=2
  cutoffs: 2.14(filt), 0.86(core),
  valence states:
                energy  radius
    3s(2.00)   -85.387   1.275
    4s(2.00)    -5.282   1.275
    3p(6.00)   -54.493   1.281
    4p(0.00)    -1.471   1.281
    3d(5.00)    -7.009   1.138
    *d          20.203   1.138

  Using partial waves for Mn as LCAO basis

P-setup:
  name: Phosphorus
  id: a5561c299094968922a179ab894d2e2d
  Z: 15.0
  valence: 5
  core: 10
  charge: 0.0
  file: /home/modules/software/GPAW-setups/0.9.20000/P.LDA.gz
  compensation charges: gauss, rc=0.30, lmax=2
  cutoffs: 1.69(filt), 1.81(core),
  valence states:
                energy  radius
    3s(2.00)   -14.015   0.953
    3p(3.00)    -5.596   0.953
    *s          13.197   0.953
    *p          21.615   0.953
    *d           0.000   0.953

  Using partial waves for P as LCAO basis

Li-setup:
  name: Lithium
  id: b73562207f97a71b6967473b66fe8b65
  Z: 3.0
  valence: 1
  core: 2
  charge: 0.0
  file: /home/modules/software/GPAW-setups/0.9.20000/Li.LDA.gz
  compensation charges: gauss, rc=0.33, lmax=2
  cutoffs: 1.91(filt), 2.55(core),
  valence states:
                energy  radius
    2s(1.00)    -2.874   1.058
    2p(0.00)    -1.126   1.058
    *s          24.338   1.058

  Using partial waves for Li as LCAO basis

Reference energy: -196157.275402

Spin-polarized calculation.
Magnetic moment: 0.000000

Convergence criteria:
  Maximum total energy change: 0.0005 eV / electron
  Maximum integral of absolute density change: 0.0001 electrons
  Maximum integral of absolute eigenstate change: 4e-08 eV^2
  Maximum change in atomic force: 1e-06 eV / Ang
  Maximum number of iterations: 1000

Symmetries present (total): 1

  ( 1  0  0)
  ( 0  1  0)
  ( 0  0  1)

144 k-points: 6 x 6 x 4 Monkhorst-Pack grid
144 k-points in the irreducible part of the Brillouin zone
       k-points in crystal coordinates                weights
   0:    -0.41666667   -0.41666667   -0.37500000          1/144
   1:    -0.41666667   -0.41666667   -0.12500000          1/144
   2:    -0.41666667   -0.41666667    0.12500000          1/144
   3:    -0.41666667   -0.41666667    0.37500000          1/144
   4:    -0.41666667   -0.25000000   -0.37500000          1/144
   5:    -0.41666667   -0.25000000   -0.12500000          1/144
   6:    -0.41666667   -0.25000000    0.12500000          1/144
   7:    -0.41666667   -0.25000000    0.37500000          1/144
   8:    -0.41666667   -0.08333333   -0.37500000          1/144
   9:    -0.41666667   -0.08333333   -0.12500000          1/144
          ...
 143:     0.41666667    0.41666667    0.37500000          1/144

Wave functions: Plane wave expansion
  Cutoff energy: 600.000 eV
  Number of coefficients (min, max): 10068, 10125
  Pulay-stress correction: 0.000000 eV/Ang^3 (de/decut=0.000000)
  Using FFTW library
  ScaLapack parameters: grid=1x1, blocksize=None
  Wavefunction extrapolation:
    Improved wavefunction reuse through dual PAW basis 

  Fermi-Dirac: width=0.0010 eV

Eigensolver
   Davidson(niter=2) 

Densities:
  Coarse grid: 60*35*27 grid
  Fine grid: 120*70*54 grid
  Total Charge: 0.000000 

Density mixing:
  Method: difference
  Backend: pulay
  Linear mixing parameter: 0.05
  Mixing with 5 old densities
  Damping of long wave oscillations: 50 

Hamiltonian:
  XC and Coulomb potentials evaluated on a 120*70*54 grid
  Using the LDA Exchange-Correlation functional
 

Memory estimate:
  Process memory now: 14415.33 MiB
  Calculator: 354.82 MiB
    Density: 10.06 MiB
      Arrays: 3.79 MiB
      Localized functions: 4.71 MiB
      Mixer: 1.56 MiB
    Hamiltonian: 2.95 MiB
      Arrays: 2.82 MiB
      XC: 0.00 MiB
      Poisson: 0.00 MiB
      vbar: 0.14 MiB
    Wavefunctions: 341.80 MiB
      Arrays psit_nG: 311.46 MiB
      Eigensolver: 19.99 MiB
      Projections: 2.71 MiB
      Projectors: 4.87 MiB
      PW-descriptor: 2.77 MiB

Total number of cores used: 64
Parallelization over k-points: 16
Domain decomposition: 2 x 2 x 1

Number of atoms: 28
Number of atomic orbitals: 148
Number of bands in calculation: 112
Number of valence electrons: 180
Bands to converge: occupied

... initialized

Initializing position-dependent things.

Density initialized from atomic densities
Creating initial wave functions:
  112 bands from LCAO basis set

     .-------------------------.  
    /|         OP              |  
   / |O            O        O  |  
  /  |       O            O  P |  
 *   |O    Mn      O           |  
 |   |          OLi          O |  
 |   .P-O--------------Mn------.  
 |  /          Li    O  Mn  O /   
 | /Li O           PO        /    
 |/       Mn                /     
 *Li-----------------------*      

Positions:
   0 O     -1.360678   -2.541161   -1.202221    ( 0.0000,  0.0000,  0.0000)
   1 O     -3.121941    2.976855    1.167242    ( 0.0000,  0.0000,  0.0000)
   2 O      2.107533    0.508090    1.540712    ( 0.0000,  0.0000,  0.0000)
   3 O      3.869373   -0.072395   -0.828750    ( 0.0000,  0.0000,  0.0000)
   4 O      2.107821    2.976875    1.540792    ( 0.0000,  0.0000,  0.0000)
   5 O      3.869084   -2.541141   -0.828671    ( 0.0000,  0.0000,  0.0000)
   6 O     -1.360390   -0.072375   -1.202141    ( 0.0000,  0.0000,  0.0000)
   7 O     -3.122230    0.508109    1.167321    ( 0.0000,  0.0000,  0.0000)
   8 O     -4.413461   -1.306992   -0.794251    ( 0.0000,  0.0000,  0.0000)
   9 O     -0.069585    1.742707    1.575662    ( 0.0000,  0.0000,  0.0000)
  10 O      5.160604    1.742707    1.132822    ( 0.0000,  0.0000,  0.0000)
  11 O      0.816728   -1.306992   -1.237091    ( 0.0000,  0.0000,  0.0000)
  12 Mn    -2.570809   -1.307302    0.247161    ( 0.0000,  0.0000,  1.0000)
  13 Mn    -1.912021    1.743016   -2.122906    ( 0.0000,  0.0000, -1.0000)
  14 Mn     3.317952    1.743017    0.091411    ( 0.0000,  0.0000, -1.0000)
  15 Mn     2.659164   -1.307302    2.461478    ( 0.0000,  0.0000,  1.0000)
  16 P     -0.620664   -1.306816   -1.828465    ( 0.0000,  0.0000,  0.0000)
  17 P     -3.862097    1.742530    0.541238    ( 0.0000,  0.0000,  0.0000)
  18 P      1.367807    1.742530    2.167036    ( 0.0000,  0.0000,  0.0000)
  19 P      4.609240   -1.306816   -0.202666    ( 0.0000,  0.0000,  0.0000)
  20 O     -0.646437   -1.306845    1.374751    ( 0.0000,  0.0000,  0.0000)
  21 O     -3.836504    1.752559   -0.995565    ( 0.0000,  0.0000,  0.0000)
  22 O      1.393580    1.742559   -1.036179    ( 0.0000,  0.0000,  0.0000)
  23 O      4.583647   -1.306845    1.334136    ( 0.0000,  0.0000,  0.0000)
  24 Li    -4.856429   -2.832143   -2.200714    ( 0.0000,  0.0000,  0.0000)
  25 Li     0.373571   -2.832143    0.169286    ( 0.0000,  0.0000,  0.0000)
  26 Li    -4.856429    0.217857   -2.200714    ( 0.0000,  0.0000,  0.0000)
  27 Li     0.373571    0.217857    0.169286    ( 0.0000,  0.0000,  0.0000)

Unit cell:
           periodic     x           y           z      points  spacing
  1. axis:    yes   10.460000    0.000000    0.000000    60     0.1743
  2. axis:    yes    0.000000    6.100000    0.000000    35     0.1743
  3. axis:    yes    0.000000    0.000000    4.740000    27     0.1756

  Lengths:  10.460000   6.100000   4.740000
  Angles:   90.000000  90.000000  90.000000

Effective grid spacing dv^(1/3) = 0.1747

                     log10-error:           total        iterations:
           time      wfs    density  force  energy       poisson  magmom
iter:   1  23:36:21                       -231.920215             +0.0000
iter:   2  23:36:42  -0.55  -0.94         -231.730845             +0.0052
iter:   3  23:37:04  -0.72  -0.98         -220.584681             +0.0065
iter:   4  23:37:25  -0.96  -1.20         -218.866134             +0.0022
iter:   5  23:37:46  -1.94  -1.36         -221.254459             +0.0014
iter:   6  23:38:08  -1.99  -1.50         -219.969375             +0.0007
iter:   7  23:38:29  -2.21  -1.68         -222.938524             +0.1826
iter:   8  23:38:50  -2.73  -1.89         -219.887866             +0.2525
iter:   9  23:39:11  -2.19  -1.94         -225.044505             +0.6586
iter:  10  23:39:33  -2.24  -1.87         -227.236958             +0.0061
iter:  11  23:39:54  -2.99  -1.84         -227.289546             -0.0145
iter:  12  23:40:15  -3.04  -1.81         -227.199939             -0.0045
iter:  13  23:40:36  -1.39  -1.80         -228.715880             -0.0034
iter:  14  23:40:57  -2.82  -1.86         -227.194849             -0.0014
iter:  15  23:41:19  -2.72  -2.06         -227.337643             -0.0003
iter:  16  23:41:40  -2.89  -2.05         -226.862199             -0.0007
iter:  17  23:42:01  -2.09  -2.09         -226.484691             -0.0002
iter:  18  23:42:22  -1.96  -2.14         -227.086634             -0.0001
iter:  19  23:42:44  -2.91  -2.12         -226.623576             -0.0001
iter:  20  23:43:05  -3.40  -2.22         -226.515968             -0.0000
iter:  21  23:43:26  -3.07  -2.28         -226.400986             +0.0000
iter:  22  23:43:47  -3.15  -2.37         -226.304177             +0.0000
iter:  23  23:44:09  -2.57  -2.40         -226.263372             +0.0000
iter:  24  23:44:30  -3.58  -2.50         -226.232253             +0.0000
iter:  25  23:44:51  -3.76  -2.84         -226.229996             +0.0000
iter:  26  23:45:12  -4.77  -3.10         -226.230192             +0.0000
iter:  27  23:45:33  -3.92  -3.14         -226.228931             -0.0000
iter:  28  23:45:55  -4.86  -3.25         -226.228895             -0.0000
iter:  29  23:46:16  -4.60  -3.40         -226.228755             +0.0000
iter:  30  23:46:37  -4.99  -3.45         -226.228241             +0.0000
iter:  31  23:46:58  -5.30  -3.55         -226.228153             +0.0000
iter:  32  23:47:20  -4.86  -3.76         -226.227765             +0.0000
iter:  33  23:47:41  -5.59  -3.86         -226.227768             +0.0000
iter:  34  23:48:02  -5.49  -4.03         -226.227794             +0.0000
iter:  35  23:48:23  -6.28  -4.15         -226.227733             +0.0000
iter:  36  23:48:45  -6.04  -4.38         -226.227738             +0.0000
iter:  37  23:49:06  -6.41  -4.42         -226.227729             +0.0000
iter:  38  23:49:33  -7.81  -4.64         -226.227727             +0.0000
iter:  39  23:49:54  -7.28  -4.67         -226.227727             +0.0000
iter:  40  23:50:15  -7.00  -4.75         -226.227727             +0.0000
iter:  41  23:50:42  -7.74  -4.88    -2.31-226.227726             +0.0000
iter:  42  23:51:08  -7.78  -5.32    -2.84-226.227725             +0.0000
iter:  43  23:51:35  -8.28  -5.38    -2.97-226.227725             +0.0000
iter:  44  23:52:02  -8.90  -5.66    -3.42-226.227725             -0.0000
iter:  45  23:52:29  -9.78  -5.79    -3.85-226.227725             -0.0000
iter:  46  23:52:55  -9.46  -5.82    -3.59-226.227725             -0.0000
iter:  47  23:53:22  -9.17  -5.89    -3.47-226.227725             -0.0000
iter:  48  23:53:49 -10.44  -6.08    -4.23-226.227725             -0.0000
iter:  49  23:54:16  -9.67  -6.11    -3.63-226.227725             -0.0000
iter:  50  23:54:42 -10.16  -6.26    -3.86-226.227725             -0.0000
iter:  51  23:55:09 -10.95  -6.53    -4.63-226.227725             -0.0000
iter:  52  23:55:36 -11.35  -6.57    -4.45-226.227725             -0.0000
iter:  53  23:56:02 -11.52  -6.75    -4.65-226.227725             -0.0000
iter:  54  23:56:29 -11.90  -6.83    -4.74-226.227725             -0.0000
iter:  55  23:56:56 -11.44  -6.90    -4.80-226.227725             -0.0000
iter:  56  23:57:23 -11.72  -6.98    -4.69-226.227725             -0.0000
iter:  57  23:57:49 -12.36  -7.09    -5.31-226.227725             -0.0000
iter:  58  23:58:16 -12.74  -7.12    -5.15-226.227725             +0.0000
iter:  59  23:58:43 -11.91  -7.16    -4.83-226.227725             +0.0000
iter:  60  23:59:09 -12.52  -7.22    -5.03-226.227725             +0.0000
iter:  61  23:59:36 -13.03  -7.31    -5.71-226.227725             +0.0000
iter:  62  00:00:03 -12.90  -7.41    -5.33-226.227725             +0.0000
iter:  63  00:00:30 -13.24  -7.62    -5.43-226.227725             +0.0000
iter:  64  00:00:56 -13.41  -7.77    -5.81-226.227725             +0.0000
iter:  65  00:01:23 -13.82  -7.89    -5.91-226.227725             +0.0000
iter:  66  00:01:50 -14.35  -8.00    -6.04-226.227725             +0.0000

Converged after 66 iterations.

Dipole moment: (10.671452, 1.407155, -6.269761) |e|*Ang

Total magnetic moment: (0.000000, 0.000000, 0.000000)
Local magnetic moments:
   0 O  ( 0.000000,  0.000000, -0.000536)
   1 O  ( 0.000000,  0.000000,  0.000496)
   2 O  ( 0.000000,  0.000000,  0.000537)
   3 O  ( 0.000000,  0.000000, -0.000559)
   4 O  ( 0.000000,  0.000000,  0.000518)
   5 O  ( 0.000000,  0.000000, -0.000529)
   6 O  ( 0.000000,  0.000000, -0.000521)
   7 O  ( 0.000000,  0.000000,  0.000591)
   8 O  ( 0.000000,  0.000000,  0.028692)
   9 O  ( 0.000000,  0.000000, -0.028702)
  10 O  ( 0.000000,  0.000000, -0.028692)
  11 O  ( 0.000000,  0.000000,  0.028701)
  12 Mn ( 0.000000,  0.000000,  4.448162)
  13 Mn ( 0.000000,  0.000000, -4.448238)
  14 Mn ( 0.000000,  0.000000, -4.448161)
  15 Mn ( 0.000000,  0.000000,  4.448242)
  16 P  ( 0.000000,  0.000000,  0.001558)
  17 P  ( 0.000000,  0.000000, -0.001543)
  18 P  ( 0.000000,  0.000000, -0.001558)
  19 P  ( 0.000000,  0.000000,  0.001543)
  20 O  ( 0.000000,  0.000000,  0.025315)
  21 O  ( 0.000000,  0.000000, -0.025307)
  22 O  ( 0.000000,  0.000000, -0.025315)
  23 O  ( 0.000000,  0.000000,  0.025306)
  24 Li ( 0.000000,  0.000000, -0.000004)
  25 Li ( 0.000000,  0.000000,  0.000000)
  26 Li ( 0.000000,  0.000000,  0.000004)
  27 Li ( 0.000000,  0.000000, -0.000000)

Energy contributions relative to reference atoms: (reference = -196157.275402)

Kinetic:       +217.349667
Potential:     -195.235165
External:        +0.000000
XC:            -250.383404
Entropy (-ST):   -0.000000
Local:           +2.041177
--------------------------
Free energy:   -226.227725
Extrapolated:  -226.227725

Spin contamination: 9.560411 electrons
Showing only first 2 kpts
                      Up                     Down
 Kpt  Band  Eigenvalues  Occupancy  Eigenvalues  Occupancy
  0    88      5.10990    1.00000      5.10977    1.00000
  0    89      5.13435    1.00000      5.13433    1.00000
  0    90      7.28862    0.00000      7.28865    0.00000
  0    91      7.30635    0.00000      7.30637    0.00000

  1    88      5.13561    1.00000      5.13547    1.00000
  1    89      5.16481    1.00000      5.16477    1.00000
  1    90      7.23140    0.00000      7.23145    0.00000
  1    91      7.24366    0.00000      7.24367    0.00000


Fermi level: 6.73838

Gap: 1.972 eV
Transition (v -> c):
  (s=1, k=50, n=89, [-0.08, -0.42, 0.12]) -> (s=0, k=57, n=90, [-0.08, -0.08, -0.12])
Writing to born-0.01-21y+.gpw (mode='all')

Timing:                              incl.     excl.
-----------------------------------------------------------
Hamiltonian:                         0.248     0.003   0.0% |
 Atomic:                             0.058     0.058   0.0% |
  XC Correction:                     0.000     0.000   0.0% |
 Calculate atomic Hamiltonians:      0.094     0.094   0.0% |
 Communicate:                        0.000     0.000   0.0% |
 Initialize Hamiltonian:             0.000     0.000   0.0% |
 Poisson:                            0.001     0.001   0.0% |
 XC 3D grid:                         0.091     0.091   0.0% |
LCAO initialization:                71.146     0.674   0.0% |
 LCAO eigensolver:                  18.030     0.003   0.0% |
  Calculate projections:             0.029     0.029   0.0% |
  DenseAtomicCorrection:             0.043     0.043   0.0% |
  Distribute overlap matrix:         0.075     0.075   0.0% |
  Orbital Layouts:                   0.278     0.278   0.0% |
  Potential matrix:                 17.513    17.513   0.4% |
  Sum over cells:                    0.089     0.089   0.0% |
 LCAO to grid:                      51.098    51.098   1.3% ||
 Set positions (LCAO WFS):           1.344     0.182   0.0% |
  Basic WFS set positions:           0.002     0.002   0.0% |
  Basis functions set positions:     0.000     0.000   0.0% |
  P tci:                             0.573     0.573   0.0% |
  ST tci:                            0.368     0.368   0.0% |
  mktci:                             0.219     0.219   0.0% |
PWDescriptor:                        0.041     0.041   0.0% |
SCF-cycle:                        1551.150     3.073   0.1% |
 Davidson:                        1328.475   424.502  10.7% |---|
  Apply H:                          89.415    86.601   2.2% ||
   HMM T:                            2.814     2.814   0.1% |
  Subspace diag:                   191.297     0.192   0.0% |
   calc_h_matrix:                  122.057    33.313   0.8% |
    Apply H:                        88.744    86.072   2.2% ||
     HMM T:                          2.672     2.672   0.1% |
   diagonalize:                      6.744     6.744   0.2% |
   rotate_psi:                      62.304    62.304   1.6% ||
  calc. matrices:                  396.811   221.531   5.6% |-|
   Apply H:                        175.280   169.928   4.3% |-|
    HMM T:                           5.351     5.351   0.1% |
  diagonalize:                     102.213   102.213   2.6% ||
  rotate_psi:                      124.236   124.236   3.1% ||
 Density:                           52.783     0.002   0.0% |
  Atomic density matrices:           0.890     0.890   0.0% |
  Mix:                               9.049     9.049   0.2% |
  Multipole moments:                 0.024     0.024   0.0% |
  Pseudo density:                   42.819    42.817   1.1% |
   Symmetrize density:               0.002     0.002   0.0% |
 Forces:                           148.319   148.319   3.7% ||
 Hamiltonian:                       16.198     0.140   0.0% |
  Atomic:                            3.767     3.767   0.1% |
   XC Correction:                    0.000     0.000   0.0% |
  Calculate atomic Hamiltonians:     6.220     6.220   0.2% |
  Communicate:                       0.022     0.022   0.0% |
  Poisson:                           0.061     0.061   0.0% |
  XC 3D grid:                        5.987     5.987   0.2% |
 Orthonormalize:                     2.303     0.003   0.0% |
  calc_s_matrix:                     0.266     0.266   0.0% |
  inverse-cholesky:                  0.040     0.040   0.0% |
  projections:                       1.509     1.509   0.0% |
  rotate_psi_s:                      0.486     0.486   0.0% |
Set symmetry:                        0.000     0.000   0.0% |
Other:                            2338.821  2338.821  59.0% |-----------------------|
-----------------------------------------------------------
Total:                                      3961.407 100.0%

Memory usage: 14.08 GiB
Date: Thu Apr  1 00:40:47 2021
