
  ___ ___ ___ _ _ _  
 |   |   |_  | | | | 
 | | | | | . | | | | 
 |__ |  _|___|_____|  20.10.1b1
 |___|_|             

User:   madkru@g064.nifl.fysik.dtu.dk
Date:   Sun Mar 21 11:25:57 2021
Arch:   x86_64
Pid:    60512
Python: 3.7.4
gpaw:   /home/niflheim/madkru/venv_folder/gpaw/gpaw (d0d1ca1c71)
_gpaw:  /home/niflheim/madkru/venv_folder/gpaw/build/lib.linux-x86_64-sandybridge-3.7/
        _gpaw.cpython-37m-x86_64-linux-gnu.so (4fd39e8b1e)
ase:    /home/niflheim/madkru/venv_folder/ase/ase (version 3.21.0b1-7e6c206a91)
numpy:  /home/niflheim/madkru/venv_folder/lib/python3.7/site-packages/numpy (version 1.19.4)
scipy:  /home/niflheim/madkru/venv_folder/lib/python3.7/site-packages/scipy (version 1.5.4)
libxc:  4.3.4
units:  Angstrom and eV
cores: 32
OMP_NUM_THREADS: 1

Input parameters:
  convergence: {bands: occupied,
                density: 0.0001,
                eigenstates: 4e-08,
                energy: 0.0005,
                forces: 1e-06}
  kpts: [6 6 4]
  mode: {ecut: 600.0,
         gammacentered: False,
         name: pw}
  occupations: {fixmagmom: False,
                name: fermi-dirac,
                width: 0.001}
  symmetry: {point_group: False,
             time_reversal: False}

System changes: positions, numbers, cell, pbc, initial_charges, initial_magmoms 

Initialize ...

O-setup:
  name: Oxygen
  id: 9b9d51c344dea68c822856295a461509
  Z: 8.0
  valence: 6
  core: 2
  charge: 0.0
  file: /home/modules/software/GPAW-setups/0.9.20000/O.LDA.gz
  compensation charges: gauss, rc=0.21, lmax=2
  cutoffs: 1.17(filt), 0.83(core),
  valence states:
                energy  radius
    2s(2.00)   -23.752   0.688
    2p(4.00)    -9.195   0.598
    *s           3.459   0.688
    *p          18.016   0.598
    *d           0.000   0.619

  Using partial waves for O as LCAO basis

Mn-setup:
  name: Manganese
  id: 0d715a8018be061a6e9ea6f2d364ac92
  Z: 25.0
  valence: 15
  core: 10
  charge: 0.0
  file: /home/modules/software/GPAW-setups/0.9.20000/Mn.LDA.gz
  compensation charges: gauss, rc=0.38, lmax=2
  cutoffs: 2.14(filt), 0.86(core),
  valence states:
                energy  radius
    3s(2.00)   -85.387   1.275
    4s(2.00)    -5.282   1.275
    3p(6.00)   -54.493   1.281
    4p(0.00)    -1.471   1.281
    3d(5.00)    -7.009   1.138
    *d          20.203   1.138

  Using partial waves for Mn as LCAO basis

P-setup:
  name: Phosphorus
  id: a5561c299094968922a179ab894d2e2d
  Z: 15.0
  valence: 5
  core: 10
  charge: 0.0
  file: /home/modules/software/GPAW-setups/0.9.20000/P.LDA.gz
  compensation charges: gauss, rc=0.30, lmax=2
  cutoffs: 1.69(filt), 1.81(core),
  valence states:
                energy  radius
    3s(2.00)   -14.015   0.953
    3p(3.00)    -5.596   0.953
    *s          13.197   0.953
    *p          21.615   0.953
    *d           0.000   0.953

  Using partial waves for P as LCAO basis

Li-setup:
  name: Lithium
  id: b73562207f97a71b6967473b66fe8b65
  Z: 3.0
  valence: 1
  core: 2
  charge: 0.0
  file: /home/modules/software/GPAW-setups/0.9.20000/Li.LDA.gz
  compensation charges: gauss, rc=0.33, lmax=2
  cutoffs: 1.91(filt), 2.55(core),
  valence states:
                energy  radius
    2s(1.00)    -2.874   1.058
    2p(0.00)    -1.126   1.058
    *s          24.338   1.058

  Using partial waves for Li as LCAO basis

Reference energy: -196157.275402

Spin-polarized calculation.
Magnetic moment: 0.000000

Convergence criteria:
  Maximum total energy change: 0.0005 eV / electron
  Maximum integral of absolute density change: 0.0001 electrons
  Maximum integral of absolute eigenstate change: 4e-08 eV^2
  Maximum change in atomic force: 1e-06 eV / Ang
  Maximum number of iterations: 333

Symmetries present (total): 1

  ( 1  0  0)
  ( 0  1  0)
  ( 0  0  1)

144 k-points: 6 x 6 x 4 Monkhorst-Pack grid
144 k-points in the irreducible part of the Brillouin zone
       k-points in crystal coordinates                weights
   0:    -0.41666667   -0.41666667   -0.37500000          1/144
   1:    -0.41666667   -0.41666667   -0.12500000          1/144
   2:    -0.41666667   -0.41666667    0.12500000          1/144
   3:    -0.41666667   -0.41666667    0.37500000          1/144
   4:    -0.41666667   -0.25000000   -0.37500000          1/144
   5:    -0.41666667   -0.25000000   -0.12500000          1/144
   6:    -0.41666667   -0.25000000    0.12500000          1/144
   7:    -0.41666667   -0.25000000    0.37500000          1/144
   8:    -0.41666667   -0.08333333   -0.37500000          1/144
   9:    -0.41666667   -0.08333333   -0.12500000          1/144
          ...
 143:     0.41666667    0.41666667    0.37500000          1/144

Wave functions: Plane wave expansion
  Cutoff energy: 600.000 eV
  Number of coefficients (min, max): 10068, 10125
  Pulay-stress correction: 0.000000 eV/Ang^3 (de/decut=0.000000)
  Using FFTW library
  ScaLapack parameters: grid=1x1, blocksize=None
  Wavefunction extrapolation:
    Improved wavefunction reuse through dual PAW basis 

  Fermi-Dirac: width=0.0010 eV

Eigensolver
   Davidson(niter=2, smin=None, normalize=True) 

Densities:
  Coarse grid: 60*35*27 grid
  Fine grid: 120*70*54 grid
  Total Charge: 0.000000 

Density mixing:
  Method: difference
  Backend: pulay
  Linear mixing parameter: 0.05
  Mixing with 5 old densities
  Damping of long wave oscillations: 50 

Hamiltonian:
  XC and Coulomb potentials evaluated on a 120*70*54 grid
  Using the LDA Exchange-Correlation functional
 

Memory estimate:
  Process memory now: 12415.19 MiB
  Calculator: 375.55 MiB
    Density: 20.02 MiB
      Arrays: 7.57 MiB
      Localized functions: 9.42 MiB
      Mixer: 3.03 MiB
    Hamiltonian: 5.90 MiB
      Arrays: 5.62 MiB
      XC: 0.00 MiB
      Poisson: 0.00 MiB
      vbar: 0.27 MiB
    Wavefunctions: 349.64 MiB
      Arrays psit_nG: 311.46 MiB
      Eigensolver: 19.99 MiB
      Projections: 5.41 MiB
      Projectors: 9.73 MiB
      PW-descriptor: 3.03 MiB

Total number of cores used: 32
Parallelization over k-points: 16
Domain decomposition: 2 x 1 x 1

Number of atoms: 28
Number of atomic orbitals: 148
Number of bands in calculation: 112
Number of valence electrons: 180
Bands to converge: occupied

... initialized

Initializing position-dependent things.

Density initialized from atomic densities
Creating initial wave functions:
  112 bands from LCAO basis set

     .-------------------------.  
    /|         OP              |  
   / |O            O        O  |  
  /  |       O            O  P |  
 *   |O    Mn      O           |  
 |   |          OLi          O |  
 |   .P-O--------------Mn------.  
 |  /          Li    O  Mn  O /   
 | /Li O           PO        /    
 |/       Mn                /     
 *Li-----------------------*      

Positions:
   0 O     -1.360678   -2.541161   -1.202221    ( 0.0000,  0.0000,  0.0000)
   1 O     -3.121941    2.986855    1.167242    ( 0.0000,  0.0000,  0.0000)
   2 O      2.107533    0.508090    1.540712    ( 0.0000,  0.0000,  0.0000)
   3 O      3.869373   -0.072395   -0.828750    ( 0.0000,  0.0000,  0.0000)
   4 O      2.107821    2.976875    1.540792    ( 0.0000,  0.0000,  0.0000)
   5 O      3.869084   -2.541141   -0.828671    ( 0.0000,  0.0000,  0.0000)
   6 O     -1.360390   -0.072375   -1.202141    ( 0.0000,  0.0000,  0.0000)
   7 O     -3.122230    0.508109    1.167321    ( 0.0000,  0.0000,  0.0000)
   8 O     -4.413461   -1.306992   -0.794251    ( 0.0000,  0.0000,  0.0000)
   9 O     -0.069585    1.742707    1.575662    ( 0.0000,  0.0000,  0.0000)
  10 O      5.160604    1.742707    1.132822    ( 0.0000,  0.0000,  0.0000)
  11 O      0.816728   -1.306992   -1.237091    ( 0.0000,  0.0000,  0.0000)
  12 Mn    -2.570809   -1.307302    0.247161    ( 0.0000,  0.0000,  1.0000)
  13 Mn    -1.912021    1.743016   -2.122906    ( 0.0000,  0.0000, -1.0000)
  14 Mn     3.317952    1.743017    0.091411    ( 0.0000,  0.0000, -1.0000)
  15 Mn     2.659164   -1.307302    2.461478    ( 0.0000,  0.0000,  1.0000)
  16 P     -0.620664   -1.306816   -1.828465    ( 0.0000,  0.0000,  0.0000)
  17 P     -3.862097    1.742530    0.541238    ( 0.0000,  0.0000,  0.0000)
  18 P      1.367807    1.742530    2.167036    ( 0.0000,  0.0000,  0.0000)
  19 P      4.609240   -1.306816   -0.202666    ( 0.0000,  0.0000,  0.0000)
  20 O     -0.646437   -1.306845    1.374751    ( 0.0000,  0.0000,  0.0000)
  21 O     -3.836504    1.742559   -0.995565    ( 0.0000,  0.0000,  0.0000)
  22 O      1.393580    1.742559   -1.036179    ( 0.0000,  0.0000,  0.0000)
  23 O      4.583647   -1.306845    1.334136    ( 0.0000,  0.0000,  0.0000)
  24 Li    -4.856429   -2.832143   -2.200714    ( 0.0000,  0.0000,  0.0000)
  25 Li     0.373571   -2.832143    0.169286    ( 0.0000,  0.0000,  0.0000)
  26 Li    -4.856429    0.217857   -2.200714    ( 0.0000,  0.0000,  0.0000)
  27 Li     0.373571    0.217857    0.169286    ( 0.0000,  0.0000,  0.0000)

Unit cell:
           periodic     x           y           z      points  spacing
  1. axis:    yes   10.460000    0.000000    0.000000    60     0.1743
  2. axis:    yes    0.000000    6.100000    0.000000    35     0.1743
  3. axis:    yes    0.000000    0.000000    4.740000    27     0.1756

  Lengths:  10.460000   6.100000   4.740000
  Angles:   90.000000  90.000000  90.000000

Effective grid spacing dv^(1/3) = 0.1747

                     log10-error:           total        iterations:
           time      wfs    density  force  energy       poisson  magmom
iter:   1  11:28:56                       -231.922027             +0.0000
iter:   2  11:29:36  -0.55  -0.94         -231.718180             -0.0044
iter:   3  11:30:15  -0.72  -0.98         -220.590737             -0.0055
iter:   4  11:30:54  -0.95  -1.20         -218.881347             -0.0017
iter:   5  11:31:34  -1.93  -1.36         -222.353672             -0.0011
iter:   6  11:32:13  -1.99  -1.42         -221.522032             +0.0058
iter:   7  11:32:53  -1.82  -1.58         -224.923112             +0.6918
iter:   8  11:33:32  -2.33  -1.62         -224.854922             -0.2688
iter:   9  11:34:12  -2.66  -1.83         -226.142738             -0.6121
iter:  10  11:34:51  -2.61  -1.82         -227.047419             -0.3020
iter:  11  11:35:30  -2.45  -1.80         -226.964823             -0.0822
iter:  12  11:36:09  -2.65  -1.75         -226.829411             -0.0210
iter:  13  11:36:49  -1.93  -1.81         -226.865366             -0.0201
iter:  14  11:37:28  -2.07  -2.07         -226.351305             -0.0064
iter:  15  11:38:07  -2.66  -2.26         -226.308407             -0.0026
iter:  16  11:38:47  -2.20  -2.39         -226.448691             -0.0005
iter:  17  11:39:26  -2.89  -2.54         -226.258397             -0.0006
iter:  18  11:40:05  -3.66  -2.90         -226.238915             -0.0002
iter:  19  11:40:45  -3.67  -2.94         -226.229624             -0.0000
iter:  20  11:41:24  -4.07  -3.32         -226.226927             -0.0000
iter:  21  11:42:03  -5.29  -3.39         -226.227050             -0.0000
iter:  22  11:42:43  -5.10  -3.41         -226.227098             +0.0000
iter:  23  11:43:22  -4.94  -3.52         -226.226705             +0.0000
iter:  24  11:44:01  -5.86  -3.59         -226.226723             +0.0000
iter:  25  11:44:41  -5.21  -3.62         -226.226774             +0.0000
iter:  26  11:45:20  -5.96  -3.89         -226.226688             +0.0000
iter:  27  11:46:00  -6.68  -4.00         -226.226675             +0.0000
iter:  28  11:46:39  -6.36  -4.03         -226.226669             +0.0000
iter:  29  11:47:18  -6.19  -4.12         -226.226656             +0.0000
iter:  30  11:47:58  -6.45  -4.22         -226.226661             +0.0000
iter:  31  11:48:37  -6.56  -4.42         -226.226674             +0.0000
iter:  32  11:49:16  -6.64  -4.55         -226.226646             +0.0000
iter:  33  11:50:06  -7.59  -4.78         -226.226646             +0.0000
iter:  34  11:50:56  -8.08  -4.84    -2.91-226.226646             +0.0000
iter:  35  11:51:35  -7.39  -4.95         -226.226645             -0.0000
iter:  36  11:52:25  -8.07  -5.03    -2.67-226.226645             +0.0000
iter:  37  11:53:15  -8.68  -5.10    -3.78-226.226645             -0.0000
iter:  38  11:54:05  -9.00  -5.12    -3.30-226.226645             -0.0000
iter:  39  11:54:55  -9.53  -5.38    -3.34-226.226645             -0.0000
iter:  40  11:55:45  -9.43  -5.63    -3.48-226.226645             -0.0000
iter:  41  11:56:35  -9.98  -5.78    -3.81-226.226645             -0.0000
iter:  42  11:57:24  -9.45  -5.94    -3.49-226.226645             -0.0000
iter:  43  11:58:14 -10.64  -6.18    -4.54-226.226645             -0.0000
iter:  44  11:59:04  -9.92  -6.22    -3.87-226.226645             -0.0000
iter:  45  11:59:54 -11.01  -6.42    -4.02-226.226645             -0.0000
iter:  46  12:00:44 -10.75  -6.63    -4.06-226.226645             -0.0000
iter:  47  12:01:34 -11.80  -6.71    -4.71-226.226645             -0.0000
iter:  48  12:02:24 -12.16  -6.83    -5.02-226.226645             -0.0000
iter:  49  12:03:14 -11.71  -6.87    -4.38-226.226645             -0.0000
iter:  50  12:04:04 -11.53  -7.08    -4.72-226.226645             -0.0000
iter:  51  12:04:54 -12.90  -7.39    -5.26-226.226645             -0.0000
iter:  52  12:05:44 -12.51  -7.45    -5.05-226.226645             -0.0000
iter:  53  12:06:34 -12.49  -7.50    -5.11-226.226645             -0.0000
iter:  54  12:07:24 -13.74  -7.70    -5.65-226.226645             -0.0000
iter:  55  12:08:14 -13.73  -7.76    -5.69-226.226645             -0.0000
iter:  56  12:09:04 -13.39  -7.80    -5.60-226.226645             -0.0000
iter:  57  12:09:54 -13.45  -7.96    -5.63-226.226645             -0.0000
iter:  58  12:10:44 -14.34  -8.07    -5.90-226.226645             -0.0000
iter:  59  12:11:34 -13.72  -8.17    -5.69-226.226645             -0.0000
iter:  60  12:12:24 -14.97  -8.65    -6.33-226.226645             -0.0000

Converged after 60 iterations.

Dipole moment: (10.670202, 1.406989, -6.271131) |e|*Ang

Total magnetic moment: (0.000000, 0.000000, -0.000000)
Local magnetic moments:
   0 O  ( 0.000000,  0.000000, -0.000486)
   1 O  ( 0.000000,  0.000000,  0.000926)
   2 O  ( 0.000000,  0.000000,  0.000528)
   3 O  ( 0.000000,  0.000000, -0.000562)
   4 O  ( 0.000000,  0.000000,  0.000505)
   5 O  ( 0.000000,  0.000000, -0.000549)
   6 O  ( 0.000000,  0.000000, -0.000758)
   7 O  ( 0.000000,  0.000000,  0.000413)
   8 O  ( 0.000000,  0.000000,  0.028703)
   9 O  ( 0.000000,  0.000000, -0.028712)
  10 O  ( 0.000000,  0.000000, -0.028483)
  11 O  ( 0.000000,  0.000000,  0.028718)
  12 Mn ( 0.000000,  0.000000,  4.446789)
  13 Mn ( 0.000000,  0.000000, -4.448048)
  14 Mn ( 0.000000,  0.000000, -4.448057)
  15 Mn ( 0.000000,  0.000000,  4.448256)
  16 P  ( 0.000000,  0.000000,  0.001572)
  17 P  ( 0.000000,  0.000000, -0.001235)
  18 P  ( 0.000000,  0.000000, -0.001550)
  19 P  ( 0.000000,  0.000000,  0.001561)
  20 O  ( 0.000000,  0.000000,  0.025357)
  21 O  ( 0.000000,  0.000000, -0.025178)
  22 O  ( 0.000000,  0.000000, -0.025337)
  23 O  ( 0.000000,  0.000000,  0.025305)
  24 Li ( 0.000000,  0.000000,  0.000017)
  25 Li ( 0.000000,  0.000000,  0.000001)
  26 Li ( 0.000000,  0.000000,  0.000001)
  27 Li ( 0.000000,  0.000000,  0.000001)

Energy contributions relative to reference atoms: (reference = -196157.275402)

Kinetic:       +216.845666
Potential:     -194.845222
External:        +0.000000
XC:            -250.269314
Entropy (-ST):   -0.000000
Local:           +2.042224
--------------------------
Free energy:   -226.226645
Extrapolated:  -226.226645

Spin contamination: 9.559427 electrons
Showing only first 2 kpts
                      Up                     Down
 Kpt  Band  Eigenvalues  Occupancy  Eigenvalues  Occupancy
  0    88      5.11459    0.00694      5.10709    0.00694
  0    89      5.14238    0.00694      5.13169    0.00694
  0    90      7.28597    0.00000      7.29281    0.00000
  0    91      7.30360    0.00000      7.31129    0.00000

  1    88      5.14037    0.00694      5.13287    0.00694
  1    89      5.17272    0.00694      5.16195    0.00694
  1    90      7.22829    0.00000      7.23528    0.00000
  1    91      7.24020    0.00000      7.24884    0.00000


Fermi level: 5.53328

Gap: 1.962 eV
Transition (v -> c):
  (s=0, k=74, n=89, [0.08, -0.42, 0.12]) -> (s=0, k=81, n=90, [0.08, -0.08, -0.12])
Writing to born-0.01-1y+.gpw (mode='all')

Timing:                              incl.     excl.
-----------------------------------------------------------
Hamiltonian:                         0.410     0.002   0.0% |
 Atomic:                             0.054     0.054   0.0% |
  XC Correction:                     0.000     0.000   0.0% |
 Calculate atomic Hamiltonians:      0.177     0.177   0.0% |
 Communicate:                        0.002     0.002   0.0% |
 Initialize Hamiltonian:             0.000     0.000   0.0% |
 Poisson:                            0.002     0.002   0.0% |
 XC 3D grid:                         0.173     0.173   0.0% |
LCAO initialization:               134.990     0.675   0.0% |
 LCAO eigensolver:                  34.101     0.002   0.0% |
  Calculate projections:             0.057     0.057   0.0% |
  DenseAtomicCorrection:             0.083     0.083   0.0% |
  Distribute overlap matrix:         0.362     0.362   0.0% |
  Orbital Layouts:                   0.364     0.364   0.0% |
  Potential matrix:                 33.138    33.138   0.5% |
  Sum over cells:                    0.096     0.096   0.0% |
 LCAO to grid:                      97.956    97.956   1.6% ||
 Set positions (LCAO WFS):           2.259     0.344   0.0% |
  Basic WFS set positions:           0.001     0.001   0.0% |
  Basis functions set positions:     0.000     0.000   0.0% |
  P tci:                             1.052     1.052   0.0% |
  ST tci:                            0.655     0.655   0.0% |
  mktci:                             0.206     0.206   0.0% |
PWDescriptor:                        0.025     0.025   0.0% |
SCF-cycle:                        2649.134     4.760   0.1% |
 Davidson:                        2238.503   730.822  11.8% |----|
  Apply H:                         156.485   151.351   2.4% ||
   HMM T:                            5.133     5.133   0.1% |
  Subspace diag:                   330.565     0.189   0.0% |
   calc_h_matrix:                  213.957    59.314   1.0% |
    Apply H:                       154.643   149.709   2.4% ||
     HMM T:                          4.933     4.933   0.1% |
   diagonalize:                      7.317     7.317   0.1% |
   rotate_psi:                     109.102   109.102   1.8% ||
  calc. matrices:                  699.198   396.525   6.4% |--|
   Apply H:                        302.673   293.522   4.7% |-|
    HMM T:                           9.151     9.151   0.1% |
  diagonalize:                      99.706    99.706   1.6% ||
  rotate_psi:                      221.729   221.729   3.6% ||
 Density:                           89.592     0.002   0.0% |
  Atomic density matrices:           1.483     1.483   0.0% |
  Mix:                              14.595    14.595   0.2% |
  Multipole moments:                 0.035     0.035   0.0% |
  Pseudo density:                   73.477    73.475   1.2% |
   Symmetrize density:               0.002     0.002   0.0% |
 Forces:                           286.956   286.956   4.6% |-|
 Hamiltonian:                       24.907     0.146   0.0% |
  Atomic:                            3.238     3.237   0.1% |
   XC Correction:                    0.000     0.000   0.0% |
  Calculate atomic Hamiltonians:    10.780    10.780   0.2% |
  Communicate:                       0.107     0.107   0.0% |
  Poisson:                           0.095     0.095   0.0% |
  XC 3D grid:                       10.541    10.541   0.2% |
 Orthonormalize:                     4.416     0.004   0.0% |
  calc_s_matrix:                     0.525     0.525   0.0% |
  inverse-cholesky:                  0.055     0.055   0.0% |
  projections:                       2.901     2.901   0.0% |
  rotate_psi_s:                      0.932     0.932   0.0% |
Set symmetry:                        0.000     0.000   0.0% |
Other:                            3427.103  3427.103  55.2% |---------------------|
-----------------------------------------------------------
Total:                                      6211.663 100.0%

Memory usage: 12.18 GiB
Date: Sun Mar 21 13:09:29 2021
