
  ___ ___ ___ _ _ _  
 |   |   |_  | | | | 
 | | | | | . | | | | 
 |__ |  _|___|_____|  21.1.1b1
 |___|_|             

User:   madkru@g043.nifl.fysik.dtu.dk
Date:   Tue Mar 30 10:30:10 2021
Arch:   x86_64
Pid:    39387
Python: 3.8.6
gpaw:   /home/niflheim/madkru/venv_madkru/gpaw/gpaw (e6f0d78a31)
_gpaw:  /home/niflheim/madkru/venv_madkru/gpaw/build/lib.linux-x86_64-sandybridge-3.8/
        _gpaw.cpython-38-x86_64-linux-gnu.so (e6f0d78a31)
ase:    /home/niflheim/madkru/venv_madkru/ase/ase (version 3.22.0b1-4d5a73cb29)
numpy:  /home/modules/software/SciPy-bundle/2020.11-foss-2020b/lib/python3.8/site-packages/numpy (version 1.19.4)
scipy:  /home/modules/software/SciPy-bundle/2020.11-foss-2020b/lib/python3.8/site-packages/scipy (version 1.5.4)
libxc:  4.3.4
units:  Angstrom and eV
cores: 64
OpenMP: False
OMP_NUM_THREADS: 1

Input parameters:
  convergence: {bands: occupied,
                density: 0.0001,
                eigenstates: 4e-08,
                energy: 0.0005,
                forces: 1e-06}
  kpts: [6 6 4]
  maxiter: 1000
  mode: {ecut: 600.0,
         gammacentered: False,
         name: pw}
  occupations: {fixmagmom: False,
                name: fermi-dirac,
                width: 0.001}
  symmetry: {point_group: False,
             time_reversal: False}

System changes: positions, numbers, cell, pbc, initial_charges, initial_magmoms 

Initialize ...

O-setup:
  name: Oxygen
  id: 9b9d51c344dea68c822856295a461509
  Z: 8.0
  valence: 6
  core: 2
  charge: 0.0
  file: /home/modules/software/GPAW-setups/0.9.20000/O.LDA.gz
  compensation charges: gauss, rc=0.21, lmax=2
  cutoffs: 1.17(filt), 0.83(core),
  valence states:
                energy  radius
    2s(2.00)   -23.752   0.688
    2p(4.00)    -9.195   0.598
    *s           3.459   0.688
    *p          18.016   0.598
    *d           0.000   0.619

  Using partial waves for O as LCAO basis

Mn-setup:
  name: Manganese
  id: 0d715a8018be061a6e9ea6f2d364ac92
  Z: 25.0
  valence: 15
  core: 10
  charge: 0.0
  file: /home/modules/software/GPAW-setups/0.9.20000/Mn.LDA.gz
  compensation charges: gauss, rc=0.38, lmax=2
  cutoffs: 2.14(filt), 0.86(core),
  valence states:
                energy  radius
    3s(2.00)   -85.387   1.275
    4s(2.00)    -5.282   1.275
    3p(6.00)   -54.493   1.281
    4p(0.00)    -1.471   1.281
    3d(5.00)    -7.009   1.138
    *d          20.203   1.138

  Using partial waves for Mn as LCAO basis

P-setup:
  name: Phosphorus
  id: a5561c299094968922a179ab894d2e2d
  Z: 15.0
  valence: 5
  core: 10
  charge: 0.0
  file: /home/modules/software/GPAW-setups/0.9.20000/P.LDA.gz
  compensation charges: gauss, rc=0.30, lmax=2
  cutoffs: 1.69(filt), 1.81(core),
  valence states:
                energy  radius
    3s(2.00)   -14.015   0.953
    3p(3.00)    -5.596   0.953
    *s          13.197   0.953
    *p          21.615   0.953
    *d           0.000   0.953

  Using partial waves for P as LCAO basis

Li-setup:
  name: Lithium
  id: b73562207f97a71b6967473b66fe8b65
  Z: 3.0
  valence: 1
  core: 2
  charge: 0.0
  file: /home/modules/software/GPAW-setups/0.9.20000/Li.LDA.gz
  compensation charges: gauss, rc=0.33, lmax=2
  cutoffs: 1.91(filt), 2.55(core),
  valence states:
                energy  radius
    2s(1.00)    -2.874   1.058
    2p(0.00)    -1.126   1.058
    *s          24.338   1.058

  Using partial waves for Li as LCAO basis

Reference energy: -196157.275402

Spin-polarized calculation.
Magnetic moment: 0.000000

Convergence criteria:
  Maximum total energy change: 0.0005 eV / electron
  Maximum integral of absolute density change: 0.0001 electrons
  Maximum integral of absolute eigenstate change: 4e-08 eV^2
  Maximum change in atomic force: 1e-06 eV / Ang
  Maximum number of iterations: 1000

Symmetries present (total): 1

  ( 1  0  0)
  ( 0  1  0)
  ( 0  0  1)

144 k-points: 6 x 6 x 4 Monkhorst-Pack grid
144 k-points in the irreducible part of the Brillouin zone
       k-points in crystal coordinates                weights
   0:    -0.41666667   -0.41666667   -0.37500000          1/144
   1:    -0.41666667   -0.41666667   -0.12500000          1/144
   2:    -0.41666667   -0.41666667    0.12500000          1/144
   3:    -0.41666667   -0.41666667    0.37500000          1/144
   4:    -0.41666667   -0.25000000   -0.37500000          1/144
   5:    -0.41666667   -0.25000000   -0.12500000          1/144
   6:    -0.41666667   -0.25000000    0.12500000          1/144
   7:    -0.41666667   -0.25000000    0.37500000          1/144
   8:    -0.41666667   -0.08333333   -0.37500000          1/144
   9:    -0.41666667   -0.08333333   -0.12500000          1/144
          ...
 143:     0.41666667    0.41666667    0.37500000          1/144

Wave functions: Plane wave expansion
  Cutoff energy: 600.000 eV
  Number of coefficients (min, max): 10068, 10125
  Pulay-stress correction: 0.000000 eV/Ang^3 (de/decut=0.000000)
  Using FFTW library
  ScaLapack parameters: grid=1x1, blocksize=None
  Wavefunction extrapolation:
    Improved wavefunction reuse through dual PAW basis 

  Fermi-Dirac: width=0.0010 eV

Eigensolver
   Davidson(niter=2) 

Densities:
  Coarse grid: 60*35*27 grid
  Fine grid: 120*70*54 grid
  Total Charge: 0.000000 

Density mixing:
  Method: difference
  Backend: pulay
  Linear mixing parameter: 0.05
  Mixing with 5 old densities
  Damping of long wave oscillations: 50 

Hamiltonian:
  XC and Coulomb potentials evaluated on a 120*70*54 grid
  Using the LDA Exchange-Correlation functional
 

Memory estimate:
  Process memory now: 12546.30 MiB
  Calculator: 354.82 MiB
    Density: 10.06 MiB
      Arrays: 3.79 MiB
      Localized functions: 4.71 MiB
      Mixer: 1.56 MiB
    Hamiltonian: 2.95 MiB
      Arrays: 2.82 MiB
      XC: 0.00 MiB
      Poisson: 0.00 MiB
      vbar: 0.14 MiB
    Wavefunctions: 341.80 MiB
      Arrays psit_nG: 311.46 MiB
      Eigensolver: 19.99 MiB
      Projections: 2.71 MiB
      Projectors: 4.87 MiB
      PW-descriptor: 2.77 MiB

Total number of cores used: 64
Parallelization over k-points: 16
Domain decomposition: 2 x 2 x 1

Number of atoms: 28
Number of atomic orbitals: 148
Number of bands in calculation: 112
Number of valence electrons: 180
Bands to converge: occupied

... initialized

Initializing position-dependent things.

Density initialized from atomic densities
Creating initial wave functions:
  112 bands from LCAO basis set

     .-------------------------.  
    /|         OP              |  
   / |O            O        O  |  
  /  |       O            O  P |  
 *   |O    Mn      O           |  
 |   |          OLi          O |  
 |   .P-O--------------Mn------.  
 |  /          Li    O  Mn  O /   
 | /Li O           PO        /    
 |/       Mn                /     
 *Li-----------------------*      

Positions:
   0 O     -1.360678   -2.541161   -1.202221    ( 0.0000,  0.0000,  0.0000)
   1 O     -3.121941    2.976855    1.167242    ( 0.0000,  0.0000,  0.0000)
   2 O      2.107533    0.508090    1.540712    ( 0.0000,  0.0000,  0.0000)
   3 O      3.869373   -0.072395   -0.828750    ( 0.0000,  0.0000,  0.0000)
   4 O      2.107821    2.976875    1.540792    ( 0.0000,  0.0000,  0.0000)
   5 O      3.869084   -2.541141   -0.828671    ( 0.0000,  0.0000,  0.0000)
   6 O     -1.360390   -0.072375   -1.202141    ( 0.0000,  0.0000,  0.0000)
   7 O     -3.122230    0.508109    1.167321    ( 0.0000,  0.0000,  0.0000)
   8 O     -4.413461   -1.306992   -0.794251    ( 0.0000,  0.0000,  0.0000)
   9 O     -0.069585    1.742707    1.575662    ( 0.0000,  0.0000,  0.0000)
  10 O      5.160604    1.742707    1.132822    ( 0.0000,  0.0000,  0.0000)
  11 O      0.806728   -1.306992   -1.237091    ( 0.0000,  0.0000,  0.0000)
  12 Mn    -2.570809   -1.307302    0.247161    ( 0.0000,  0.0000,  1.0000)
  13 Mn    -1.912021    1.743016   -2.122906    ( 0.0000,  0.0000, -1.0000)
  14 Mn     3.317952    1.743017    0.091411    ( 0.0000,  0.0000, -1.0000)
  15 Mn     2.659164   -1.307302    2.461478    ( 0.0000,  0.0000,  1.0000)
  16 P     -0.620664   -1.306816   -1.828465    ( 0.0000,  0.0000,  0.0000)
  17 P     -3.862097    1.742530    0.541238    ( 0.0000,  0.0000,  0.0000)
  18 P      1.367807    1.742530    2.167036    ( 0.0000,  0.0000,  0.0000)
  19 P      4.609240   -1.306816   -0.202666    ( 0.0000,  0.0000,  0.0000)
  20 O     -0.646437   -1.306845    1.374751    ( 0.0000,  0.0000,  0.0000)
  21 O     -3.836504    1.742559   -0.995565    ( 0.0000,  0.0000,  0.0000)
  22 O      1.393580    1.742559   -1.036179    ( 0.0000,  0.0000,  0.0000)
  23 O      4.583647   -1.306845    1.334136    ( 0.0000,  0.0000,  0.0000)
  24 Li    -4.856429   -2.832143   -2.200714    ( 0.0000,  0.0000,  0.0000)
  25 Li     0.373571   -2.832143    0.169286    ( 0.0000,  0.0000,  0.0000)
  26 Li    -4.856429    0.217857   -2.200714    ( 0.0000,  0.0000,  0.0000)
  27 Li     0.373571    0.217857    0.169286    ( 0.0000,  0.0000,  0.0000)

Unit cell:
           periodic     x           y           z      points  spacing
  1. axis:    yes   10.460000    0.000000    0.000000    60     0.1743
  2. axis:    yes    0.000000    6.100000    0.000000    35     0.1743
  3. axis:    yes    0.000000    0.000000    4.740000    27     0.1756

  Lengths:  10.460000   6.100000   4.740000
  Angles:   90.000000  90.000000  90.000000

Effective grid spacing dv^(1/3) = 0.1747

                     log10-error:           total        iterations:
           time      wfs    density  force  energy       poisson  magmom
iter:   1  10:31:44                       -231.921284             +0.0000
iter:   2  10:32:06  -0.55  -0.94         -231.745513             +0.0010
iter:   3  10:32:27  -0.72  -0.98         -220.572922             +0.0012
iter:   4  10:32:48  -0.96  -1.20         -218.844202             +0.0004
iter:   5  10:33:10  -1.90  -1.36         -221.430472             +0.0003
iter:   6  10:33:31  -1.98  -1.49         -220.558797             +0.0623
iter:   7  10:33:52  -2.19  -1.64         -224.639992             -0.1503
iter:   8  10:34:14  -2.44  -1.88         -224.383921             +0.0067
iter:   9  10:34:35  -2.52  -1.85         -227.325769             +0.0059
iter:  10  10:34:56  -2.45  -1.79         -227.455043             +0.0016
iter:  11  10:35:17  -1.50  -1.88         -227.617557             +0.0005
iter:  12  10:35:39  -2.21  -2.01         -228.171219             +0.0577
iter:  13  10:36:00  -2.64  -1.90         -227.254004             -0.3634
iter:  14  10:36:21  -2.21  -2.03         -226.044340             -1.1173
iter:  15  10:36:42  -2.71  -2.18         -226.222699             -1.0322
iter:  16  10:37:03  -2.89  -2.32         -226.395666             -0.2798
iter:  17  10:37:25  -2.83  -2.40         -226.284577             -0.0456
iter:  18  10:37:46  -2.83  -2.55         -226.240915             -0.0060
iter:  19  10:38:07  -3.02  -2.65         -226.243421             -0.0057
iter:  20  10:38:28  -4.18  -2.75         -226.233319             -0.0019
iter:  21  10:38:49  -3.52  -2.84         -226.229155             +0.0038
iter:  22  10:39:11  -4.70  -3.39         -226.227286             +0.0016
iter:  23  10:39:32  -5.35  -3.42         -226.226931             -0.0002
iter:  24  10:39:53  -5.15  -3.47         -226.226775             -0.0001
iter:  25  10:40:14  -4.77  -3.69         -226.226195             -0.0000
iter:  26  10:40:36  -5.63  -3.69         -226.226153             -0.0000
iter:  27  10:40:57  -6.38  -3.86         -226.226152             -0.0000
iter:  28  10:41:18  -5.41  -3.92         -226.226110             +0.0000
iter:  29  10:41:39  -6.53  -4.25         -226.226086             -0.0000
iter:  30  10:42:00  -6.25  -4.33         -226.226079             +0.0000
iter:  31  10:42:22  -6.76  -4.44         -226.226079             +0.0000
iter:  32  10:42:43  -7.08  -4.58         -226.226081             -0.0000
iter:  33  10:43:04  -7.06  -4.72         -226.226078             +0.0000
iter:  34  10:43:31  -8.37  -5.24         -226.226078             +0.0000
iter:  35  10:43:58  -8.33  -5.28    -3.12-226.226078             +0.0000
iter:  36  10:44:24  -8.72  -5.36    -3.24-226.226078             +0.0000
iter:  37  10:44:51  -9.45  -5.50    -3.72-226.226078             +0.0000
iter:  38  10:45:18  -8.99  -5.58    -3.12-226.226078             +0.0000
iter:  39  10:45:45  -9.53  -5.77    -3.48-226.226078             +0.0000
iter:  40  10:46:11 -10.36  -5.91    -4.12-226.226078             +0.0000
iter:  41  10:46:38 -10.25  -5.97    -3.98-226.226078             +0.0000
iter:  42  10:47:05 -11.11  -6.05    -4.43-226.226078             +0.0000
iter:  43  10:47:32  -9.80  -6.10    -3.83-226.226078             +0.0000
iter:  44  10:47:58 -10.79  -6.31    -4.22-226.226078             +0.0000
iter:  45  10:48:25 -10.58  -6.42    -4.28-226.226078             +0.0000
iter:  46  10:48:52 -11.45  -6.55    -4.56-226.226078             +0.0000
iter:  47  10:49:18 -11.68  -6.65    -4.86-226.226078             +0.0000
iter:  48  10:49:45 -11.52  -6.69    -4.65-226.226078             +0.0000
iter:  49  10:50:12 -11.73  -7.01    -5.04-226.226078             +0.0000
iter:  50  10:50:39 -12.53  -7.08    -5.20-226.226078             +0.0000
iter:  51  10:51:05 -12.67  -7.15    -5.41-226.226078             +0.0000
iter:  52  10:51:32 -12.78  -7.21    -5.42-226.226078             -0.0000
iter:  53  10:51:59 -13.06  -7.25    -5.29-226.226078             -0.0000
iter:  54  10:52:25 -12.94  -7.29    -5.35-226.226078             -0.0000
iter:  55  10:52:52 -12.66  -7.38    -5.11-226.226078             -0.0000
iter:  56  10:53:19 -13.55  -7.66    -5.62-226.226078             -0.0000
iter:  57  10:53:46 -13.89  -7.82    -5.66-226.226078             -0.0000
iter:  58  10:54:12 -13.66  -8.03    -5.94-226.226078             -0.0000
iter:  59  10:54:39 -14.53  -8.31    -6.42-226.226078             -0.0000

Converged after 59 iterations.

Dipole moment: (10.586787, 1.413376, -6.270298) |e|*Ang

Total magnetic moment: (0.000000, 0.000000, -0.000000)
Local magnetic moments:
   0 O  ( 0.000000,  0.000000, -0.000602)
   1 O  ( 0.000000,  0.000000,  0.000530)
   2 O  ( 0.000000,  0.000000,  0.000524)
   3 O  ( 0.000000,  0.000000, -0.000532)
   4 O  ( 0.000000,  0.000000,  0.000504)
   5 O  ( 0.000000,  0.000000, -0.000512)
   6 O  ( 0.000000,  0.000000, -0.000622)
   7 O  ( 0.000000,  0.000000,  0.000550)
   8 O  ( 0.000000,  0.000000,  0.028607)
   9 O  ( 0.000000,  0.000000, -0.028622)
  10 O  ( 0.000000,  0.000000, -0.028773)
  11 O  ( 0.000000,  0.000000,  0.028327)
  12 Mn ( 0.000000,  0.000000,  4.448140)
  13 Mn ( 0.000000,  0.000000, -4.448236)
  14 Mn ( 0.000000,  0.000000, -4.448233)
  15 Mn ( 0.000000,  0.000000,  4.449336)
  16 P  ( 0.000000,  0.000000,  0.001376)
  17 P  ( 0.000000,  0.000000, -0.001529)
  18 P  ( 0.000000,  0.000000, -0.001592)
  19 P  ( 0.000000,  0.000000,  0.001546)
  20 O  ( 0.000000,  0.000000,  0.025352)
  21 O  ( 0.000000,  0.000000, -0.025306)
  22 O  ( 0.000000,  0.000000, -0.025316)
  23 O  ( 0.000000,  0.000000,  0.025496)
  24 Li ( 0.000000,  0.000000, -0.000000)
  25 Li ( 0.000000,  0.000000, -0.000023)
  26 Li ( 0.000000,  0.000000, -0.000000)
  27 Li ( 0.000000,  0.000000, -0.000023)

Energy contributions relative to reference atoms: (reference = -196157.275402)

Kinetic:       +217.980449
Potential:     -195.724856
External:        +0.000000
XC:            -250.521584
Entropy (-ST):   -0.000000
Local:           +2.039913
--------------------------
Free energy:   -226.226078
Extrapolated:  -226.226078

Spin contamination: 9.560520 electrons
Showing only first 2 kpts
                      Up                     Down
 Kpt  Band  Eigenvalues  Occupancy  Eigenvalues  Occupancy
  0    88      5.08709    1.00000      5.10861    1.00000
  0    89      5.13607    1.00000      5.13716    1.00000
  0    90      7.28497    0.00000      7.27810    0.00000
  0    91      7.31146    0.00000      7.30870    0.00000

  1    88      5.11306    1.00000      5.13480    1.00000
  1    89      5.16533    1.00000      5.16711    1.00000
  1    90      7.22672    0.00000      7.21860    0.00000
  1    91      7.24962    0.00000      7.24768    0.00000


Fermi level: 6.34360

Gap: 1.961 eV
Transition (v -> c):
  (s=1, k=73, n=89, [0.08, -0.42, -0.12]) -> (s=1, k=58, n=90, [-0.08, -0.08, 0.12])
Writing to born-0.01-11x-.gpw (mode='all')

Timing:                              incl.     excl.
-----------------------------------------------------------
Hamiltonian:                         0.274     0.002   0.0% |
 Atomic:                             0.085     0.085   0.0% |
  XC Correction:                     0.000     0.000   0.0% |
 Calculate atomic Hamiltonians:      0.094     0.094   0.0% |
 Communicate:                        0.000     0.000   0.0% |
 Initialize Hamiltonian:             0.000     0.000   0.0% |
 Poisson:                            0.001     0.001   0.0% |
 XC 3D grid:                         0.091     0.091   0.0% |
LCAO initialization:                69.259     0.674   0.0% |
 LCAO eigensolver:                  18.047     0.002   0.0% |
  Calculate projections:             0.029     0.029   0.0% |
  DenseAtomicCorrection:             0.042     0.042   0.0% |
  Distribute overlap matrix:         0.123     0.123   0.0% |
  Orbital Layouts:                   0.279     0.279   0.0% |
  Potential matrix:                 17.487    17.487   0.5% |
  Sum over cells:                    0.085     0.085   0.0% |
 LCAO to grid:                      49.263    49.263   1.4% ||
 Set positions (LCAO WFS):           1.274     0.179   0.0% |
  Basic WFS set positions:           0.001     0.001   0.0% |
  Basis functions set positions:     0.000     0.000   0.0% |
  P tci:                             0.514     0.514   0.0% |
  ST tci:                            0.368     0.368   0.0% |
  mktci:                             0.212     0.212   0.0% |
PWDescriptor:                        0.025     0.025   0.0% |
SCF-cycle:                        1398.280     4.540   0.1% |
 Davidson:                        1187.148   379.699  10.7% |---|
  Apply H:                          80.248    77.860   2.2% ||
   HMM T:                            2.388     2.388   0.1% |
  Subspace diag:                   170.530     0.171   0.0% |
   calc_h_matrix:                  108.813    29.680   0.8% |
    Apply H:                        79.133    76.862   2.2% ||
     HMM T:                          2.271     2.271   0.1% |
   diagonalize:                      6.019     6.019   0.2% |
   rotate_psi:                      55.527    55.527   1.6% ||
  calc. matrices:                  354.886   197.815   5.6% |-|
   Apply H:                        157.070   152.546   4.3% |-|
    HMM T:                           4.524     4.524   0.1% |
  diagonalize:                      91.065    91.065   2.6% ||
  rotate_psi:                      110.720   110.720   3.1% ||
 Density:                           47.126     0.001   0.0% |
  Atomic density matrices:           0.767     0.767   0.0% |
  Mix:                               8.137     8.137   0.2% |
  Multipole moments:                 0.021     0.021   0.0% |
  Pseudo density:                   38.200    38.199   1.1% |
   Symmetrize density:               0.002     0.002   0.0% |
 Forces:                           142.775   142.775   4.0% |-|
 Hamiltonian:                       14.394     0.120   0.0% |
  Atomic:                            3.275     3.275   0.1% |
   XC Correction:                    0.000     0.000   0.0% |
  Calculate atomic Hamiltonians:     5.545     5.545   0.2% |
  Communicate:                       0.019     0.019   0.0% |
  Poisson:                           0.055     0.055   0.0% |
  XC 3D grid:                        5.380     5.380   0.2% |
 Orthonormalize:                     2.297     0.003   0.0% |
  calc_s_matrix:                     0.266     0.266   0.0% |
  inverse-cholesky:                  0.040     0.040   0.0% |
  projections:                       1.501     1.501   0.0% |
  rotate_psi_s:                      0.487     0.487   0.0% |
Set symmetry:                        0.000     0.000   0.0% |
Other:                            2068.715  2068.715  58.5% |----------------------|
-----------------------------------------------------------
Total:                                      3536.552 100.0%

Memory usage: 12.29 GiB
Date: Tue Mar 30 11:29:07 2021
