
  ___ ___ ___ _ _ _  
 |   |   |_  | | | | 
 | | | | | . | | | | 
 |__ |  _|___|_____|  21.1.1b1
 |___|_|             

User:   madkru@g043.nifl.fysik.dtu.dk
Date:   Tue Mar 30 08:46:25 2021
Arch:   x86_64
Pid:    39387
Python: 3.8.6
gpaw:   /home/niflheim/madkru/venv_madkru/gpaw/gpaw (e6f0d78a31)
_gpaw:  /home/niflheim/madkru/venv_madkru/gpaw/build/lib.linux-x86_64-sandybridge-3.8/
        _gpaw.cpython-38-x86_64-linux-gnu.so (e6f0d78a31)
ase:    /home/niflheim/madkru/venv_madkru/ase/ase (version 3.22.0b1-4d5a73cb29)
numpy:  /home/modules/software/SciPy-bundle/2020.11-foss-2020b/lib/python3.8/site-packages/numpy (version 1.19.4)
scipy:  /home/modules/software/SciPy-bundle/2020.11-foss-2020b/lib/python3.8/site-packages/scipy (version 1.5.4)
libxc:  4.3.4
units:  Angstrom and eV
cores: 64
OpenMP: False
OMP_NUM_THREADS: 1

Input parameters:
  convergence: {bands: occupied,
                density: 0.0001,
                eigenstates: 4e-08,
                energy: 0.0005,
                forces: 1e-06}
  kpts: [6 6 4]
  maxiter: 1000
  mode: {ecut: 600.0,
         gammacentered: False,
         name: pw}
  occupations: {fixmagmom: False,
                name: fermi-dirac,
                width: 0.001}
  symmetry: {point_group: False,
             time_reversal: False}

System changes: positions, numbers, cell, pbc, initial_charges, initial_magmoms 

Initialize ...

O-setup:
  name: Oxygen
  id: 9b9d51c344dea68c822856295a461509
  Z: 8.0
  valence: 6
  core: 2
  charge: 0.0
  file: /home/modules/software/GPAW-setups/0.9.20000/O.LDA.gz
  compensation charges: gauss, rc=0.21, lmax=2
  cutoffs: 1.17(filt), 0.83(core),
  valence states:
                energy  radius
    2s(2.00)   -23.752   0.688
    2p(4.00)    -9.195   0.598
    *s           3.459   0.688
    *p          18.016   0.598
    *d           0.000   0.619

  Using partial waves for O as LCAO basis

Mn-setup:
  name: Manganese
  id: 0d715a8018be061a6e9ea6f2d364ac92
  Z: 25.0
  valence: 15
  core: 10
  charge: 0.0
  file: /home/modules/software/GPAW-setups/0.9.20000/Mn.LDA.gz
  compensation charges: gauss, rc=0.38, lmax=2
  cutoffs: 2.14(filt), 0.86(core),
  valence states:
                energy  radius
    3s(2.00)   -85.387   1.275
    4s(2.00)    -5.282   1.275
    3p(6.00)   -54.493   1.281
    4p(0.00)    -1.471   1.281
    3d(5.00)    -7.009   1.138
    *d          20.203   1.138

  Using partial waves for Mn as LCAO basis

P-setup:
  name: Phosphorus
  id: a5561c299094968922a179ab894d2e2d
  Z: 15.0
  valence: 5
  core: 10
  charge: 0.0
  file: /home/modules/software/GPAW-setups/0.9.20000/P.LDA.gz
  compensation charges: gauss, rc=0.30, lmax=2
  cutoffs: 1.69(filt), 1.81(core),
  valence states:
                energy  radius
    3s(2.00)   -14.015   0.953
    3p(3.00)    -5.596   0.953
    *s          13.197   0.953
    *p          21.615   0.953
    *d           0.000   0.953

  Using partial waves for P as LCAO basis

Li-setup:
  name: Lithium
  id: b73562207f97a71b6967473b66fe8b65
  Z: 3.0
  valence: 1
  core: 2
  charge: 0.0
  file: /home/modules/software/GPAW-setups/0.9.20000/Li.LDA.gz
  compensation charges: gauss, rc=0.33, lmax=2
  cutoffs: 1.91(filt), 2.55(core),
  valence states:
                energy  radius
    2s(1.00)    -2.874   1.058
    2p(0.00)    -1.126   1.058
    *s          24.338   1.058

  Using partial waves for Li as LCAO basis

Reference energy: -196157.275402

Spin-polarized calculation.
Magnetic moment: 0.000000

Convergence criteria:
  Maximum total energy change: 0.0005 eV / electron
  Maximum integral of absolute density change: 0.0001 electrons
  Maximum integral of absolute eigenstate change: 4e-08 eV^2
  Maximum change in atomic force: 1e-06 eV / Ang
  Maximum number of iterations: 1000

Symmetries present (total): 1

  ( 1  0  0)
  ( 0  1  0)
  ( 0  0  1)

144 k-points: 6 x 6 x 4 Monkhorst-Pack grid
144 k-points in the irreducible part of the Brillouin zone
       k-points in crystal coordinates                weights
   0:    -0.41666667   -0.41666667   -0.37500000          1/144
   1:    -0.41666667   -0.41666667   -0.12500000          1/144
   2:    -0.41666667   -0.41666667    0.12500000          1/144
   3:    -0.41666667   -0.41666667    0.37500000          1/144
   4:    -0.41666667   -0.25000000   -0.37500000          1/144
   5:    -0.41666667   -0.25000000   -0.12500000          1/144
   6:    -0.41666667   -0.25000000    0.12500000          1/144
   7:    -0.41666667   -0.25000000    0.37500000          1/144
   8:    -0.41666667   -0.08333333   -0.37500000          1/144
   9:    -0.41666667   -0.08333333   -0.12500000          1/144
          ...
 143:     0.41666667    0.41666667    0.37500000          1/144

Wave functions: Plane wave expansion
  Cutoff energy: 600.000 eV
  Number of coefficients (min, max): 10068, 10125
  Pulay-stress correction: 0.000000 eV/Ang^3 (de/decut=0.000000)
  Using FFTW library
  ScaLapack parameters: grid=1x1, blocksize=None
  Wavefunction extrapolation:
    Improved wavefunction reuse through dual PAW basis 

  Fermi-Dirac: width=0.0010 eV

Eigensolver
   Davidson(niter=2) 

Densities:
  Coarse grid: 60*35*27 grid
  Fine grid: 120*70*54 grid
  Total Charge: 0.000000 

Density mixing:
  Method: difference
  Backend: pulay
  Linear mixing parameter: 0.05
  Mixing with 5 old densities
  Damping of long wave oscillations: 50 

Hamiltonian:
  XC and Coulomb potentials evaluated on a 120*70*54 grid
  Using the LDA Exchange-Correlation functional
 

Memory estimate:
  Process memory now: 12479.32 MiB
  Calculator: 354.82 MiB
    Density: 10.06 MiB
      Arrays: 3.79 MiB
      Localized functions: 4.71 MiB
      Mixer: 1.56 MiB
    Hamiltonian: 2.95 MiB
      Arrays: 2.82 MiB
      XC: 0.00 MiB
      Poisson: 0.00 MiB
      vbar: 0.14 MiB
    Wavefunctions: 341.80 MiB
      Arrays psit_nG: 311.46 MiB
      Eigensolver: 19.99 MiB
      Projections: 2.71 MiB
      Projectors: 4.87 MiB
      PW-descriptor: 2.77 MiB

Total number of cores used: 64
Parallelization over k-points: 16
Domain decomposition: 2 x 2 x 1

Number of atoms: 28
Number of atomic orbitals: 148
Number of bands in calculation: 112
Number of valence electrons: 180
Bands to converge: occupied

... initialized

Initializing position-dependent things.

Density initialized from atomic densities
Creating initial wave functions:
  112 bands from LCAO basis set

     .-------------------------.  
    /|         OP              |  
   / |O            O        O  |  
  /  |       O            O  P |  
 *   |O    Mn      O           |  
 |   |          OLi          O |  
 |   .P-O--------------Mn------.  
 |  /          Li    O  Mn  O /   
 | /Li O           PO        /    
 |/       Mn                /     
 *Li-----------------------*      

Positions:
   0 O     -1.360678   -2.541161   -1.202221    ( 0.0000,  0.0000,  0.0000)
   1 O     -3.121941    2.976855    1.167242    ( 0.0000,  0.0000,  0.0000)
   2 O      2.107533    0.508090    1.540712    ( 0.0000,  0.0000,  0.0000)
   3 O      3.869373   -0.072395   -0.828750    ( 0.0000,  0.0000,  0.0000)
   4 O      2.107821    2.976875    1.540792    ( 0.0000,  0.0000,  0.0000)
   5 O      3.869084   -2.541141   -0.828671    ( 0.0000,  0.0000,  0.0000)
   6 O     -1.360390   -0.072375   -1.202141    ( 0.0000,  0.0000,  0.0000)
   7 O     -3.122230    0.508109    1.167321    ( 0.0000,  0.0000,  0.0000)
   8 O     -4.413461   -1.306992   -0.794251    ( 0.0000,  0.0000,  0.0000)
   9 O     -0.069585    1.742707    1.575662    ( 0.0000,  0.0000,  0.0000)
  10 O      5.160604    1.752707    1.132822    ( 0.0000,  0.0000,  0.0000)
  11 O      0.816728   -1.306992   -1.237091    ( 0.0000,  0.0000,  0.0000)
  12 Mn    -2.570809   -1.307302    0.247161    ( 0.0000,  0.0000,  1.0000)
  13 Mn    -1.912021    1.743016   -2.122906    ( 0.0000,  0.0000, -1.0000)
  14 Mn     3.317952    1.743017    0.091411    ( 0.0000,  0.0000, -1.0000)
  15 Mn     2.659164   -1.307302    2.461478    ( 0.0000,  0.0000,  1.0000)
  16 P     -0.620664   -1.306816   -1.828465    ( 0.0000,  0.0000,  0.0000)
  17 P     -3.862097    1.742530    0.541238    ( 0.0000,  0.0000,  0.0000)
  18 P      1.367807    1.742530    2.167036    ( 0.0000,  0.0000,  0.0000)
  19 P      4.609240   -1.306816   -0.202666    ( 0.0000,  0.0000,  0.0000)
  20 O     -0.646437   -1.306845    1.374751    ( 0.0000,  0.0000,  0.0000)
  21 O     -3.836504    1.742559   -0.995565    ( 0.0000,  0.0000,  0.0000)
  22 O      1.393580    1.742559   -1.036179    ( 0.0000,  0.0000,  0.0000)
  23 O      4.583647   -1.306845    1.334136    ( 0.0000,  0.0000,  0.0000)
  24 Li    -4.856429   -2.832143   -2.200714    ( 0.0000,  0.0000,  0.0000)
  25 Li     0.373571   -2.832143    0.169286    ( 0.0000,  0.0000,  0.0000)
  26 Li    -4.856429    0.217857   -2.200714    ( 0.0000,  0.0000,  0.0000)
  27 Li     0.373571    0.217857    0.169286    ( 0.0000,  0.0000,  0.0000)

Unit cell:
           periodic     x           y           z      points  spacing
  1. axis:    yes   10.460000    0.000000    0.000000    60     0.1743
  2. axis:    yes    0.000000    6.100000    0.000000    35     0.1743
  3. axis:    yes    0.000000    0.000000    4.740000    27     0.1756

  Lengths:  10.460000   6.100000   4.740000
  Angles:   90.000000  90.000000  90.000000

Effective grid spacing dv^(1/3) = 0.1747

                     log10-error:           total        iterations:
           time      wfs    density  force  energy       poisson  magmom
iter:   1  08:47:59                       -231.920203             +0.0000
iter:   2  08:48:21  -0.55  -0.94         -231.730818             +0.0052
iter:   3  08:48:42  -0.72  -0.98         -220.584682             +0.0065
iter:   4  08:49:03  -0.96  -1.20         -218.866140             +0.0021
iter:   5  08:49:24  -1.94  -1.36         -221.253840             +0.0014
iter:   6  08:49:46  -1.99  -1.50         -219.965321             +0.0007
iter:   7  08:50:07  -2.21  -1.68         -222.914173             +0.1867
iter:   8  08:50:28  -2.74  -1.89         -219.883627             +0.2569
iter:   9  08:50:49  -2.21  -1.94         -224.945507             +0.6865
iter:  10  08:51:10  -2.25  -1.87         -227.201797             +0.0401
iter:  11  08:51:32  -2.96  -1.84         -227.309577             -0.0136
iter:  12  08:51:53  -3.20  -1.81         -227.200545             -0.0042
iter:  13  08:52:14  -1.38  -1.81         -228.519351             -0.0028
iter:  14  08:52:35  -2.80  -1.87         -227.218223             -0.0013
iter:  15  08:52:56  -2.86  -2.07         -226.981098             -0.0003
iter:  16  08:53:18  -2.62  -2.09         -226.666643             +0.0001
iter:  17  08:53:39  -2.29  -2.17         -226.367534             +0.0000
iter:  18  08:54:00  -3.12  -2.30         -226.291567             +0.0000
iter:  19  08:54:21  -2.48  -2.36         -226.272355             +0.0000
iter:  20  08:54:43  -3.63  -2.60         -226.269192             +0.0000
iter:  21  08:55:04  -3.09  -2.65         -226.229130             -0.0000
iter:  22  08:55:25  -3.80  -2.81         -226.239321             -0.0000
iter:  23  08:55:46  -3.49  -2.96         -226.229596             -0.0000
iter:  24  08:56:07  -4.56  -3.12         -226.228226             -0.0000
iter:  25  08:56:29  -4.83  -3.23         -226.228840             -0.0000
iter:  26  08:56:50  -4.95  -3.30         -226.228265             -0.0000
iter:  27  08:57:11  -5.05  -3.35         -226.228723             -0.0000
iter:  28  08:57:32  -5.33  -3.41         -226.228336             -0.0000
iter:  29  08:57:53  -4.84  -3.47         -226.228133             -0.0000
iter:  30  08:58:14  -5.44  -3.64         -226.228083             -0.0000
iter:  31  08:58:36  -6.40  -3.73         -226.227948             -0.0000
iter:  32  08:58:57  -6.05  -3.86         -226.227847             -0.0000
iter:  33  08:59:18  -6.44  -4.01         -226.227803             -0.0000
iter:  34  08:59:39  -5.56  -4.04         -226.227719             -0.0000
iter:  35  09:00:00  -6.63  -4.41         -226.227719             -0.0000
iter:  36  09:00:22  -7.28  -4.46         -226.227721             -0.0000
iter:  37  09:00:48  -7.52  -4.55         -226.227719             -0.0000
iter:  38  09:01:15  -7.75  -4.66    -2.68-226.227718             +0.0000
iter:  39  09:01:42  -8.18  -4.75    -2.97-226.227717             +0.0000
iter:  40  09:02:08  -7.75  -4.79    -2.68-226.227716             -0.0000
iter:  41  09:02:35  -7.93  -5.06    -2.80-226.227716             -0.0000
iter:  42  09:03:02  -9.25  -5.41    -3.74-226.227716             +0.0000
iter:  43  09:03:29  -8.27  -5.44    -3.24-226.227716             -0.0000
iter:  44  09:03:56  -9.68  -5.61    -3.64-226.227716             -0.0000
iter:  45  09:04:22  -9.34  -5.66    -3.80-226.227716             -0.0000
iter:  46  09:04:49  -9.67  -5.81    -3.56-226.227716             -0.0000
iter:  47  09:05:16 -10.53  -6.16    -3.85-226.227716             -0.0000
iter:  48  09:05:42 -10.92  -6.33    -4.56-226.227716             -0.0000
iter:  49  09:06:09 -10.76  -6.37    -4.13-226.227716             -0.0000
iter:  50  09:06:36 -11.64  -6.58    -4.42-226.227716             -0.0000
iter:  51  09:07:02 -11.40  -6.65    -4.79-226.227716             -0.0000
iter:  52  09:07:29 -11.78  -6.73    -4.48-226.227716             -0.0000
iter:  53  09:07:56 -12.46  -6.84    -5.34-226.227716             -0.0000
iter:  54  09:08:22 -12.73  -6.87    -5.05-226.227716             -0.0000
iter:  55  09:08:49 -12.44  -6.91    -4.51-226.227716             -0.0000
iter:  56  09:09:16 -13.20  -7.02    -5.31-226.227716             -0.0000
iter:  57  09:09:43 -11.71  -7.05    -4.63-226.227716             -0.0000
iter:  58  09:10:09 -12.60  -7.24    -4.80-226.227716             -0.0000
iter:  59  09:10:36 -13.87  -7.56    -5.89-226.227716             -0.0000
iter:  60  09:11:03 -13.04  -7.59    -4.99-226.227716             -0.0000
iter:  61  09:11:29 -13.22  -7.71    -5.35-226.227716             -0.0000
iter:  62  09:11:56 -14.39  -7.99    -6.23-226.227716             -0.0000

Converged after 62 iterations.

Dipole moment: (10.671463, 1.406980, -6.269778) |e|*Ang

Total magnetic moment: (0.000000, 0.000000, -0.000000)
Local magnetic moments:
   0 O  ( 0.000000,  0.000000, -0.000518)
   1 O  ( 0.000000,  0.000000,  0.000510)
   2 O  ( 0.000000,  0.000000,  0.000539)
   3 O  ( 0.000000,  0.000000, -0.000583)
   4 O  ( 0.000000,  0.000000,  0.000517)
   5 O  ( 0.000000,  0.000000, -0.000505)
   6 O  ( 0.000000,  0.000000, -0.000539)
   7 O  ( 0.000000,  0.000000,  0.000576)
   8 O  ( 0.000000,  0.000000,  0.028693)
   9 O  ( 0.000000,  0.000000, -0.028702)
  10 O  ( 0.000000,  0.000000, -0.028693)
  11 O  ( 0.000000,  0.000000,  0.028701)
  12 Mn ( 0.000000,  0.000000,  4.448161)
  13 Mn ( 0.000000,  0.000000, -4.448239)
  14 Mn ( 0.000000,  0.000000, -4.448161)
  15 Mn ( 0.000000,  0.000000,  4.448241)
  16 P  ( 0.000000,  0.000000,  0.001558)
  17 P  ( 0.000000,  0.000000, -0.001543)
  18 P  ( 0.000000,  0.000000, -0.001557)
  19 P  ( 0.000000,  0.000000,  0.001543)
  20 O  ( 0.000000,  0.000000,  0.025315)
  21 O  ( 0.000000,  0.000000, -0.025305)
  22 O  ( 0.000000,  0.000000, -0.025315)
  23 O  ( 0.000000,  0.000000,  0.025306)
  24 Li ( 0.000000,  0.000000, -0.000015)
  25 Li ( 0.000000,  0.000000,  0.000000)
  26 Li ( 0.000000,  0.000000,  0.000015)
  27 Li ( 0.000000,  0.000000, -0.000000)

Energy contributions relative to reference atoms: (reference = -196157.275402)

Kinetic:       +217.350030
Potential:     -195.235479
External:        +0.000000
XC:            -250.383450
Entropy (-ST):   -0.000000
Local:           +2.041183
--------------------------
Free energy:   -226.227716
Extrapolated:  -226.227716

Spin contamination: 9.560410 electrons
Showing only first 2 kpts
                      Up                     Down
 Kpt  Band  Eigenvalues  Occupancy  Eigenvalues  Occupancy
  0    88      5.10987    1.00000      5.10977    1.00000
  0    89      5.13438    1.00000      5.13450    1.00000
  0    90      7.28866    0.00000      7.28866    0.00000
  0    91      7.30636    0.00000      7.30637    0.00000

  1    88      5.13561    1.00000      5.13573    1.00000
  1    89      5.16482    1.00000      5.16476    1.00000
  1    90      7.23146    0.00000      7.23145    0.00000
  1    91      7.24365    0.00000      7.24367    0.00000


Fermi level: 5.58499

Gap: 1.972 eV
Transition (v -> c):
  (s=1, k=69, n=89, [-0.08, 0.42, -0.12]) -> (s=0, k=82, n=90, [0.08, -0.08, 0.12])
Writing to born-0.01-10y+.gpw (mode='all')

Timing:                              incl.     excl.
-----------------------------------------------------------
Hamiltonian:                         0.251     0.002   0.0% |
 Atomic:                             0.063     0.063   0.0% |
  XC Correction:                     0.000     0.000   0.0% |
 Calculate atomic Hamiltonians:      0.093     0.093   0.0% |
 Communicate:                        0.000     0.000   0.0% |
 Initialize Hamiltonian:             0.000     0.000   0.0% |
 Poisson:                            0.001     0.001   0.0% |
 XC 3D grid:                         0.091     0.091   0.0% |
LCAO initialization:                69.550     0.674   0.0% |
 LCAO eigensolver:                  17.993     0.002   0.0% |
  Calculate projections:             0.029     0.029   0.0% |
  DenseAtomicCorrection:             0.043     0.043   0.0% |
  Distribute overlap matrix:         0.090     0.090   0.0% |
  Orbital Layouts:                   0.278     0.278   0.0% |
  Potential matrix:                 17.465    17.465   0.5% |
  Sum over cells:                    0.086     0.086   0.0% |
 LCAO to grid:                      49.576    49.576   1.3% ||
 Set positions (LCAO WFS):           1.306     0.181   0.0% |
  Basic WFS set positions:           0.001     0.001   0.0% |
  Basis functions set positions:     0.000     0.000   0.0% |
  P tci:                             0.513     0.513   0.0% |
  ST tci:                            0.367     0.367   0.0% |
  mktci:                             0.243     0.243   0.0% |
PWDescriptor:                        0.024     0.024   0.0% |
SCF-cycle:                        1460.104     5.805   0.2% |
 Davidson:                        1244.204   399.132  10.8% |---|
  Apply H:                          82.902    80.421   2.2% ||
   HMM T:                            2.480     2.480   0.1% |
  Subspace diag:                   178.193     0.181   0.0% |
   calc_h_matrix:                  113.345    31.131   0.8% |
    Apply H:                        82.214    79.854   2.2% ||
     HMM T:                          2.359     2.359   0.1% |
   diagonalize:                      6.347     6.347   0.2% |
   rotate_psi:                      58.320    58.320   1.6% ||
  calc. matrices:                  371.896   207.931   5.6% |-|
   Apply H:                        163.965   159.123   4.3% |-|
    HMM T:                           4.842     4.842   0.1% |
  diagonalize:                      95.949    95.949   2.6% ||
  rotate_psi:                      116.133   116.133   3.2% ||
 Density:                           49.592     0.001   0.0% |
  Atomic density matrices:           0.817     0.817   0.0% |
  Mix:                               8.628     8.628   0.2% |
  Multipole moments:                 0.023     0.023   0.0% |
  Pseudo density:                   40.123    40.121   1.1% |
   Symmetrize density:               0.002     0.002   0.0% |
 Forces:                           143.069   143.069   3.9% |-|
 Hamiltonian:                       15.149     0.131   0.0% |
  Atomic:                            3.464     3.464   0.1% |
   XC Correction:                    0.000     0.000   0.0% |
  Calculate atomic Hamiltonians:     5.837     5.837   0.2% |
  Communicate:                       0.015     0.015   0.0% |
  Poisson:                           0.056     0.056   0.0% |
  XC 3D grid:                        5.646     5.646   0.2% |
 Orthonormalize:                     2.285     0.003   0.0% |
  calc_s_matrix:                     0.265     0.265   0.0% |
  inverse-cholesky:                  0.039     0.039   0.0% |
  projections:                       1.492     1.492   0.0% |
  rotate_psi_s:                      0.485     0.485   0.0% |
Set symmetry:                        0.000     0.000   0.0% |
Other:                            2151.182  2151.182  58.4% |----------------------|
-----------------------------------------------------------
Total:                                      3681.111 100.0%

Memory usage: 12.20 GiB
Date: Tue Mar 30 09:47:46 2021
