
  ___ ___ ___ _ _ _  
 |   |   |_  | | | | 
 | | | | | . | | | | 
 |__ |  _|___|_____|  20.10.1b1
 |___|_|             

User:   madkru@g064.nifl.fysik.dtu.dk
Date:   Mon Mar 22 08:54:56 2021
Arch:   x86_64
Pid:    60512
Python: 3.7.4
gpaw:   /home/niflheim/madkru/venv_folder/gpaw/gpaw (d0d1ca1c71)
_gpaw:  /home/niflheim/madkru/venv_folder/gpaw/build/lib.linux-x86_64-sandybridge-3.7/
        _gpaw.cpython-37m-x86_64-linux-gnu.so (4fd39e8b1e)
ase:    /home/niflheim/madkru/venv_folder/ase/ase (version 3.21.0b1-7e6c206a91)
numpy:  /home/niflheim/madkru/venv_folder/lib/python3.7/site-packages/numpy (version 1.19.4)
scipy:  /home/niflheim/madkru/venv_folder/lib/python3.7/site-packages/scipy (version 1.5.4)
libxc:  4.3.4
units:  Angstrom and eV
cores: 32
OMP_NUM_THREADS: 1

Input parameters:
  convergence: {bands: occupied,
                density: 0.0001,
                eigenstates: 4e-08,
                energy: 0.0005,
                forces: 1e-06}
  kpts: [6 6 4]
  mode: {ecut: 600.0,
         gammacentered: False,
         name: pw}
  occupations: {fixmagmom: False,
                name: fermi-dirac,
                width: 0.001}
  symmetry: {point_group: False,
             time_reversal: False}

System changes: positions, numbers, cell, pbc, initial_charges, initial_magmoms 

Initialize ...

O-setup:
  name: Oxygen
  id: 9b9d51c344dea68c822856295a461509
  Z: 8.0
  valence: 6
  core: 2
  charge: 0.0
  file: /home/modules/software/GPAW-setups/0.9.20000/O.LDA.gz
  compensation charges: gauss, rc=0.21, lmax=2
  cutoffs: 1.17(filt), 0.83(core),
  valence states:
                energy  radius
    2s(2.00)   -23.752   0.688
    2p(4.00)    -9.195   0.598
    *s           3.459   0.688
    *p          18.016   0.598
    *d           0.000   0.619

  Using partial waves for O as LCAO basis

Mn-setup:
  name: Manganese
  id: 0d715a8018be061a6e9ea6f2d364ac92
  Z: 25.0
  valence: 15
  core: 10
  charge: 0.0
  file: /home/modules/software/GPAW-setups/0.9.20000/Mn.LDA.gz
  compensation charges: gauss, rc=0.38, lmax=2
  cutoffs: 2.14(filt), 0.86(core),
  valence states:
                energy  radius
    3s(2.00)   -85.387   1.275
    4s(2.00)    -5.282   1.275
    3p(6.00)   -54.493   1.281
    4p(0.00)    -1.471   1.281
    3d(5.00)    -7.009   1.138
    *d          20.203   1.138

  Using partial waves for Mn as LCAO basis

P-setup:
  name: Phosphorus
  id: a5561c299094968922a179ab894d2e2d
  Z: 15.0
  valence: 5
  core: 10
  charge: 0.0
  file: /home/modules/software/GPAW-setups/0.9.20000/P.LDA.gz
  compensation charges: gauss, rc=0.30, lmax=2
  cutoffs: 1.69(filt), 1.81(core),
  valence states:
                energy  radius
    3s(2.00)   -14.015   0.953
    3p(3.00)    -5.596   0.953
    *s          13.197   0.953
    *p          21.615   0.953
    *d           0.000   0.953

  Using partial waves for P as LCAO basis

Li-setup:
  name: Lithium
  id: b73562207f97a71b6967473b66fe8b65
  Z: 3.0
  valence: 1
  core: 2
  charge: 0.0
  file: /home/modules/software/GPAW-setups/0.9.20000/Li.LDA.gz
  compensation charges: gauss, rc=0.33, lmax=2
  cutoffs: 1.91(filt), 2.55(core),
  valence states:
                energy  radius
    2s(1.00)    -2.874   1.058
    2p(0.00)    -1.126   1.058
    *s          24.338   1.058

  Using partial waves for Li as LCAO basis

Reference energy: -196157.275402

Spin-polarized calculation.
Magnetic moment: 0.000000

Convergence criteria:
  Maximum total energy change: 0.0005 eV / electron
  Maximum integral of absolute density change: 0.0001 electrons
  Maximum integral of absolute eigenstate change: 4e-08 eV^2
  Maximum change in atomic force: 1e-06 eV / Ang
  Maximum number of iterations: 333

Symmetries present (total): 1

  ( 1  0  0)
  ( 0  1  0)
  ( 0  0  1)

144 k-points: 6 x 6 x 4 Monkhorst-Pack grid
144 k-points in the irreducible part of the Brillouin zone
       k-points in crystal coordinates                weights
   0:    -0.41666667   -0.41666667   -0.37500000          1/144
   1:    -0.41666667   -0.41666667   -0.12500000          1/144
   2:    -0.41666667   -0.41666667    0.12500000          1/144
   3:    -0.41666667   -0.41666667    0.37500000          1/144
   4:    -0.41666667   -0.25000000   -0.37500000          1/144
   5:    -0.41666667   -0.25000000   -0.12500000          1/144
   6:    -0.41666667   -0.25000000    0.12500000          1/144
   7:    -0.41666667   -0.25000000    0.37500000          1/144
   8:    -0.41666667   -0.08333333   -0.37500000          1/144
   9:    -0.41666667   -0.08333333   -0.12500000          1/144
          ...
 143:     0.41666667    0.41666667    0.37500000          1/144

Wave functions: Plane wave expansion
  Cutoff energy: 600.000 eV
  Number of coefficients (min, max): 10068, 10125
  Pulay-stress correction: 0.000000 eV/Ang^3 (de/decut=0.000000)
  Using FFTW library
  ScaLapack parameters: grid=1x1, blocksize=None
  Wavefunction extrapolation:
    Improved wavefunction reuse through dual PAW basis 

  Fermi-Dirac: width=0.0010 eV

Eigensolver
   Davidson(niter=2, smin=None, normalize=True) 

Densities:
  Coarse grid: 60*35*27 grid
  Fine grid: 120*70*54 grid
  Total Charge: 0.000000 

Density mixing:
  Method: difference
  Backend: pulay
  Linear mixing parameter: 0.05
  Mixing with 5 old densities
  Damping of long wave oscillations: 50 

Hamiltonian:
  XC and Coulomb potentials evaluated on a 120*70*54 grid
  Using the LDA Exchange-Correlation functional
 

Memory estimate:
  Process memory now: 13131.77 MiB
  Calculator: 375.55 MiB
    Density: 20.02 MiB
      Arrays: 7.57 MiB
      Localized functions: 9.42 MiB
      Mixer: 3.03 MiB
    Hamiltonian: 5.90 MiB
      Arrays: 5.62 MiB
      XC: 0.00 MiB
      Poisson: 0.00 MiB
      vbar: 0.27 MiB
    Wavefunctions: 349.64 MiB
      Arrays psit_nG: 311.46 MiB
      Eigensolver: 19.99 MiB
      Projections: 5.41 MiB
      Projectors: 9.73 MiB
      PW-descriptor: 3.03 MiB

Total number of cores used: 32
Parallelization over k-points: 16
Domain decomposition: 2 x 1 x 1

Number of atoms: 28
Number of atomic orbitals: 148
Number of bands in calculation: 112
Number of valence electrons: 180
Bands to converge: occupied

... initialized

Initializing position-dependent things.

Density initialized from atomic densities
Creating initial wave functions:
  112 bands from LCAO basis set

     .-------------------------.  
    /|         OP              |  
   / |O            O        O  |  
  /  |       O            O  P |  
 *   |O    Mn      O           |  
 |   |          OLi          O |  
 |   .P-O--------------Mn------.  
 |  /          Li    O  Mn  O /   
 | /Li O           PO        /    
 |/       Mn                /     
 *Li-----------------------*      

Positions:
   0 O     -1.360678   -2.541161   -1.202221    ( 0.0000,  0.0000,  0.0000)
   1 O     -3.121941    2.976855    1.167242    ( 0.0000,  0.0000,  0.0000)
   2 O      2.107533    0.508090    1.540712    ( 0.0000,  0.0000,  0.0000)
   3 O      3.869373   -0.072395   -0.828750    ( 0.0000,  0.0000,  0.0000)
   4 O      2.107821    2.976875    1.540792    ( 0.0000,  0.0000,  0.0000)
   5 O      3.869084   -2.531141   -0.828671    ( 0.0000,  0.0000,  0.0000)
   6 O     -1.360390   -0.072375   -1.202141    ( 0.0000,  0.0000,  0.0000)
   7 O     -3.122230    0.508109    1.167321    ( 0.0000,  0.0000,  0.0000)
   8 O     -4.413461   -1.306992   -0.794251    ( 0.0000,  0.0000,  0.0000)
   9 O     -0.069585    1.742707    1.575662    ( 0.0000,  0.0000,  0.0000)
  10 O      5.160604    1.742707    1.132822    ( 0.0000,  0.0000,  0.0000)
  11 O      0.816728   -1.306992   -1.237091    ( 0.0000,  0.0000,  0.0000)
  12 Mn    -2.570809   -1.307302    0.247161    ( 0.0000,  0.0000,  1.0000)
  13 Mn    -1.912021    1.743016   -2.122906    ( 0.0000,  0.0000, -1.0000)
  14 Mn     3.317952    1.743017    0.091411    ( 0.0000,  0.0000, -1.0000)
  15 Mn     2.659164   -1.307302    2.461478    ( 0.0000,  0.0000,  1.0000)
  16 P     -0.620664   -1.306816   -1.828465    ( 0.0000,  0.0000,  0.0000)
  17 P     -3.862097    1.742530    0.541238    ( 0.0000,  0.0000,  0.0000)
  18 P      1.367807    1.742530    2.167036    ( 0.0000,  0.0000,  0.0000)
  19 P      4.609240   -1.306816   -0.202666    ( 0.0000,  0.0000,  0.0000)
  20 O     -0.646437   -1.306845    1.374751    ( 0.0000,  0.0000,  0.0000)
  21 O     -3.836504    1.742559   -0.995565    ( 0.0000,  0.0000,  0.0000)
  22 O      1.393580    1.742559   -1.036179    ( 0.0000,  0.0000,  0.0000)
  23 O      4.583647   -1.306845    1.334136    ( 0.0000,  0.0000,  0.0000)
  24 Li    -4.856429   -2.832143   -2.200714    ( 0.0000,  0.0000,  0.0000)
  25 Li     0.373571   -2.832143    0.169286    ( 0.0000,  0.0000,  0.0000)
  26 Li    -4.856429    0.217857   -2.200714    ( 0.0000,  0.0000,  0.0000)
  27 Li     0.373571    0.217857    0.169286    ( 0.0000,  0.0000,  0.0000)

Unit cell:
           periodic     x           y           z      points  spacing
  1. axis:    yes   10.460000    0.000000    0.000000    60     0.1743
  2. axis:    yes    0.000000    6.100000    0.000000    35     0.1743
  3. axis:    yes    0.000000    0.000000    4.740000    27     0.1756

  Lengths:  10.460000   6.100000   4.740000
  Angles:   90.000000  90.000000  90.000000

Effective grid spacing dv^(1/3) = 0.1747

                     log10-error:           total        iterations:
           time      wfs    density  force  energy       poisson  magmom
iter:   1  08:57:57                       -231.917078             +0.0000
iter:   2  08:58:37  -0.55  -0.94         -231.742456             -0.0044
iter:   3  08:59:16  -0.72  -0.98         -220.583107             -0.0055
iter:   4  08:59:55  -0.95  -1.20         -218.863846             -0.0018
iter:   5  09:00:35  -1.93  -1.36         -222.007786             -0.0012
iter:   6  09:01:14  -1.99  -1.45         -220.755501             -0.0006
iter:   7  09:01:54  -2.04  -1.64         -224.487205             -0.0003
iter:   8  09:02:33  -1.91  -1.84         -226.468214             -0.0000
iter:   9  09:03:12  -3.01  -1.82         -227.050366             -0.0000
iter:  10  09:03:52  -2.89  -1.81         -227.089261             -0.0000
iter:  11  09:04:31  -3.28  -1.83         -226.988421             -0.0000
iter:  12  09:05:10  -3.57  -1.82         -227.080057             -0.0000
iter:  13  09:05:50  -1.69  -1.86         -226.873844             -0.0000
iter:  14  09:06:29  -1.92  -2.07         -226.797355             -0.0000
iter:  15  09:07:08  -2.04  -2.09         -226.330952             -0.0000
iter:  16  09:07:48  -2.83  -2.33         -226.315239             -0.0000
iter:  17  09:08:27  -2.53  -2.46         -226.262444             -0.0000
iter:  18  09:09:06  -3.45  -2.80         -226.237037             -0.0000
iter:  19  09:09:45  -3.09  -2.90         -226.250010             -0.0000
iter:  20  09:10:25  -3.41  -2.84         -226.231363             -0.0000
iter:  21  09:11:04  -4.61  -3.19         -226.231273             -0.0000
iter:  22  09:11:43  -5.21  -3.22         -226.230406             +0.0000
iter:  23  09:12:23  -4.33  -3.24         -226.231471             +0.0000
iter:  24  09:13:02  -4.89  -3.38         -226.228534             +0.0000
iter:  25  09:13:41  -4.49  -3.46         -226.226970             +0.0000
iter:  26  09:14:21  -4.96  -3.52         -226.227125             +0.0000
iter:  27  09:15:00  -4.96  -3.68         -226.226732             +0.0000
iter:  28  09:15:39  -5.78  -3.81         -226.226634             +0.0000
iter:  29  09:16:18  -6.36  -4.05         -226.226616             +0.0000
iter:  30  09:16:58  -6.31  -4.09         -226.226603             -0.0000
iter:  31  09:17:37  -6.13  -4.15         -226.226618             +0.0000
iter:  32  09:18:16  -6.56  -4.37         -226.226604             -0.0000
iter:  33  09:18:56  -6.36  -4.48         -226.226598             -0.0000
iter:  34  09:19:35  -7.11  -4.75         -226.226593             -0.0000
iter:  35  09:20:25  -7.91  -5.02         -226.226593             -0.0000
iter:  36  09:21:15  -8.65  -5.10    -2.81-226.226593             -0.0000
iter:  37  09:22:05  -9.44  -5.33    -3.30-226.226593             -0.0000
iter:  38  09:22:54  -9.05  -5.37    -3.24-226.226593             -0.0000
iter:  39  09:23:44  -9.59  -5.44    -3.90-226.226593             -0.0000
iter:  40  09:24:34  -9.43  -5.49    -3.82-226.226593             -0.0000
iter:  41  09:25:24  -8.99  -5.56    -3.24-226.226593             -0.0000
iter:  42  09:26:14  -9.41  -5.92    -3.71-226.226593             -0.0000
iter:  43  09:27:04 -10.11  -6.13    -4.10-226.226593             -0.0000
iter:  44  09:27:54 -10.36  -6.23    -4.07-226.226593             -0.0000
iter:  45  09:28:44 -10.81  -6.40    -4.44-226.226593             -0.0000
iter:  46  09:29:34 -11.61  -6.48    -4.56-226.226593             -0.0000
iter:  47  09:30:24 -11.24  -6.53    -4.52-226.226593             -0.0000
iter:  48  09:31:14 -11.52  -6.59    -4.79-226.226593             -0.0000
iter:  49  09:32:03 -11.98  -6.63    -5.17-226.226593             -0.0000
iter:  50  09:32:53 -11.22  -6.65    -4.57-226.226593             -0.0000
iter:  51  09:33:43 -11.78  -6.76    -4.70-226.226593             -0.0000
iter:  52  09:34:33 -12.98  -6.80    -5.40-226.226593             -0.0000
iter:  53  09:35:23 -11.50  -6.84    -4.72-226.226593             -0.0000
iter:  54  09:36:13 -12.01  -7.19    -4.97-226.226593             -0.0000
iter:  55  09:37:03 -13.15  -7.36    -5.27-226.226593             -0.0000
iter:  56  09:37:53 -12.86  -7.47    -5.20-226.226593             -0.0000
iter:  57  09:38:42 -13.33  -7.73    -5.70-226.226593             -0.0000
iter:  58  09:39:32 -13.62  -7.85    -5.74-226.226593             -0.0000
iter:  59  09:40:22 -14.50  -7.94    -6.14-226.226593             -0.0000

Converged after 59 iterations.

Dipole moment: (10.669771, 1.407230, -6.273415) |e|*Ang

Total magnetic moment: (0.000000, 0.000000, -0.000000)
Local magnetic moments:
   0 O  ( 0.000000,  0.000000, -0.000531)
   1 O  ( 0.000000,  0.000000,  0.000518)
   2 O  ( 0.000000,  0.000000,  0.000321)
   3 O  ( 0.000000,  0.000000, -0.000698)
   4 O  ( 0.000000,  0.000000,  0.000550)
   5 O  ( 0.000000,  0.000000, -0.000149)
   6 O  ( 0.000000,  0.000000, -0.000548)
   7 O  ( 0.000000,  0.000000,  0.000545)
   8 O  ( 0.000000,  0.000000,  0.028899)
   9 O  ( 0.000000,  0.000000, -0.028684)
  10 O  ( 0.000000,  0.000000, -0.028681)
  11 O  ( 0.000000,  0.000000,  0.028690)
  12 Mn ( 0.000000,  0.000000,  4.448262)
  13 Mn ( 0.000000,  0.000000, -4.448226)
  14 Mn ( 0.000000,  0.000000, -4.449453)
  15 Mn ( 0.000000,  0.000000,  4.448410)
  16 P  ( 0.000000,  0.000000,  0.001565)
  17 P  ( 0.000000,  0.000000, -0.001526)
  18 P  ( 0.000000,  0.000000, -0.001544)
  19 P  ( 0.000000,  0.000000,  0.001844)
  20 O  ( 0.000000,  0.000000,  0.025292)
  21 O  ( 0.000000,  0.000000, -0.025307)
  22 O  ( 0.000000,  0.000000, -0.025272)
  23 O  ( 0.000000,  0.000000,  0.025432)
  24 Li ( 0.000000,  0.000000,  0.000016)
  25 Li ( 0.000000,  0.000000,  0.000001)
  26 Li ( 0.000000,  0.000000,  0.000001)
  27 Li ( 0.000000,  0.000000,  0.000001)

Energy contributions relative to reference atoms: (reference = -196157.275402)

Kinetic:       +217.880099
Potential:     -195.645895
External:        +0.000000
XC:            -250.500902
Entropy (-ST):   -0.000000
Local:           +2.040105
--------------------------
Free energy:   -226.226593
Extrapolated:  -226.226593

Spin contamination: 9.561370 electrons
Showing only first 2 kpts
                      Up                     Down
 Kpt  Band  Eigenvalues  Occupancy  Eigenvalues  Occupancy
  0    88      5.11267    0.00694      5.10291    0.00694
  0    89      5.13705    0.00694      5.12907    0.00694
  0    90      7.28277    0.00000      7.29125    0.00000
  0    91      7.30308    0.00000      7.30911    0.00000

  1    88      5.13832    0.00694      5.12897    0.00694
  1    89      5.16770    0.00694      5.15925    0.00694
  1    90      7.22528    0.00000      7.23436    0.00000
  1    91      7.24078    0.00000      7.24726    0.00000


Fermi level: 5.66278

Gap: 1.965 eV
Transition (v -> c):
  (s=0, k=70, n=89, [-0.08, 0.42, 0.12]) -> (s=0, k=86, n=90, [0.08, 0.08, 0.12])
Writing to born-0.01-5y+.gpw (mode='all')

Timing:                              incl.     excl.
-----------------------------------------------------------
Hamiltonian:                         0.417     0.003   0.0% |
 Atomic:                             0.064     0.064   0.0% |
  XC Correction:                     0.000     0.000   0.0% |
 Calculate atomic Hamiltonians:      0.179     0.179   0.0% |
 Communicate:                        0.002     0.002   0.0% |
 Initialize Hamiltonian:             0.000     0.000   0.0% |
 Poisson:                            0.002     0.002   0.0% |
 XC 3D grid:                         0.168     0.168   0.0% |
LCAO initialization:               136.333     0.677   0.0% |
 LCAO eigensolver:                  34.321     0.003   0.0% |
  Calculate projections:             0.057     0.057   0.0% |
  DenseAtomicCorrection:             0.083     0.083   0.0% |
  Distribute overlap matrix:         0.254     0.254   0.0% |
  Orbital Layouts:                   0.362     0.362   0.0% |
  Potential matrix:                 33.475    33.475   0.6% |
  Sum over cells:                    0.088     0.088   0.0% |
 LCAO to grid:                      99.065    99.065   1.7% ||
 Set positions (LCAO WFS):           2.269     0.346   0.0% |
  Basic WFS set positions:           0.001     0.001   0.0% |
  Basis functions set positions:     0.000     0.000   0.0% |
  P tci:                             1.059     1.059   0.0% |
  ST tci:                            0.657     0.657   0.0% |
  mktci:                             0.205     0.205   0.0% |
PWDescriptor:                        0.025     0.025   0.0% |
SCF-cycle:                        2587.283     5.734   0.1% |
 Davidson:                        2199.258   719.129  12.3% |----|
  Apply H:                         152.811   148.030   2.5% ||
   HMM T:                            4.781     4.781   0.1% |
  Subspace diag:                   323.813     0.187   0.0% |
   calc_h_matrix:                  209.218    58.303   1.0% |
    Apply H:                       150.915   146.333   2.5% ||
     HMM T:                          4.582     4.582   0.1% |
   diagonalize:                      7.192     7.192   0.1% |
   rotate_psi:                     107.215   107.215   1.8% ||
  calc. matrices:                  687.501   389.937   6.7% |--|
   Apply H:                        297.564   288.749   4.9% |-|
    HMM T:                           8.814     8.814   0.2% |
  diagonalize:                      98.233    98.233   1.7% ||
  rotate_psi:                      217.771   217.771   3.7% ||
 Density:                           86.941     0.002   0.0% |
  Atomic density matrices:           1.483     1.483   0.0% |
  Mix:                              14.247    14.247   0.2% |
  Multipole moments:                 0.034     0.034   0.0% |
  Pseudo density:                   71.176    71.174   1.2% |
   Symmetrize density:               0.002     0.002   0.0% |
 Forces:                           266.495   266.495   4.5% |-|
 Hamiltonian:                       24.442     0.138   0.0% |
  Atomic:                            3.169     3.168   0.1% |
   XC Correction:                    0.000     0.000   0.0% |
  Calculate atomic Hamiltonians:    10.571    10.571   0.2% |
  Communicate:                       0.107     0.107   0.0% |
  Poisson:                           0.095     0.095   0.0% |
  XC 3D grid:                       10.363    10.363   0.2% |
 Orthonormalize:                     4.412     0.004   0.0% |
  calc_s_matrix:                     0.526     0.526   0.0% |
  inverse-cholesky:                  0.055     0.055   0.0% |
  projections:                       2.894     2.894   0.0% |
  rotate_psi_s:                      0.933     0.933   0.0% |
Set symmetry:                        0.000     0.000   0.0% |
Other:                            3138.927  3138.927  53.5% |--------------------|
-----------------------------------------------------------
Total:                                      5862.985 100.0%

Memory usage: 12.82 GiB
Date: Mon Mar 22 10:32:39 2021
