
  ___ ___ ___ _ _ _  
 |   |   |_  | | | | 
 | | | | | . | | | | 
 |__ |  _|___|_____|  21.1.1b1
 |___|_|             

User:   madkru@g043.nifl.fysik.dtu.dk
Date:   Tue Mar 30 22:37:51 2021
Arch:   x86_64
Pid:    39387
Python: 3.8.6
gpaw:   /home/niflheim/madkru/venv_madkru/gpaw/gpaw (e6f0d78a31)
_gpaw:  /home/niflheim/madkru/venv_madkru/gpaw/build/lib.linux-x86_64-sandybridge-3.8/
        _gpaw.cpython-38-x86_64-linux-gnu.so (e6f0d78a31)
ase:    /home/niflheim/madkru/venv_madkru/ase/ase (version 3.22.0b1-4d5a73cb29)
numpy:  /home/modules/software/SciPy-bundle/2020.11-foss-2020b/lib/python3.8/site-packages/numpy (version 1.19.4)
scipy:  /home/modules/software/SciPy-bundle/2020.11-foss-2020b/lib/python3.8/site-packages/scipy (version 1.5.4)
libxc:  4.3.4
units:  Angstrom and eV
cores: 64
OpenMP: False
OMP_NUM_THREADS: 1

Input parameters:
  convergence: {bands: occupied,
                density: 0.0001,
                eigenstates: 4e-08,
                energy: 0.0005,
                forces: 1e-06}
  kpts: [6 6 4]
  maxiter: 1000
  mode: {ecut: 600.0,
         gammacentered: False,
         name: pw}
  occupations: {fixmagmom: False,
                name: fermi-dirac,
                width: 0.001}
  symmetry: {point_group: False,
             time_reversal: False}

System changes: positions, numbers, cell, pbc, initial_charges, initial_magmoms 

Initialize ...

O-setup:
  name: Oxygen
  id: 9b9d51c344dea68c822856295a461509
  Z: 8.0
  valence: 6
  core: 2
  charge: 0.0
  file: /home/modules/software/GPAW-setups/0.9.20000/O.LDA.gz
  compensation charges: gauss, rc=0.21, lmax=2
  cutoffs: 1.17(filt), 0.83(core),
  valence states:
                energy  radius
    2s(2.00)   -23.752   0.688
    2p(4.00)    -9.195   0.598
    *s           3.459   0.688
    *p          18.016   0.598
    *d           0.000   0.619

  Using partial waves for O as LCAO basis

Mn-setup:
  name: Manganese
  id: 0d715a8018be061a6e9ea6f2d364ac92
  Z: 25.0
  valence: 15
  core: 10
  charge: 0.0
  file: /home/modules/software/GPAW-setups/0.9.20000/Mn.LDA.gz
  compensation charges: gauss, rc=0.38, lmax=2
  cutoffs: 2.14(filt), 0.86(core),
  valence states:
                energy  radius
    3s(2.00)   -85.387   1.275
    4s(2.00)    -5.282   1.275
    3p(6.00)   -54.493   1.281
    4p(0.00)    -1.471   1.281
    3d(5.00)    -7.009   1.138
    *d          20.203   1.138

  Using partial waves for Mn as LCAO basis

P-setup:
  name: Phosphorus
  id: a5561c299094968922a179ab894d2e2d
  Z: 15.0
  valence: 5
  core: 10
  charge: 0.0
  file: /home/modules/software/GPAW-setups/0.9.20000/P.LDA.gz
  compensation charges: gauss, rc=0.30, lmax=2
  cutoffs: 1.69(filt), 1.81(core),
  valence states:
                energy  radius
    3s(2.00)   -14.015   0.953
    3p(3.00)    -5.596   0.953
    *s          13.197   0.953
    *p          21.615   0.953
    *d           0.000   0.953

  Using partial waves for P as LCAO basis

Li-setup:
  name: Lithium
  id: b73562207f97a71b6967473b66fe8b65
  Z: 3.0
  valence: 1
  core: 2
  charge: 0.0
  file: /home/modules/software/GPAW-setups/0.9.20000/Li.LDA.gz
  compensation charges: gauss, rc=0.33, lmax=2
  cutoffs: 1.91(filt), 2.55(core),
  valence states:
                energy  radius
    2s(1.00)    -2.874   1.058
    2p(0.00)    -1.126   1.058
    *s          24.338   1.058

  Using partial waves for Li as LCAO basis

Reference energy: -196157.275402

Spin-polarized calculation.
Magnetic moment: 0.000000

Convergence criteria:
  Maximum total energy change: 0.0005 eV / electron
  Maximum integral of absolute density change: 0.0001 electrons
  Maximum integral of absolute eigenstate change: 4e-08 eV^2
  Maximum change in atomic force: 1e-06 eV / Ang
  Maximum number of iterations: 1000

Symmetries present (total): 1

  ( 1  0  0)
  ( 0  1  0)
  ( 0  0  1)

144 k-points: 6 x 6 x 4 Monkhorst-Pack grid
144 k-points in the irreducible part of the Brillouin zone
       k-points in crystal coordinates                weights
   0:    -0.41666667   -0.41666667   -0.37500000          1/144
   1:    -0.41666667   -0.41666667   -0.12500000          1/144
   2:    -0.41666667   -0.41666667    0.12500000          1/144
   3:    -0.41666667   -0.41666667    0.37500000          1/144
   4:    -0.41666667   -0.25000000   -0.37500000          1/144
   5:    -0.41666667   -0.25000000   -0.12500000          1/144
   6:    -0.41666667   -0.25000000    0.12500000          1/144
   7:    -0.41666667   -0.25000000    0.37500000          1/144
   8:    -0.41666667   -0.08333333   -0.37500000          1/144
   9:    -0.41666667   -0.08333333   -0.12500000          1/144
          ...
 143:     0.41666667    0.41666667    0.37500000          1/144

Wave functions: Plane wave expansion
  Cutoff energy: 600.000 eV
  Number of coefficients (min, max): 10068, 10125
  Pulay-stress correction: 0.000000 eV/Ang^3 (de/decut=0.000000)
  Using FFTW library
  ScaLapack parameters: grid=1x1, blocksize=None
  Wavefunction extrapolation:
    Improved wavefunction reuse through dual PAW basis 

  Fermi-Dirac: width=0.0010 eV

Eigensolver
   Davidson(niter=2) 

Densities:
  Coarse grid: 60*35*27 grid
  Fine grid: 120*70*54 grid
  Total Charge: 0.000000 

Density mixing:
  Method: difference
  Backend: pulay
  Linear mixing parameter: 0.05
  Mixing with 5 old densities
  Damping of long wave oscillations: 50 

Hamiltonian:
  XC and Coulomb potentials evaluated on a 120*70*54 grid
  Using the LDA Exchange-Correlation functional
 

Memory estimate:
  Process memory now: 13139.00 MiB
  Calculator: 354.82 MiB
    Density: 10.06 MiB
      Arrays: 3.79 MiB
      Localized functions: 4.71 MiB
      Mixer: 1.56 MiB
    Hamiltonian: 2.95 MiB
      Arrays: 2.82 MiB
      XC: 0.00 MiB
      Poisson: 0.00 MiB
      vbar: 0.14 MiB
    Wavefunctions: 341.80 MiB
      Arrays psit_nG: 311.46 MiB
      Eigensolver: 19.99 MiB
      Projections: 2.71 MiB
      Projectors: 4.87 MiB
      PW-descriptor: 2.77 MiB

Total number of cores used: 64
Parallelization over k-points: 16
Domain decomposition: 2 x 2 x 1

Number of atoms: 28
Number of atomic orbitals: 148
Number of bands in calculation: 112
Number of valence electrons: 180
Bands to converge: occupied

... initialized

Initializing position-dependent things.

Density initialized from atomic densities
Creating initial wave functions:
  112 bands from LCAO basis set

     .-------------------------.  
    /|         OP              |  
   / |O            O        O  |  
  /  |       O            O  P |  
 *   |O    Mn      O           |  
 |   |          OLi          O |  
 |   .P-O--------------Mn------.  
 |  /          Li    O  Mn  O /   
 | /Li O           PO        /    
 |/       Mn                /     
 *Li-----------------------*      

Positions:
   0 O     -1.360678   -2.541161   -1.202221    ( 0.0000,  0.0000,  0.0000)
   1 O     -3.121941    2.976855    1.167242    ( 0.0000,  0.0000,  0.0000)
   2 O      2.107533    0.508090    1.540712    ( 0.0000,  0.0000,  0.0000)
   3 O      3.869373   -0.072395   -0.828750    ( 0.0000,  0.0000,  0.0000)
   4 O      2.107821    2.976875    1.540792    ( 0.0000,  0.0000,  0.0000)
   5 O      3.869084   -2.541141   -0.828671    ( 0.0000,  0.0000,  0.0000)
   6 O     -1.360390   -0.072375   -1.202141    ( 0.0000,  0.0000,  0.0000)
   7 O     -3.122230    0.508109    1.167321    ( 0.0000,  0.0000,  0.0000)
   8 O     -4.413461   -1.306992   -0.794251    ( 0.0000,  0.0000,  0.0000)
   9 O     -0.069585    1.742707    1.575662    ( 0.0000,  0.0000,  0.0000)
  10 O      5.160604    1.742707    1.132822    ( 0.0000,  0.0000,  0.0000)
  11 O      0.816728   -1.306992   -1.237091    ( 0.0000,  0.0000,  0.0000)
  12 Mn    -2.570809   -1.307302    0.247161    ( 0.0000,  0.0000,  1.0000)
  13 Mn    -1.912021    1.743016   -2.122906    ( 0.0000,  0.0000, -1.0000)
  14 Mn     3.317952    1.753017    0.091411    ( 0.0000,  0.0000, -1.0000)
  15 Mn     2.659164   -1.307302    2.461478    ( 0.0000,  0.0000,  1.0000)
  16 P     -0.620664   -1.306816   -1.828465    ( 0.0000,  0.0000,  0.0000)
  17 P     -3.862097    1.742530    0.541238    ( 0.0000,  0.0000,  0.0000)
  18 P      1.367807    1.742530    2.167036    ( 0.0000,  0.0000,  0.0000)
  19 P      4.609240   -1.306816   -0.202666    ( 0.0000,  0.0000,  0.0000)
  20 O     -0.646437   -1.306845    1.374751    ( 0.0000,  0.0000,  0.0000)
  21 O     -3.836504    1.742559   -0.995565    ( 0.0000,  0.0000,  0.0000)
  22 O      1.393580    1.742559   -1.036179    ( 0.0000,  0.0000,  0.0000)
  23 O      4.583647   -1.306845    1.334136    ( 0.0000,  0.0000,  0.0000)
  24 Li    -4.856429   -2.832143   -2.200714    ( 0.0000,  0.0000,  0.0000)
  25 Li     0.373571   -2.832143    0.169286    ( 0.0000,  0.0000,  0.0000)
  26 Li    -4.856429    0.217857   -2.200714    ( 0.0000,  0.0000,  0.0000)
  27 Li     0.373571    0.217857    0.169286    ( 0.0000,  0.0000,  0.0000)

Unit cell:
           periodic     x           y           z      points  spacing
  1. axis:    yes   10.460000    0.000000    0.000000    60     0.1743
  2. axis:    yes    0.000000    6.100000    0.000000    35     0.1743
  3. axis:    yes    0.000000    0.000000    4.740000    27     0.1756

  Lengths:  10.460000   6.100000   4.740000
  Angles:   90.000000  90.000000  90.000000

Effective grid spacing dv^(1/3) = 0.1747

                     log10-error:           total        iterations:
           time      wfs    density  force  energy       poisson  magmom
iter:   1  22:39:26                       -231.920269             +0.0000
iter:   2  22:39:47  -0.55  -0.94         -231.731258             +0.0052
iter:   3  22:40:09  -0.72  -0.98         -220.584655             +0.0065
iter:   4  22:40:30  -0.96  -1.20         -218.866475             +0.0022
iter:   5  22:40:51  -1.94  -1.36         -221.271851             +0.0014
iter:   6  22:41:12  -1.99  -1.50         -220.010062             +0.0007
iter:   7  22:41:34  -2.22  -1.68         -223.286908             +0.1012
iter:   8  22:41:55  -2.71  -1.89         -220.081160             +0.1496
iter:   9  22:42:16  -1.76  -1.93         -227.144231             -0.2036
iter:  10  22:42:38  -2.87  -1.84         -227.354559             -0.0829
iter:  11  22:42:59  -1.41  -1.81         -228.131468             -0.0182
iter:  12  22:43:20  -2.44  -1.93         -228.246618             -0.0399
iter:  13  22:43:42  -2.67  -1.93         -227.409609             +0.7908
iter:  14  22:44:03  -2.55  -1.95         -229.707166             +1.6280
iter:  15  22:44:24  -2.65  -1.80         -226.954953             +1.3678
iter:  16  22:44:45  -3.70  -1.89         -227.462880             +1.5481
iter:  17  22:45:07  -2.33  -1.86         -225.982007             +1.5780
iter:  18  22:45:28  -2.88  -2.02         -225.994527             +1.2797
iter:  19  22:45:49  -2.02  -2.04         -226.675336             +0.3996
iter:  20  22:46:10  -1.77  -2.11         -229.587901             +0.0064
iter:  21  22:46:32  -3.06  -1.89         -228.611832             +0.1112
iter:  22  22:46:53  -2.76  -1.93         -230.311173             +0.0955
iter:  23  22:47:14  -2.22  -1.90         -226.919978             +0.0264
iter:  24  22:47:35  -2.44  -1.93         -230.684887             +0.0096
iter:  25  22:47:57  -2.96  -1.82         -228.353107             +0.0075
iter:  26  22:48:18  -4.35  -1.92         -228.471129             +0.0022
iter:  27  22:48:39  -1.96  -1.92         -224.371770             +0.0022
iter:  28  22:49:01  -2.53  -2.15         -224.430304             +0.0007
iter:  29  22:49:22  -2.70  -2.21         -224.787541             -0.0010
iter:  30  22:49:43  -3.39  -2.27         -225.218368             +0.0005
iter:  31  22:50:04  -2.44  -2.30         -226.180462             +0.0010
iter:  32  22:50:25  -2.72  -2.51         -226.259811             +0.0003
iter:  33  22:50:47  -3.78  -2.67         -226.248143             +0.0001
iter:  34  22:51:08  -3.47  -2.79         -226.242802             +0.0000
iter:  35  22:51:29  -4.35  -2.99         -226.235305             +0.0000
iter:  36  22:51:51  -4.06  -3.04         -226.228940             +0.0000
iter:  37  22:52:12  -4.27  -3.31         -226.228503             +0.0000
iter:  38  22:52:33  -5.22  -3.50         -226.228039             +0.0000
iter:  39  22:52:54  -5.82  -3.57         -226.227892             +0.0000
iter:  40  22:53:15  -5.30  -3.64         -226.227672             +0.0000
iter:  41  22:53:37  -6.17  -3.97         -226.227669             +0.0000
iter:  42  22:53:58  -5.69  -4.03         -226.227717             +0.0000
iter:  43  22:54:19  -6.43  -4.15         -226.227670             +0.0000
iter:  44  22:54:40  -6.14  -4.37         -226.227668             +0.0000
iter:  45  22:55:02  -6.93  -4.46         -226.227661             +0.0000
iter:  46  22:55:28  -7.67  -4.60         -226.227657             +0.0000
iter:  47  22:55:55  -7.82  -4.74    -3.12-226.227659             +0.0000
iter:  48  22:56:22  -7.86  -4.81    -2.81-226.227658             +0.0000
iter:  49  22:56:49  -8.38  -4.98    -3.04-226.227658             +0.0000
iter:  50  22:57:15  -9.16  -5.07    -3.64-226.227658             +0.0000
iter:  51  22:57:42  -8.43  -5.11    -3.14-226.227658             +0.0000
iter:  52  22:58:09  -8.54  -5.25    -2.95-226.227658             +0.0000
iter:  53  22:58:35  -9.77  -5.45    -3.88-226.227658             +0.0000
iter:  54  22:59:02  -8.71  -5.50    -3.26-226.227658             -0.0000
iter:  55  22:59:29 -10.05  -5.74    -3.84-226.227658             -0.0000
iter:  56  22:59:56 -10.20  -5.82    -3.86-226.227658             -0.0000
iter:  57  23:00:22 -10.44  -5.92    -4.19-226.227658             -0.0000
iter:  58  23:00:49 -10.30  -5.99    -3.85-226.227658             -0.0000
iter:  59  23:01:16 -11.00  -6.26    -4.28-226.227658             -0.0000
iter:  60  23:01:42 -10.51  -6.36    -4.14-226.227658             -0.0000
iter:  61  23:02:09 -11.28  -6.62    -4.46-226.227658             -0.0000
iter:  62  23:02:36 -12.17  -6.72    -4.88-226.227658             -0.0000
iter:  63  23:03:03 -12.21  -6.78    -4.68-226.227658             -0.0000
iter:  64  23:03:30 -11.77  -6.88    -4.62-226.227658             -0.0000
iter:  65  23:03:56 -12.03  -7.10    -4.87-226.227658             -0.0000
iter:  66  23:04:23 -12.68  -7.32    -5.42-226.227658             -0.0000
iter:  67  23:04:50 -13.21  -7.36    -5.70-226.227658             +0.0000
iter:  68  23:05:16 -12.78  -7.41    -5.25-226.227658             +0.0000
iter:  69  23:05:43 -13.67  -7.69    -5.81-226.227658             +0.0000
iter:  70  23:06:10 -13.44  -7.75    -5.57-226.227658             +0.0000
iter:  71  23:06:37 -13.82  -7.89    -5.74-226.227658             -0.0000
iter:  72  23:07:03 -14.08  -8.05    -6.10-226.227658             -0.0000

Converged after 72 iterations.

Dipole moment: (10.671455, 1.424404, -6.269784) |e|*Ang

Total magnetic moment: (0.000000, 0.000000, -0.000000)
Local magnetic moments:
   0 O  ( 0.000000,  0.000000, -0.000517)
   1 O  ( 0.000000,  0.000000,  0.000548)
   2 O  ( 0.000000,  0.000000,  0.000924)
   3 O  ( 0.000000,  0.000000, -0.000046)
   4 O  ( 0.000000,  0.000000,  0.000135)
   5 O  ( 0.000000,  0.000000, -0.001048)
   6 O  ( 0.000000,  0.000000, -0.000539)
   7 O  ( 0.000000,  0.000000,  0.000539)
   8 O  ( 0.000000,  0.000000,  0.028692)
   9 O  ( 0.000000,  0.000000, -0.028702)
  10 O  ( 0.000000,  0.000000, -0.028694)
  11 O  ( 0.000000,  0.000000,  0.028702)
  12 Mn ( 0.000000,  0.000000,  4.448162)
  13 Mn ( 0.000000,  0.000000, -4.448240)
  14 Mn ( 0.000000,  0.000000, -4.448113)
  15 Mn ( 0.000000,  0.000000,  4.448234)
  16 P  ( 0.000000,  0.000000,  0.001558)
  17 P  ( 0.000000,  0.000000, -0.001543)
  18 P  ( 0.000000,  0.000000, -0.001559)
  19 P  ( 0.000000,  0.000000,  0.001541)
  20 O  ( 0.000000,  0.000000,  0.025315)
  21 O  ( 0.000000,  0.000000, -0.025306)
  22 O  ( 0.000000,  0.000000, -0.025317)
  23 O  ( 0.000000,  0.000000,  0.025304)
  24 Li ( 0.000000,  0.000000, -0.000002)
  25 Li ( 0.000000,  0.000000,  0.000005)
  26 Li ( 0.000000,  0.000000,  0.000002)
  27 Li ( 0.000000,  0.000000, -0.000005)

Energy contributions relative to reference atoms: (reference = -196157.275402)

Kinetic:       +217.355314
Potential:     -195.239795
External:        +0.000000
XC:            -250.384307
Entropy (-ST):   -0.000000
Local:           +2.041130
--------------------------
Free energy:   -226.227658
Extrapolated:  -226.227658

Spin contamination: 9.560403 electrons
Showing only first 2 kpts
                      Up                     Down
 Kpt  Band  Eigenvalues  Occupancy  Eigenvalues  Occupancy
  0    88      5.10991    1.00000      5.10998    1.00000
  0    89      5.13427    1.00000      5.13403    1.00000
  0    90      7.28860    0.00000      7.28866    0.00000
  0    91      7.30634    0.00000      7.30636    0.00000

  1    88      5.13562    1.00000      5.13544    1.00000
  1    89      5.16476    1.00000      5.16474    1.00000
  1    90      7.23143    0.00000      7.23145    0.00000
  1    91      7.24365    0.00000      7.24366    0.00000


Fermi level: 6.30001

Gap: 1.972 eV
Transition (v -> c):
  (s=1, k=69, n=89, [-0.08, 0.42, -0.12]) -> (s=1, k=82, n=90, [0.08, -0.08, 0.12])
Writing to born-0.01-14y+.gpw (mode='all')

Timing:                              incl.     excl.
-----------------------------------------------------------
Hamiltonian:                         0.302     0.003   0.0% |
 Atomic:                             0.122     0.122   0.0% |
  XC Correction:                     0.000     0.000   0.0% |
 Calculate atomic Hamiltonians:      0.083     0.083   0.0% |
 Communicate:                        0.001     0.001   0.0% |
 Initialize Hamiltonian:             0.000     0.000   0.0% |
 Poisson:                            0.001     0.001   0.0% |
 XC 3D grid:                         0.091     0.091   0.0% |
LCAO initialization:                70.130     0.675   0.0% |
 LCAO eigensolver:                  17.954     0.002   0.0% |
  Calculate projections:             0.029     0.029   0.0% |
  DenseAtomicCorrection:             0.043     0.043   0.0% |
  Distribute overlap matrix:         0.009     0.009   0.0% |
  Orbital Layouts:                   0.277     0.277   0.0% |
  Potential matrix:                 17.500    17.500   0.5% |
  Sum over cells:                    0.095     0.095   0.0% |
 LCAO to grid:                      50.223    50.223   1.3% ||
 Set positions (LCAO WFS):           1.278     0.180   0.0% |
  Basic WFS set positions:           0.001     0.001   0.0% |
  Basis functions set positions:     0.000     0.000   0.0% |
  P tci:                             0.512     0.512   0.0% |
  ST tci:                            0.370     0.370   0.0% |
  mktci:                             0.214     0.214   0.0% |
PWDescriptor:                        0.025     0.025   0.0% |
SCF-cycle:                        1680.737     5.799   0.2% |
 Davidson:                        1448.942   463.290  12.2% |----|
  Apply H:                          97.663    94.627   2.5% ||
   HMM T:                            3.036     3.036   0.1% |
  Subspace diag:                   207.829     0.211   0.0% |
   calc_h_matrix:                  132.410    36.204   1.0% |
    Apply H:                        96.206    93.390   2.5% ||
     HMM T:                          2.816     2.816   0.1% |
   diagonalize:                      7.341     7.341   0.2% |
   rotate_psi:                      67.867    67.867   1.8% ||
  calc. matrices:                  433.110   241.301   6.3% |--|
   Apply H:                        191.809   186.068   4.9% |-|
    HMM T:                           5.741     5.741   0.2% |
  diagonalize:                     111.856   111.856   2.9% ||
  rotate_psi:                      135.195   135.195   3.5% ||
 Density:                           57.573     0.002   0.0% |
  Atomic density matrices:           0.950     0.950   0.0% |
  Mix:                               9.839     9.839   0.3% |
  Multipole moments:                 0.026     0.026   0.0% |
  Pseudo density:                   46.757    46.755   1.2% |
   Symmetrize density:               0.002     0.002   0.0% |
 Forces:                           148.462   148.462   3.9% |-|
 Hamiltonian:                       17.663     0.152   0.0% |
  Atomic:                            4.083     4.083   0.1% |
   XC Correction:                    0.000     0.000   0.0% |
  Calculate atomic Hamiltonians:     6.775     6.775   0.2% |
  Communicate:                       0.034     0.034   0.0% |
  Poisson:                           0.065     0.065   0.0% |
  XC 3D grid:                        6.554     6.554   0.2% |
 Orthonormalize:                     2.298     0.003   0.0% |
  calc_s_matrix:                     0.265     0.265   0.0% |
  inverse-cholesky:                  0.039     0.039   0.0% |
  projections:                       1.501     1.501   0.0% |
  rotate_psi_s:                      0.488     0.488   0.0% |
Set symmetry:                        0.000     0.000   0.0% |
Other:                            2058.975  2058.975  54.0% |---------------------|
-----------------------------------------------------------
Total:                                      3810.169 100.0%

Memory usage: 12.85 GiB
Date: Tue Mar 30 23:41:21 2021
