
  ___ ___ ___ _ _ _  
 |   |   |_  | | | | 
 | | | | | . | | | | 
 |__ |  _|___|_____|  21.1.1b1
 |___|_|             

User:   madkru@i009.nifl.fysik.dtu.dk
Date:   Fri Apr  2 00:38:34 2021
Arch:   x86_64
Pid:    31381
Python: 3.8.6
gpaw:   /home/niflheim/madkru/venv_madkru/gpaw/gpaw (e6f0d78a31)
_gpaw:  /home/niflheim/madkru/venv_madkru/gpaw/build/lib.linux-x86_64-ivybridge-3.8/
        _gpaw.cpython-38-x86_64-linux-gnu.so (e6f0d78a31)
ase:    /home/niflheim/madkru/venv_madkru/ase/ase (version 3.22.0b1-4d5a73cb29)
numpy:  /home/modules/software/SciPy-bundle/2020.11-foss-2020b/lib/python3.8/site-packages/numpy (version 1.19.4)
scipy:  /home/modules/software/SciPy-bundle/2020.11-foss-2020b/lib/python3.8/site-packages/scipy (version 1.5.4)
libxc:  4.3.4
units:  Angstrom and eV
cores: 64
OpenMP: False
OMP_NUM_THREADS: 1

Input parameters:
  convergence: {bands: occupied,
                density: 0.0001,
                eigenstates: 4e-08,
                energy: 0.0005,
                forces: 1e-06}
  kpts: [6 6 4]
  maxiter: 1000
  mode: {ecut: 600.0,
         gammacentered: False,
         name: pw}
  occupations: {fixmagmom: False,
                name: fermi-dirac,
                width: 0.001}
  symmetry: {point_group: False,
             time_reversal: False}

System changes: positions, numbers, cell, pbc, initial_charges, initial_magmoms 

Initialize ...

O-setup:
  name: Oxygen
  id: 9b9d51c344dea68c822856295a461509
  Z: 8.0
  valence: 6
  core: 2
  charge: 0.0
  file: /home/modules/software/GPAW-setups/0.9.20000/O.LDA.gz
  compensation charges: gauss, rc=0.21, lmax=2
  cutoffs: 1.17(filt), 0.83(core),
  valence states:
                energy  radius
    2s(2.00)   -23.752   0.688
    2p(4.00)    -9.195   0.598
    *s           3.459   0.688
    *p          18.016   0.598
    *d           0.000   0.619

  Using partial waves for O as LCAO basis

Mn-setup:
  name: Manganese
  id: 0d715a8018be061a6e9ea6f2d364ac92
  Z: 25.0
  valence: 15
  core: 10
  charge: 0.0
  file: /home/modules/software/GPAW-setups/0.9.20000/Mn.LDA.gz
  compensation charges: gauss, rc=0.38, lmax=2
  cutoffs: 2.14(filt), 0.86(core),
  valence states:
                energy  radius
    3s(2.00)   -85.387   1.275
    4s(2.00)    -5.282   1.275
    3p(6.00)   -54.493   1.281
    4p(0.00)    -1.471   1.281
    3d(5.00)    -7.009   1.138
    *d          20.203   1.138

  Using partial waves for Mn as LCAO basis

P-setup:
  name: Phosphorus
  id: a5561c299094968922a179ab894d2e2d
  Z: 15.0
  valence: 5
  core: 10
  charge: 0.0
  file: /home/modules/software/GPAW-setups/0.9.20000/P.LDA.gz
  compensation charges: gauss, rc=0.30, lmax=2
  cutoffs: 1.69(filt), 1.81(core),
  valence states:
                energy  radius
    3s(2.00)   -14.015   0.953
    3p(3.00)    -5.596   0.953
    *s          13.197   0.953
    *p          21.615   0.953
    *d           0.000   0.953

  Using partial waves for P as LCAO basis

Li-setup:
  name: Lithium
  id: b73562207f97a71b6967473b66fe8b65
  Z: 3.0
  valence: 1
  core: 2
  charge: 0.0
  file: /home/modules/software/GPAW-setups/0.9.20000/Li.LDA.gz
  compensation charges: gauss, rc=0.33, lmax=2
  cutoffs: 1.91(filt), 2.55(core),
  valence states:
                energy  radius
    2s(1.00)    -2.874   1.058
    2p(0.00)    -1.126   1.058
    *s          24.338   1.058

  Using partial waves for Li as LCAO basis

Reference energy: -196157.275402

Spin-polarized calculation.
Magnetic moment: 0.000000

Convergence criteria:
  Maximum total energy change: 0.0005 eV / electron
  Maximum integral of absolute density change: 0.0001 electrons
  Maximum integral of absolute eigenstate change: 4e-08 eV^2
  Maximum change in atomic force: 1e-06 eV / Ang
  Maximum number of iterations: 1000

Symmetries present (total): 1

  ( 1  0  0)
  ( 0  1  0)
  ( 0  0  1)

144 k-points: 6 x 6 x 4 Monkhorst-Pack grid
144 k-points in the irreducible part of the Brillouin zone
       k-points in crystal coordinates                weights
   0:    -0.41666667   -0.41666667   -0.37500000          1/144
   1:    -0.41666667   -0.41666667   -0.12500000          1/144
   2:    -0.41666667   -0.41666667    0.12500000          1/144
   3:    -0.41666667   -0.41666667    0.37500000          1/144
   4:    -0.41666667   -0.25000000   -0.37500000          1/144
   5:    -0.41666667   -0.25000000   -0.12500000          1/144
   6:    -0.41666667   -0.25000000    0.12500000          1/144
   7:    -0.41666667   -0.25000000    0.37500000          1/144
   8:    -0.41666667   -0.08333333   -0.37500000          1/144
   9:    -0.41666667   -0.08333333   -0.12500000          1/144
          ...
 143:     0.41666667    0.41666667    0.37500000          1/144

Wave functions: Plane wave expansion
  Cutoff energy: 600.000 eV
  Number of coefficients (min, max): 10068, 10125
  Pulay-stress correction: 0.000000 eV/Ang^3 (de/decut=0.000000)
  Using FFTW library
  ScaLapack parameters: grid=1x1, blocksize=None
  Wavefunction extrapolation:
    Improved wavefunction reuse through dual PAW basis 

  Fermi-Dirac: width=0.0010 eV

Eigensolver
   Davidson(niter=2) 

Densities:
  Coarse grid: 60*35*27 grid
  Fine grid: 120*70*54 grid
  Total Charge: 0.000000 

Density mixing:
  Method: difference
  Backend: pulay
  Linear mixing parameter: 0.05
  Mixing with 5 old densities
  Damping of long wave oscillations: 50 

Hamiltonian:
  XC and Coulomb potentials evaluated on a 120*70*54 grid
  Using the LDA Exchange-Correlation functional
 

Memory estimate:
  Process memory now: 12343.59 MiB
  Calculator: 354.82 MiB
    Density: 10.06 MiB
      Arrays: 3.79 MiB
      Localized functions: 4.71 MiB
      Mixer: 1.56 MiB
    Hamiltonian: 2.95 MiB
      Arrays: 2.82 MiB
      XC: 0.00 MiB
      Poisson: 0.00 MiB
      vbar: 0.14 MiB
    Wavefunctions: 341.80 MiB
      Arrays psit_nG: 311.46 MiB
      Eigensolver: 19.99 MiB
      Projections: 2.71 MiB
      Projectors: 4.87 MiB
      PW-descriptor: 2.77 MiB

Total number of cores used: 64
Parallelization over k-points: 16
Domain decomposition: 2 x 2 x 1

Number of atoms: 28
Number of atomic orbitals: 148
Number of bands in calculation: 112
Number of valence electrons: 180
Bands to converge: occupied

... initialized

Initializing position-dependent things.

Density initialized from atomic densities
Creating initial wave functions:
  112 bands from LCAO basis set

     .-------------------------.  
    /|         OP              |  
   / |O            O        O  |  
  /  |       O            O  P |  
 *   |O    Mn      O           |  
 |   |          OLi          O |  
 |   .P-O--------------Mn------.  
 |  /          Li    O  Mn  O /   
 | /Li O           PO        /    
 |/       Mn                /     
 *Li-----------------------*      

Positions:
   0 O     -1.360678   -2.541161   -1.202221    ( 0.0000,  0.0000,  0.0000)
   1 O     -3.121941    2.976855    1.167242    ( 0.0000,  0.0000,  0.0000)
   2 O      2.107533    0.508090    1.540712    ( 0.0000,  0.0000,  0.0000)
   3 O      3.869373   -0.072395   -0.828750    ( 0.0000,  0.0000,  0.0000)
   4 O      2.107821    2.976875    1.540792    ( 0.0000,  0.0000,  0.0000)
   5 O      3.869084   -2.541141   -0.828671    ( 0.0000,  0.0000,  0.0000)
   6 O     -1.360390   -0.072375   -1.202141    ( 0.0000,  0.0000,  0.0000)
   7 O     -3.122230    0.508109    1.167321    ( 0.0000,  0.0000,  0.0000)
   8 O     -4.413461   -1.306992   -0.794251    ( 0.0000,  0.0000,  0.0000)
   9 O     -0.069585    1.742707    1.575662    ( 0.0000,  0.0000,  0.0000)
  10 O      5.160604    1.742707    1.132822    ( 0.0000,  0.0000,  0.0000)
  11 O      0.816728   -1.306992   -1.237091    ( 0.0000,  0.0000,  0.0000)
  12 Mn    -2.570809   -1.307302    0.247161    ( 0.0000,  0.0000,  1.0000)
  13 Mn    -1.912021    1.743016   -2.122906    ( 0.0000,  0.0000, -1.0000)
  14 Mn     3.317952    1.743017    0.091411    ( 0.0000,  0.0000, -1.0000)
  15 Mn     2.659164   -1.307302    2.461478    ( 0.0000,  0.0000,  1.0000)
  16 P     -0.620664   -1.306816   -1.828465    ( 0.0000,  0.0000,  0.0000)
  17 P     -3.862097    1.742530    0.541238    ( 0.0000,  0.0000,  0.0000)
  18 P      1.367807    1.742530    2.167036    ( 0.0000,  0.0000,  0.0000)
  19 P      4.609240   -1.306816   -0.202666    ( 0.0000,  0.0000,  0.0000)
  20 O     -0.646437   -1.306845    1.374751    ( 0.0000,  0.0000,  0.0000)
  21 O     -3.836504    1.742559   -0.995565    ( 0.0000,  0.0000,  0.0000)
  22 O      1.393580    1.742559   -1.036179    ( 0.0000,  0.0000,  0.0000)
  23 O      4.583647   -1.306845    1.324136    ( 0.0000,  0.0000,  0.0000)
  24 Li    -4.856429   -2.832143   -2.200714    ( 0.0000,  0.0000,  0.0000)
  25 Li     0.373571   -2.832143    0.169286    ( 0.0000,  0.0000,  0.0000)
  26 Li    -4.856429    0.217857   -2.200714    ( 0.0000,  0.0000,  0.0000)
  27 Li     0.373571    0.217857    0.169286    ( 0.0000,  0.0000,  0.0000)

Unit cell:
           periodic     x           y           z      points  spacing
  1. axis:    yes   10.460000    0.000000    0.000000    60     0.1743
  2. axis:    yes    0.000000    6.100000    0.000000    35     0.1743
  3. axis:    yes    0.000000    0.000000    4.740000    27     0.1756

  Lengths:  10.460000   6.100000   4.740000
  Angles:   90.000000  90.000000  90.000000

Effective grid spacing dv^(1/3) = 0.1747

                     log10-error:           total        iterations:
           time      wfs    density  force  energy       poisson  magmom
iter:   1  00:40:04                       -231.913482             +0.0000
iter:   2  00:40:24  -0.55  -0.94         -231.737173             +0.0049
iter:   3  00:40:45  -0.72  -0.98         -220.573776             +0.0062
iter:   4  00:41:06  -0.96  -1.20         -218.846758             +0.0020
iter:   5  00:41:26  -1.93  -1.36         -221.392976             +0.0013
iter:   6  00:41:47  -1.99  -1.49         -220.326648             -0.1330
iter:   7  00:42:08  -2.07  -1.64         -224.500307             +0.5565
iter:   8  00:42:28  -2.39  -1.86         -225.376067             +0.4224
iter:   9  00:42:49  -2.36  -1.84         -227.406674             +0.0603
iter:  10  00:43:10  -3.22  -1.76         -227.608204             +0.0051
iter:  11  00:43:30  -2.95  -1.79         -227.414226             -0.0034
iter:  12  00:43:51  -1.26  -1.84         -229.760498             -0.0006
iter:  13  00:44:12  -2.44  -1.79         -228.250798             -0.0495
iter:  14  00:44:32  -2.15  -1.85         -226.384952             -0.7112
iter:  15  00:44:53  -2.69  -2.00         -226.454275             +0.1847
iter:  16  00:45:14  -2.15  -2.06         -226.382320             +0.1708
iter:  17  00:45:34  -2.99  -2.12         -226.354369             +0.0503
iter:  18  00:45:55  -2.65  -2.16         -226.283351             -0.0001
iter:  19  00:46:16  -3.37  -2.38         -226.244079             +0.0089
iter:  20  00:46:36  -3.57  -2.85         -226.233830             +0.0070
iter:  21  00:46:57  -3.82  -2.97         -226.228438             +0.0020
iter:  22  00:47:18  -4.11  -3.04         -226.227517             +0.0012
iter:  23  00:47:38  -5.07  -3.17         -226.227031             +0.0007
iter:  24  00:47:59  -4.31  -3.21         -226.226342             +0.0005
iter:  25  00:48:20  -5.52  -3.56         -226.226076             +0.0002
iter:  26  00:48:41  -5.90  -3.63         -226.225953             +0.0000
iter:  27  00:49:01  -5.45  -3.66         -226.226047             +0.0000
iter:  28  00:49:22  -6.00  -3.82         -226.225952             +0.0000
iter:  29  00:49:43  -6.12  -3.84         -226.225904             +0.0000
iter:  30  00:50:03  -5.83  -3.88         -226.225909             +0.0000
iter:  31  00:50:24  -5.72  -4.06         -226.225895             +0.0000
iter:  32  00:50:45  -7.08  -4.37         -226.225890             +0.0000
iter:  33  00:51:06  -6.34  -4.42         -226.225873             -0.0000
iter:  34  00:51:26  -7.18  -4.59         -226.225872             -0.0000
iter:  35  00:51:52  -7.45  -4.77         -226.225873             -0.0000
iter:  36  00:52:18  -7.66  -4.86    -2.91-226.225872             -0.0000
iter:  37  00:52:44  -7.58  -5.04    -2.89-226.225871             -0.0000
iter:  38  00:53:10  -8.53  -5.09    -3.15-226.225871             -0.0000
iter:  39  00:53:35  -9.01  -5.17    -3.29-226.225870             -0.0000
iter:  40  00:54:01  -8.88  -5.20    -3.27-226.225870             -0.0000
iter:  41  00:54:27  -9.16  -5.24    -3.69-226.225870             -0.0000
iter:  42  00:54:53  -8.44  -5.30    -3.08-226.225870             -0.0000
iter:  43  00:55:19  -9.53  -5.40    -3.75-226.225870             -0.0000
iter:  44  00:55:45 -10.05  -5.46    -3.68-226.225870             +0.0000
iter:  45  00:56:10  -9.89  -5.49    -3.52-226.225870             +0.0000
iter:  46  00:56:36  -9.35  -5.53    -3.76-226.225870             -0.0000
iter:  47  00:57:02 -10.42  -5.62    -3.97-226.225870             +0.0000
iter:  48  00:57:28  -8.99  -5.67    -3.60-226.225870             +0.0000
iter:  49  00:57:54  -9.39  -5.80    -3.78-226.225870             +0.0000
iter:  50  00:58:20 -10.69  -5.98    -4.31-226.225870             +0.0000
iter:  51  00:58:45 -10.20  -6.05    -4.10-226.225870             +0.0000
iter:  52  00:59:11 -10.46  -6.19    -4.27-226.225870             +0.0000
iter:  53  00:59:37 -10.41  -6.25    -4.14-226.225870             +0.0000
iter:  54  01:00:03 -11.11  -6.31    -4.66-226.225870             +0.0000
iter:  55  01:00:29 -10.86  -6.35    -4.44-226.225870             +0.0000
iter:  56  01:00:55 -11.85  -6.71    -4.57-226.225870             +0.0000
iter:  57  01:01:21 -11.87  -6.79    -4.82-226.225870             +0.0000
iter:  58  01:01:46 -12.01  -6.95    -5.00-226.225870             +0.0000
iter:  59  01:02:12 -12.12  -7.04    -5.08-226.225870             +0.0000
iter:  60  01:02:38 -12.61  -7.11    -4.93-226.225870             +0.0000
iter:  61  01:03:04 -12.89  -7.17    -5.52-226.225870             +0.0000
iter:  62  01:03:30 -12.50  -7.20    -5.16-226.225870             +0.0000
iter:  63  01:03:56 -13.29  -7.50    -5.08-226.225870             +0.0000
iter:  64  01:04:22 -14.05  -7.88    -5.80-226.225870             +0.0000
iter:  65  01:04:47 -14.46  -8.00    -6.02-226.225870             +0.0000

Converged after 65 iterations.

Dipole moment: (10.670985, 1.413139, -6.270250) |e|*Ang

Total magnetic moment: (0.000000, 0.000000, 0.000000)
Local magnetic moments:
   0 O  ( 0.000000,  0.000000, -0.000520)
   1 O  ( 0.000000,  0.000000,  0.000523)
   2 O  ( 0.000000,  0.000000,  0.000521)
   3 O  ( 0.000000,  0.000000, -0.000480)
   4 O  ( 0.000000,  0.000000,  0.000501)
   5 O  ( 0.000000,  0.000000, -0.000460)
   6 O  ( 0.000000,  0.000000, -0.000540)
   7 O  ( 0.000000,  0.000000,  0.000543)
   8 O  ( 0.000000,  0.000000,  0.028680)
   9 O  ( 0.000000,  0.000000, -0.028695)
  10 O  ( 0.000000,  0.000000, -0.028698)
  11 O  ( 0.000000,  0.000000,  0.028837)
  12 Mn ( 0.000000,  0.000000,  4.448122)
  13 Mn ( 0.000000,  0.000000, -4.448255)
  14 Mn ( 0.000000,  0.000000, -4.448105)
  15 Mn ( 0.000000,  0.000000,  4.448594)
  16 P  ( 0.000000,  0.000000,  0.001559)
  17 P  ( 0.000000,  0.000000, -0.001542)
  18 P  ( 0.000000,  0.000000, -0.001583)
  19 P  ( 0.000000,  0.000000,  0.001461)
  20 O  ( 0.000000,  0.000000,  0.025301)
  21 O  ( 0.000000,  0.000000, -0.025309)
  22 O  ( 0.000000,  0.000000, -0.025308)
  23 O  ( 0.000000,  0.000000,  0.025083)
  24 Li ( 0.000000,  0.000000, -0.000011)
  25 Li ( 0.000000,  0.000000, -0.000000)
  26 Li ( 0.000000,  0.000000, -0.000011)
  27 Li ( 0.000000,  0.000000, -0.000000)

Energy contributions relative to reference atoms: (reference = -196157.275402)

Kinetic:       +218.095321
Potential:     -195.821296
External:        +0.000000
XC:            -250.539176
Entropy (-ST):   -0.000000
Local:           +2.039281
--------------------------
Free energy:   -226.225870
Extrapolated:  -226.225870

Spin contamination: 9.560241 electrons
Showing only first 2 kpts
                      Up                     Down
 Kpt  Band  Eigenvalues  Occupancy  Eigenvalues  Occupancy
  0    88      5.10118    1.00000      5.11014    1.00000
  0    89      5.13052    1.00000      5.13479    1.00000
  0    90      7.28919    0.00000      7.28702    0.00000
  0    91      7.30669    0.00000      7.30506    0.00000

  1    88      5.12659    1.00000      5.13589    1.00000
  1    89      5.16094    1.00000      5.16526    1.00000
  1    90      7.23195    0.00000      7.22967    0.00000
  1    91      7.24396    0.00000      7.24255    0.00000


Fermi level: 5.84766

Gap: 1.971 eV
Transition (v -> c):
  (s=1, k=74, n=89, [0.08, -0.42, 0.12]) -> (s=1, k=57, n=90, [-0.08, -0.08, -0.12])
Writing to born-0.01-23z-.gpw (mode='all')

Timing:                              incl.     excl.
-----------------------------------------------------------
Hamiltonian:                         0.226     0.002   0.0% |
 Atomic:                             0.057     0.057   0.0% |
  XC Correction:                     0.000     0.000   0.0% |
 Calculate atomic Hamiltonians:      0.082     0.082   0.0% |
 Communicate:                        0.000     0.000   0.0% |
 Initialize Hamiltonian:             0.000     0.000   0.0% |
 Poisson:                            0.001     0.001   0.0% |
 XC 3D grid:                         0.083     0.083   0.0% |
LCAO initialization:                65.491     0.649   0.0% |
 LCAO eigensolver:                  16.789     0.003   0.0% |
  Calculate projections:             0.030     0.030   0.0% |
  DenseAtomicCorrection:             0.046     0.046   0.0% |
  Distribute overlap matrix:         0.127     0.127   0.0% |
  Orbital Layouts:                   0.261     0.261   0.0% |
  Potential matrix:                 16.238    16.238   0.4% |
  Sum over cells:                    0.086     0.086   0.0% |
 LCAO to grid:                      46.795    46.795   1.3% ||
 Set positions (LCAO WFS):           1.257     0.177   0.0% |
  Basic WFS set positions:           0.001     0.001   0.0% |
  Basis functions set positions:     0.000     0.000   0.0% |
  P tci:                             0.507     0.507   0.0% |
  ST tci:                            0.359     0.359   0.0% |
  mktci:                             0.211     0.211   0.0% |
PWDescriptor:                        0.023     0.023   0.0% |
SCF-cycle:                        1506.178     1.721   0.0% |
 Davidson:                        1277.788   409.633  11.3% |----|
  Apply H:                          84.124    81.692   2.3% ||
   HMM T:                            2.432     2.432   0.1% |
  Subspace diag:                   182.610     0.186   0.0% |
   calc_h_matrix:                  115.664    32.358   0.9% |
    Apply H:                        83.307    80.965   2.2% ||
     HMM T:                          2.342     2.342   0.1% |
   diagonalize:                      6.508     6.508   0.2% |
   rotate_psi:                      60.252    60.252   1.7% ||
  calc. matrices:                  383.154   217.112   6.0% |-|
   Apply H:                        166.042   161.384   4.5% |-|
    HMM T:                           4.658     4.658   0.1% |
  diagonalize:                      97.225    97.225   2.7% ||
  rotate_psi:                      121.041   121.041   3.3% ||
 Density:                           49.022     0.002   0.0% |
  Atomic density matrices:           0.852     0.852   0.0% |
  Mix:                               7.979     7.979   0.2% |
  Multipole moments:                 0.023     0.023   0.0% |
  Pseudo density:                   40.166    40.164   1.1% |
   Symmetrize density:               0.002     0.002   0.0% |
 Forces:                           160.908   160.908   4.4% |-|
 Hamiltonian:                       14.471     0.136   0.0% |
  Atomic:                            3.526     3.526   0.1% |
   XC Correction:                    0.000     0.000   0.0% |
  Calculate atomic Hamiltonians:     5.349     5.349   0.1% |
  Communicate:                       0.011     0.011   0.0% |
  Poisson:                           0.049     0.049   0.0% |
  XC 3D grid:                        5.400     5.400   0.1% |
 Orthonormalize:                     2.269     0.003   0.0% |
  calc_s_matrix:                     0.266     0.266   0.0% |
  inverse-cholesky:                  0.041     0.041   0.0% |
  projections:                       1.475     1.475   0.0% |
  rotate_psi_s:                      0.484     0.484   0.0% |
Set symmetry:                        0.000     0.000   0.0% |
Other:                            2051.732  2051.732  56.6% |----------------------|
-----------------------------------------------------------
Total:                                      3623.650 100.0%

Memory usage: 12.10 GiB
Date: Fri Apr  2 01:38:58 2021
