
  ___ ___ ___ _ _ _  
 |   |   |_  | | | | 
 | | | | | . | | | | 
 |__ |  _|___|_____|  21.1.1b1
 |___|_|             

User:   madkru@g043.nifl.fysik.dtu.dk
Date:   Wed Mar 31 18:14:44 2021
Arch:   x86_64
Pid:    39387
Python: 3.8.6
gpaw:   /home/niflheim/madkru/venv_madkru/gpaw/gpaw (e6f0d78a31)
_gpaw:  /home/niflheim/madkru/venv_madkru/gpaw/build/lib.linux-x86_64-sandybridge-3.8/
        _gpaw.cpython-38-x86_64-linux-gnu.so (e6f0d78a31)
ase:    /home/niflheim/madkru/venv_madkru/ase/ase (version 3.22.0b1-4d5a73cb29)
numpy:  /home/modules/software/SciPy-bundle/2020.11-foss-2020b/lib/python3.8/site-packages/numpy (version 1.19.4)
scipy:  /home/modules/software/SciPy-bundle/2020.11-foss-2020b/lib/python3.8/site-packages/scipy (version 1.5.4)
libxc:  4.3.4
units:  Angstrom and eV
cores: 64
OpenMP: False
OMP_NUM_THREADS: 1

Input parameters:
  convergence: {bands: occupied,
                density: 0.0001,
                eigenstates: 4e-08,
                energy: 0.0005,
                forces: 1e-06}
  kpts: [6 6 4]
  maxiter: 1000
  mode: {ecut: 600.0,
         gammacentered: False,
         name: pw}
  occupations: {fixmagmom: False,
                name: fermi-dirac,
                width: 0.001}
  symmetry: {point_group: False,
             time_reversal: False}

System changes: positions, numbers, cell, pbc, initial_charges, initial_magmoms 

Initialize ...

O-setup:
  name: Oxygen
  id: 9b9d51c344dea68c822856295a461509
  Z: 8.0
  valence: 6
  core: 2
  charge: 0.0
  file: /home/modules/software/GPAW-setups/0.9.20000/O.LDA.gz
  compensation charges: gauss, rc=0.21, lmax=2
  cutoffs: 1.17(filt), 0.83(core),
  valence states:
                energy  radius
    2s(2.00)   -23.752   0.688
    2p(4.00)    -9.195   0.598
    *s           3.459   0.688
    *p          18.016   0.598
    *d           0.000   0.619

  Using partial waves for O as LCAO basis

Mn-setup:
  name: Manganese
  id: 0d715a8018be061a6e9ea6f2d364ac92
  Z: 25.0
  valence: 15
  core: 10
  charge: 0.0
  file: /home/modules/software/GPAW-setups/0.9.20000/Mn.LDA.gz
  compensation charges: gauss, rc=0.38, lmax=2
  cutoffs: 2.14(filt), 0.86(core),
  valence states:
                energy  radius
    3s(2.00)   -85.387   1.275
    4s(2.00)    -5.282   1.275
    3p(6.00)   -54.493   1.281
    4p(0.00)    -1.471   1.281
    3d(5.00)    -7.009   1.138
    *d          20.203   1.138

  Using partial waves for Mn as LCAO basis

P-setup:
  name: Phosphorus
  id: a5561c299094968922a179ab894d2e2d
  Z: 15.0
  valence: 5
  core: 10
  charge: 0.0
  file: /home/modules/software/GPAW-setups/0.9.20000/P.LDA.gz
  compensation charges: gauss, rc=0.30, lmax=2
  cutoffs: 1.69(filt), 1.81(core),
  valence states:
                energy  radius
    3s(2.00)   -14.015   0.953
    3p(3.00)    -5.596   0.953
    *s          13.197   0.953
    *p          21.615   0.953
    *d           0.000   0.953

  Using partial waves for P as LCAO basis

Li-setup:
  name: Lithium
  id: b73562207f97a71b6967473b66fe8b65
  Z: 3.0
  valence: 1
  core: 2
  charge: 0.0
  file: /home/modules/software/GPAW-setups/0.9.20000/Li.LDA.gz
  compensation charges: gauss, rc=0.33, lmax=2
  cutoffs: 1.91(filt), 2.55(core),
  valence states:
                energy  radius
    2s(1.00)    -2.874   1.058
    2p(0.00)    -1.126   1.058
    *s          24.338   1.058

  Using partial waves for Li as LCAO basis

Reference energy: -196157.275402

Spin-polarized calculation.
Magnetic moment: 0.000000

Convergence criteria:
  Maximum total energy change: 0.0005 eV / electron
  Maximum integral of absolute density change: 0.0001 electrons
  Maximum integral of absolute eigenstate change: 4e-08 eV^2
  Maximum change in atomic force: 1e-06 eV / Ang
  Maximum number of iterations: 1000

Symmetries present (total): 1

  ( 1  0  0)
  ( 0  1  0)
  ( 0  0  1)

144 k-points: 6 x 6 x 4 Monkhorst-Pack grid
144 k-points in the irreducible part of the Brillouin zone
       k-points in crystal coordinates                weights
   0:    -0.41666667   -0.41666667   -0.37500000          1/144
   1:    -0.41666667   -0.41666667   -0.12500000          1/144
   2:    -0.41666667   -0.41666667    0.12500000          1/144
   3:    -0.41666667   -0.41666667    0.37500000          1/144
   4:    -0.41666667   -0.25000000   -0.37500000          1/144
   5:    -0.41666667   -0.25000000   -0.12500000          1/144
   6:    -0.41666667   -0.25000000    0.12500000          1/144
   7:    -0.41666667   -0.25000000    0.37500000          1/144
   8:    -0.41666667   -0.08333333   -0.37500000          1/144
   9:    -0.41666667   -0.08333333   -0.12500000          1/144
          ...
 143:     0.41666667    0.41666667    0.37500000          1/144

Wave functions: Plane wave expansion
  Cutoff energy: 600.000 eV
  Number of coefficients (min, max): 10068, 10125
  Pulay-stress correction: 0.000000 eV/Ang^3 (de/decut=0.000000)
  Using FFTW library
  ScaLapack parameters: grid=1x1, blocksize=None
  Wavefunction extrapolation:
    Improved wavefunction reuse through dual PAW basis 

  Fermi-Dirac: width=0.0010 eV

Eigensolver
   Davidson(niter=2) 

Densities:
  Coarse grid: 60*35*27 grid
  Fine grid: 120*70*54 grid
  Total Charge: 0.000000 

Density mixing:
  Method: difference
  Backend: pulay
  Linear mixing parameter: 0.05
  Mixing with 5 old densities
  Damping of long wave oscillations: 50 

Hamiltonian:
  XC and Coulomb potentials evaluated on a 120*70*54 grid
  Using the LDA Exchange-Correlation functional
 

Memory estimate:
  Process memory now: 14415.33 MiB
  Calculator: 354.82 MiB
    Density: 10.06 MiB
      Arrays: 3.79 MiB
      Localized functions: 4.71 MiB
      Mixer: 1.56 MiB
    Hamiltonian: 2.95 MiB
      Arrays: 2.82 MiB
      XC: 0.00 MiB
      Poisson: 0.00 MiB
      vbar: 0.14 MiB
    Wavefunctions: 341.80 MiB
      Arrays psit_nG: 311.46 MiB
      Eigensolver: 19.99 MiB
      Projections: 2.71 MiB
      Projectors: 4.87 MiB
      PW-descriptor: 2.77 MiB

Total number of cores used: 64
Parallelization over k-points: 16
Domain decomposition: 2 x 2 x 1

Number of atoms: 28
Number of atomic orbitals: 148
Number of bands in calculation: 112
Number of valence electrons: 180
Bands to converge: occupied

... initialized

Initializing position-dependent things.

Density initialized from atomic densities
Creating initial wave functions:
  112 bands from LCAO basis set

     .-------------------------.  
    /|         OP              |  
   / |O            O        O  |  
  /  |       O            O  P |  
 *   |O    Mn      O           |  
 |   |          OLi          O |  
 |   .P-O--------------Mn------.  
 |  /          Li    O  Mn  O /   
 | /Li O           PO        /    
 |/       Mn                /     
 *Li-----------------------*      

Positions:
   0 O     -1.360678   -2.541161   -1.202221    ( 0.0000,  0.0000,  0.0000)
   1 O     -3.121941    2.976855    1.167242    ( 0.0000,  0.0000,  0.0000)
   2 O      2.107533    0.508090    1.540712    ( 0.0000,  0.0000,  0.0000)
   3 O      3.869373   -0.072395   -0.828750    ( 0.0000,  0.0000,  0.0000)
   4 O      2.107821    2.976875    1.540792    ( 0.0000,  0.0000,  0.0000)
   5 O      3.869084   -2.541141   -0.828671    ( 0.0000,  0.0000,  0.0000)
   6 O     -1.360390   -0.072375   -1.202141    ( 0.0000,  0.0000,  0.0000)
   7 O     -3.122230    0.508109    1.167321    ( 0.0000,  0.0000,  0.0000)
   8 O     -4.413461   -1.306992   -0.794251    ( 0.0000,  0.0000,  0.0000)
   9 O     -0.069585    1.742707    1.575662    ( 0.0000,  0.0000,  0.0000)
  10 O      5.160604    1.742707    1.132822    ( 0.0000,  0.0000,  0.0000)
  11 O      0.816728   -1.306992   -1.237091    ( 0.0000,  0.0000,  0.0000)
  12 Mn    -2.570809   -1.307302    0.247161    ( 0.0000,  0.0000,  1.0000)
  13 Mn    -1.912021    1.743016   -2.122906    ( 0.0000,  0.0000, -1.0000)
  14 Mn     3.317952    1.743017    0.091411    ( 0.0000,  0.0000, -1.0000)
  15 Mn     2.659164   -1.307302    2.461478    ( 0.0000,  0.0000,  1.0000)
  16 P     -0.620664   -1.306816   -1.828465    ( 0.0000,  0.0000,  0.0000)
  17 P     -3.862097    1.742530    0.541238    ( 0.0000,  0.0000,  0.0000)
  18 P      1.367807    1.742530    2.167036    ( 0.0000,  0.0000,  0.0000)
  19 P      4.609240   -1.306816   -0.202666    ( 0.0000,  0.0000,  0.0000)
  20 O     -0.656437   -1.306845    1.374751    ( 0.0000,  0.0000,  0.0000)
  21 O     -3.836504    1.742559   -0.995565    ( 0.0000,  0.0000,  0.0000)
  22 O      1.393580    1.742559   -1.036179    ( 0.0000,  0.0000,  0.0000)
  23 O      4.583647   -1.306845    1.334136    ( 0.0000,  0.0000,  0.0000)
  24 Li    -4.856429   -2.832143   -2.200714    ( 0.0000,  0.0000,  0.0000)
  25 Li     0.373571   -2.832143    0.169286    ( 0.0000,  0.0000,  0.0000)
  26 Li    -4.856429    0.217857   -2.200714    ( 0.0000,  0.0000,  0.0000)
  27 Li     0.373571    0.217857    0.169286    ( 0.0000,  0.0000,  0.0000)

Unit cell:
           periodic     x           y           z      points  spacing
  1. axis:    yes   10.460000    0.000000    0.000000    60     0.1743
  2. axis:    yes    0.000000    6.100000    0.000000    35     0.1743
  3. axis:    yes    0.000000    0.000000    4.740000    27     0.1756

  Lengths:  10.460000   6.100000   4.740000
  Angles:   90.000000  90.000000  90.000000

Effective grid spacing dv^(1/3) = 0.1747

                     log10-error:           total        iterations:
           time      wfs    density  force  energy       poisson  magmom
iter:   1  18:16:19                       -231.921540             +0.0000
iter:   2  18:16:40  -0.55  -0.94         -231.721621             +0.0047
iter:   3  18:17:01  -0.72  -0.98         -220.592788             +0.0059
iter:   4  18:17:23  -0.95  -1.20         -218.875842             +0.0019
iter:   5  18:17:44  -1.95  -1.36         -221.754208             +0.0012
iter:   6  18:18:05  -2.01  -1.47         -220.211956             -0.0487
iter:   7  18:18:27  -1.90  -1.67         -224.854409             +0.3646
iter:   8  18:18:48  -2.39  -1.79         -225.448074             -0.6437
iter:   9  18:19:09  -2.71  -1.84         -226.646101             -0.6312
iter:  10  18:19:30  -2.37  -1.81         -227.162597             -0.1847
iter:  11  18:19:52  -2.63  -1.81         -227.592311             -0.0563
iter:  12  18:20:13  -2.42  -1.78         -226.909929             -0.0180
iter:  13  18:20:34  -1.59  -1.83         -226.566313             -0.0128
iter:  14  18:20:56  -2.78  -2.23         -226.493919             -0.0061
iter:  15  18:21:17  -1.87  -2.24         -226.368104             -0.0069
iter:  16  18:21:38  -2.39  -2.43         -226.271883             -0.0020
iter:  17  18:21:59  -3.59  -2.53         -226.242889             -0.0008
iter:  18  18:22:21  -2.86  -2.67         -226.265835             -0.0003
iter:  19  18:22:42  -3.37  -2.74         -226.229669             -0.0002
iter:  20  18:23:03  -4.54  -2.92         -226.230631             -0.0001
iter:  21  18:23:24  -4.85  -2.96         -226.230153             +0.0000
iter:  22  18:23:46  -3.97  -3.09         -226.230030             +0.0000
iter:  23  18:24:07  -4.42  -3.20         -226.228505             +0.0000
iter:  24  18:24:28  -5.09  -3.24         -226.228498             +0.0000
iter:  25  18:24:49  -4.25  -3.29         -226.228277             +0.0000
iter:  26  18:25:11  -5.01  -3.54         -226.227781             +0.0000
iter:  27  18:25:32  -5.50  -3.65         -226.227728             +0.0000
iter:  28  18:25:53  -6.41  -3.79         -226.227717             +0.0000
iter:  29  18:26:14  -6.02  -3.86         -226.227703             +0.0000
iter:  30  18:26:35  -6.68  -3.89         -226.227690             +0.0000
iter:  31  18:26:57  -5.75  -3.95         -226.227702             -0.0000
iter:  32  18:27:18  -6.88  -4.32         -226.227681             +0.0000
iter:  33  18:27:39  -6.71  -4.37         -226.227665             +0.0000
iter:  34  18:28:06  -7.79  -4.59         -226.227664             +0.0000
iter:  35  18:28:33  -8.04  -4.66    -3.16-226.227663             -0.0000
iter:  36  18:28:59  -7.59  -4.70    -2.79-226.227662             -0.0000
iter:  37  18:29:26  -8.22  -4.94    -3.12-226.227662             -0.0000
iter:  38  18:29:53  -8.95  -5.00    -3.25-226.227662             -0.0000
iter:  39  18:30:20  -8.84  -5.03    -3.02-226.227662             -0.0000
iter:  40  18:30:46  -8.32  -5.08    -3.04-226.227662             -0.0000
iter:  41  18:31:13  -9.39  -5.19    -3.59-226.227662             -0.0000
iter:  42  18:31:40  -8.34  -5.23    -3.16-226.227662             -0.0000
iter:  43  18:32:06  -9.45  -5.28    -3.64-226.227662             -0.0000
iter:  44  18:32:33  -8.31  -5.35    -2.96-226.227662             -0.0000
iter:  45  18:33:00  -8.90  -5.38    -3.32-226.227662             -0.0000
iter:  46  18:33:27  -9.26  -5.53    -3.70-226.227662             -0.0000
iter:  47  18:33:53  -8.85  -5.59    -3.39-226.227662             +0.0000
iter:  48  18:34:20  -9.68  -5.83    -3.61-226.227662             -0.0000
iter:  49  18:34:47 -10.24  -5.96    -4.12-226.227662             -0.0000
iter:  50  18:35:14  -9.99  -6.00    -3.59-226.227662             -0.0000
iter:  51  18:35:40  -9.94  -6.28    -3.77-226.227662             +0.0000
iter:  52  18:36:07 -10.76  -6.55    -4.34-226.227662             +0.0000
iter:  53  18:36:34 -11.16  -6.55    -4.42-226.227662             -0.0000
iter:  54  18:37:00 -11.03  -6.68    -4.44-226.227662             -0.0000
iter:  55  18:37:27 -11.59  -6.97    -4.91-226.227662             -0.0000
iter:  56  18:37:54 -12.12  -7.04    -5.07-226.227662             +0.0000
iter:  57  18:38:21 -12.28  -7.12    -4.90-226.227662             +0.0000
iter:  58  18:38:47 -13.49  -7.28    -5.72-226.227662             -0.0000
iter:  59  18:39:14 -12.97  -7.31    -4.81-226.227662             +0.0000
iter:  60  18:39:41 -13.33  -7.67    -5.10-226.227662             +0.0000
iter:  61  18:40:08 -13.99  -8.06    -5.96-226.227662             +0.0000
iter:  62  18:40:34 -14.80  -8.12    -6.16-226.227662             +0.0000

Converged after 62 iterations.

Dipole moment: (10.517719, 1.414311, -6.270587) |e|*Ang

Total magnetic moment: (0.000000, 0.000000, 0.000000)
Local magnetic moments:
   0 O  ( 0.000000,  0.000000, -0.000525)
   1 O  ( 0.000000,  0.000000,  0.000577)
   2 O  ( 0.000000,  0.000000,  0.000585)
   3 O  ( 0.000000,  0.000000, -0.000540)
   4 O  ( 0.000000,  0.000000,  0.000565)
   5 O  ( 0.000000,  0.000000, -0.000520)
   6 O  ( 0.000000,  0.000000, -0.000545)
   7 O  ( 0.000000,  0.000000,  0.000597)
   8 O  ( 0.000000,  0.000000,  0.028539)
   9 O  ( 0.000000,  0.000000, -0.028627)
  10 O  ( 0.000000,  0.000000, -0.028739)
  11 O  ( 0.000000,  0.000000,  0.028724)
  12 Mn ( 0.000000,  0.000000,  4.447757)
  13 Mn ( 0.000000,  0.000000, -4.448213)
  14 Mn ( 0.000000,  0.000000, -4.448143)
  15 Mn ( 0.000000,  0.000000,  4.448148)
  16 P  ( 0.000000,  0.000000,  0.001755)
  17 P  ( 0.000000,  0.000000, -0.001515)
  18 P  ( 0.000000,  0.000000, -0.001563)
  19 P  ( 0.000000,  0.000000,  0.001549)
  20 O  ( 0.000000,  0.000000,  0.025398)
  21 O  ( 0.000000,  0.000000, -0.025314)
  22 O  ( 0.000000,  0.000000, -0.025302)
  23 O  ( 0.000000,  0.000000,  0.025336)
  24 Li ( 0.000000,  0.000000,  0.000000)
  25 Li ( 0.000000,  0.000000,  0.000003)
  26 Li ( 0.000000,  0.000000,  0.000000)
  27 Li ( 0.000000,  0.000000,  0.000003)

Energy contributions relative to reference atoms: (reference = -196157.275402)

Kinetic:       +217.420014
Potential:     -195.292334
External:        +0.000000
XC:            -250.396032
Entropy (-ST):   -0.000000
Local:           +2.040690
--------------------------
Free energy:   -226.227662
Extrapolated:  -226.227662

Spin contamination: 9.560274 electrons
Showing only first 2 kpts
                      Up                     Down
 Kpt  Band  Eigenvalues  Occupancy  Eigenvalues  Occupancy
  0    88      5.11130    1.00000      5.11120    1.00000
  0    89      5.14501    1.00000      5.13586    1.00000
  0    90      7.28902    0.00000      7.28982    0.00000
  0    91      7.30885    0.00000      7.31281    0.00000

  1    88      5.13756    1.00000      5.13696    1.00000
  1    89      5.17638    1.00000      5.16620    1.00000
  1    90      7.23145    0.00000      7.23134    0.00000
  1    91      7.24645    0.00000      7.25023    0.00000


Fermi level: 6.45245

Gap: 1.965 eV
Transition (v -> c):
  (s=0, k=74, n=89, [0.08, -0.42, 0.12]) -> (s=1, k=58, n=90, [-0.08, -0.08, 0.12])
Writing to born-0.01-20x-.gpw (mode='all')

Timing:                              incl.     excl.
-----------------------------------------------------------
Hamiltonian:                         0.270     0.003   0.0% |
 Atomic:                             0.085     0.085   0.0% |
  XC Correction:                     0.000     0.000   0.0% |
 Calculate atomic Hamiltonians:      0.090     0.090   0.0% |
 Communicate:                        0.000     0.000   0.0% |
 Initialize Hamiltonian:             0.000     0.000   0.0% |
 Poisson:                            0.001     0.001   0.0% |
 XC 3D grid:                         0.091     0.091   0.0% |
LCAO initialization:                69.624     0.675   0.0% |
 LCAO eigensolver:                  18.023     0.002   0.0% |
  Calculate projections:             0.030     0.030   0.0% |
  DenseAtomicCorrection:             0.043     0.043   0.0% |
  Distribute overlap matrix:         0.006     0.006   0.0% |
  Orbital Layouts:                   0.280     0.280   0.0% |
  Potential matrix:                 17.574    17.574   0.5% |
  Sum over cells:                    0.088     0.088   0.0% |
 LCAO to grid:                      49.602    49.602   1.3% ||
 Set positions (LCAO WFS):           1.324     0.181   0.0% |
  Basic WFS set positions:           0.001     0.001   0.0% |
  Basis functions set positions:     0.000     0.000   0.0% |
  P tci:                             0.520     0.520   0.0% |
  ST tci:                            0.368     0.368   0.0% |
  mktci:                             0.254     0.254   0.0% |
PWDescriptor:                        0.025     0.025   0.0% |
SCF-cycle:                        1479.626     3.527   0.1% |
 Davidson:                        1249.719   398.612  10.3% |---|
  Apply H:                          84.721    82.062   2.1% ||
   HMM T:                            2.659     2.659   0.1% |
  Subspace diag:                   180.319     0.182   0.0% |
   calc_h_matrix:                  115.040    31.204   0.8% |
    Apply H:                        83.836    81.371   2.1% ||
     HMM T:                          2.465     2.465   0.1% |
   diagonalize:                      6.405     6.405   0.2% |
   rotate_psi:                      58.692    58.692   1.5% ||
  calc. matrices:                  372.984   207.884   5.4% |-|
   Apply H:                        165.101   160.198   4.1% |-|
    HMM T:                           4.903     4.903   0.1% |
  diagonalize:                      96.213    96.213   2.5% ||
  rotate_psi:                      116.869   116.869   3.0% ||
 Density:                           49.667     0.002   0.0% |
  Atomic density matrices:           0.832     0.832   0.0% |
  Mix:                               8.446     8.446   0.2% |
  Multipole moments:                 0.024     0.024   0.0% |
  Pseudo density:                   40.362    40.361   1.0% |
   Symmetrize density:               0.002     0.002   0.0% |
 Forces:                           159.236   159.236   4.1% |-|
 Hamiltonian:                       15.153     0.137   0.0% |
  Atomic:                            3.498     3.497   0.1% |
   XC Correction:                    0.000     0.000   0.0% |
  Calculate atomic Hamiltonians:     5.790     5.790   0.1% |
  Communicate:                       0.012     0.012   0.0% |
  Poisson:                           0.058     0.058   0.0% |
  XC 3D grid:                        5.659     5.659   0.1% |
 Orthonormalize:                     2.324     0.004   0.0% |
  calc_s_matrix:                     0.267     0.267   0.0% |
  inverse-cholesky:                  0.042     0.042   0.0% |
  projections:                       1.516     1.516   0.0% |
  rotate_psi_s:                      0.496     0.496   0.0% |
Set symmetry:                        0.000     0.000   0.0% |
Other:                            2334.070  2334.070  60.1% |-----------------------|
-----------------------------------------------------------
Total:                                      3883.616 100.0%

Memory usage: 14.08 GiB
Date: Wed Mar 31 19:19:27 2021
