
  ___ ___ ___ _ _ _  
 |   |   |_  | | | | 
 | | | | | . | | | | 
 |__ |  _|___|_____|  21.1.1b1
 |___|_|             

User:   madkru@i009.nifl.fysik.dtu.dk
Date:   Fri Apr  2 14:08:20 2021
Arch:   x86_64
Pid:    31381
Python: 3.8.6
gpaw:   /home/niflheim/madkru/venv_madkru/gpaw/gpaw (e6f0d78a31)
_gpaw:  /home/niflheim/madkru/venv_madkru/gpaw/build/lib.linux-x86_64-ivybridge-3.8/
        _gpaw.cpython-38-x86_64-linux-gnu.so (e6f0d78a31)
ase:    /home/niflheim/madkru/venv_madkru/ase/ase (version 3.22.0b1-4d5a73cb29)
numpy:  /home/modules/software/SciPy-bundle/2020.11-foss-2020b/lib/python3.8/site-packages/numpy (version 1.19.4)
scipy:  /home/modules/software/SciPy-bundle/2020.11-foss-2020b/lib/python3.8/site-packages/scipy (version 1.5.4)
libxc:  4.3.4
units:  Angstrom and eV
cores: 64
OpenMP: False
OMP_NUM_THREADS: 1

Input parameters:
  convergence: {bands: occupied,
                density: 0.0001,
                eigenstates: 4e-08,
                energy: 0.0005,
                forces: 1e-06}
  kpts: [6 6 4]
  maxiter: 1000
  mode: {ecut: 600.0,
         gammacentered: False,
         name: pw}
  occupations: {fixmagmom: False,
                name: fermi-dirac,
                width: 0.001}
  symmetry: {point_group: False,
             time_reversal: False}

System changes: positions, numbers, cell, pbc, initial_charges, initial_magmoms 

Initialize ...

O-setup:
  name: Oxygen
  id: 9b9d51c344dea68c822856295a461509
  Z: 8.0
  valence: 6
  core: 2
  charge: 0.0
  file: /home/modules/software/GPAW-setups/0.9.20000/O.LDA.gz
  compensation charges: gauss, rc=0.21, lmax=2
  cutoffs: 1.17(filt), 0.83(core),
  valence states:
                energy  radius
    2s(2.00)   -23.752   0.688
    2p(4.00)    -9.195   0.598
    *s           3.459   0.688
    *p          18.016   0.598
    *d           0.000   0.619

  Using partial waves for O as LCAO basis

Mn-setup:
  name: Manganese
  id: 0d715a8018be061a6e9ea6f2d364ac92
  Z: 25.0
  valence: 15
  core: 10
  charge: 0.0
  file: /home/modules/software/GPAW-setups/0.9.20000/Mn.LDA.gz
  compensation charges: gauss, rc=0.38, lmax=2
  cutoffs: 2.14(filt), 0.86(core),
  valence states:
                energy  radius
    3s(2.00)   -85.387   1.275
    4s(2.00)    -5.282   1.275
    3p(6.00)   -54.493   1.281
    4p(0.00)    -1.471   1.281
    3d(5.00)    -7.009   1.138
    *d          20.203   1.138

  Using partial waves for Mn as LCAO basis

P-setup:
  name: Phosphorus
  id: a5561c299094968922a179ab894d2e2d
  Z: 15.0
  valence: 5
  core: 10
  charge: 0.0
  file: /home/modules/software/GPAW-setups/0.9.20000/P.LDA.gz
  compensation charges: gauss, rc=0.30, lmax=2
  cutoffs: 1.69(filt), 1.81(core),
  valence states:
                energy  radius
    3s(2.00)   -14.015   0.953
    3p(3.00)    -5.596   0.953
    *s          13.197   0.953
    *p          21.615   0.953
    *d           0.000   0.953

  Using partial waves for P as LCAO basis

Li-setup:
  name: Lithium
  id: b73562207f97a71b6967473b66fe8b65
  Z: 3.0
  valence: 1
  core: 2
  charge: 0.0
  file: /home/modules/software/GPAW-setups/0.9.20000/Li.LDA.gz
  compensation charges: gauss, rc=0.33, lmax=2
  cutoffs: 1.91(filt), 2.55(core),
  valence states:
                energy  radius
    2s(1.00)    -2.874   1.058
    2p(0.00)    -1.126   1.058
    *s          24.338   1.058

  Using partial waves for Li as LCAO basis

Reference energy: -196157.275402

Spin-polarized calculation.
Magnetic moment: 0.000000

Convergence criteria:
  Maximum total energy change: 0.0005 eV / electron
  Maximum integral of absolute density change: 0.0001 electrons
  Maximum integral of absolute eigenstate change: 4e-08 eV^2
  Maximum change in atomic force: 1e-06 eV / Ang
  Maximum number of iterations: 1000

Symmetries present (total): 1

  ( 1  0  0)
  ( 0  1  0)
  ( 0  0  1)

144 k-points: 6 x 6 x 4 Monkhorst-Pack grid
144 k-points in the irreducible part of the Brillouin zone
       k-points in crystal coordinates                weights
   0:    -0.41666667   -0.41666667   -0.37500000          1/144
   1:    -0.41666667   -0.41666667   -0.12500000          1/144
   2:    -0.41666667   -0.41666667    0.12500000          1/144
   3:    -0.41666667   -0.41666667    0.37500000          1/144
   4:    -0.41666667   -0.25000000   -0.37500000          1/144
   5:    -0.41666667   -0.25000000   -0.12500000          1/144
   6:    -0.41666667   -0.25000000    0.12500000          1/144
   7:    -0.41666667   -0.25000000    0.37500000          1/144
   8:    -0.41666667   -0.08333333   -0.37500000          1/144
   9:    -0.41666667   -0.08333333   -0.12500000          1/144
          ...
 143:     0.41666667    0.41666667    0.37500000          1/144

Wave functions: Plane wave expansion
  Cutoff energy: 600.000 eV
  Number of coefficients (min, max): 10068, 10125
  Pulay-stress correction: 0.000000 eV/Ang^3 (de/decut=0.000000)
  Using FFTW library
  ScaLapack parameters: grid=1x1, blocksize=None
  Wavefunction extrapolation:
    Improved wavefunction reuse through dual PAW basis 

  Fermi-Dirac: width=0.0010 eV

Eigensolver
   Davidson(niter=2) 

Densities:
  Coarse grid: 60*35*27 grid
  Fine grid: 120*70*54 grid
  Total Charge: 0.000000 

Density mixing:
  Method: difference
  Backend: pulay
  Linear mixing parameter: 0.05
  Mixing with 5 old densities
  Damping of long wave oscillations: 50 

Hamiltonian:
  XC and Coulomb potentials evaluated on a 120*70*54 grid
  Using the LDA Exchange-Correlation functional
 

Memory estimate:
  Process memory now: 13002.66 MiB
  Calculator: 354.82 MiB
    Density: 10.06 MiB
      Arrays: 3.79 MiB
      Localized functions: 4.71 MiB
      Mixer: 1.56 MiB
    Hamiltonian: 2.95 MiB
      Arrays: 2.82 MiB
      XC: 0.00 MiB
      Poisson: 0.00 MiB
      vbar: 0.14 MiB
    Wavefunctions: 341.80 MiB
      Arrays psit_nG: 311.46 MiB
      Eigensolver: 19.99 MiB
      Projections: 2.71 MiB
      Projectors: 4.87 MiB
      PW-descriptor: 2.77 MiB

Total number of cores used: 64
Parallelization over k-points: 16
Domain decomposition: 2 x 2 x 1

Number of atoms: 28
Number of atomic orbitals: 148
Number of bands in calculation: 112
Number of valence electrons: 180
Bands to converge: occupied

... initialized

Initializing position-dependent things.

Density initialized from atomic densities
Creating initial wave functions:
  112 bands from LCAO basis set

     .-------------------------.  
    /|         OP              |  
   / |O            O        O  |  
  /  |       O            O  P |  
 *   |O    Mn      O           |  
 |   |          OLi          O |  
 |   .P-O--------------Mn------.  
 |  /          Li    O  Mn  O /   
 | /Li O           PO        /    
 |/       Mn                /     
 *Li-----------------------*      

Positions:
   0 O     -1.360678   -2.541161   -1.202221    ( 0.0000,  0.0000,  0.0000)
   1 O     -3.121941    2.976855    1.167242    ( 0.0000,  0.0000,  0.0000)
   2 O      2.107533    0.508090    1.540712    ( 0.0000,  0.0000,  0.0000)
   3 O      3.869373   -0.072395   -0.828750    ( 0.0000,  0.0000,  0.0000)
   4 O      2.107821    2.976875    1.540792    ( 0.0000,  0.0000,  0.0000)
   5 O      3.869084   -2.541141   -0.828671    ( 0.0000,  0.0000,  0.0000)
   6 O     -1.360390   -0.072375   -1.202141    ( 0.0000,  0.0000,  0.0000)
   7 O     -3.122230    0.508109    1.167321    ( 0.0000,  0.0000,  0.0000)
   8 O     -4.413461   -1.306992   -0.794251    ( 0.0000,  0.0000,  0.0000)
   9 O     -0.069585    1.742707    1.575662    ( 0.0000,  0.0000,  0.0000)
  10 O      5.160604    1.742707    1.132822    ( 0.0000,  0.0000,  0.0000)
  11 O      0.816728   -1.306992   -1.237091    ( 0.0000,  0.0000,  0.0000)
  12 Mn    -2.570809   -1.307302    0.247161    ( 0.0000,  0.0000,  1.0000)
  13 Mn    -1.912021    1.743016   -2.122906    ( 0.0000,  0.0000, -1.0000)
  14 Mn     3.317952    1.743017    0.091411    ( 0.0000,  0.0000, -1.0000)
  15 Mn     2.659164   -1.307302    2.461478    ( 0.0000,  0.0000,  1.0000)
  16 P     -0.620664   -1.306816   -1.828465    ( 0.0000,  0.0000,  0.0000)
  17 P     -3.862097    1.742530    0.541238    ( 0.0000,  0.0000,  0.0000)
  18 P      1.367807    1.742530    2.167036    ( 0.0000,  0.0000,  0.0000)
  19 P      4.609240   -1.306816   -0.202666    ( 0.0000,  0.0000,  0.0000)
  20 O     -0.646437   -1.306845    1.374751    ( 0.0000,  0.0000,  0.0000)
  21 O     -3.836504    1.742559   -0.995565    ( 0.0000,  0.0000,  0.0000)
  22 O      1.393580    1.742559   -1.036179    ( 0.0000,  0.0000,  0.0000)
  23 O      4.583647   -1.306845    1.334136    ( 0.0000,  0.0000,  0.0000)
  24 Li    -4.856429   -2.832143   -2.200714    ( 0.0000,  0.0000,  0.0000)
  25 Li     0.373571   -2.832143    0.169286    ( 0.0000,  0.0000,  0.0000)
  26 Li    -4.856429    0.217857   -2.200714    ( 0.0000,  0.0000,  0.0000)
  27 Li     0.373571    0.217857    0.159286    ( 0.0000,  0.0000,  0.0000)

Unit cell:
           periodic     x           y           z      points  spacing
  1. axis:    yes   10.460000    0.000000    0.000000    60     0.1743
  2. axis:    yes    0.000000    6.100000    0.000000    35     0.1743
  3. axis:    yes    0.000000    0.000000    4.740000    27     0.1756

  Lengths:  10.460000   6.100000   4.740000
  Angles:   90.000000  90.000000  90.000000

Effective grid spacing dv^(1/3) = 0.1747

                     log10-error:           total        iterations:
           time      wfs    density  force  energy       poisson  magmom
iter:   1  14:09:49                       -231.920315             +0.0000
iter:   2  14:10:10  -0.55  -0.94         -231.730956             +0.0047
iter:   3  14:10:31  -0.72  -0.98         -220.584910             +0.0059
iter:   4  14:10:51  -0.96  -1.20         -218.866338             +0.0019
iter:   5  14:11:12  -1.94  -1.36         -221.263554             +0.0013
iter:   6  14:11:33  -1.99  -1.50         -219.979999             +0.0007
iter:   7  14:11:54  -2.21  -1.68         -223.063104             +0.2303
iter:   8  14:12:15  -2.74  -1.89         -220.030295             +0.3239
iter:   9  14:12:35  -2.15  -1.93         -225.481429             +0.6179
iter:  10  14:12:56  -2.27  -1.87         -227.355175             -0.1288
iter:  11  14:13:17  -2.76  -1.82         -227.139866             -0.0241
iter:  12  14:13:38  -2.04  -1.83         -227.067106             -0.0043
iter:  13  14:13:59  -2.56  -1.85         -227.080671             -0.0086
iter:  14  14:14:19  -2.52  -1.97         -227.036251             -0.0002
iter:  15  14:14:40  -2.20  -2.08         -226.558450             -0.0008
iter:  16  14:15:01  -2.48  -2.23         -226.403411             -0.0002
iter:  17  14:15:22  -2.53  -2.33         -226.392859             -0.0002
iter:  18  14:15:43  -3.77  -2.42         -226.364296             -0.0001
iter:  19  14:16:04  -2.35  -2.45         -226.272903             -0.0001
iter:  20  14:16:24  -3.44  -2.78         -226.254289             -0.0000
iter:  21  14:16:45  -4.23  -2.83         -226.246954             +0.0000
iter:  22  14:17:06  -3.67  -2.94         -226.230699             +0.0000
iter:  23  14:17:27  -3.79  -3.04         -226.239944             +0.0000
iter:  24  14:17:47  -4.86  -3.08         -226.234403             +0.0000
iter:  25  14:18:08  -4.56  -3.13         -226.230244             +0.0000
iter:  26  14:18:29  -4.39  -3.18         -226.228588             +0.0000
iter:  27  14:18:50  -4.61  -3.45         -226.228092             +0.0000
iter:  28  14:19:10  -5.13  -3.47         -226.227973             +0.0000
iter:  29  14:19:31  -5.02  -3.50         -226.228112             +0.0000
iter:  30  14:19:52  -6.14  -3.80         -226.228082             +0.0000
iter:  31  14:20:13  -5.23  -3.81         -226.228105             -0.0000
iter:  32  14:20:33  -6.34  -3.98         -226.228030             +0.0000
iter:  33  14:20:54  -5.72  -4.11         -226.227909             -0.0000
iter:  34  14:21:15  -6.37  -4.64         -226.227916             -0.0000
iter:  35  14:21:36  -6.73  -4.72         -226.227916             +0.0000
iter:  36  14:21:56  -7.10  -4.75         -226.227913             +0.0000
iter:  37  14:22:22  -8.25  -4.98         -226.227912             +0.0000
iter:  38  14:22:48  -8.49  -5.14    -3.06-226.227912             +0.0000
iter:  39  14:23:14  -8.35  -5.21    -3.05-226.227912             +0.0000
iter:  40  14:23:40  -9.03  -5.44    -3.15-226.227912             +0.0000
iter:  41  14:24:06  -9.49  -5.58    -3.76-226.227912             +0.0000
iter:  42  14:24:32  -9.32  -5.68    -3.51-226.227912             +0.0000
iter:  43  14:24:58  -9.20  -5.71    -3.54-226.227912             +0.0000
iter:  44  14:25:24  -9.90  -6.06    -3.68-226.227912             +0.0000
iter:  45  14:25:50 -10.67  -6.28    -4.16-226.227912             +0.0000
iter:  46  14:26:16 -11.24  -6.32    -4.33-226.227912             -0.0000
iter:  47  14:26:42 -10.68  -6.39    -4.11-226.227912             -0.0000
iter:  48  14:27:08 -11.11  -6.57    -4.34-226.227912             -0.0000
iter:  49  14:27:33 -11.33  -6.78    -4.52-226.227912             -0.0000
iter:  50  14:27:59 -11.88  -6.99    -4.57-226.227912             -0.0000
iter:  51  14:28:25 -13.05  -7.56    -5.58-226.227912             -0.0000
iter:  52  14:28:51 -13.78  -7.56    -5.68-226.227912             -0.0000
iter:  53  14:29:17 -13.49  -7.61    -5.26-226.227912             -0.0000
iter:  54  14:29:43 -13.49  -7.72    -5.58-226.227912             -0.0000
iter:  55  14:30:09 -13.90  -7.89    -5.77-226.227912             -0.0000
iter:  56  14:30:34 -14.27  -7.93    -5.90-226.227912             -0.0000
iter:  57  14:31:00 -14.77  -7.96    -6.26-226.227912             -0.0000

Converged after 57 iterations.

Dipole moment: (10.670681, 1.411745, -6.219371) |e|*Ang

Total magnetic moment: (0.000000, 0.000000, -0.000000)
Local magnetic moments:
   0 O  ( 0.000000,  0.000000, -0.000514)
   1 O  ( 0.000000,  0.000000,  0.000534)
   2 O  ( 0.000000,  0.000000,  0.000533)
   3 O  ( 0.000000,  0.000000, -0.000551)
   4 O  ( 0.000000,  0.000000,  0.000522)
   5 O  ( 0.000000,  0.000000, -0.000533)
   6 O  ( 0.000000,  0.000000, -0.000543)
   7 O  ( 0.000000,  0.000000,  0.000556)
   8 O  ( 0.000000,  0.000000,  0.028690)
   9 O  ( 0.000000,  0.000000, -0.028742)
  10 O  ( 0.000000,  0.000000, -0.028695)
  11 O  ( 0.000000,  0.000000,  0.028661)
  12 Mn ( 0.000000,  0.000000,  4.448183)
  13 Mn ( 0.000000,  0.000000, -4.448228)
  14 Mn ( 0.000000,  0.000000, -4.448140)
  15 Mn ( 0.000000,  0.000000,  4.448253)
  16 P  ( 0.000000,  0.000000,  0.001558)
  17 P  ( 0.000000,  0.000000, -0.001543)
  18 P  ( 0.000000,  0.000000, -0.001557)
  19 P  ( 0.000000,  0.000000,  0.001543)
  20 O  ( 0.000000,  0.000000,  0.025333)
  21 O  ( 0.000000,  0.000000, -0.025300)
  22 O  ( 0.000000,  0.000000, -0.025296)
  23 O  ( 0.000000,  0.000000,  0.025312)
  24 Li ( 0.000000,  0.000000,  0.000000)
  25 Li ( 0.000000,  0.000000, -0.000001)
  26 Li ( 0.000000,  0.000000,  0.000000)
  27 Li ( 0.000000,  0.000000,  0.000008)

Energy contributions relative to reference atoms: (reference = -196157.275402)

Kinetic:       +217.352860
Potential:     -195.237728
External:        +0.000000
XC:            -250.384194
Entropy (-ST):   -0.000000
Local:           +2.041150
--------------------------
Free energy:   -226.227912
Extrapolated:  -226.227912

Spin contamination: 9.560411 electrons
Showing only first 2 kpts
                      Up                     Down
 Kpt  Band  Eigenvalues  Occupancy  Eigenvalues  Occupancy
  0    88      5.10982    1.00000      5.10996    1.00000
  0    89      5.13432    1.00000      5.13442    1.00000
  0    90      7.28865    0.00000      7.28864    0.00000
  0    91      7.30632    0.00000      7.30639    0.00000

  1    88      5.13553    1.00000      5.13570    1.00000
  1    89      5.16477    1.00000      5.16488    1.00000
  1    90      7.23151    0.00000      7.23137    0.00000
  1    91      7.24371    0.00000      7.24360    0.00000


Fermi level: 5.72153

Gap: 1.972 eV
Transition (v -> c):
  (s=1, k=73, n=89, [0.08, -0.42, -0.12]) -> (s=1, k=86, n=90, [0.08, 0.08, 0.12])
Writing to born-0.01-27z-.gpw (mode='all')

Timing:                              incl.     excl.
-----------------------------------------------------------
Hamiltonian:                         0.222     0.002   0.0% |
 Atomic:                             0.051     0.051   0.0% |
  XC Correction:                     0.000     0.000   0.0% |
 Calculate atomic Hamiltonians:      0.084     0.084   0.0% |
 Communicate:                        0.001     0.001   0.0% |
 Initialize Hamiltonian:             0.000     0.000   0.0% |
 Poisson:                            0.001     0.001   0.0% |
 XC 3D grid:                         0.083     0.083   0.0% |
LCAO initialization:                66.101     0.650   0.0% |
 LCAO eigensolver:                  16.710     0.002   0.0% |
  Calculate projections:             0.029     0.029   0.0% |
  DenseAtomicCorrection:             0.046     0.046   0.0% |
  Distribute overlap matrix:         0.008     0.008   0.0% |
  Orbital Layouts:                   0.260     0.260   0.0% |
  Potential matrix:                 16.274    16.274   0.5% |
  Sum over cells:                    0.091     0.091   0.0% |
 LCAO to grid:                      47.430    47.430   1.4% ||
 Set positions (LCAO WFS):           1.313     0.229   0.0% |
  Basic WFS set positions:           0.001     0.001   0.0% |
  Basis functions set positions:     0.000     0.000   0.0% |
  P tci:                             0.507     0.507   0.0% |
  ST tci:                            0.362     0.362   0.0% |
  mktci:                             0.212     0.212   0.0% |
PWDescriptor:                        0.023     0.023   0.0% |
SCF-cycle:                        1293.055     1.119   0.0% |
 Davidson:                        1124.951   359.869  10.4% |---|
  Apply H:                          74.343    72.213   2.1% ||
   HMM T:                            2.129     2.129   0.1% |
  Subspace diag:                   161.157     0.165   0.0% |
   calc_h_matrix:                  102.335    28.384   0.8% |
    Apply H:                        73.951    71.901   2.1% ||
     HMM T:                          2.050     2.050   0.1% |
   diagonalize:                      5.792     5.792   0.2% |
   rotate_psi:                      52.865    52.865   1.5% ||
  calc. matrices:                  337.589   190.806   5.5% |-|
   Apply H:                        146.784   142.696   4.1% |-|
    HMM T:                           4.087     4.087   0.1% |
  diagonalize:                      85.758    85.758   2.5% ||
  rotate_psi:                      106.236   106.236   3.1% ||
 Density:                           43.196     0.001   0.0% |
  Atomic density matrices:           0.749     0.749   0.0% |
  Mix:                               7.034     7.034   0.2% |
  Multipole moments:                 0.021     0.021   0.0% |
  Pseudo density:                   35.391    35.389   1.0% |
   Symmetrize density:               0.002     0.002   0.0% |
 Forces:                           108.961   108.961   3.1% ||
 Hamiltonian:                       12.559     0.120   0.0% |
  Atomic:                            2.968     2.967   0.1% |
   XC Correction:                    0.000     0.000   0.0% |
  Calculate atomic Hamiltonians:     4.680     4.680   0.1% |
  Communicate:                       0.028     0.028   0.0% |
  Poisson:                           0.042     0.042   0.0% |
  XC 3D grid:                        4.721     4.721   0.1% |
 Orthonormalize:                     2.269     0.003   0.0% |
  calc_s_matrix:                     0.266     0.266   0.0% |
  inverse-cholesky:                  0.040     0.040   0.0% |
  projections:                       1.478     1.478   0.0% |
  rotate_psi_s:                      0.481     0.481   0.0% |
Set symmetry:                        0.000     0.000   0.0% |
Other:                            2100.738  2100.738  60.7% |-----------------------|
-----------------------------------------------------------
Total:                                      3460.140 100.0%

Memory usage: 12.74 GiB
Date: Fri Apr  2 15:06:00 2021
