
  ___ ___ ___ _ _ _  
 |   |   |_  | | | | 
 | | | | | . | | | | 
 |__ |  _|___|_____|  21.1.1b1
 |___|_|             

User:   madkru@g043.nifl.fysik.dtu.dk
Date:   Tue Mar 30 20:23:28 2021
Arch:   x86_64
Pid:    39387
Python: 3.8.6
gpaw:   /home/niflheim/madkru/venv_madkru/gpaw/gpaw (e6f0d78a31)
_gpaw:  /home/niflheim/madkru/venv_madkru/gpaw/build/lib.linux-x86_64-sandybridge-3.8/
        _gpaw.cpython-38-x86_64-linux-gnu.so (e6f0d78a31)
ase:    /home/niflheim/madkru/venv_madkru/ase/ase (version 3.22.0b1-4d5a73cb29)
numpy:  /home/modules/software/SciPy-bundle/2020.11-foss-2020b/lib/python3.8/site-packages/numpy (version 1.19.4)
scipy:  /home/modules/software/SciPy-bundle/2020.11-foss-2020b/lib/python3.8/site-packages/scipy (version 1.5.4)
libxc:  4.3.4
units:  Angstrom and eV
cores: 64
OpenMP: False
OMP_NUM_THREADS: 1

Input parameters:
  convergence: {bands: occupied,
                density: 0.0001,
                eigenstates: 4e-08,
                energy: 0.0005,
                forces: 1e-06}
  kpts: [6 6 4]
  maxiter: 1000
  mode: {ecut: 600.0,
         gammacentered: False,
         name: pw}
  occupations: {fixmagmom: False,
                name: fermi-dirac,
                width: 0.001}
  symmetry: {point_group: False,
             time_reversal: False}

System changes: positions, numbers, cell, pbc, initial_charges, initial_magmoms 

Initialize ...

O-setup:
  name: Oxygen
  id: 9b9d51c344dea68c822856295a461509
  Z: 8.0
  valence: 6
  core: 2
  charge: 0.0
  file: /home/modules/software/GPAW-setups/0.9.20000/O.LDA.gz
  compensation charges: gauss, rc=0.21, lmax=2
  cutoffs: 1.17(filt), 0.83(core),
  valence states:
                energy  radius
    2s(2.00)   -23.752   0.688
    2p(4.00)    -9.195   0.598
    *s           3.459   0.688
    *p          18.016   0.598
    *d           0.000   0.619

  Using partial waves for O as LCAO basis

Mn-setup:
  name: Manganese
  id: 0d715a8018be061a6e9ea6f2d364ac92
  Z: 25.0
  valence: 15
  core: 10
  charge: 0.0
  file: /home/modules/software/GPAW-setups/0.9.20000/Mn.LDA.gz
  compensation charges: gauss, rc=0.38, lmax=2
  cutoffs: 2.14(filt), 0.86(core),
  valence states:
                energy  radius
    3s(2.00)   -85.387   1.275
    4s(2.00)    -5.282   1.275
    3p(6.00)   -54.493   1.281
    4p(0.00)    -1.471   1.281
    3d(5.00)    -7.009   1.138
    *d          20.203   1.138

  Using partial waves for Mn as LCAO basis

P-setup:
  name: Phosphorus
  id: a5561c299094968922a179ab894d2e2d
  Z: 15.0
  valence: 5
  core: 10
  charge: 0.0
  file: /home/modules/software/GPAW-setups/0.9.20000/P.LDA.gz
  compensation charges: gauss, rc=0.30, lmax=2
  cutoffs: 1.69(filt), 1.81(core),
  valence states:
                energy  radius
    3s(2.00)   -14.015   0.953
    3p(3.00)    -5.596   0.953
    *s          13.197   0.953
    *p          21.615   0.953
    *d           0.000   0.953

  Using partial waves for P as LCAO basis

Li-setup:
  name: Lithium
  id: b73562207f97a71b6967473b66fe8b65
  Z: 3.0
  valence: 1
  core: 2
  charge: 0.0
  file: /home/modules/software/GPAW-setups/0.9.20000/Li.LDA.gz
  compensation charges: gauss, rc=0.33, lmax=2
  cutoffs: 1.91(filt), 2.55(core),
  valence states:
                energy  radius
    2s(1.00)    -2.874   1.058
    2p(0.00)    -1.126   1.058
    *s          24.338   1.058

  Using partial waves for Li as LCAO basis

Reference energy: -196157.275402

Spin-polarized calculation.
Magnetic moment: 0.000000

Convergence criteria:
  Maximum total energy change: 0.0005 eV / electron
  Maximum integral of absolute density change: 0.0001 electrons
  Maximum integral of absolute eigenstate change: 4e-08 eV^2
  Maximum change in atomic force: 1e-06 eV / Ang
  Maximum number of iterations: 1000

Symmetries present (total): 1

  ( 1  0  0)
  ( 0  1  0)
  ( 0  0  1)

144 k-points: 6 x 6 x 4 Monkhorst-Pack grid
144 k-points in the irreducible part of the Brillouin zone
       k-points in crystal coordinates                weights
   0:    -0.41666667   -0.41666667   -0.37500000          1/144
   1:    -0.41666667   -0.41666667   -0.12500000          1/144
   2:    -0.41666667   -0.41666667    0.12500000          1/144
   3:    -0.41666667   -0.41666667    0.37500000          1/144
   4:    -0.41666667   -0.25000000   -0.37500000          1/144
   5:    -0.41666667   -0.25000000   -0.12500000          1/144
   6:    -0.41666667   -0.25000000    0.12500000          1/144
   7:    -0.41666667   -0.25000000    0.37500000          1/144
   8:    -0.41666667   -0.08333333   -0.37500000          1/144
   9:    -0.41666667   -0.08333333   -0.12500000          1/144
          ...
 143:     0.41666667    0.41666667    0.37500000          1/144

Wave functions: Plane wave expansion
  Cutoff energy: 600.000 eV
  Number of coefficients (min, max): 10068, 10125
  Pulay-stress correction: 0.000000 eV/Ang^3 (de/decut=0.000000)
  Using FFTW library
  ScaLapack parameters: grid=1x1, blocksize=None
  Wavefunction extrapolation:
    Improved wavefunction reuse through dual PAW basis 

  Fermi-Dirac: width=0.0010 eV

Eigensolver
   Davidson(niter=2) 

Densities:
  Coarse grid: 60*35*27 grid
  Fine grid: 120*70*54 grid
  Total Charge: 0.000000 

Density mixing:
  Method: difference
  Backend: pulay
  Linear mixing parameter: 0.05
  Mixing with 5 old densities
  Damping of long wave oscillations: 50 

Hamiltonian:
  XC and Coulomb potentials evaluated on a 120*70*54 grid
  Using the LDA Exchange-Correlation functional
 

Memory estimate:
  Process memory now: 13034.14 MiB
  Calculator: 354.82 MiB
    Density: 10.06 MiB
      Arrays: 3.79 MiB
      Localized functions: 4.71 MiB
      Mixer: 1.56 MiB
    Hamiltonian: 2.95 MiB
      Arrays: 2.82 MiB
      XC: 0.00 MiB
      Poisson: 0.00 MiB
      vbar: 0.14 MiB
    Wavefunctions: 341.80 MiB
      Arrays psit_nG: 311.46 MiB
      Eigensolver: 19.99 MiB
      Projections: 2.71 MiB
      Projectors: 4.87 MiB
      PW-descriptor: 2.77 MiB

Total number of cores used: 64
Parallelization over k-points: 16
Domain decomposition: 2 x 2 x 1

Number of atoms: 28
Number of atomic orbitals: 148
Number of bands in calculation: 112
Number of valence electrons: 180
Bands to converge: occupied

... initialized

Initializing position-dependent things.

Density initialized from atomic densities
Creating initial wave functions:
  112 bands from LCAO basis set

     .-------------------------.  
    /|         OP              |  
   / |O            O        O  |  
  /  |       O            O  P |  
 *   |O    Mn      O           |  
 |   |          OLi          O |  
 |   .P-O--------------Mn------.  
 |  /          Li    O  Mn  O /   
 | /Li O           PO        /    
 |/       Mn                /     
 *Li-----------------------*      

Positions:
   0 O     -1.360678   -2.541161   -1.202221    ( 0.0000,  0.0000,  0.0000)
   1 O     -3.121941    2.976855    1.167242    ( 0.0000,  0.0000,  0.0000)
   2 O      2.107533    0.508090    1.540712    ( 0.0000,  0.0000,  0.0000)
   3 O      3.869373   -0.072395   -0.828750    ( 0.0000,  0.0000,  0.0000)
   4 O      2.107821    2.976875    1.540792    ( 0.0000,  0.0000,  0.0000)
   5 O      3.869084   -2.541141   -0.828671    ( 0.0000,  0.0000,  0.0000)
   6 O     -1.360390   -0.072375   -1.202141    ( 0.0000,  0.0000,  0.0000)
   7 O     -3.122230    0.508109    1.167321    ( 0.0000,  0.0000,  0.0000)
   8 O     -4.413461   -1.306992   -0.794251    ( 0.0000,  0.0000,  0.0000)
   9 O     -0.069585    1.742707    1.575662    ( 0.0000,  0.0000,  0.0000)
  10 O      5.160604    1.742707    1.132822    ( 0.0000,  0.0000,  0.0000)
  11 O      0.816728   -1.306992   -1.237091    ( 0.0000,  0.0000,  0.0000)
  12 Mn    -2.570809   -1.307302    0.247161    ( 0.0000,  0.0000,  1.0000)
  13 Mn    -1.912021    1.743016   -2.112906    ( 0.0000,  0.0000, -1.0000)
  14 Mn     3.317952    1.743017    0.091411    ( 0.0000,  0.0000, -1.0000)
  15 Mn     2.659164   -1.307302    2.461478    ( 0.0000,  0.0000,  1.0000)
  16 P     -0.620664   -1.306816   -1.828465    ( 0.0000,  0.0000,  0.0000)
  17 P     -3.862097    1.742530    0.541238    ( 0.0000,  0.0000,  0.0000)
  18 P      1.367807    1.742530    2.167036    ( 0.0000,  0.0000,  0.0000)
  19 P      4.609240   -1.306816   -0.202666    ( 0.0000,  0.0000,  0.0000)
  20 O     -0.646437   -1.306845    1.374751    ( 0.0000,  0.0000,  0.0000)
  21 O     -3.836504    1.742559   -0.995565    ( 0.0000,  0.0000,  0.0000)
  22 O      1.393580    1.742559   -1.036179    ( 0.0000,  0.0000,  0.0000)
  23 O      4.583647   -1.306845    1.334136    ( 0.0000,  0.0000,  0.0000)
  24 Li    -4.856429   -2.832143   -2.200714    ( 0.0000,  0.0000,  0.0000)
  25 Li     0.373571   -2.832143    0.169286    ( 0.0000,  0.0000,  0.0000)
  26 Li    -4.856429    0.217857   -2.200714    ( 0.0000,  0.0000,  0.0000)
  27 Li     0.373571    0.217857    0.169286    ( 0.0000,  0.0000,  0.0000)

Unit cell:
           periodic     x           y           z      points  spacing
  1. axis:    yes   10.460000    0.000000    0.000000    60     0.1743
  2. axis:    yes    0.000000    6.100000    0.000000    35     0.1743
  3. axis:    yes    0.000000    0.000000    4.740000    27     0.1756

  Lengths:  10.460000   6.100000   4.740000
  Angles:   90.000000  90.000000  90.000000

Effective grid spacing dv^(1/3) = 0.1747

                     log10-error:           total        iterations:
           time      wfs    density  force  energy       poisson  magmom
iter:   1  20:25:03                       -231.921930             +0.0000
iter:   2  20:25:24  -0.55  -0.94         -231.739266             +0.0092
iter:   3  20:25:46  -0.72  -0.98         -220.610944             +0.0116
iter:   4  20:26:07  -0.94  -1.20         -218.913685             +0.0262
iter:   5  20:26:28  -1.94  -1.36         -222.243837             +0.0133
iter:   6  20:26:50  -2.00  -1.40         -222.033354             +0.0279
iter:   7  20:27:11  -1.81  -1.54         -224.591497             -0.0474
iter:   8  20:27:32  -2.31  -1.58         -224.606292             -1.4565
iter:   9  20:27:53  -2.60  -1.80         -226.101015             -1.4747
iter:  10  20:28:15  -1.63  -1.83         -226.892834             -0.4479
iter:  11  20:28:36  -2.44  -2.02         -226.847664             -0.2518
iter:  12  20:28:57  -2.13  -2.01         -225.478591             +0.0209
iter:  13  20:29:18  -2.87  -2.22         -226.096652             -0.0480
iter:  14  20:29:40  -2.91  -2.27         -226.275674             -0.0372
iter:  15  20:30:01  -2.84  -2.45         -226.250911             -0.0111
iter:  16  20:30:22  -3.77  -2.84         -226.238673             -0.0113
iter:  17  20:30:43  -4.06  -2.86         -226.234974             -0.0034
iter:  18  20:31:05  -4.08  -2.93         -226.229401             -0.0004
iter:  19  20:31:26  -4.04  -3.22         -226.228693             -0.0002
iter:  20  20:31:47  -5.09  -3.45         -226.228504             -0.0001
iter:  21  20:32:08  -4.47  -3.48         -226.228279             -0.0001
iter:  22  20:32:30  -4.93  -3.60         -226.227864             -0.0000
iter:  23  20:32:51  -5.89  -3.82         -226.227824             -0.0000
iter:  24  20:33:12  -5.47  -3.93         -226.227920             -0.0000
iter:  25  20:33:33  -5.73  -3.95         -226.227771             -0.0000
iter:  26  20:33:54  -6.95  -4.26         -226.227763             -0.0000
iter:  27  20:34:16  -6.40  -4.30         -226.227750             +0.0000
iter:  28  20:34:37  -6.58  -4.41         -226.227746             -0.0000
iter:  29  20:34:58  -7.27  -4.49         -226.227745             -0.0000
iter:  30  20:35:20  -7.12  -4.57         -226.227749             +0.0000
iter:  31  20:35:41  -7.01  -4.61         -226.227744             +0.0000
iter:  32  20:36:08  -8.01  -4.99         -226.227745             +0.0000
iter:  33  20:36:34  -8.98  -5.05    -3.43-226.227745             +0.0000
iter:  34  20:37:01  -7.72  -5.10    -2.89-226.227744             +0.0000
iter:  35  20:37:28  -8.78  -5.34    -3.17-226.227744             +0.0000
iter:  36  20:37:55  -8.73  -5.39    -3.19-226.227744             +0.0000
iter:  37  20:38:21  -9.16  -5.61    -3.22-226.227744             +0.0000
iter:  38  20:38:48 -10.13  -5.78    -4.06-226.227744             -0.0000
iter:  39  20:39:15  -9.43  -5.80    -3.57-226.227744             -0.0000
iter:  40  20:39:42 -10.31  -6.05    -3.86-226.227744             -0.0000
iter:  41  20:40:08 -10.72  -6.22    -4.49-226.227744             +0.0000
iter:  42  20:40:35 -10.04  -6.28    -3.89-226.227744             -0.0000
iter:  43  20:41:02 -10.89  -6.55    -4.59-226.227744             -0.0000
iter:  44  20:41:28 -11.36  -6.62    -4.37-226.227744             +0.0000
iter:  45  20:41:55 -11.25  -6.86    -4.57-226.227744             -0.0000
iter:  46  20:42:22 -12.00  -7.04    -4.86-226.227744             +0.0000
iter:  47  20:42:49 -12.44  -7.25    -5.27-226.227744             +0.0000
iter:  48  20:43:15 -13.29  -7.36    -5.40-226.227744             +0.0000
iter:  49  20:43:42 -13.67  -7.44    -5.65-226.227744             +0.0000
iter:  50  20:44:09 -13.04  -7.50    -5.26-226.227744             +0.0000
iter:  51  20:44:35 -13.60  -7.62    -5.87-226.227744             +0.0000
iter:  52  20:45:02 -13.58  -7.68    -5.74-226.227744             +0.0000
iter:  53  20:45:29 -13.81  -7.78    -5.87-226.227744             +0.0000
iter:  54  20:45:56 -14.03  -7.85    -5.81-226.227744             +0.0000
iter:  55  20:46:22 -14.99  -7.93    -6.34-226.227744             +0.0000

Converged after 55 iterations.

Dipole moment: (10.676165, 1.413431, -6.257093) |e|*Ang

Total magnetic moment: (0.000000, 0.000000, 0.000000)
Local magnetic moments:
   0 O  ( 0.000000,  0.000000, -0.000739)
   1 O  ( 0.000000,  0.000000,  0.000901)
   2 O  ( 0.000000,  0.000000,  0.000568)
   3 O  ( 0.000000,  0.000000, -0.000554)
   4 O  ( 0.000000,  0.000000,  0.000548)
   5 O  ( 0.000000,  0.000000, -0.000534)
   6 O  ( 0.000000,  0.000000, -0.000759)
   7 O  ( 0.000000,  0.000000,  0.000921)
   8 O  ( 0.000000,  0.000000,  0.028717)
   9 O  ( 0.000000,  0.000000, -0.028509)
  10 O  ( 0.000000,  0.000000, -0.028684)
  11 O  ( 0.000000,  0.000000,  0.028626)
  12 Mn ( 0.000000,  0.000000,  4.448336)
  13 Mn ( 0.000000,  0.000000, -4.448330)
  14 Mn ( 0.000000,  0.000000, -4.448131)
  15 Mn ( 0.000000,  0.000000,  4.448231)
  16 P  ( 0.000000,  0.000000,  0.001396)
  17 P  ( 0.000000,  0.000000, -0.001532)
  18 P  ( 0.000000,  0.000000, -0.001457)
  19 P  ( 0.000000,  0.000000,  0.001543)
  20 O  ( 0.000000,  0.000000,  0.025264)
  21 O  ( 0.000000,  0.000000, -0.025527)
  22 O  ( 0.000000,  0.000000, -0.025314)
  23 O  ( 0.000000,  0.000000,  0.025318)
  24 Li ( 0.000000,  0.000000,  0.000002)
  25 Li ( 0.000000,  0.000000,  0.000001)
  26 Li ( 0.000000,  0.000000,  0.000002)
  27 Li ( 0.000000,  0.000000,  0.000001)

Energy contributions relative to reference atoms: (reference = -196157.275402)

Kinetic:       +217.310308
Potential:     -195.205057
External:        +0.000000
XC:            -250.374268
Entropy (-ST):   -0.000000
Local:           +2.041274
--------------------------
Free energy:   -226.227744
Extrapolated:  -226.227744

Spin contamination: 9.560786 electrons
Showing only first 2 kpts
                      Up                     Down
 Kpt  Band  Eigenvalues  Occupancy  Eigenvalues  Occupancy
  0    88      5.11032    1.00000      5.11176    1.00000
  0    89      5.13474    1.00000      5.13670    1.00000
  0    90      7.28500    0.00000      7.28837    0.00000
  0    91      7.30396    0.00000      7.30630    0.00000

  1    88      5.13592    1.00000      5.13699    1.00000
  1    89      5.16490    1.00000      5.16623    1.00000
  1    90      7.22930    0.00000      7.23113    0.00000
  1    91      7.24244    0.00000      7.24363    0.00000


Fermi level: 5.55868

Gap: 1.969 eV
Transition (v -> c):
  (s=1, k=69, n=89, [-0.08, 0.42, -0.12]) -> (s=0, k=85, n=90, [0.08, 0.08, -0.12])
Writing to born-0.01-13z+.gpw (mode='all')

Timing:                              incl.     excl.
-----------------------------------------------------------
Hamiltonian:                         0.280     0.003   0.0% |
 Atomic:                             0.094     0.094   0.0% |
  XC Correction:                     0.000     0.000   0.0% |
 Calculate atomic Hamiltonians:      0.091     0.091   0.0% |
 Communicate:                        0.000     0.000   0.0% |
 Initialize Hamiltonian:             0.000     0.000   0.0% |
 Poisson:                            0.001     0.001   0.0% |
 XC 3D grid:                         0.091     0.091   0.0% |
LCAO initialization:                69.020     0.674   0.0% |
 LCAO eigensolver:                  18.039     0.002   0.0% |
  Calculate projections:             0.030     0.030   0.0% |
  DenseAtomicCorrection:             0.043     0.043   0.0% |
  Distribute overlap matrix:         0.007     0.007   0.0% |
  Orbital Layouts:                   0.280     0.280   0.0% |
  Potential matrix:                 17.588    17.588   0.5% |
  Sum over cells:                    0.090     0.090   0.0% |
 LCAO to grid:                      48.999    48.999   1.5% ||
 Set positions (LCAO WFS):           1.308     0.180   0.0% |
  Basic WFS set positions:           0.001     0.001   0.0% |
  Basis functions set positions:     0.000     0.000   0.0% |
  P tci:                             0.513     0.513   0.0% |
  ST tci:                            0.368     0.368   0.0% |
  mktci:                             0.245     0.245   0.0% |
PWDescriptor:                        0.025     0.025   0.0% |
SCF-cycle:                        1303.718     4.586   0.1% |
 Davidson:                        1107.512   353.407  10.7% |---|
  Apply H:                          74.813    72.492   2.2% ||
   HMM T:                            2.321     2.321   0.1% |
  Subspace diag:                   159.136     0.159   0.0% |
   calc_h_matrix:                  101.361    27.716   0.8% |
    Apply H:                        73.645    71.425   2.2% ||
     HMM T:                          2.220     2.220   0.1% |
   diagonalize:                      5.630     5.630   0.2% |
   rotate_psi:                      51.986    51.986   1.6% ||
  calc. matrices:                  330.764   184.263   5.6% |-|
   Apply H:                        146.501   142.042   4.3% |-|
    HMM T:                           4.459     4.459   0.1% |
  diagonalize:                      85.789    85.789   2.6% ||
  rotate_psi:                      103.602   103.602   3.1% ||
 Density:                           43.892     0.001   0.0% |
  Atomic density matrices:           0.725     0.725   0.0% |
  Mix:                               7.530     7.530   0.2% |
  Multipole moments:                 0.021     0.021   0.0% |
  Pseudo density:                   35.615    35.614   1.1% |
   Symmetrize density:               0.002     0.002   0.0% |
 Forces:                           131.991   131.991   4.0% |-|
 Hamiltonian:                       13.428     0.119   0.0% |
  Atomic:                            3.074     3.074   0.1% |
   XC Correction:                    0.000     0.000   0.0% |
  Calculate atomic Hamiltonians:     5.194     5.194   0.2% |
  Communicate:                       0.011     0.011   0.0% |
  Poisson:                           0.048     0.048   0.0% |
  XC 3D grid:                        4.983     4.983   0.2% |
 Orthonormalize:                     2.308     0.003   0.0% |
  calc_s_matrix:                     0.267     0.267   0.0% |
  inverse-cholesky:                  0.041     0.041   0.0% |
  projections:                       1.505     1.505   0.0% |
  rotate_psi_s:                      0.492     0.492   0.0% |
Set symmetry:                        0.000     0.000   0.0% |
Other:                            1927.766  1927.766  58.4% |----------------------|
-----------------------------------------------------------
Total:                                      3300.809 100.0%

Memory usage: 12.74 GiB
Date: Tue Mar 30 21:18:29 2021
