
  ___ ___ ___ _ _ _  
 |   |   |_  | | | | 
 | | | | | . | | | | 
 |__ |  _|___|_____|  21.1.1b1
 |___|_|             

User:   madkru@g043.nifl.fysik.dtu.dk
Date:   Tue Mar 30 15:39:16 2021
Arch:   x86_64
Pid:    39387
Python: 3.8.6
gpaw:   /home/niflheim/madkru/venv_madkru/gpaw/gpaw (e6f0d78a31)
_gpaw:  /home/niflheim/madkru/venv_madkru/gpaw/build/lib.linux-x86_64-sandybridge-3.8/
        _gpaw.cpython-38-x86_64-linux-gnu.so (e6f0d78a31)
ase:    /home/niflheim/madkru/venv_madkru/ase/ase (version 3.22.0b1-4d5a73cb29)
numpy:  /home/modules/software/SciPy-bundle/2020.11-foss-2020b/lib/python3.8/site-packages/numpy (version 1.19.4)
scipy:  /home/modules/software/SciPy-bundle/2020.11-foss-2020b/lib/python3.8/site-packages/scipy (version 1.5.4)
libxc:  4.3.4
units:  Angstrom and eV
cores: 64
OpenMP: False
OMP_NUM_THREADS: 1

Input parameters:
  convergence: {bands: occupied,
                density: 0.0001,
                eigenstates: 4e-08,
                energy: 0.0005,
                forces: 1e-06}
  kpts: [6 6 4]
  maxiter: 1000
  mode: {ecut: 600.0,
         gammacentered: False,
         name: pw}
  occupations: {fixmagmom: False,
                name: fermi-dirac,
                width: 0.001}
  symmetry: {point_group: False,
             time_reversal: False}

System changes: positions, numbers, cell, pbc, initial_charges, initial_magmoms 

Initialize ...

O-setup:
  name: Oxygen
  id: 9b9d51c344dea68c822856295a461509
  Z: 8.0
  valence: 6
  core: 2
  charge: 0.0
  file: /home/modules/software/GPAW-setups/0.9.20000/O.LDA.gz
  compensation charges: gauss, rc=0.21, lmax=2
  cutoffs: 1.17(filt), 0.83(core),
  valence states:
                energy  radius
    2s(2.00)   -23.752   0.688
    2p(4.00)    -9.195   0.598
    *s           3.459   0.688
    *p          18.016   0.598
    *d           0.000   0.619

  Using partial waves for O as LCAO basis

Mn-setup:
  name: Manganese
  id: 0d715a8018be061a6e9ea6f2d364ac92
  Z: 25.0
  valence: 15
  core: 10
  charge: 0.0
  file: /home/modules/software/GPAW-setups/0.9.20000/Mn.LDA.gz
  compensation charges: gauss, rc=0.38, lmax=2
  cutoffs: 2.14(filt), 0.86(core),
  valence states:
                energy  radius
    3s(2.00)   -85.387   1.275
    4s(2.00)    -5.282   1.275
    3p(6.00)   -54.493   1.281
    4p(0.00)    -1.471   1.281
    3d(5.00)    -7.009   1.138
    *d          20.203   1.138

  Using partial waves for Mn as LCAO basis

P-setup:
  name: Phosphorus
  id: a5561c299094968922a179ab894d2e2d
  Z: 15.0
  valence: 5
  core: 10
  charge: 0.0
  file: /home/modules/software/GPAW-setups/0.9.20000/P.LDA.gz
  compensation charges: gauss, rc=0.30, lmax=2
  cutoffs: 1.69(filt), 1.81(core),
  valence states:
                energy  radius
    3s(2.00)   -14.015   0.953
    3p(3.00)    -5.596   0.953
    *s          13.197   0.953
    *p          21.615   0.953
    *d           0.000   0.953

  Using partial waves for P as LCAO basis

Li-setup:
  name: Lithium
  id: b73562207f97a71b6967473b66fe8b65
  Z: 3.0
  valence: 1
  core: 2
  charge: 0.0
  file: /home/modules/software/GPAW-setups/0.9.20000/Li.LDA.gz
  compensation charges: gauss, rc=0.33, lmax=2
  cutoffs: 1.91(filt), 2.55(core),
  valence states:
                energy  radius
    2s(1.00)    -2.874   1.058
    2p(0.00)    -1.126   1.058
    *s          24.338   1.058

  Using partial waves for Li as LCAO basis

Reference energy: -196157.275402

Spin-polarized calculation.
Magnetic moment: 0.000000

Convergence criteria:
  Maximum total energy change: 0.0005 eV / electron
  Maximum integral of absolute density change: 0.0001 electrons
  Maximum integral of absolute eigenstate change: 4e-08 eV^2
  Maximum change in atomic force: 1e-06 eV / Ang
  Maximum number of iterations: 1000

Symmetries present (total): 1

  ( 1  0  0)
  ( 0  1  0)
  ( 0  0  1)

144 k-points: 6 x 6 x 4 Monkhorst-Pack grid
144 k-points in the irreducible part of the Brillouin zone
       k-points in crystal coordinates                weights
   0:    -0.41666667   -0.41666667   -0.37500000          1/144
   1:    -0.41666667   -0.41666667   -0.12500000          1/144
   2:    -0.41666667   -0.41666667    0.12500000          1/144
   3:    -0.41666667   -0.41666667    0.37500000          1/144
   4:    -0.41666667   -0.25000000   -0.37500000          1/144
   5:    -0.41666667   -0.25000000   -0.12500000          1/144
   6:    -0.41666667   -0.25000000    0.12500000          1/144
   7:    -0.41666667   -0.25000000    0.37500000          1/144
   8:    -0.41666667   -0.08333333   -0.37500000          1/144
   9:    -0.41666667   -0.08333333   -0.12500000          1/144
          ...
 143:     0.41666667    0.41666667    0.37500000          1/144

Wave functions: Plane wave expansion
  Cutoff energy: 600.000 eV
  Number of coefficients (min, max): 10068, 10125
  Pulay-stress correction: 0.000000 eV/Ang^3 (de/decut=0.000000)
  Using FFTW library
  ScaLapack parameters: grid=1x1, blocksize=None
  Wavefunction extrapolation:
    Improved wavefunction reuse through dual PAW basis 

  Fermi-Dirac: width=0.0010 eV

Eigensolver
   Davidson(niter=2) 

Densities:
  Coarse grid: 60*35*27 grid
  Fine grid: 120*70*54 grid
  Total Charge: 0.000000 

Density mixing:
  Method: difference
  Backend: pulay
  Linear mixing parameter: 0.05
  Mixing with 5 old densities
  Damping of long wave oscillations: 50 

Hamiltonian:
  XC and Coulomb potentials evaluated on a 120*70*54 grid
  Using the LDA Exchange-Correlation functional
 

Memory estimate:
  Process memory now: 12782.39 MiB
  Calculator: 354.82 MiB
    Density: 10.06 MiB
      Arrays: 3.79 MiB
      Localized functions: 4.71 MiB
      Mixer: 1.56 MiB
    Hamiltonian: 2.95 MiB
      Arrays: 2.82 MiB
      XC: 0.00 MiB
      Poisson: 0.00 MiB
      vbar: 0.14 MiB
    Wavefunctions: 341.80 MiB
      Arrays psit_nG: 311.46 MiB
      Eigensolver: 19.99 MiB
      Projections: 2.71 MiB
      Projectors: 4.87 MiB
      PW-descriptor: 2.77 MiB

Total number of cores used: 64
Parallelization over k-points: 16
Domain decomposition: 2 x 2 x 1

Number of atoms: 28
Number of atomic orbitals: 148
Number of bands in calculation: 112
Number of valence electrons: 180
Bands to converge: occupied

... initialized

Initializing position-dependent things.

Density initialized from atomic densities
Creating initial wave functions:
  112 bands from LCAO basis set

     .-------------------------.  
    /|         OP              |  
   / |O            O        O  |  
  /  |       O            O  P |  
 *   |O    Mn      O           |  
 |   |          OLi          O |  
 |   .P-O--------------Mn------.  
 |  /          Li    O  Mn  O /   
 | /Li O           PO        /    
 |/       Mn                /     
 *Li-----------------------*      

Positions:
   0 O     -1.360678   -2.541161   -1.202221    ( 0.0000,  0.0000,  0.0000)
   1 O     -3.121941    2.976855    1.167242    ( 0.0000,  0.0000,  0.0000)
   2 O      2.107533    0.508090    1.540712    ( 0.0000,  0.0000,  0.0000)
   3 O      3.869373   -0.072395   -0.828750    ( 0.0000,  0.0000,  0.0000)
   4 O      2.107821    2.976875    1.540792    ( 0.0000,  0.0000,  0.0000)
   5 O      3.869084   -2.541141   -0.828671    ( 0.0000,  0.0000,  0.0000)
   6 O     -1.360390   -0.072375   -1.202141    ( 0.0000,  0.0000,  0.0000)
   7 O     -3.122230    0.508109    1.167321    ( 0.0000,  0.0000,  0.0000)
   8 O     -4.413461   -1.306992   -0.794251    ( 0.0000,  0.0000,  0.0000)
   9 O     -0.069585    1.742707    1.575662    ( 0.0000,  0.0000,  0.0000)
  10 O      5.160604    1.742707    1.132822    ( 0.0000,  0.0000,  0.0000)
  11 O      0.816728   -1.306992   -1.237091    ( 0.0000,  0.0000,  0.0000)
  12 Mn    -2.570809   -1.297302    0.247161    ( 0.0000,  0.0000,  1.0000)
  13 Mn    -1.912021    1.743016   -2.122906    ( 0.0000,  0.0000, -1.0000)
  14 Mn     3.317952    1.743017    0.091411    ( 0.0000,  0.0000, -1.0000)
  15 Mn     2.659164   -1.307302    2.461478    ( 0.0000,  0.0000,  1.0000)
  16 P     -0.620664   -1.306816   -1.828465    ( 0.0000,  0.0000,  0.0000)
  17 P     -3.862097    1.742530    0.541238    ( 0.0000,  0.0000,  0.0000)
  18 P      1.367807    1.742530    2.167036    ( 0.0000,  0.0000,  0.0000)
  19 P      4.609240   -1.306816   -0.202666    ( 0.0000,  0.0000,  0.0000)
  20 O     -0.646437   -1.306845    1.374751    ( 0.0000,  0.0000,  0.0000)
  21 O     -3.836504    1.742559   -0.995565    ( 0.0000,  0.0000,  0.0000)
  22 O      1.393580    1.742559   -1.036179    ( 0.0000,  0.0000,  0.0000)
  23 O      4.583647   -1.306845    1.334136    ( 0.0000,  0.0000,  0.0000)
  24 Li    -4.856429   -2.832143   -2.200714    ( 0.0000,  0.0000,  0.0000)
  25 Li     0.373571   -2.832143    0.169286    ( 0.0000,  0.0000,  0.0000)
  26 Li    -4.856429    0.217857   -2.200714    ( 0.0000,  0.0000,  0.0000)
  27 Li     0.373571    0.217857    0.169286    ( 0.0000,  0.0000,  0.0000)

Unit cell:
           periodic     x           y           z      points  spacing
  1. axis:    yes   10.460000    0.000000    0.000000    60     0.1743
  2. axis:    yes    0.000000    6.100000    0.000000    35     0.1743
  3. axis:    yes    0.000000    0.000000    4.740000    27     0.1756

  Lengths:  10.460000   6.100000   4.740000
  Angles:   90.000000  90.000000  90.000000

Effective grid spacing dv^(1/3) = 0.1747

                     log10-error:           total        iterations:
           time      wfs    density  force  energy       poisson  magmom
iter:   1  15:40:50                       -231.920285             +0.0000
iter:   2  15:41:12  -0.55  -0.94         -231.731276             +0.0049
iter:   3  15:41:33  -0.72  -0.98         -220.584638             +0.0062
iter:   4  15:41:54  -0.96  -1.20         -218.866384             +0.0020
iter:   5  15:42:16  -1.93  -1.36         -221.138192             +0.0013
iter:   6  15:42:37  -1.97  -1.51         -219.907501             +0.0007
iter:   7  15:42:58  -2.24  -1.67         -222.132566             +0.0122
iter:   8  15:43:19  -2.76  -1.90         -219.516724             +0.0152
iter:   9  15:43:41  -2.47  -1.97         -222.299323             +0.3876
iter:  10  15:44:02  -2.26  -1.96         -225.628588             +1.5637
iter:  11  15:44:23  -2.79  -1.87         -226.934544             +0.6266
iter:  12  15:44:44  -2.44  -1.83         -227.152395             -0.0999
iter:  13  15:45:05  -2.37  -1.88         -226.839234             -0.0245
iter:  14  15:45:27  -2.33  -1.95         -226.584976             -0.0199
iter:  15  15:45:48  -2.08  -2.07         -226.607132             -0.0074
iter:  16  15:46:09  -2.90  -2.30         -226.388453             -0.0104
iter:  17  15:46:30  -2.83  -2.43         -226.286378             -0.0045
iter:  18  15:46:52  -2.62  -2.58         -226.305733             -0.0010
iter:  19  15:47:13  -2.99  -2.68         -226.258692             -0.0005
iter:  20  15:47:34  -3.17  -2.65         -226.238243             -0.0002
iter:  21  15:47:55  -3.97  -2.85         -226.240273             -0.0001
iter:  22  15:48:16  -3.94  -2.87         -226.229512             -0.0000
iter:  23  15:48:38  -3.64  -2.96         -226.239936             -0.0000
iter:  24  15:48:59  -4.39  -3.08         -226.240983             -0.0000
iter:  25  15:49:20  -4.29  -3.03         -226.235162             +0.0000
iter:  26  15:49:41  -4.19  -3.14         -226.230315             +0.0000
iter:  27  15:50:02  -4.25  -3.20         -226.227550             +0.0000
iter:  28  15:50:24  -5.15  -3.84         -226.227617             -0.0000
iter:  29  15:50:45  -5.77  -3.92         -226.227677             -0.0000
iter:  30  15:51:06  -5.50  -4.04         -226.227694             -0.0000
iter:  31  15:51:27  -6.12  -4.09         -226.227672             +0.0000
iter:  32  15:51:49  -6.85  -4.23         -226.227673             -0.0000
iter:  33  15:52:10  -6.58  -4.28         -226.227660             -0.0000
iter:  34  15:52:31  -7.29  -4.34         -226.227659             -0.0000
iter:  35  15:52:52  -7.05  -4.37         -226.227662             -0.0000
iter:  36  15:53:13  -7.29  -4.45         -226.227662             +0.0000
iter:  37  15:53:40  -7.75  -4.51         -226.227661             +0.0000
iter:  38  15:54:01  -7.20  -4.56         -226.227660             +0.0000
iter:  39  15:54:28  -7.84  -4.66    -2.49-226.227659             +0.0000
iter:  40  15:54:55  -7.72  -4.70    -2.66-226.227659             +0.0000
iter:  41  15:55:21  -7.71  -4.77    -2.44-226.227659             +0.0000
iter:  42  15:55:48  -8.55  -4.91    -3.44-226.227659             +0.0000
iter:  43  15:56:15  -7.82  -4.96    -2.98-226.227658             -0.0000
iter:  44  15:56:41  -8.52  -5.08    -3.33-226.227658             +0.0000
iter:  45  15:57:08  -8.73  -5.10    -3.02-226.227658             +0.0000
iter:  46  15:57:35  -9.27  -5.14    -3.67-226.227658             +0.0000
iter:  47  15:58:02  -8.40  -5.17    -3.04-226.227658             +0.0000
iter:  48  15:58:28  -8.86  -5.34    -3.25-226.227658             -0.0000
iter:  49  15:58:55  -8.96  -5.42    -3.38-226.227658             -0.0000
iter:  50  15:59:22  -9.87  -5.54    -3.72-226.227658             -0.0000
iter:  51  15:59:48  -9.23  -5.61    -3.40-226.227658             -0.0000
iter:  52  16:00:15 -10.02  -5.90    -3.96-226.227658             -0.0000
iter:  53  16:00:42 -10.20  -5.98    -3.82-226.227658             -0.0000
iter:  54  16:01:08 -10.85  -6.10    -4.18-226.227658             -0.0000
iter:  55  16:01:35 -10.14  -6.15    -3.82-226.227658             -0.0000
iter:  56  16:02:02 -11.21  -6.35    -4.47-226.227658             -0.0000
iter:  57  16:02:28 -10.64  -6.38    -4.46-226.227658             -0.0000
iter:  58  16:02:55 -11.22  -6.43    -4.41-226.227658             -0.0000
iter:  59  16:03:22 -11.18  -6.50    -4.42-226.227658             -0.0000
iter:  60  16:03:49 -11.97  -6.52    -4.57-226.227658             -0.0000
iter:  61  16:04:16 -11.79  -6.57    -4.55-226.227658             -0.0000
iter:  62  16:04:42 -11.83  -6.72    -4.90-226.227658             -0.0000
iter:  63  16:05:09 -12.40  -6.77    -5.11-226.227658             -0.0000
iter:  64  16:05:36 -11.29  -6.83    -4.68-226.227658             -0.0000
iter:  65  16:06:02 -12.49  -6.99    -4.92-226.227658             -0.0000
iter:  66  16:06:29 -12.43  -7.04    -5.01-226.227658             -0.0000
iter:  67  16:06:56 -12.98  -7.07    -5.04-226.227658             -0.0000
iter:  68  16:07:23 -13.31  -7.12    -5.39-226.227658             -0.0000
iter:  69  16:07:49 -12.53  -7.15    -5.27-226.227658             -0.0000
iter:  70  16:08:16 -12.41  -7.21    -5.01-226.227658             -0.0000
iter:  71  16:08:43 -13.06  -7.38    -5.35-226.227658             -0.0000
iter:  72  16:09:09 -13.10  -7.46    -5.56-226.227658             -0.0000
iter:  73  16:09:36 -13.51  -7.56    -5.58-226.227658             -0.0000
iter:  74  16:10:03 -13.60  -7.60    -5.67-226.227658             -0.0000
iter:  75  16:10:29 -14.63  -7.79    -6.17-226.227658             -0.0000

Converged after 75 iterations.

Dipole moment: (10.671452, 1.437208, -6.269786) |e|*Ang

Total magnetic moment: (0.000000, 0.000000, -0.000000)
Local magnetic moments:
   0 O  ( 0.000000,  0.000000, -0.000905)
   1 O  ( 0.000000,  0.000000,  0.000025)
   2 O  ( 0.000000,  0.000000,  0.000536)
   3 O  ( 0.000000,  0.000000, -0.000568)
   4 O  ( 0.000000,  0.000000,  0.000519)
   5 O  ( 0.000000,  0.000000, -0.000520)
   6 O  ( 0.000000,  0.000000, -0.000155)
   7 O  ( 0.000000,  0.000000,  0.001068)
   8 O  ( 0.000000,  0.000000,  0.028694)
   9 O  ( 0.000000,  0.000000, -0.028702)
  10 O  ( 0.000000,  0.000000, -0.028692)
  11 O  ( 0.000000,  0.000000,  0.028702)
  12 Mn ( 0.000000,  0.000000,  4.448114)
  13 Mn ( 0.000000,  0.000000, -4.448233)
  14 Mn ( 0.000000,  0.000000, -4.448161)
  15 Mn ( 0.000000,  0.000000,  4.448242)
  16 P  ( 0.000000,  0.000000,  0.001559)
  17 P  ( 0.000000,  0.000000, -0.001540)
  18 P  ( 0.000000,  0.000000, -0.001557)
  19 P  ( 0.000000,  0.000000,  0.001543)
  20 O  ( 0.000000,  0.000000,  0.025317)
  21 O  ( 0.000000,  0.000000, -0.025305)
  22 O  ( 0.000000,  0.000000, -0.025315)
  23 O  ( 0.000000,  0.000000,  0.025306)
  24 Li ( 0.000000,  0.000000, -0.000001)
  25 Li ( 0.000000,  0.000000,  0.000006)
  26 Li ( 0.000000,  0.000000,  0.000002)
  27 Li ( 0.000000,  0.000000, -0.000005)

Energy contributions relative to reference atoms: (reference = -196157.275402)

Kinetic:       +217.355628
Potential:     -195.240071
External:        +0.000000
XC:            -250.384349
Entropy (-ST):   -0.000000
Local:           +2.041134
--------------------------
Free energy:   -226.227658
Extrapolated:  -226.227658

Spin contamination: 9.560406 electrons
Showing only first 2 kpts
                      Up                     Down
 Kpt  Band  Eigenvalues  Occupancy  Eigenvalues  Occupancy
  0    88      5.10991    1.00000      5.10985    1.00000
  0    89      5.13481    1.00000      5.13446    1.00000
  0    90      7.28860    0.00000      7.28868    0.00000
  0    91      7.30631    0.00000      7.30636    0.00000

  1    88      5.13596    1.00000      5.13559    1.00000
  1    89      5.16503    1.00000      5.16487    1.00000
  1    90      7.23140    0.00000      7.23147    0.00000
  1    91      7.24360    0.00000      7.24367    0.00000


Fermi level: 6.21555

Gap: 1.972 eV
Transition (v -> c):
  (s=0, k=70, n=89, [-0.08, 0.42, 0.12]) -> (s=0, k=57, n=90, [-0.08, -0.08, -0.12])
Writing to born-0.01-12y+.gpw (mode='all')

Timing:                              incl.     excl.
-----------------------------------------------------------
Hamiltonian:                         0.254     0.003   0.0% |
 Atomic:                             0.068     0.068   0.0% |
  XC Correction:                     0.000     0.000   0.0% |
 Calculate atomic Hamiltonians:      0.091     0.091   0.0% |
 Communicate:                        0.000     0.000   0.0% |
 Initialize Hamiltonian:             0.000     0.000   0.0% |
 Poisson:                            0.001     0.001   0.0% |
 XC 3D grid:                         0.091     0.091   0.0% |
LCAO initialization:                70.399     0.676   0.0% |
 LCAO eigensolver:                  17.992     0.002   0.0% |
  Calculate projections:             0.029     0.029   0.0% |
  DenseAtomicCorrection:             0.043     0.043   0.0% |
  Distribute overlap matrix:         0.009     0.009   0.0% |
  Orbital Layouts:                   0.278     0.278   0.0% |
  Potential matrix:                 17.546    17.546   0.4% |
  Sum over cells:                    0.086     0.086   0.0% |
 LCAO to grid:                      50.447    50.447   1.2% |
 Set positions (LCAO WFS):           1.284     0.180   0.0% |
  Basic WFS set positions:           0.002     0.002   0.0% |
  Basis functions set positions:     0.000     0.000   0.0% |
  P tci:                             0.516     0.516   0.0% |
  ST tci:                            0.372     0.372   0.0% |
  mktci:                             0.215     0.215   0.0% |
PWDescriptor:                        0.025     0.025   0.0% |
SCF-cycle:                        1802.004     8.616   0.2% |
 Davidson:                        1504.004   482.912  11.8% |----|
  Apply H:                          99.523    96.614   2.4% ||
   HMM T:                            2.909     2.909   0.1% |
  Subspace diag:                   215.606     0.223   0.0% |
   calc_h_matrix:                  137.259    37.677   0.9% |
    Apply H:                        99.582    96.741   2.4% ||
     HMM T:                          2.841     2.841   0.1% |
   diagonalize:                      7.709     7.709   0.2% |
   rotate_psi:                      70.415    70.415   1.7% ||
  calc. matrices:                  449.537   251.767   6.2% |-|
   Apply H:                        197.770   192.016   4.7% |-|
    HMM T:                           5.754     5.754   0.1% |
  diagonalize:                     116.080   116.080   2.8% ||
  rotate_psi:                      140.347   140.347   3.4% ||
 Density:                           59.761     0.002   0.0% |
  Atomic density matrices:           0.985     0.985   0.0% |
  Mix:                              10.243    10.243   0.3% |
  Multipole moments:                 0.026     0.026   0.0% |
  Pseudo density:                   48.505    48.503   1.2% |
   Symmetrize density:               0.002     0.002   0.0% |
 Forces:                           208.957   208.957   5.1% |-|
 Hamiltonian:                       18.370     0.157   0.0% |
  Atomic:                            4.225     4.224   0.1% |
   XC Correction:                    0.000     0.000   0.0% |
  Calculate atomic Hamiltonians:     7.061     7.061   0.2% |
  Communicate:                       0.019     0.019   0.0% |
  Poisson:                           0.068     0.068   0.0% |
  XC 3D grid:                        6.839     6.839   0.2% |
 Orthonormalize:                     2.296     0.004   0.0% |
  calc_s_matrix:                     0.270     0.270   0.0% |
  inverse-cholesky:                  0.040     0.040   0.0% |
  projections:                       1.496     1.496   0.0% |
  rotate_psi_s:                      0.486     0.486   0.0% |
Set symmetry:                        0.000     0.000   0.0% |
Other:                            2218.271  2218.271  54.2% |---------------------|
-----------------------------------------------------------
Total:                                      4090.952 100.0%

Memory usage: 12.53 GiB
Date: Tue Mar 30 16:47:27 2021
