
  ___ ___ ___ _ _ _  
 |   |   |_  | | | | 
 | | | | | . | | | | 
 |__ |  _|___|_____|  20.10.1b1
 |___|_|             

User:   madkru@g064.nifl.fysik.dtu.dk
Date:   Mon Mar 22 14:37:42 2021
Arch:   x86_64
Pid:    60512
Python: 3.7.4
gpaw:   /home/niflheim/madkru/venv_folder/gpaw/gpaw (d0d1ca1c71)
_gpaw:  /home/niflheim/madkru/venv_folder/gpaw/build/lib.linux-x86_64-sandybridge-3.7/
        _gpaw.cpython-37m-x86_64-linux-gnu.so (4fd39e8b1e)
ase:    /home/niflheim/madkru/venv_folder/ase/ase (version 3.21.0b1-7e6c206a91)
numpy:  /home/niflheim/madkru/venv_folder/lib/python3.7/site-packages/numpy (version 1.19.4)
scipy:  /home/niflheim/madkru/venv_folder/lib/python3.7/site-packages/scipy (version 1.5.4)
libxc:  4.3.4
units:  Angstrom and eV
cores: 32
OMP_NUM_THREADS: 1

Input parameters:
  convergence: {bands: occupied,
                density: 0.0001,
                eigenstates: 4e-08,
                energy: 0.0005,
                forces: 1e-06}
  kpts: [6 6 4]
  mode: {ecut: 600.0,
         gammacentered: False,
         name: pw}
  occupations: {fixmagmom: False,
                name: fermi-dirac,
                width: 0.001}
  symmetry: {point_group: False,
             time_reversal: False}

System changes: positions, numbers, cell, pbc, initial_charges, initial_magmoms 

Initialize ...

O-setup:
  name: Oxygen
  id: 9b9d51c344dea68c822856295a461509
  Z: 8.0
  valence: 6
  core: 2
  charge: 0.0
  file: /home/modules/software/GPAW-setups/0.9.20000/O.LDA.gz
  compensation charges: gauss, rc=0.21, lmax=2
  cutoffs: 1.17(filt), 0.83(core),
  valence states:
                energy  radius
    2s(2.00)   -23.752   0.688
    2p(4.00)    -9.195   0.598
    *s           3.459   0.688
    *p          18.016   0.598
    *d           0.000   0.619

  Using partial waves for O as LCAO basis

Mn-setup:
  name: Manganese
  id: 0d715a8018be061a6e9ea6f2d364ac92
  Z: 25.0
  valence: 15
  core: 10
  charge: 0.0
  file: /home/modules/software/GPAW-setups/0.9.20000/Mn.LDA.gz
  compensation charges: gauss, rc=0.38, lmax=2
  cutoffs: 2.14(filt), 0.86(core),
  valence states:
                energy  radius
    3s(2.00)   -85.387   1.275
    4s(2.00)    -5.282   1.275
    3p(6.00)   -54.493   1.281
    4p(0.00)    -1.471   1.281
    3d(5.00)    -7.009   1.138
    *d          20.203   1.138

  Using partial waves for Mn as LCAO basis

P-setup:
  name: Phosphorus
  id: a5561c299094968922a179ab894d2e2d
  Z: 15.0
  valence: 5
  core: 10
  charge: 0.0
  file: /home/modules/software/GPAW-setups/0.9.20000/P.LDA.gz
  compensation charges: gauss, rc=0.30, lmax=2
  cutoffs: 1.69(filt), 1.81(core),
  valence states:
                energy  radius
    3s(2.00)   -14.015   0.953
    3p(3.00)    -5.596   0.953
    *s          13.197   0.953
    *p          21.615   0.953
    *d           0.000   0.953

  Using partial waves for P as LCAO basis

Li-setup:
  name: Lithium
  id: b73562207f97a71b6967473b66fe8b65
  Z: 3.0
  valence: 1
  core: 2
  charge: 0.0
  file: /home/modules/software/GPAW-setups/0.9.20000/Li.LDA.gz
  compensation charges: gauss, rc=0.33, lmax=2
  cutoffs: 1.91(filt), 2.55(core),
  valence states:
                energy  radius
    2s(1.00)    -2.874   1.058
    2p(0.00)    -1.126   1.058
    *s          24.338   1.058

  Using partial waves for Li as LCAO basis

Reference energy: -196157.275402

Spin-polarized calculation.
Magnetic moment: 0.000000

Convergence criteria:
  Maximum total energy change: 0.0005 eV / electron
  Maximum integral of absolute density change: 0.0001 electrons
  Maximum integral of absolute eigenstate change: 4e-08 eV^2
  Maximum change in atomic force: 1e-06 eV / Ang
  Maximum number of iterations: 333

Symmetries present (total): 1

  ( 1  0  0)
  ( 0  1  0)
  ( 0  0  1)

144 k-points: 6 x 6 x 4 Monkhorst-Pack grid
144 k-points in the irreducible part of the Brillouin zone
       k-points in crystal coordinates                weights
   0:    -0.41666667   -0.41666667   -0.37500000          1/144
   1:    -0.41666667   -0.41666667   -0.12500000          1/144
   2:    -0.41666667   -0.41666667    0.12500000          1/144
   3:    -0.41666667   -0.41666667    0.37500000          1/144
   4:    -0.41666667   -0.25000000   -0.37500000          1/144
   5:    -0.41666667   -0.25000000   -0.12500000          1/144
   6:    -0.41666667   -0.25000000    0.12500000          1/144
   7:    -0.41666667   -0.25000000    0.37500000          1/144
   8:    -0.41666667   -0.08333333   -0.37500000          1/144
   9:    -0.41666667   -0.08333333   -0.12500000          1/144
          ...
 143:     0.41666667    0.41666667    0.37500000          1/144

Wave functions: Plane wave expansion
  Cutoff energy: 600.000 eV
  Number of coefficients (min, max): 10068, 10125
  Pulay-stress correction: 0.000000 eV/Ang^3 (de/decut=0.000000)
  Using FFTW library
  ScaLapack parameters: grid=1x1, blocksize=None
  Wavefunction extrapolation:
    Improved wavefunction reuse through dual PAW basis 

  Fermi-Dirac: width=0.0010 eV

Eigensolver
   Davidson(niter=2, smin=None, normalize=True) 

Densities:
  Coarse grid: 60*35*27 grid
  Fine grid: 120*70*54 grid
  Total Charge: 0.000000 

Density mixing:
  Method: difference
  Backend: pulay
  Linear mixing parameter: 0.05
  Mixing with 5 old densities
  Damping of long wave oscillations: 50 

Hamiltonian:
  XC and Coulomb potentials evaluated on a 120*70*54 grid
  Using the LDA Exchange-Correlation functional
 

Memory estimate:
  Process memory now: 13288.76 MiB
  Calculator: 375.55 MiB
    Density: 20.02 MiB
      Arrays: 7.57 MiB
      Localized functions: 9.42 MiB
      Mixer: 3.03 MiB
    Hamiltonian: 5.90 MiB
      Arrays: 5.62 MiB
      XC: 0.00 MiB
      Poisson: 0.00 MiB
      vbar: 0.27 MiB
    Wavefunctions: 349.64 MiB
      Arrays psit_nG: 311.46 MiB
      Eigensolver: 19.99 MiB
      Projections: 5.41 MiB
      Projectors: 9.73 MiB
      PW-descriptor: 3.03 MiB

Total number of cores used: 32
Parallelization over k-points: 16
Domain decomposition: 2 x 1 x 1

Number of atoms: 28
Number of atomic orbitals: 148
Number of bands in calculation: 112
Number of valence electrons: 180
Bands to converge: occupied

... initialized

Initializing position-dependent things.

Density initialized from atomic densities
Creating initial wave functions:
  112 bands from LCAO basis set

     .-------------------------.  
    /|         OP              |  
   / |O            O        O  |  
  /  |       O            O  P |  
 *   |O    Mn      O           |  
 |   |          OLi          O |  
 |   .P-O--------------Mn------.  
 |  /          Li    O  Mn  O /   
 | /Li O           PO        /    
 |/       Mn                /     
 *Li-----------------------*      

Positions:
   0 O     -1.360678   -2.541161   -1.202221    ( 0.0000,  0.0000,  0.0000)
   1 O     -3.121941    2.976855    1.167242    ( 0.0000,  0.0000,  0.0000)
   2 O      2.107533    0.508090    1.540712    ( 0.0000,  0.0000,  0.0000)
   3 O      3.869373   -0.072395   -0.828750    ( 0.0000,  0.0000,  0.0000)
   4 O      2.107821    2.976875    1.540792    ( 0.0000,  0.0000,  0.0000)
   5 O      3.869084   -2.541141   -0.828671    ( 0.0000,  0.0000,  0.0000)
   6 O     -1.360390   -0.062375   -1.202141    ( 0.0000,  0.0000,  0.0000)
   7 O     -3.122230    0.508109    1.167321    ( 0.0000,  0.0000,  0.0000)
   8 O     -4.413461   -1.306992   -0.794251    ( 0.0000,  0.0000,  0.0000)
   9 O     -0.069585    1.742707    1.575662    ( 0.0000,  0.0000,  0.0000)
  10 O      5.160604    1.742707    1.132822    ( 0.0000,  0.0000,  0.0000)
  11 O      0.816728   -1.306992   -1.237091    ( 0.0000,  0.0000,  0.0000)
  12 Mn    -2.570809   -1.307302    0.247161    ( 0.0000,  0.0000,  1.0000)
  13 Mn    -1.912021    1.743016   -2.122906    ( 0.0000,  0.0000, -1.0000)
  14 Mn     3.317952    1.743017    0.091411    ( 0.0000,  0.0000, -1.0000)
  15 Mn     2.659164   -1.307302    2.461478    ( 0.0000,  0.0000,  1.0000)
  16 P     -0.620664   -1.306816   -1.828465    ( 0.0000,  0.0000,  0.0000)
  17 P     -3.862097    1.742530    0.541238    ( 0.0000,  0.0000,  0.0000)
  18 P      1.367807    1.742530    2.167036    ( 0.0000,  0.0000,  0.0000)
  19 P      4.609240   -1.306816   -0.202666    ( 0.0000,  0.0000,  0.0000)
  20 O     -0.646437   -1.306845    1.374751    ( 0.0000,  0.0000,  0.0000)
  21 O     -3.836504    1.742559   -0.995565    ( 0.0000,  0.0000,  0.0000)
  22 O      1.393580    1.742559   -1.036179    ( 0.0000,  0.0000,  0.0000)
  23 O      4.583647   -1.306845    1.334136    ( 0.0000,  0.0000,  0.0000)
  24 Li    -4.856429   -2.832143   -2.200714    ( 0.0000,  0.0000,  0.0000)
  25 Li     0.373571   -2.832143    0.169286    ( 0.0000,  0.0000,  0.0000)
  26 Li    -4.856429    0.217857   -2.200714    ( 0.0000,  0.0000,  0.0000)
  27 Li     0.373571    0.217857    0.169286    ( 0.0000,  0.0000,  0.0000)

Unit cell:
           periodic     x           y           z      points  spacing
  1. axis:    yes   10.460000    0.000000    0.000000    60     0.1743
  2. axis:    yes    0.000000    6.100000    0.000000    35     0.1743
  3. axis:    yes    0.000000    0.000000    4.740000    27     0.1756

  Lengths:  10.460000   6.100000   4.740000
  Angles:   90.000000  90.000000  90.000000

Effective grid spacing dv^(1/3) = 0.1747

                     log10-error:           total        iterations:
           time      wfs    density  force  energy       poisson  magmom
iter:   1  14:40:45                       -231.921984             +0.0000
iter:   2  14:41:25  -0.55  -0.94         -231.718078             +0.0145
iter:   3  14:42:04  -0.72  -0.98         -220.586522             +0.0182
iter:   4  14:42:44  -0.96  -1.20         -218.871333             +0.0060
iter:   5  14:43:23  -1.92  -1.36         -221.044064             +0.0039
iter:   6  14:44:03  -1.92  -1.52         -220.209768             +0.0021
iter:   7  14:44:42  -2.15  -1.61         -224.022275             +0.0009
iter:   8  14:45:22  -2.57  -1.88         -222.466486             +0.0006
iter:   9  14:46:01  -2.08  -1.87         -226.825823             +0.0004
iter:  10  14:46:40  -2.30  -1.81         -228.118065             +0.0001
iter:  11  14:47:20  -1.13  -1.76         -227.069575             +0.0000
iter:  12  14:47:59  -2.36  -2.07         -226.816436             +0.0000
iter:  13  14:48:39  -2.40  -2.09         -226.402915             +0.0000
iter:  14  14:49:18  -2.69  -2.24         -226.341894             +0.0000
iter:  15  14:49:58  -3.35  -2.30         -226.298741             +0.0000
iter:  16  14:50:37  -2.58  -2.34         -226.246250             +0.0000
iter:  17  14:51:16  -3.20  -2.44         -226.230855             +0.0000
iter:  18  14:51:56  -3.67  -2.76         -226.237573             +0.0000
iter:  19  14:52:35  -3.74  -2.89         -226.232683             -0.0000
iter:  20  14:53:15  -3.65  -3.01         -226.229856             +0.0000
iter:  21  14:53:54  -4.95  -3.44         -226.228642             -0.0000
iter:  22  14:54:33  -4.29  -3.50         -226.226643             +0.0000
iter:  23  14:55:13  -5.36  -3.76         -226.226670             +0.0000
iter:  24  14:55:52  -5.59  -3.91         -226.226819             +0.0000
iter:  25  14:56:31  -5.70  -4.01         -226.226643             +0.0000
iter:  26  14:57:11  -6.24  -4.24         -226.226642             +0.0000
iter:  27  14:57:50  -7.20  -4.28         -226.226639             +0.0000
iter:  28  14:58:29  -6.23  -4.35         -226.226663             +0.0000
iter:  29  14:59:09  -6.43  -4.39         -226.226634             +0.0000
iter:  30  14:59:48  -7.29  -4.93         -226.226634             +0.0000
iter:  31  15:00:38  -8.19  -4.98         -226.226634             -0.0000
iter:  32  15:01:28  -8.35  -5.04    -2.94-226.226633             -0.0000
iter:  33  15:02:18  -8.77  -5.12    -3.54-226.226633             -0.0000
iter:  34  15:03:09  -8.81  -5.15    -3.35-226.226633             -0.0000
iter:  35  15:03:59  -9.23  -5.24    -3.48-226.226633             +0.0000
iter:  36  15:04:48  -8.51  -5.32    -3.16-226.226633             +0.0000
iter:  37  15:05:38  -8.80  -5.38    -3.30-226.226633             +0.0000
iter:  38  15:06:28  -9.39  -5.89    -3.80-226.226633             +0.0000
iter:  39  15:07:18  -9.30  -6.02    -3.57-226.226633             +0.0000
iter:  40  15:08:08 -10.14  -6.23    -4.08-226.226633             +0.0000
iter:  41  15:08:58 -10.85  -6.45    -4.39-226.226633             +0.0000
iter:  42  15:09:48 -10.60  -6.47    -4.33-226.226633             +0.0000
iter:  43  15:10:38 -11.36  -6.72    -4.62-226.226633             +0.0000
iter:  44  15:11:28 -11.77  -6.75    -4.74-226.226633             +0.0000
iter:  45  15:12:18 -11.84  -6.91    -4.87-226.226633             +0.0000
iter:  46  15:13:08 -12.45  -6.95    -5.41-226.226633             +0.0000
iter:  47  15:13:58 -11.47  -6.97    -4.51-226.226633             -0.0000
iter:  48  15:14:48 -12.58  -7.31    -5.14-226.226633             +0.0000
iter:  49  15:15:38 -13.23  -7.49    -5.63-226.226633             +0.0000
iter:  50  15:16:28 -13.45  -7.54    -5.80-226.226633             -0.0000
iter:  51  15:17:18 -13.14  -7.65    -5.57-226.226633             -0.0000
iter:  52  15:18:07 -14.13  -7.70    -5.98-226.226633             -0.0000
iter:  53  15:18:57 -14.44  -7.75    -5.87-226.226633             +0.0000
iter:  54  15:19:47 -14.31  -7.84    -6.10-226.226633             -0.0000

Converged after 54 iterations.

Dipole moment: (10.669370, 0.942524, -6.269870) |e|*Ang

Total magnetic moment: (0.000000, 0.000000, -0.000000)
Local magnetic moments:
   0 O  ( 0.000000,  0.000000, -0.000378)
   1 O  ( 0.000000,  0.000000,  0.000753)
   2 O  ( 0.000000,  0.000000,  0.000553)
   3 O  ( 0.000000,  0.000000, -0.000541)
   4 O  ( 0.000000,  0.000000,  0.000526)
   5 O  ( 0.000000,  0.000000, -0.000524)
   6 O  ( 0.000000,  0.000000, -0.000930)
   7 O  ( 0.000000,  0.000000,  0.000521)
   8 O  ( 0.000000,  0.000000,  0.028704)
   9 O  ( 0.000000,  0.000000, -0.028712)
  10 O  ( 0.000000,  0.000000, -0.028710)
  11 O  ( 0.000000,  0.000000,  0.028492)
  12 Mn ( 0.000000,  0.000000,  4.447970)
  13 Mn ( 0.000000,  0.000000, -4.446868)
  14 Mn ( 0.000000,  0.000000, -4.448175)
  15 Mn ( 0.000000,  0.000000,  4.448137)
  16 P  ( 0.000000,  0.000000,  0.001250)
  17 P  ( 0.000000,  0.000000, -0.001557)
  18 P  ( 0.000000,  0.000000, -0.001575)
  19 P  ( 0.000000,  0.000000,  0.001536)
  20 O  ( 0.000000,  0.000000,  0.025187)
  21 O  ( 0.000000,  0.000000, -0.025348)
  22 O  ( 0.000000,  0.000000, -0.025314)
  23 O  ( 0.000000,  0.000000,  0.025328)
  24 Li ( 0.000000,  0.000000, -0.000001)
  25 Li ( 0.000000,  0.000000, -0.000001)
  26 Li ( 0.000000,  0.000000, -0.000001)
  27 Li ( 0.000000,  0.000000, -0.000017)

Energy contributions relative to reference atoms: (reference = -196157.275402)

Kinetic:       +216.845829
Potential:     -194.845240
External:        +0.000000
XC:            -250.269338
Entropy (-ST):   -0.000000
Local:           +2.042116
--------------------------
Free energy:   -226.226633
Extrapolated:  -226.226633

Spin contamination: 9.559422 electrons
Showing only first 2 kpts
                      Up                     Down
 Kpt  Band  Eigenvalues  Occupancy  Eigenvalues  Occupancy
  0    88      5.10725    0.00694      5.11531    0.00694
  0    89      5.13153    0.00694      5.14170    0.00694
  0    90      7.29196    0.00000      7.28586    0.00000
  0    91      7.31239    0.00000      7.30385    0.00000

  1    88      5.13295    0.00694      5.14137    0.00694
  1    89      5.16185    0.00694      5.17178    0.00694
  1    90      7.23431    0.00000      7.22778    0.00000
  1    91      7.24990    0.00000      7.24083    0.00000


Fermi level: 5.99595

Gap: 1.962 eV
Transition (v -> c):
  (s=1, k=50, n=89, [-0.08, -0.42, 0.12]) -> (s=1, k=57, n=90, [-0.08, -0.08, -0.12])
Writing to born-0.01-6y+.gpw (mode='all')

Timing:                              incl.     excl.
-----------------------------------------------------------
Hamiltonian:                         0.414     0.003   0.0% |
 Atomic:                             0.067     0.067   0.0% |
  XC Correction:                     0.000     0.000   0.0% |
 Calculate atomic Hamiltonians:      0.176     0.176   0.0% |
 Communicate:                        0.001     0.001   0.0% |
 Initialize Hamiltonian:             0.000     0.000   0.0% |
 Poisson:                            0.002     0.002   0.0% |
 XC 3D grid:                         0.165     0.165   0.0% |
LCAO initialization:               134.125     0.677   0.0% |
 LCAO eigensolver:                  33.876     0.002   0.0% |
  Calculate projections:             0.057     0.057   0.0% |
  DenseAtomicCorrection:             0.083     0.083   0.0% |
  Distribute overlap matrix:         0.070     0.070   0.0% |
  Orbital Layouts:                   0.363     0.363   0.0% |
  Potential matrix:                 33.215    33.215   0.5% |
  Sum over cells:                    0.087     0.087   0.0% |
 LCAO to grid:                      97.301    97.301   1.5% ||
 Set positions (LCAO WFS):           2.271     0.348   0.0% |
  Basic WFS set positions:           0.001     0.001   0.0% |
  Basis functions set positions:     0.000     0.000   0.0% |
  P tci:                             1.060     1.060   0.0% |
  ST tci:                            0.655     0.655   0.0% |
  mktci:                             0.205     0.205   0.0% |
PWDescriptor:                        0.025     0.025   0.0% |
SCF-cycle:                        2389.342    19.359   0.3% |
 Davidson:                        2008.054   658.671  10.3% |---|
  Apply H:                         137.736   133.507   2.1% ||
   HMM T:                            4.229     4.229   0.1% |
  Subspace diag:                   295.028     0.169   0.0% |
   calc_h_matrix:                  190.194    53.255   0.8% |
    Apply H:                       136.939   132.814   2.1% ||
     HMM T:                          4.124     4.124   0.1% |
   diagonalize:                      6.542     6.542   0.1% |
   rotate_psi:                      98.123    98.123   1.5% ||
  calc. matrices:                  627.870   356.668   5.6% |-|
   Apply H:                        271.202   263.169   4.1% |-|
    HMM T:                           8.034     8.034   0.1% |
  diagonalize:                      89.423    89.423   1.4% ||
  rotate_psi:                      199.325   199.325   3.1% ||
 Density:                           80.199     0.001   0.0% |
  Atomic density matrices:           1.406     1.406   0.0% |
  Mix:                              13.039    13.039   0.2% |
  Multipole moments:                 0.032     0.032   0.0% |
  Pseudo density:                   65.721    65.719   1.0% |
   Symmetrize density:               0.002     0.002   0.0% |
 Forces:                           254.937   254.937   4.0% |-|
 Hamiltonian:                       22.384     0.129   0.0% |
  Atomic:                            2.912     2.911   0.0% |
   XC Correction:                    0.000     0.000   0.0% |
  Calculate atomic Hamiltonians:     9.679     9.679   0.2% |
  Communicate:                       0.092     0.092   0.0% |
  Poisson:                           0.088     0.088   0.0% |
  XC 3D grid:                        9.484     9.484   0.1% |
 Orthonormalize:                     4.410     0.004   0.0% |
  calc_s_matrix:                     0.522     0.522   0.0% |
  inverse-cholesky:                  0.055     0.055   0.0% |
  projections:                       2.897     2.897   0.0% |
  rotate_psi_s:                      0.932     0.932   0.0% |
Set symmetry:                        0.000     0.000   0.0% |
Other:                            3888.319  3888.319  60.6% |-----------------------|
-----------------------------------------------------------
Total:                                      6412.226 100.0%

Memory usage: 12.98 GiB
Date: Mon Mar 22 16:24:34 2021
