
  ___ ___ ___ _ _ _  
 |   |   |_  | | | | 
 | | | | | . | | | | 
 |__ |  _|___|_____|  21.1.1b1
 |___|_|             

User:   madkru@g043.nifl.fysik.dtu.dk
Date:   Tue Mar 30 20:55:22 2021
Arch:   x86_64
Pid:    39387
Python: 3.8.6
gpaw:   /home/niflheim/madkru/venv_madkru/gpaw/gpaw (e6f0d78a31)
_gpaw:  /home/niflheim/madkru/venv_madkru/gpaw/build/lib.linux-x86_64-sandybridge-3.8/
        _gpaw.cpython-38-x86_64-linux-gnu.so (e6f0d78a31)
ase:    /home/niflheim/madkru/venv_madkru/ase/ase (version 3.22.0b1-4d5a73cb29)
numpy:  /home/modules/software/SciPy-bundle/2020.11-foss-2020b/lib/python3.8/site-packages/numpy (version 1.19.4)
scipy:  /home/modules/software/SciPy-bundle/2020.11-foss-2020b/lib/python3.8/site-packages/scipy (version 1.5.4)
libxc:  4.3.4
units:  Angstrom and eV
cores: 64
OpenMP: False
OMP_NUM_THREADS: 1

Input parameters:
  convergence: {bands: occupied,
                density: 0.0001,
                eigenstates: 4e-08,
                energy: 0.0005,
                forces: 1e-06}
  kpts: [6 6 4]
  maxiter: 1000
  mode: {ecut: 600.0,
         gammacentered: False,
         name: pw}
  occupations: {fixmagmom: False,
                name: fermi-dirac,
                width: 0.001}
  symmetry: {point_group: False,
             time_reversal: False}

System changes: positions, numbers, cell, pbc, initial_charges, initial_magmoms 

Initialize ...

O-setup:
  name: Oxygen
  id: 9b9d51c344dea68c822856295a461509
  Z: 8.0
  valence: 6
  core: 2
  charge: 0.0
  file: /home/modules/software/GPAW-setups/0.9.20000/O.LDA.gz
  compensation charges: gauss, rc=0.21, lmax=2
  cutoffs: 1.17(filt), 0.83(core),
  valence states:
                energy  radius
    2s(2.00)   -23.752   0.688
    2p(4.00)    -9.195   0.598
    *s           3.459   0.688
    *p          18.016   0.598
    *d           0.000   0.619

  Using partial waves for O as LCAO basis

Mn-setup:
  name: Manganese
  id: 0d715a8018be061a6e9ea6f2d364ac92
  Z: 25.0
  valence: 15
  core: 10
  charge: 0.0
  file: /home/modules/software/GPAW-setups/0.9.20000/Mn.LDA.gz
  compensation charges: gauss, rc=0.38, lmax=2
  cutoffs: 2.14(filt), 0.86(core),
  valence states:
                energy  radius
    3s(2.00)   -85.387   1.275
    4s(2.00)    -5.282   1.275
    3p(6.00)   -54.493   1.281
    4p(0.00)    -1.471   1.281
    3d(5.00)    -7.009   1.138
    *d          20.203   1.138

  Using partial waves for Mn as LCAO basis

P-setup:
  name: Phosphorus
  id: a5561c299094968922a179ab894d2e2d
  Z: 15.0
  valence: 5
  core: 10
  charge: 0.0
  file: /home/modules/software/GPAW-setups/0.9.20000/P.LDA.gz
  compensation charges: gauss, rc=0.30, lmax=2
  cutoffs: 1.69(filt), 1.81(core),
  valence states:
                energy  radius
    3s(2.00)   -14.015   0.953
    3p(3.00)    -5.596   0.953
    *s          13.197   0.953
    *p          21.615   0.953
    *d           0.000   0.953

  Using partial waves for P as LCAO basis

Li-setup:
  name: Lithium
  id: b73562207f97a71b6967473b66fe8b65
  Z: 3.0
  valence: 1
  core: 2
  charge: 0.0
  file: /home/modules/software/GPAW-setups/0.9.20000/Li.LDA.gz
  compensation charges: gauss, rc=0.33, lmax=2
  cutoffs: 1.91(filt), 2.55(core),
  valence states:
                energy  radius
    2s(1.00)    -2.874   1.058
    2p(0.00)    -1.126   1.058
    *s          24.338   1.058

  Using partial waves for Li as LCAO basis

Reference energy: -196157.275402

Spin-polarized calculation.
Magnetic moment: 0.000000

Convergence criteria:
  Maximum total energy change: 0.0005 eV / electron
  Maximum integral of absolute density change: 0.0001 electrons
  Maximum integral of absolute eigenstate change: 4e-08 eV^2
  Maximum change in atomic force: 1e-06 eV / Ang
  Maximum number of iterations: 1000

Symmetries present (total): 1

  ( 1  0  0)
  ( 0  1  0)
  ( 0  0  1)

144 k-points: 6 x 6 x 4 Monkhorst-Pack grid
144 k-points in the irreducible part of the Brillouin zone
       k-points in crystal coordinates                weights
   0:    -0.41666667   -0.41666667   -0.37500000          1/144
   1:    -0.41666667   -0.41666667   -0.12500000          1/144
   2:    -0.41666667   -0.41666667    0.12500000          1/144
   3:    -0.41666667   -0.41666667    0.37500000          1/144
   4:    -0.41666667   -0.25000000   -0.37500000          1/144
   5:    -0.41666667   -0.25000000   -0.12500000          1/144
   6:    -0.41666667   -0.25000000    0.12500000          1/144
   7:    -0.41666667   -0.25000000    0.37500000          1/144
   8:    -0.41666667   -0.08333333   -0.37500000          1/144
   9:    -0.41666667   -0.08333333   -0.12500000          1/144
          ...
 143:     0.41666667    0.41666667    0.37500000          1/144

Wave functions: Plane wave expansion
  Cutoff energy: 600.000 eV
  Number of coefficients (min, max): 10068, 10125
  Pulay-stress correction: 0.000000 eV/Ang^3 (de/decut=0.000000)
  Using FFTW library
  ScaLapack parameters: grid=1x1, blocksize=None
  Wavefunction extrapolation:
    Improved wavefunction reuse through dual PAW basis 

  Fermi-Dirac: width=0.0010 eV

Eigensolver
   Davidson(niter=2) 

Densities:
  Coarse grid: 60*35*27 grid
  Fine grid: 120*70*54 grid
  Total Charge: 0.000000 

Density mixing:
  Method: difference
  Backend: pulay
  Linear mixing parameter: 0.05
  Mixing with 5 old densities
  Damping of long wave oscillations: 50 

Hamiltonian:
  XC and Coulomb potentials evaluated on a 120*70*54 grid
  Using the LDA Exchange-Correlation functional
 

Memory estimate:
  Process memory now: 13042.39 MiB
  Calculator: 354.82 MiB
    Density: 10.06 MiB
      Arrays: 3.79 MiB
      Localized functions: 4.71 MiB
      Mixer: 1.56 MiB
    Hamiltonian: 2.95 MiB
      Arrays: 2.82 MiB
      XC: 0.00 MiB
      Poisson: 0.00 MiB
      vbar: 0.14 MiB
    Wavefunctions: 341.80 MiB
      Arrays psit_nG: 311.46 MiB
      Eigensolver: 19.99 MiB
      Projections: 2.71 MiB
      Projectors: 4.87 MiB
      PW-descriptor: 2.77 MiB

Total number of cores used: 64
Parallelization over k-points: 16
Domain decomposition: 2 x 2 x 1

Number of atoms: 28
Number of atomic orbitals: 148
Number of bands in calculation: 112
Number of valence electrons: 180
Bands to converge: occupied

... initialized

Initializing position-dependent things.

Density initialized from atomic densities
Creating initial wave functions:
  112 bands from LCAO basis set

     .-------------------------.  
    /|         OP              |  
   / |O            O        O  |  
  /  |       O            O  P |  
 *   |O    Mn      O           |  
 |   |          OLi          O |  
 |   .P-O--------------Mn------.  
 |  /          Li    O  Mn  O /   
 | /Li O           PO        /    
 |/       Mn                /     
 *Li-----------------------*      

Positions:
   0 O     -1.360678   -2.541161   -1.202221    ( 0.0000,  0.0000,  0.0000)
   1 O     -3.121941    2.976855    1.167242    ( 0.0000,  0.0000,  0.0000)
   2 O      2.107533    0.508090    1.540712    ( 0.0000,  0.0000,  0.0000)
   3 O      3.869373   -0.072395   -0.828750    ( 0.0000,  0.0000,  0.0000)
   4 O      2.107821    2.976875    1.540792    ( 0.0000,  0.0000,  0.0000)
   5 O      3.869084   -2.541141   -0.828671    ( 0.0000,  0.0000,  0.0000)
   6 O     -1.360390   -0.072375   -1.202141    ( 0.0000,  0.0000,  0.0000)
   7 O     -3.122230    0.508109    1.167321    ( 0.0000,  0.0000,  0.0000)
   8 O     -4.413461   -1.306992   -0.794251    ( 0.0000,  0.0000,  0.0000)
   9 O     -0.069585    1.742707    1.575662    ( 0.0000,  0.0000,  0.0000)
  10 O      5.160604    1.742707    1.132822    ( 0.0000,  0.0000,  0.0000)
  11 O      0.816728   -1.306992   -1.237091    ( 0.0000,  0.0000,  0.0000)
  12 Mn    -2.570809   -1.307302    0.247161    ( 0.0000,  0.0000,  1.0000)
  13 Mn    -1.912021    1.743016   -2.122906    ( 0.0000,  0.0000, -1.0000)
  14 Mn     3.307952    1.743017    0.091411    ( 0.0000,  0.0000, -1.0000)
  15 Mn     2.659164   -1.307302    2.461478    ( 0.0000,  0.0000,  1.0000)
  16 P     -0.620664   -1.306816   -1.828465    ( 0.0000,  0.0000,  0.0000)
  17 P     -3.862097    1.742530    0.541238    ( 0.0000,  0.0000,  0.0000)
  18 P      1.367807    1.742530    2.167036    ( 0.0000,  0.0000,  0.0000)
  19 P      4.609240   -1.306816   -0.202666    ( 0.0000,  0.0000,  0.0000)
  20 O     -0.646437   -1.306845    1.374751    ( 0.0000,  0.0000,  0.0000)
  21 O     -3.836504    1.742559   -0.995565    ( 0.0000,  0.0000,  0.0000)
  22 O      1.393580    1.742559   -1.036179    ( 0.0000,  0.0000,  0.0000)
  23 O      4.583647   -1.306845    1.334136    ( 0.0000,  0.0000,  0.0000)
  24 Li    -4.856429   -2.832143   -2.200714    ( 0.0000,  0.0000,  0.0000)
  25 Li     0.373571   -2.832143    0.169286    ( 0.0000,  0.0000,  0.0000)
  26 Li    -4.856429    0.217857   -2.200714    ( 0.0000,  0.0000,  0.0000)
  27 Li     0.373571    0.217857    0.169286    ( 0.0000,  0.0000,  0.0000)

Unit cell:
           periodic     x           y           z      points  spacing
  1. axis:    yes   10.460000    0.000000    0.000000    60     0.1743
  2. axis:    yes    0.000000    6.100000    0.000000    35     0.1743
  3. axis:    yes    0.000000    0.000000    4.740000    27     0.1756

  Lengths:  10.460000   6.100000   4.740000
  Angles:   90.000000  90.000000  90.000000

Effective grid spacing dv^(1/3) = 0.1747

                     log10-error:           total        iterations:
           time      wfs    density  force  energy       poisson  magmom
iter:   1  20:56:58                       -231.921347             +0.0000
iter:   2  20:57:19  -0.55  -0.94         -231.718273             +0.0055
iter:   3  20:57:41  -0.72  -0.98         -220.579209             +0.0069
iter:   4  20:58:02  -0.95  -1.20         -218.855154             +0.0023
iter:   5  20:58:23  -1.93  -1.36         -222.240498             +0.0015
iter:   6  20:58:44  -1.99  -1.44         -220.933032             -0.0193
iter:   7  20:59:06  -2.12  -1.66         -224.075778             -0.2706
iter:   8  20:59:27  -1.78  -1.87         -225.554183             -0.6403
iter:   9  20:59:48  -2.79  -1.83         -226.828160             -0.4085
iter:  10  21:00:09  -3.12  -1.84         -227.012086             -0.1038
iter:  11  21:00:31  -2.28  -1.86         -226.648949             -0.0067
iter:  12  21:00:52  -2.36  -2.10         -226.387788             -0.0070
iter:  13  21:01:13  -2.25  -2.22         -226.329168             -0.0020
iter:  14  21:01:34  -3.12  -2.42         -226.280890             -0.0031
iter:  15  21:01:55  -2.91  -2.48         -226.231081             -0.0010
iter:  16  21:02:17  -3.70  -2.82         -226.232980             -0.0004
iter:  17  21:02:38  -4.14  -2.97         -226.228171             +0.0001
iter:  18  21:02:59  -4.66  -3.08         -226.228137             -0.0000
iter:  19  21:03:21  -5.28  -3.18         -226.228075             -0.0000
iter:  20  21:03:42  -5.84  -3.27         -226.227900             -0.0000
iter:  21  21:04:03  -4.75  -3.31         -226.228062             -0.0000
iter:  22  21:04:24  -5.57  -3.78         -226.227707             -0.0000
iter:  23  21:04:46  -5.77  -3.89         -226.227612             -0.0000
iter:  24  21:05:07  -7.11  -3.95         -226.227624             -0.0000
iter:  25  21:05:28  -6.04  -4.01         -226.227579             -0.0000
iter:  26  21:05:49  -6.47  -4.31         -226.227581             -0.0000
iter:  27  21:06:10  -6.38  -4.40         -226.227581             -0.0000
iter:  28  21:06:32  -6.99  -4.51         -226.227575             -0.0000
iter:  29  21:06:58  -7.80  -4.77         -226.227575             -0.0000
iter:  30  21:07:25  -7.91  -4.81    -2.74-226.227575             -0.0000
iter:  31  21:07:52  -7.88  -4.88    -2.81-226.227575             -0.0000
iter:  32  21:08:18  -8.02  -4.99    -2.73-226.227575             -0.0000
iter:  33  21:08:45  -8.09  -5.27    -2.85-226.227575             -0.0000
iter:  34  21:09:12  -8.12  -5.22    -2.90-226.227574             -0.0000
iter:  35  21:09:39  -9.47  -5.64    -3.88-226.227574             -0.0000
iter:  36  21:10:05 -10.05  -5.70    -3.78-226.227574             +0.0000
iter:  37  21:10:32  -9.08  -5.79    -3.35-226.227574             +0.0000
iter:  38  21:10:59  -9.16  -5.77    -3.27-226.227574             +0.0000
iter:  39  21:11:25 -10.67  -6.21    -4.27-226.227574             +0.0000
iter:  40  21:11:52 -10.08  -6.26    -3.89-226.227574             -0.0000
iter:  41  21:12:19 -10.66  -6.39    -3.96-226.227574             +0.0000
iter:  42  21:12:46 -12.16  -6.83    -5.02-226.227574             +0.0000
iter:  43  21:13:12 -11.85  -6.88    -4.79-226.227574             +0.0000
iter:  44  21:13:39 -11.58  -7.01    -4.59-226.227574             +0.0000
iter:  45  21:14:06 -12.82  -7.13    -5.03-226.227574             +0.0000
iter:  46  21:14:32 -12.17  -7.22    -4.88-226.227574             +0.0000
iter:  47  21:14:59 -12.57  -7.33    -4.83-226.227574             +0.0000
iter:  48  21:15:26 -13.31  -7.82    -5.44-226.227574             +0.0000
iter:  49  21:15:53 -14.32  -8.00    -5.87-226.227574             +0.0000
iter:  50  21:16:19 -13.71  -8.11    -5.73-226.227574             +0.0000
iter:  51  21:16:46 -14.41  -8.25    -5.96-226.227574             +0.0000
iter:  52  21:17:13 -15.68  -8.58    -6.66-226.227574             +0.0000

Converged after 52 iterations.

Dipole moment: (10.661503, 1.411496, -6.269103) |e|*Ang

Total magnetic moment: (0.000000, 0.000000, 0.000000)
Local magnetic moments:
   0 O  ( 0.000000,  0.000000, -0.000540)
   1 O  ( 0.000000,  0.000000,  0.000556)
   2 O  ( 0.000000,  0.000000,  0.000177)
   3 O  ( 0.000000,  0.000000, -0.000316)
   4 O  ( 0.000000,  0.000000,  0.000158)
   5 O  ( 0.000000,  0.000000, -0.000296)
   6 O  ( 0.000000,  0.000000, -0.000560)
   7 O  ( 0.000000,  0.000000,  0.000576)
   8 O  ( 0.000000,  0.000000,  0.028714)
   9 O  ( 0.000000,  0.000000, -0.028634)
  10 O  ( 0.000000,  0.000000, -0.028250)
  11 O  ( 0.000000,  0.000000,  0.028671)
  12 Mn ( 0.000000,  0.000000,  4.448172)
  13 Mn ( 0.000000,  0.000000, -4.448208)
  14 Mn ( 0.000000,  0.000000, -4.448427)
  15 Mn ( 0.000000,  0.000000,  4.448055)
  16 P  ( 0.000000,  0.000000,  0.001554)
  17 P  ( 0.000000,  0.000000, -0.001419)
  18 P  ( 0.000000,  0.000000, -0.001728)
  19 P  ( 0.000000,  0.000000,  0.001589)
  20 O  ( 0.000000,  0.000000,  0.025283)
  21 O  ( 0.000000,  0.000000, -0.025336)
  22 O  ( 0.000000,  0.000000, -0.025688)
  23 O  ( 0.000000,  0.000000,  0.025361)
  24 Li ( 0.000000,  0.000000,  0.000010)
  25 Li ( 0.000000,  0.000000,  0.000003)
  26 Li ( 0.000000,  0.000000,  0.000010)
  27 Li ( 0.000000,  0.000000,  0.000003)

Energy contributions relative to reference atoms: (reference = -196157.275402)

Kinetic:       +217.353466
Potential:     -195.233269
External:        +0.000000
XC:            -250.388962
Entropy (-ST):   -0.000000
Local:           +2.041190
--------------------------
Free energy:   -226.227574
Extrapolated:  -226.227574

Spin contamination: 9.559995 electrons
Showing only first 2 kpts
                      Up                     Down
 Kpt  Band  Eigenvalues  Occupancy  Eigenvalues  Occupancy
  0    88      5.10825    1.00000      5.10831    1.00000
  0    89      5.13430    1.00000      5.13189    1.00000
  0    90      7.28949    0.00000      7.28815    0.00000
  0    91      7.30722    0.00000      7.30585    0.00000

  1    88      5.13410    1.00000      5.13456    1.00000
  1    89      5.16473    1.00000      5.16230    1.00000
  1    90      7.23307    0.00000      7.23064    0.00000
  1    91      7.24488    0.00000      7.24331    0.00000


Fermi level: 6.67786

Gap: 1.972 eV
Transition (v -> c):
  (s=0, k=69, n=89, [-0.08, 0.42, -0.12]) -> (s=1, k=58, n=90, [-0.08, -0.08, 0.12])
Writing to born-0.01-14x-.gpw (mode='all')

Timing:                              incl.     excl.
-----------------------------------------------------------
Hamiltonian:                         0.271     0.003   0.0% |
 Atomic:                             0.084     0.084   0.0% |
  XC Correction:                     0.000     0.000   0.0% |
 Calculate atomic Hamiltonians:      0.091     0.091   0.0% |
 Communicate:                        0.000     0.000   0.0% |
 Initialize Hamiltonian:             0.000     0.000   0.0% |
 Poisson:                            0.001     0.001   0.0% |
 XC 3D grid:                         0.091     0.091   0.0% |
LCAO initialization:                69.393     0.675   0.0% |
 LCAO eigensolver:                  17.985     0.002   0.0% |
  Calculate projections:             0.029     0.029   0.0% |
  DenseAtomicCorrection:             0.042     0.042   0.0% |
  Distribute overlap matrix:         0.005     0.005   0.0% |
  Orbital Layouts:                   0.277     0.277   0.0% |
  Potential matrix:                 17.546    17.546   0.5% |
  Sum over cells:                    0.083     0.083   0.0% |
 LCAO to grid:                      49.457    49.457   1.4% ||
 Set positions (LCAO WFS):           1.276     0.179   0.0% |
  Basic WFS set positions:           0.001     0.001   0.0% |
  Basis functions set positions:     0.000     0.000   0.0% |
  P tci:                             0.515     0.515   0.0% |
  ST tci:                            0.368     0.368   0.0% |
  mktci:                             0.212     0.212   0.0% |
PWDescriptor:                        0.025     0.025   0.0% |
SCF-cycle:                        1239.602     7.721   0.2% |
 Davidson:                        1043.611   334.392   9.3% |---|
  Apply H:                          69.306    67.250   1.9% ||
   HMM T:                            2.056     2.056   0.1% |
  Subspace diag:                   149.685     0.153   0.0% |
   calc_h_matrix:                   95.433    26.123   0.7% |
    Apply H:                        69.310    67.331   1.9% ||
     HMM T:                          1.979     1.979   0.1% |
   diagonalize:                      5.275     5.275   0.1% |
   rotate_psi:                      48.824    48.824   1.4% ||
  calc. matrices:                  312.226   174.608   4.9% |-|
   Apply H:                        137.618   133.573   3.7% ||
    HMM T:                           4.045     4.045   0.1% |
  diagonalize:                      80.599    80.599   2.3% ||
  rotate_psi:                       97.403    97.403   2.7% ||
 Density:                           41.385     0.001   0.0% |
  Atomic density matrices:           0.684     0.684   0.0% |
  Mix:                               7.115     7.115   0.2% |
  Multipole moments:                 0.018     0.018   0.0% |
  Pseudo density:                   33.566    33.565   0.9% |
   Symmetrize density:               0.001     0.001   0.0% |
 Forces:                           131.869   131.869   3.7% ||
 Hamiltonian:                       12.711     0.110   0.0% |
  Atomic:                            2.885     2.885   0.1% |
   XC Correction:                    0.000     0.000   0.0% |
  Calculate atomic Hamiltonians:     4.921     4.921   0.1% |
  Communicate:                       0.018     0.018   0.0% |
  Poisson:                           0.045     0.045   0.0% |
  XC 3D grid:                        4.732     4.732   0.1% |
 Orthonormalize:                     2.305     0.003   0.0% |
  calc_s_matrix:                     0.267     0.267   0.0% |
  inverse-cholesky:                  0.040     0.040   0.0% |
  projections:                       1.506     1.506   0.0% |
  rotate_psi_s:                      0.489     0.489   0.0% |
Set symmetry:                        0.000     0.000   0.0% |
Other:                            2268.409  2268.409  63.4% |------------------------|
-----------------------------------------------------------
Total:                                      3577.700 100.0%

Memory usage: 12.78 GiB
Date: Tue Mar 30 21:55:00 2021
