
  ___ ___ ___ _ _ _  
 |   |   |_  | | | | 
 | | | | | . | | | | 
 |__ |  _|___|_____|  21.1.1b1
 |___|_|             

User:   madkru@g043.nifl.fysik.dtu.dk
Date:   Tue Mar 30 05:48:49 2021
Arch:   x86_64
Pid:    39387
Python: 3.8.6
gpaw:   /home/niflheim/madkru/venv_madkru/gpaw/gpaw (e6f0d78a31)
_gpaw:  /home/niflheim/madkru/venv_madkru/gpaw/build/lib.linux-x86_64-sandybridge-3.8/
        _gpaw.cpython-38-x86_64-linux-gnu.so (e6f0d78a31)
ase:    /home/niflheim/madkru/venv_madkru/ase/ase (version 3.22.0b1-4d5a73cb29)
numpy:  /home/modules/software/SciPy-bundle/2020.11-foss-2020b/lib/python3.8/site-packages/numpy (version 1.19.4)
scipy:  /home/modules/software/SciPy-bundle/2020.11-foss-2020b/lib/python3.8/site-packages/scipy (version 1.5.4)
libxc:  4.3.4
units:  Angstrom and eV
cores: 64
OpenMP: False
OMP_NUM_THREADS: 1

Input parameters:
  convergence: {bands: occupied,
                density: 0.0001,
                eigenstates: 4e-08,
                energy: 0.0005,
                forces: 1e-06}
  kpts: [6 6 4]
  maxiter: 1000
  mode: {ecut: 600.0,
         gammacentered: False,
         name: pw}
  occupations: {fixmagmom: False,
                name: fermi-dirac,
                width: 0.001}
  symmetry: {point_group: False,
             time_reversal: False}

System changes: positions, numbers, cell, pbc, initial_charges, initial_magmoms 

Initialize ...

O-setup:
  name: Oxygen
  id: 9b9d51c344dea68c822856295a461509
  Z: 8.0
  valence: 6
  core: 2
  charge: 0.0
  file: /home/modules/software/GPAW-setups/0.9.20000/O.LDA.gz
  compensation charges: gauss, rc=0.21, lmax=2
  cutoffs: 1.17(filt), 0.83(core),
  valence states:
                energy  radius
    2s(2.00)   -23.752   0.688
    2p(4.00)    -9.195   0.598
    *s           3.459   0.688
    *p          18.016   0.598
    *d           0.000   0.619

  Using partial waves for O as LCAO basis

Mn-setup:
  name: Manganese
  id: 0d715a8018be061a6e9ea6f2d364ac92
  Z: 25.0
  valence: 15
  core: 10
  charge: 0.0
  file: /home/modules/software/GPAW-setups/0.9.20000/Mn.LDA.gz
  compensation charges: gauss, rc=0.38, lmax=2
  cutoffs: 2.14(filt), 0.86(core),
  valence states:
                energy  radius
    3s(2.00)   -85.387   1.275
    4s(2.00)    -5.282   1.275
    3p(6.00)   -54.493   1.281
    4p(0.00)    -1.471   1.281
    3d(5.00)    -7.009   1.138
    *d          20.203   1.138

  Using partial waves for Mn as LCAO basis

P-setup:
  name: Phosphorus
  id: a5561c299094968922a179ab894d2e2d
  Z: 15.0
  valence: 5
  core: 10
  charge: 0.0
  file: /home/modules/software/GPAW-setups/0.9.20000/P.LDA.gz
  compensation charges: gauss, rc=0.30, lmax=2
  cutoffs: 1.69(filt), 1.81(core),
  valence states:
                energy  radius
    3s(2.00)   -14.015   0.953
    3p(3.00)    -5.596   0.953
    *s          13.197   0.953
    *p          21.615   0.953
    *d           0.000   0.953

  Using partial waves for P as LCAO basis

Li-setup:
  name: Lithium
  id: b73562207f97a71b6967473b66fe8b65
  Z: 3.0
  valence: 1
  core: 2
  charge: 0.0
  file: /home/modules/software/GPAW-setups/0.9.20000/Li.LDA.gz
  compensation charges: gauss, rc=0.33, lmax=2
  cutoffs: 1.91(filt), 2.55(core),
  valence states:
                energy  radius
    2s(1.00)    -2.874   1.058
    2p(0.00)    -1.126   1.058
    *s          24.338   1.058

  Using partial waves for Li as LCAO basis

Reference energy: -196157.275402

Spin-polarized calculation.
Magnetic moment: 0.000000

Convergence criteria:
  Maximum total energy change: 0.0005 eV / electron
  Maximum integral of absolute density change: 0.0001 electrons
  Maximum integral of absolute eigenstate change: 4e-08 eV^2
  Maximum change in atomic force: 1e-06 eV / Ang
  Maximum number of iterations: 1000

Symmetries present (total): 1

  ( 1  0  0)
  ( 0  1  0)
  ( 0  0  1)

144 k-points: 6 x 6 x 4 Monkhorst-Pack grid
144 k-points in the irreducible part of the Brillouin zone
       k-points in crystal coordinates                weights
   0:    -0.41666667   -0.41666667   -0.37500000          1/144
   1:    -0.41666667   -0.41666667   -0.12500000          1/144
   2:    -0.41666667   -0.41666667    0.12500000          1/144
   3:    -0.41666667   -0.41666667    0.37500000          1/144
   4:    -0.41666667   -0.25000000   -0.37500000          1/144
   5:    -0.41666667   -0.25000000   -0.12500000          1/144
   6:    -0.41666667   -0.25000000    0.12500000          1/144
   7:    -0.41666667   -0.25000000    0.37500000          1/144
   8:    -0.41666667   -0.08333333   -0.37500000          1/144
   9:    -0.41666667   -0.08333333   -0.12500000          1/144
          ...
 143:     0.41666667    0.41666667    0.37500000          1/144

Wave functions: Plane wave expansion
  Cutoff energy: 600.000 eV
  Number of coefficients (min, max): 10068, 10125
  Pulay-stress correction: 0.000000 eV/Ang^3 (de/decut=0.000000)
  Using FFTW library
  ScaLapack parameters: grid=1x1, blocksize=None
  Wavefunction extrapolation:
    Improved wavefunction reuse through dual PAW basis 

  Fermi-Dirac: width=0.0010 eV

Eigensolver
   Davidson(niter=2) 

Densities:
  Coarse grid: 60*35*27 grid
  Fine grid: 120*70*54 grid
  Total Charge: 0.000000 

Density mixing:
  Method: difference
  Backend: pulay
  Linear mixing parameter: 0.05
  Mixing with 5 old densities
  Damping of long wave oscillations: 50 

Hamiltonian:
  XC and Coulomb potentials evaluated on a 120*70*54 grid
  Using the LDA Exchange-Correlation functional
 

Memory estimate:
  Process memory now: 12310.52 MiB
  Calculator: 354.82 MiB
    Density: 10.06 MiB
      Arrays: 3.79 MiB
      Localized functions: 4.71 MiB
      Mixer: 1.56 MiB
    Hamiltonian: 2.95 MiB
      Arrays: 2.82 MiB
      XC: 0.00 MiB
      Poisson: 0.00 MiB
      vbar: 0.14 MiB
    Wavefunctions: 341.80 MiB
      Arrays psit_nG: 311.46 MiB
      Eigensolver: 19.99 MiB
      Projections: 2.71 MiB
      Projectors: 4.87 MiB
      PW-descriptor: 2.77 MiB

Total number of cores used: 64
Parallelization over k-points: 16
Domain decomposition: 2 x 2 x 1

Number of atoms: 28
Number of atomic orbitals: 148
Number of bands in calculation: 112
Number of valence electrons: 180
Bands to converge: occupied

... initialized

Initializing position-dependent things.

Density initialized from atomic densities
Creating initial wave functions:
  112 bands from LCAO basis set

     .-------------------------.  
    /|         OP              |  
   / |O            O        O  |  
  /  |       O            O  P |  
 *   |O    Mn      O           |  
 |   |          OLi          O |  
 |   .P-O--------------Mn------.  
 |  /          Li    O  Mn  O /   
 | /Li O           PO        /    
 |/       Mn                /     
 *Li-----------------------*      

Positions:
   0 O     -1.360678   -2.541161   -1.202221    ( 0.0000,  0.0000,  0.0000)
   1 O     -3.121941    2.976855    1.167242    ( 0.0000,  0.0000,  0.0000)
   2 O      2.107533    0.508090    1.540712    ( 0.0000,  0.0000,  0.0000)
   3 O      3.869373   -0.072395   -0.828750    ( 0.0000,  0.0000,  0.0000)
   4 O      2.107821    2.976875    1.540792    ( 0.0000,  0.0000,  0.0000)
   5 O      3.869084   -2.541141   -0.828671    ( 0.0000,  0.0000,  0.0000)
   6 O     -1.360390   -0.072375   -1.202141    ( 0.0000,  0.0000,  0.0000)
   7 O     -3.122230    0.508109    1.167321    ( 0.0000,  0.0000,  0.0000)
   8 O     -4.413461   -1.306992   -0.794251    ( 0.0000,  0.0000,  0.0000)
   9 O     -0.069585    1.742707    1.565662    ( 0.0000,  0.0000,  0.0000)
  10 O      5.160604    1.742707    1.132822    ( 0.0000,  0.0000,  0.0000)
  11 O      0.816728   -1.306992   -1.237091    ( 0.0000,  0.0000,  0.0000)
  12 Mn    -2.570809   -1.307302    0.247161    ( 0.0000,  0.0000,  1.0000)
  13 Mn    -1.912021    1.743016   -2.122906    ( 0.0000,  0.0000, -1.0000)
  14 Mn     3.317952    1.743017    0.091411    ( 0.0000,  0.0000, -1.0000)
  15 Mn     2.659164   -1.307302    2.461478    ( 0.0000,  0.0000,  1.0000)
  16 P     -0.620664   -1.306816   -1.828465    ( 0.0000,  0.0000,  0.0000)
  17 P     -3.862097    1.742530    0.541238    ( 0.0000,  0.0000,  0.0000)
  18 P      1.367807    1.742530    2.167036    ( 0.0000,  0.0000,  0.0000)
  19 P      4.609240   -1.306816   -0.202666    ( 0.0000,  0.0000,  0.0000)
  20 O     -0.646437   -1.306845    1.374751    ( 0.0000,  0.0000,  0.0000)
  21 O     -3.836504    1.742559   -0.995565    ( 0.0000,  0.0000,  0.0000)
  22 O      1.393580    1.742559   -1.036179    ( 0.0000,  0.0000,  0.0000)
  23 O      4.583647   -1.306845    1.334136    ( 0.0000,  0.0000,  0.0000)
  24 Li    -4.856429   -2.832143   -2.200714    ( 0.0000,  0.0000,  0.0000)
  25 Li     0.373571   -2.832143    0.169286    ( 0.0000,  0.0000,  0.0000)
  26 Li    -4.856429    0.217857   -2.200714    ( 0.0000,  0.0000,  0.0000)
  27 Li     0.373571    0.217857    0.169286    ( 0.0000,  0.0000,  0.0000)

Unit cell:
           periodic     x           y           z      points  spacing
  1. axis:    yes   10.460000    0.000000    0.000000    60     0.1743
  2. axis:    yes    0.000000    6.100000    0.000000    35     0.1743
  3. axis:    yes    0.000000    0.000000    4.740000    27     0.1756

  Lengths:  10.460000   6.100000   4.740000
  Angles:   90.000000  90.000000  90.000000

Effective grid spacing dv^(1/3) = 0.1747

                     log10-error:           total        iterations:
           time      wfs    density  force  energy       poisson  magmom
iter:   1  05:50:23                       -231.921855             +0.0000
iter:   2  05:50:44  -0.55  -0.94         -231.736563             +0.0046
iter:   3  05:51:05  -0.72  -0.98         -220.580227             +0.0057
iter:   4  05:51:26  -0.96  -1.20         -218.861995             +0.0019
iter:   5  05:51:47  -1.93  -1.36         -221.087878             +0.0012
iter:   6  05:52:09  -1.96  -1.51         -219.891465             +0.0007
iter:   7  05:52:30  -2.24  -1.67         -221.847616             -0.0046
iter:   8  05:52:51  -2.74  -1.91         -219.315438             -0.0055
iter:   9  05:53:12  -2.51  -1.98         -221.667500             +0.4194
iter:  10  05:53:34  -2.22  -1.98         -224.565513             +1.4110
iter:  11  05:53:55  -2.73  -1.91         -226.102627             +1.0249
iter:  12  05:54:16  -2.70  -1.85         -227.282838             -0.0301
iter:  13  05:54:37  -3.15  -1.85         -227.186630             -0.0499
iter:  14  05:54:58  -2.35  -1.86         -226.861917             -0.0151
iter:  15  05:55:19  -2.44  -1.94         -226.708875             -0.0153
iter:  16  05:55:41  -2.58  -2.06         -226.494550             -0.0044
iter:  17  05:56:02  -1.93  -2.14         -226.831940             -0.0028
iter:  18  05:56:23  -2.83  -2.29         -226.415070             -0.0014
iter:  19  05:56:44  -2.79  -2.40         -226.294742             -0.0001
iter:  20  05:57:05  -2.69  -2.51         -226.295212             +0.0001
iter:  21  05:57:26  -2.88  -2.58         -226.302309             +0.0000
iter:  22  05:57:48  -3.67  -2.60         -226.261900             +0.0000
iter:  23  05:58:09  -2.96  -2.66         -226.241692             +0.0000
iter:  24  05:58:30  -3.93  -2.92         -226.237510             +0.0000
iter:  25  05:58:51  -4.29  -2.92         -226.230958             +0.0000
iter:  26  05:59:12  -3.66  -3.00         -226.230246             +0.0000
iter:  27  05:59:33  -4.49  -3.38         -226.227648             +0.0000
iter:  28  05:59:55  -5.47  -3.70         -226.227529             +0.0000
iter:  29  06:00:16  -5.03  -3.73         -226.227544             -0.0000
iter:  30  06:00:37  -5.55  -3.83         -226.227674             -0.0000
iter:  31  06:00:58  -6.66  -3.92         -226.227610             -0.0000
iter:  32  06:01:19  -5.50  -3.98         -226.227467             -0.0000
iter:  33  06:01:40  -6.49  -4.22         -226.227454             -0.0000
iter:  34  06:02:02  -6.95  -4.27         -226.227460             -0.0000
iter:  35  06:02:23  -6.94  -4.52         -226.227456             -0.0000
iter:  36  06:02:49  -7.52  -4.85         -226.227455             -0.0000
iter:  37  06:03:16  -7.62  -4.95    -2.63-226.227455             -0.0000
iter:  38  06:03:43  -8.89  -5.20    -3.35-226.227455             -0.0000
iter:  39  06:04:10  -8.26  -5.23    -3.11-226.227455             -0.0000
iter:  40  06:04:36  -8.26  -5.34    -2.94-226.227455             -0.0000
iter:  41  06:05:03  -8.83  -5.36    -3.17-226.227455             -0.0000
iter:  42  06:05:30  -9.38  -5.48    -3.73-226.227454             -0.0000
iter:  43  06:05:56  -8.92  -5.51    -3.43-226.227454             -0.0000
iter:  44  06:06:23  -9.03  -5.69    -3.31-226.227454             -0.0000
iter:  45  06:06:50 -10.13  -6.05    -4.19-226.227454             -0.0000
iter:  46  06:07:16  -9.52  -6.10    -3.69-226.227454             +0.0000
iter:  47  06:07:43 -10.22  -6.27    -4.05-226.227454             +0.0000
iter:  48  06:08:10 -11.33  -6.44    -4.66-226.227454             +0.0000
iter:  49  06:08:36 -10.86  -6.49    -4.27-226.227454             +0.0000
iter:  50  06:09:03 -11.11  -6.56    -4.41-226.227454             +0.0000
iter:  51  06:09:30 -12.01  -6.70    -5.04-226.227454             +0.0000
iter:  52  06:09:56 -11.49  -6.74    -4.68-226.227454             +0.0000
iter:  53  06:10:23 -11.09  -6.79    -4.39-226.227454             +0.0000
iter:  54  06:10:50 -11.61  -6.78    -4.59-226.227454             +0.0000
iter:  55  06:11:16 -12.71  -6.94    -5.67-226.227454             +0.0000
iter:  56  06:11:43 -11.63  -7.00    -4.77-226.227454             +0.0000
iter:  57  06:12:10 -11.91  -7.23    -4.81-226.227454             +0.0000
iter:  58  06:12:36 -13.32  -7.74    -5.49-226.227454             +0.0000
iter:  59  06:13:03 -13.25  -7.84    -5.56-226.227454             +0.0000
iter:  60  06:13:29 -13.62  -8.02    -5.58-226.227454             +0.0000
iter:  61  06:13:56 -15.08  -8.23    -6.43-226.227454             +0.0000

Converged after 61 iterations.

Dipole moment: (10.667186, 1.412985, -6.263191) |e|*Ang

Total magnetic moment: (0.000000, 0.000000, 0.000000)
Local magnetic moments:
   0 O  ( 0.000000,  0.000000, -0.000489)
   1 O  ( 0.000000,  0.000000,  0.000541)
   2 O  ( 0.000000,  0.000000,  0.000585)
   3 O  ( 0.000000,  0.000000, -0.000556)
   4 O  ( 0.000000,  0.000000,  0.000565)
   5 O  ( 0.000000,  0.000000, -0.000536)
   6 O  ( 0.000000,  0.000000, -0.000509)
   7 O  ( 0.000000,  0.000000,  0.000561)
   8 O  ( 0.000000,  0.000000,  0.028684)
   9 O  ( 0.000000,  0.000000, -0.028657)
  10 O  ( 0.000000,  0.000000, -0.028727)
  11 O  ( 0.000000,  0.000000,  0.028719)
  12 Mn ( 0.000000,  0.000000,  4.448180)
  13 Mn ( 0.000000,  0.000000, -4.448726)
  14 Mn ( 0.000000,  0.000000, -4.448071)
  15 Mn ( 0.000000,  0.000000,  4.448266)
  16 P  ( 0.000000,  0.000000,  0.001567)
  17 P  ( 0.000000,  0.000000, -0.001537)
  18 P  ( 0.000000,  0.000000, -0.001507)
  19 P  ( 0.000000,  0.000000,  0.001550)
  20 O  ( 0.000000,  0.000000,  0.025328)
  21 O  ( 0.000000,  0.000000, -0.025342)
  22 O  ( 0.000000,  0.000000, -0.025197)
  23 O  ( 0.000000,  0.000000,  0.025312)
  24 Li ( 0.000000,  0.000000,  0.000000)
  25 Li ( 0.000000,  0.000000, -0.000007)
  26 Li ( 0.000000,  0.000000,  0.000000)
  27 Li ( 0.000000,  0.000000, -0.000007)

Energy contributions relative to reference atoms: (reference = -196157.275402)

Kinetic:       +217.037591
Potential:     -194.992068
External:        +0.000000
XC:            -250.315162
Entropy (-ST):   -0.000000
Local:           +2.042184
--------------------------
Free energy:   -226.227454
Extrapolated:  -226.227454

Spin contamination: 9.560538 electrons
Showing only first 2 kpts
                      Up                     Down
 Kpt  Band  Eigenvalues  Occupancy  Eigenvalues  Occupancy
  0    88      5.10938    1.00000      5.10494    1.00000
  0    89      5.13386    1.00000      5.12919    1.00000
  0    90      7.28622    0.00000      7.28805    0.00000
  0    91      7.30425    0.00000      7.30571    0.00000

  1    88      5.13515    1.00000      5.13080    1.00000
  1    89      5.16435    1.00000      5.15955    1.00000
  1    90      7.22929    0.00000      7.23086    0.00000
  1    91      7.24194    0.00000      7.24300    0.00000


Fermi level: 5.79894

Gap: 1.971 eV
Transition (v -> c):
  (s=0, k=69, n=89, [-0.08, 0.42, -0.12]) -> (s=0, k=57, n=90, [-0.08, -0.08, -0.12])
Writing to born-0.01-9z-.gpw (mode='all')

Timing:                              incl.     excl.
-----------------------------------------------------------
Hamiltonian:                         0.261     0.003   0.0% |
 Atomic:                             0.081     0.081   0.0% |
  XC Correction:                     0.000     0.000   0.0% |
 Calculate atomic Hamiltonians:      0.085     0.085   0.0% |
 Communicate:                        0.000     0.000   0.0% |
 Initialize Hamiltonian:             0.000     0.000   0.0% |
 Poisson:                            0.001     0.001   0.0% |
 XC 3D grid:                         0.091     0.091   0.0% |
LCAO initialization:                69.923     0.674   0.0% |
 LCAO eigensolver:                  18.135     0.003   0.0% |
  Calculate projections:             0.029     0.029   0.0% |
  DenseAtomicCorrection:             0.043     0.043   0.0% |
  Distribute overlap matrix:         0.229     0.229   0.0% |
  Orbital Layouts:                   0.279     0.279   0.0% |
  Potential matrix:                 17.465    17.465   0.5% |
  Sum over cells:                    0.086     0.086   0.0% |
 LCAO to grid:                      49.836    49.836   1.3% ||
 Set positions (LCAO WFS):           1.278     0.180   0.0% |
  Basic WFS set positions:           0.001     0.001   0.0% |
  Basis functions set positions:     0.000     0.000   0.0% |
  P tci:                             0.515     0.515   0.0% |
  ST tci:                            0.369     0.369   0.0% |
  mktci:                             0.213     0.213   0.0% |
PWDescriptor:                        0.024     0.024   0.0% |
SCF-cycle:                        1436.038     4.130   0.1% |
 Davidson:                        1223.751   391.752  10.4% |---|
  Apply H:                          82.173    79.685   2.1% ||
   HMM T:                            2.487     2.487   0.1% |
  Subspace diag:                   175.127     0.178   0.0% |
   calc_h_matrix:                  111.267    30.669   0.8% |
    Apply H:                        80.599    78.212   2.1% ||
     HMM T:                          2.387     2.387   0.1% |
   diagonalize:                      6.260     6.260   0.2% |
   rotate_psi:                      57.422    57.422   1.5% ||
  calc. matrices:                  365.474   204.160   5.4% |-|
   Apply H:                        161.314   156.589   4.2% |-|
    HMM T:                           4.725     4.725   0.1% |
  diagonalize:                      94.778    94.778   2.5% ||
  rotate_psi:                      114.447   114.447   3.0% ||
 Density:                           48.327     0.002   0.0% |
  Atomic density matrices:           0.802     0.802   0.0% |
  Mix:                               8.326     8.326   0.2% |
  Multipole moments:                 0.022     0.022   0.0% |
  Pseudo density:                   39.177    39.175   1.0% |
   Symmetrize density:               0.002     0.002   0.0% |
 Forces:                           142.691   142.691   3.8% |-|
 Hamiltonian:                       14.851     0.127   0.0% |
  Atomic:                            3.433     3.433   0.1% |
   XC Correction:                    0.000     0.000   0.0% |
  Calculate atomic Hamiltonians:     5.646     5.646   0.2% |
  Communicate:                       0.028     0.028   0.0% |
  Poisson:                           0.053     0.053   0.0% |
  XC 3D grid:                        5.563     5.563   0.1% |
 Orthonormalize:                     2.287     0.004   0.0% |
  calc_s_matrix:                     0.268     0.268   0.0% |
  inverse-cholesky:                  0.040     0.040   0.0% |
  projections:                       1.490     1.490   0.0% |
  rotate_psi_s:                      0.485     0.485   0.0% |
Set symmetry:                        0.000     0.000   0.0% |
Other:                            2248.278  2248.278  59.9% |-----------------------|
-----------------------------------------------------------
Total:                                      3754.525 100.0%

Memory usage: 12.06 GiB
Date: Tue Mar 30 06:51:23 2021
