
  ___ ___ ___ _ _ _  
 |   |   |_  | | | | 
 | | | | | . | | | | 
 |__ |  _|___|_____|  21.1.1b1
 |___|_|             

User:   madkru@i009.nifl.fysik.dtu.dk
Date:   Fri Apr  2 10:13:10 2021
Arch:   x86_64
Pid:    31381
Python: 3.8.6
gpaw:   /home/niflheim/madkru/venv_madkru/gpaw/gpaw (e6f0d78a31)
_gpaw:  /home/niflheim/madkru/venv_madkru/gpaw/build/lib.linux-x86_64-ivybridge-3.8/
        _gpaw.cpython-38-x86_64-linux-gnu.so (e6f0d78a31)
ase:    /home/niflheim/madkru/venv_madkru/ase/ase (version 3.22.0b1-4d5a73cb29)
numpy:  /home/modules/software/SciPy-bundle/2020.11-foss-2020b/lib/python3.8/site-packages/numpy (version 1.19.4)
scipy:  /home/modules/software/SciPy-bundle/2020.11-foss-2020b/lib/python3.8/site-packages/scipy (version 1.5.4)
libxc:  4.3.4
units:  Angstrom and eV
cores: 64
OpenMP: False
OMP_NUM_THREADS: 1

Input parameters:
  convergence: {bands: occupied,
                density: 0.0001,
                eigenstates: 4e-08,
                energy: 0.0005,
                forces: 1e-06}
  kpts: [6 6 4]
  maxiter: 1000
  mode: {ecut: 600.0,
         gammacentered: False,
         name: pw}
  occupations: {fixmagmom: False,
                name: fermi-dirac,
                width: 0.001}
  symmetry: {point_group: False,
             time_reversal: False}

System changes: positions, numbers, cell, pbc, initial_charges, initial_magmoms 

Initialize ...

O-setup:
  name: Oxygen
  id: 9b9d51c344dea68c822856295a461509
  Z: 8.0
  valence: 6
  core: 2
  charge: 0.0
  file: /home/modules/software/GPAW-setups/0.9.20000/O.LDA.gz
  compensation charges: gauss, rc=0.21, lmax=2
  cutoffs: 1.17(filt), 0.83(core),
  valence states:
                energy  radius
    2s(2.00)   -23.752   0.688
    2p(4.00)    -9.195   0.598
    *s           3.459   0.688
    *p          18.016   0.598
    *d           0.000   0.619

  Using partial waves for O as LCAO basis

Mn-setup:
  name: Manganese
  id: 0d715a8018be061a6e9ea6f2d364ac92
  Z: 25.0
  valence: 15
  core: 10
  charge: 0.0
  file: /home/modules/software/GPAW-setups/0.9.20000/Mn.LDA.gz
  compensation charges: gauss, rc=0.38, lmax=2
  cutoffs: 2.14(filt), 0.86(core),
  valence states:
                energy  radius
    3s(2.00)   -85.387   1.275
    4s(2.00)    -5.282   1.275
    3p(6.00)   -54.493   1.281
    4p(0.00)    -1.471   1.281
    3d(5.00)    -7.009   1.138
    *d          20.203   1.138

  Using partial waves for Mn as LCAO basis

P-setup:
  name: Phosphorus
  id: a5561c299094968922a179ab894d2e2d
  Z: 15.0
  valence: 5
  core: 10
  charge: 0.0
  file: /home/modules/software/GPAW-setups/0.9.20000/P.LDA.gz
  compensation charges: gauss, rc=0.30, lmax=2
  cutoffs: 1.69(filt), 1.81(core),
  valence states:
                energy  radius
    3s(2.00)   -14.015   0.953
    3p(3.00)    -5.596   0.953
    *s          13.197   0.953
    *p          21.615   0.953
    *d           0.000   0.953

  Using partial waves for P as LCAO basis

Li-setup:
  name: Lithium
  id: b73562207f97a71b6967473b66fe8b65
  Z: 3.0
  valence: 1
  core: 2
  charge: 0.0
  file: /home/modules/software/GPAW-setups/0.9.20000/Li.LDA.gz
  compensation charges: gauss, rc=0.33, lmax=2
  cutoffs: 1.91(filt), 2.55(core),
  valence states:
                energy  radius
    2s(1.00)    -2.874   1.058
    2p(0.00)    -1.126   1.058
    *s          24.338   1.058

  Using partial waves for Li as LCAO basis

Reference energy: -196157.275402

Spin-polarized calculation.
Magnetic moment: 0.000000

Convergence criteria:
  Maximum total energy change: 0.0005 eV / electron
  Maximum integral of absolute density change: 0.0001 electrons
  Maximum integral of absolute eigenstate change: 4e-08 eV^2
  Maximum change in atomic force: 1e-06 eV / Ang
  Maximum number of iterations: 1000

Symmetries present (total): 1

  ( 1  0  0)
  ( 0  1  0)
  ( 0  0  1)

144 k-points: 6 x 6 x 4 Monkhorst-Pack grid
144 k-points in the irreducible part of the Brillouin zone
       k-points in crystal coordinates                weights
   0:    -0.41666667   -0.41666667   -0.37500000          1/144
   1:    -0.41666667   -0.41666667   -0.12500000          1/144
   2:    -0.41666667   -0.41666667    0.12500000          1/144
   3:    -0.41666667   -0.41666667    0.37500000          1/144
   4:    -0.41666667   -0.25000000   -0.37500000          1/144
   5:    -0.41666667   -0.25000000   -0.12500000          1/144
   6:    -0.41666667   -0.25000000    0.12500000          1/144
   7:    -0.41666667   -0.25000000    0.37500000          1/144
   8:    -0.41666667   -0.08333333   -0.37500000          1/144
   9:    -0.41666667   -0.08333333   -0.12500000          1/144
          ...
 143:     0.41666667    0.41666667    0.37500000          1/144

Wave functions: Plane wave expansion
  Cutoff energy: 600.000 eV
  Number of coefficients (min, max): 10068, 10125
  Pulay-stress correction: 0.000000 eV/Ang^3 (de/decut=0.000000)
  Using FFTW library
  ScaLapack parameters: grid=1x1, blocksize=None
  Wavefunction extrapolation:
    Improved wavefunction reuse through dual PAW basis 

  Fermi-Dirac: width=0.0010 eV

Eigensolver
   Davidson(niter=2) 

Densities:
  Coarse grid: 60*35*27 grid
  Fine grid: 120*70*54 grid
  Total Charge: 0.000000 

Density mixing:
  Method: difference
  Backend: pulay
  Linear mixing parameter: 0.05
  Mixing with 5 old densities
  Damping of long wave oscillations: 50 

Hamiltonian:
  XC and Coulomb potentials evaluated on a 120*70*54 grid
  Using the LDA Exchange-Correlation functional
 

Memory estimate:
  Process memory now: 12828.59 MiB
  Calculator: 354.82 MiB
    Density: 10.06 MiB
      Arrays: 3.79 MiB
      Localized functions: 4.71 MiB
      Mixer: 1.56 MiB
    Hamiltonian: 2.95 MiB
      Arrays: 2.82 MiB
      XC: 0.00 MiB
      Poisson: 0.00 MiB
      vbar: 0.14 MiB
    Wavefunctions: 341.80 MiB
      Arrays psit_nG: 311.46 MiB
      Eigensolver: 19.99 MiB
      Projections: 2.71 MiB
      Projectors: 4.87 MiB
      PW-descriptor: 2.77 MiB

Total number of cores used: 64
Parallelization over k-points: 16
Domain decomposition: 2 x 2 x 1

Number of atoms: 28
Number of atomic orbitals: 148
Number of bands in calculation: 112
Number of valence electrons: 180
Bands to converge: occupied

... initialized

Initializing position-dependent things.

Density initialized from atomic densities
Creating initial wave functions:
  112 bands from LCAO basis set

     .-------------------------.  
    /|         OP              |  
   / |O            O        O  |  
  /  |       O            O  P |  
 *   |O    Mn      O           |  
 |   |          OLi          O |  
 |   .P-O--------------Mn------.  
 |  /          Li    O  Mn  O /   
 | /Li O           PO        /    
 |/       Mn                /     
 *Li-----------------------*      

Positions:
   0 O     -1.360678   -2.541161   -1.202221    ( 0.0000,  0.0000,  0.0000)
   1 O     -3.121941    2.976855    1.167242    ( 0.0000,  0.0000,  0.0000)
   2 O      2.107533    0.508090    1.540712    ( 0.0000,  0.0000,  0.0000)
   3 O      3.869373   -0.072395   -0.828750    ( 0.0000,  0.0000,  0.0000)
   4 O      2.107821    2.976875    1.540792    ( 0.0000,  0.0000,  0.0000)
   5 O      3.869084   -2.541141   -0.828671    ( 0.0000,  0.0000,  0.0000)
   6 O     -1.360390   -0.072375   -1.202141    ( 0.0000,  0.0000,  0.0000)
   7 O     -3.122230    0.508109    1.167321    ( 0.0000,  0.0000,  0.0000)
   8 O     -4.413461   -1.306992   -0.794251    ( 0.0000,  0.0000,  0.0000)
   9 O     -0.069585    1.742707    1.575662    ( 0.0000,  0.0000,  0.0000)
  10 O      5.160604    1.742707    1.132822    ( 0.0000,  0.0000,  0.0000)
  11 O      0.816728   -1.306992   -1.237091    ( 0.0000,  0.0000,  0.0000)
  12 Mn    -2.570809   -1.307302    0.247161    ( 0.0000,  0.0000,  1.0000)
  13 Mn    -1.912021    1.743016   -2.122906    ( 0.0000,  0.0000, -1.0000)
  14 Mn     3.317952    1.743017    0.091411    ( 0.0000,  0.0000, -1.0000)
  15 Mn     2.659164   -1.307302    2.461478    ( 0.0000,  0.0000,  1.0000)
  16 P     -0.620664   -1.306816   -1.828465    ( 0.0000,  0.0000,  0.0000)
  17 P     -3.862097    1.742530    0.541238    ( 0.0000,  0.0000,  0.0000)
  18 P      1.367807    1.742530    2.167036    ( 0.0000,  0.0000,  0.0000)
  19 P      4.609240   -1.306816   -0.202666    ( 0.0000,  0.0000,  0.0000)
  20 O     -0.646437   -1.306845    1.374751    ( 0.0000,  0.0000,  0.0000)
  21 O     -3.836504    1.742559   -0.995565    ( 0.0000,  0.0000,  0.0000)
  22 O      1.393580    1.742559   -1.036179    ( 0.0000,  0.0000,  0.0000)
  23 O      4.583647   -1.306845    1.334136    ( 0.0000,  0.0000,  0.0000)
  24 Li    -4.856429   -2.832143   -2.200714    ( 0.0000,  0.0000,  0.0000)
  25 Li     0.373571   -2.832143    0.169286    ( 0.0000,  0.0000,  0.0000)
  26 Li    -4.856429    0.227857   -2.200714    ( 0.0000,  0.0000,  0.0000)
  27 Li     0.373571    0.217857    0.169286    ( 0.0000,  0.0000,  0.0000)

Unit cell:
           periodic     x           y           z      points  spacing
  1. axis:    yes   10.460000    0.000000    0.000000    60     0.1743
  2. axis:    yes    0.000000    6.100000    0.000000    35     0.1743
  3. axis:    yes    0.000000    0.000000    4.740000    27     0.1756

  Lengths:  10.460000   6.100000   4.740000
  Angles:   90.000000  90.000000  90.000000

Effective grid spacing dv^(1/3) = 0.1747

                     log10-error:           total        iterations:
           time      wfs    density  force  energy       poisson  magmom
iter:   1  10:14:40                       -231.920386             +0.0000
iter:   2  10:15:01  -0.55  -0.94         -231.731180             +0.0256
iter:   3  10:15:22  -0.73  -0.98         -220.597842             +0.0320
iter:   4  10:15:43  -0.92  -1.20         -218.922653             +0.2982
iter:   5  10:16:03  -1.96  -1.36         -221.906012             +0.1430
iter:   6  10:16:24  -2.13  -1.37         -220.455201             +0.0857
iter:   7  10:16:45  -2.00  -1.57         -223.954665             +0.0460
iter:   8  10:17:06  -2.20  -1.77         -225.912732             -1.3100
iter:   9  10:17:27  -2.22  -1.82         -226.669609             -0.4224
iter:  10  10:17:47  -2.13  -1.91         -226.700723             +0.0053
iter:  11  10:18:08  -2.49  -1.99         -226.363085             -0.0102
iter:  12  10:18:29  -2.38  -2.15         -226.295049             -0.0020
iter:  13  10:18:50  -3.18  -2.44         -226.250783             -0.0050
iter:  14  10:19:11  -3.36  -2.55         -226.233594             +0.0001
iter:  15  10:19:32  -3.62  -2.75         -226.231140             -0.0003
iter:  16  10:19:53  -4.52  -3.13         -226.231233             -0.0001
iter:  17  10:20:14  -5.08  -3.19         -226.229604             -0.0000
iter:  18  10:20:35  -4.51  -3.26         -226.228268             -0.0000
iter:  19  10:20:55  -5.08  -3.44         -226.228178             -0.0000
iter:  20  10:21:16  -4.83  -3.49         -226.228250             -0.0000
iter:  21  10:21:37  -5.29  -3.59         -226.227923             -0.0000
iter:  22  10:21:58  -6.28  -4.15         -226.227931             -0.0000
iter:  23  10:22:19  -6.61  -4.20         -226.227937             +0.0000
iter:  24  10:22:40  -6.39  -4.20         -226.227911             -0.0000
iter:  25  10:23:01  -6.91  -4.28         -226.227909             +0.0000
iter:  26  10:23:21  -7.30  -4.32         -226.227909             -0.0000
iter:  27  10:23:42  -7.07  -4.32         -226.227904             -0.0000
iter:  28  10:24:08  -7.80  -4.45         -226.227902             -0.0000
iter:  29  10:24:34  -7.68  -4.52    -2.44-226.227900             -0.0000
iter:  30  10:24:55  -6.92  -4.59         -226.227900             -0.0000
iter:  31  10:25:21  -7.44  -4.69    -2.30-226.227898             -0.0000
iter:  32  10:25:47  -8.72  -5.06    -3.38-226.227898             -0.0000
iter:  33  10:26:13  -7.83  -5.09    -2.91-226.227897             -0.0000
iter:  34  10:26:39  -8.08  -5.16    -2.76-226.227897             -0.0000
iter:  35  10:27:05  -9.27  -5.12    -3.19-226.227897             -0.0000
iter:  36  10:27:31  -9.85  -5.18    -3.90-226.227897             +0.0000
iter:  37  10:27:57  -8.92  -5.21    -3.06-226.227897             +0.0000
iter:  38  10:28:23  -8.84  -5.17    -2.92-226.227897             +0.0000
iter:  39  10:28:49  -9.11  -5.47    -3.32-226.227897             +0.0000
iter:  40  10:29:15  -9.81  -5.65    -3.86-226.227897             +0.0000
iter:  41  10:29:41  -9.88  -5.72    -3.41-226.227897             -0.0000
iter:  42  10:30:07 -10.81  -6.21    -4.08-226.227897             -0.0000
iter:  43  10:30:33 -10.49  -6.32    -4.03-226.227897             -0.0000
iter:  44  10:30:59 -10.85  -6.38    -4.15-226.227897             -0.0000
iter:  45  10:31:25 -11.67  -6.47    -4.40-226.227897             -0.0000
iter:  46  10:31:51 -12.02  -6.54    -4.64-226.227897             -0.0000
iter:  47  10:32:17 -11.50  -6.59    -4.56-226.227897             -0.0000
iter:  48  10:32:43 -12.03  -6.63    -4.71-226.227897             -0.0000
iter:  49  10:33:09 -12.70  -6.71    -4.86-226.227897             -0.0000
iter:  50  10:33:34 -12.78  -6.75    -4.89-226.227897             -0.0000
iter:  51  10:34:00 -11.80  -6.80    -4.37-226.227897             -0.0000
iter:  52  10:34:26 -12.41  -7.01    -4.95-226.227897             -0.0000
iter:  53  10:34:52 -13.27  -7.10    -5.67-226.227897             -0.0000
iter:  54  10:35:18 -13.22  -7.12    -5.43-226.227897             -0.0000
iter:  55  10:35:44 -12.47  -7.17    -4.88-226.227897             -0.0000
iter:  56  10:36:10 -12.80  -7.30    -5.13-226.227897             -0.0000
iter:  57  10:36:36 -13.23  -7.80    -5.63-226.227897             -0.0000
iter:  58  10:37:02 -13.83  -7.78    -5.57-226.227897             -0.0000
iter:  59  10:37:28 -14.36  -7.91    -6.07-226.227897             -0.0000

Converged after 59 iterations.

Dipole moment: (10.672083, 1.363052, -6.269478) |e|*Ang

Total magnetic moment: (0.000000, 0.000000, -0.000000)
Local magnetic moments:
   0 O  ( 0.000000,  0.000000, -0.000536)
   1 O  ( 0.000000,  0.000000,  0.000506)
   2 O  ( 0.000000,  0.000000,  0.000518)
   3 O  ( 0.000000,  0.000000, -0.000605)
   4 O  ( 0.000000,  0.000000,  0.000500)
   5 O  ( 0.000000,  0.000000, -0.000562)
   6 O  ( 0.000000,  0.000000, -0.000558)
   7 O  ( 0.000000,  0.000000,  0.000502)
   8 O  ( 0.000000,  0.000000,  0.028748)
   9 O  ( 0.000000,  0.000000, -0.028724)
  10 O  ( 0.000000,  0.000000, -0.028637)
  11 O  ( 0.000000,  0.000000,  0.028679)
  12 Mn ( 0.000000,  0.000000,  4.448235)
  13 Mn ( 0.000000,  0.000000, -4.448227)
  14 Mn ( 0.000000,  0.000000, -4.448087)
  15 Mn ( 0.000000,  0.000000,  4.448255)
  16 P  ( 0.000000,  0.000000,  0.001561)
  17 P  ( 0.000000,  0.000000, -0.001543)
  18 P  ( 0.000000,  0.000000, -0.001554)
  19 P  ( 0.000000,  0.000000,  0.001544)
  20 O  ( 0.000000,  0.000000,  0.025303)
  21 O  ( 0.000000,  0.000000, -0.025282)
  22 O  ( 0.000000,  0.000000, -0.025327)
  23 O  ( 0.000000,  0.000000,  0.025329)
  24 Li ( 0.000000,  0.000000,  0.000001)
  25 Li ( 0.000000,  0.000000,  0.000000)
  26 Li ( 0.000000,  0.000000, -0.000008)
  27 Li ( 0.000000,  0.000000,  0.000000)

Energy contributions relative to reference atoms: (reference = -196157.275402)

Kinetic:       +217.352601
Potential:     -195.237506
External:        +0.000000
XC:            -250.384144
Entropy (-ST):   -0.000000
Local:           +2.041152
--------------------------
Free energy:   -226.227897
Extrapolated:  -226.227897

Spin contamination: 9.560410 electrons
Showing only first 2 kpts
                      Up                     Down
 Kpt  Band  Eigenvalues  Occupancy  Eigenvalues  Occupancy
  0    88      5.11142    1.00000      5.10833    1.00000
  0    89      5.13591    1.00000      5.13286    1.00000
  0    90      7.28718    0.00000      7.29007    0.00000
  0    91      7.30486    0.00000      7.30789    0.00000

  1    88      5.13716    1.00000      5.13405    1.00000
  1    89      5.16643    1.00000      5.16325    1.00000
  1    90      7.23001    0.00000      7.23283    0.00000
  1    91      7.24218    0.00000      7.24518    0.00000


Fermi level: 6.58124

Gap: 1.969 eV
Transition (v -> c):
  (s=0, k=49, n=89, [-0.08, -0.42, -0.12]) -> (s=0, k=62, n=90, [-0.08, 0.08, 0.12])
Writing to born-0.01-26y+.gpw (mode='all')

Timing:                              incl.     excl.
-----------------------------------------------------------
Hamiltonian:                         0.234     0.002   0.0% |
 Atomic:                             0.064     0.064   0.0% |
  XC Correction:                     0.000     0.000   0.0% |
 Calculate atomic Hamiltonians:      0.083     0.083   0.0% |
 Communicate:                        0.001     0.001   0.0% |
 Initialize Hamiltonian:             0.000     0.000   0.0% |
 Poisson:                            0.001     0.001   0.0% |
 XC 3D grid:                         0.083     0.083   0.0% |
LCAO initialization:                65.393     0.648   0.0% |
 LCAO eigensolver:                  16.713     0.002   0.0% |
  Calculate projections:             0.029     0.029   0.0% |
  DenseAtomicCorrection:             0.046     0.046   0.0% |
  Distribute overlap matrix:         0.038     0.038   0.0% |
  Orbital Layouts:                   0.261     0.261   0.0% |
  Potential matrix:                 16.255    16.255   0.4% |
  Sum over cells:                    0.083     0.083   0.0% |
 LCAO to grid:                      46.727    46.727   1.3% ||
 Set positions (LCAO WFS):           1.305     0.187   0.0% |
  Basic WFS set positions:           0.001     0.001   0.0% |
  Basis functions set positions:     0.000     0.000   0.0% |
  P tci:                             0.506     0.506   0.0% |
  ST tci:                            0.358     0.358   0.0% |
  mktci:                             0.253     0.253   0.0% |
PWDescriptor:                        0.023     0.023   0.0% |
SCF-cycle:                        1391.007     2.446   0.1% |
 Davidson:                        1167.353   372.239  10.3% |---|
  Apply H:                          77.754    75.469   2.1% ||
   HMM T:                            2.285     2.285   0.1% |
  Subspace diag:                   167.400     0.167   0.0% |
   calc_h_matrix:                  106.453    29.414   0.8% |
    Apply H:                        77.038    74.839   2.1% ||
     HMM T:                          2.200     2.200   0.1% |
   diagonalize:                      6.068     6.068   0.2% |
   rotate_psi:                      54.712    54.712   1.5% ||
  calc. matrices:                  350.973   197.546   5.5% |-|
   Apply H:                        153.427   149.044   4.1% |-|
    HMM T:                           4.384     4.384   0.1% |
  diagonalize:                      89.017    89.017   2.5% ||
  rotate_psi:                      109.971   109.971   3.0% ||
 Density:                           45.118     0.001   0.0% |
  Atomic density matrices:           0.771     0.771   0.0% |
  Mix:                               7.264     7.264   0.2% |
  Multipole moments:                 0.022     0.022   0.0% |
  Pseudo density:                   37.061    37.059   1.0% |
   Symmetrize density:               0.002     0.002   0.0% |
 Forces:                           160.786   160.786   4.4% |-|
 Hamiltonian:                       13.027     0.123   0.0% |
  Atomic:                            3.106     3.105   0.1% |
   XC Correction:                    0.000     0.000   0.0% |
  Calculate atomic Hamiltonians:     4.834     4.834   0.1% |
  Communicate:                       0.025     0.025   0.0% |
  Poisson:                           0.044     0.044   0.0% |
  XC 3D grid:                        4.896     4.896   0.1% |
 Orthonormalize:                     2.277     0.003   0.0% |
  calc_s_matrix:                     0.266     0.266   0.0% |
  inverse-cholesky:                  0.041     0.041   0.0% |
  projections:                       1.480     1.480   0.0% |
  rotate_psi_s:                      0.486     0.486   0.0% |
Set symmetry:                        0.000     0.000   0.0% |
Other:                            2163.700  2163.700  59.8% |-----------------------|
-----------------------------------------------------------
Total:                                      3620.358 100.0%

Memory usage: 12.54 GiB
Date: Fri Apr  2 11:13:31 2021
