
  ___ ___ ___ _ _ _  
 |   |   |_  | | | | 
 | | | | | . | | | | 
 |__ |  _|___|_____|  20.10.1b1
 |___|_|             

User:   madkru@g064.nifl.fysik.dtu.dk
Date:   Sun Mar 21 23:20:51 2021
Arch:   x86_64
Pid:    60512
Python: 3.7.4
gpaw:   /home/niflheim/madkru/venv_folder/gpaw/gpaw (d0d1ca1c71)
_gpaw:  /home/niflheim/madkru/venv_folder/gpaw/build/lib.linux-x86_64-sandybridge-3.7/
        _gpaw.cpython-37m-x86_64-linux-gnu.so (4fd39e8b1e)
ase:    /home/niflheim/madkru/venv_folder/ase/ase (version 3.21.0b1-7e6c206a91)
numpy:  /home/niflheim/madkru/venv_folder/lib/python3.7/site-packages/numpy (version 1.19.4)
scipy:  /home/niflheim/madkru/venv_folder/lib/python3.7/site-packages/scipy (version 1.5.4)
libxc:  4.3.4
units:  Angstrom and eV
cores: 32
OMP_NUM_THREADS: 1

Input parameters:
  convergence: {bands: occupied,
                density: 0.0001,
                eigenstates: 4e-08,
                energy: 0.0005,
                forces: 1e-06}
  kpts: [6 6 4]
  mode: {ecut: 600.0,
         gammacentered: False,
         name: pw}
  occupations: {fixmagmom: False,
                name: fermi-dirac,
                width: 0.001}
  symmetry: {point_group: False,
             time_reversal: False}

System changes: positions, numbers, cell, pbc, initial_charges, initial_magmoms 

Initialize ...

O-setup:
  name: Oxygen
  id: 9b9d51c344dea68c822856295a461509
  Z: 8.0
  valence: 6
  core: 2
  charge: 0.0
  file: /home/modules/software/GPAW-setups/0.9.20000/O.LDA.gz
  compensation charges: gauss, rc=0.21, lmax=2
  cutoffs: 1.17(filt), 0.83(core),
  valence states:
                energy  radius
    2s(2.00)   -23.752   0.688
    2p(4.00)    -9.195   0.598
    *s           3.459   0.688
    *p          18.016   0.598
    *d           0.000   0.619

  Using partial waves for O as LCAO basis

Mn-setup:
  name: Manganese
  id: 0d715a8018be061a6e9ea6f2d364ac92
  Z: 25.0
  valence: 15
  core: 10
  charge: 0.0
  file: /home/modules/software/GPAW-setups/0.9.20000/Mn.LDA.gz
  compensation charges: gauss, rc=0.38, lmax=2
  cutoffs: 2.14(filt), 0.86(core),
  valence states:
                energy  radius
    3s(2.00)   -85.387   1.275
    4s(2.00)    -5.282   1.275
    3p(6.00)   -54.493   1.281
    4p(0.00)    -1.471   1.281
    3d(5.00)    -7.009   1.138
    *d          20.203   1.138

  Using partial waves for Mn as LCAO basis

P-setup:
  name: Phosphorus
  id: a5561c299094968922a179ab894d2e2d
  Z: 15.0
  valence: 5
  core: 10
  charge: 0.0
  file: /home/modules/software/GPAW-setups/0.9.20000/P.LDA.gz
  compensation charges: gauss, rc=0.30, lmax=2
  cutoffs: 1.69(filt), 1.81(core),
  valence states:
                energy  radius
    3s(2.00)   -14.015   0.953
    3p(3.00)    -5.596   0.953
    *s          13.197   0.953
    *p          21.615   0.953
    *d           0.000   0.953

  Using partial waves for P as LCAO basis

Li-setup:
  name: Lithium
  id: b73562207f97a71b6967473b66fe8b65
  Z: 3.0
  valence: 1
  core: 2
  charge: 0.0
  file: /home/modules/software/GPAW-setups/0.9.20000/Li.LDA.gz
  compensation charges: gauss, rc=0.33, lmax=2
  cutoffs: 1.91(filt), 2.55(core),
  valence states:
                energy  radius
    2s(1.00)    -2.874   1.058
    2p(0.00)    -1.126   1.058
    *s          24.338   1.058

  Using partial waves for Li as LCAO basis

Reference energy: -196157.275402

Spin-polarized calculation.
Magnetic moment: 0.000000

Convergence criteria:
  Maximum total energy change: 0.0005 eV / electron
  Maximum integral of absolute density change: 0.0001 electrons
  Maximum integral of absolute eigenstate change: 4e-08 eV^2
  Maximum change in atomic force: 1e-06 eV / Ang
  Maximum number of iterations: 333

Symmetries present (total): 1

  ( 1  0  0)
  ( 0  1  0)
  ( 0  0  1)

144 k-points: 6 x 6 x 4 Monkhorst-Pack grid
144 k-points in the irreducible part of the Brillouin zone
       k-points in crystal coordinates                weights
   0:    -0.41666667   -0.41666667   -0.37500000          1/144
   1:    -0.41666667   -0.41666667   -0.12500000          1/144
   2:    -0.41666667   -0.41666667    0.12500000          1/144
   3:    -0.41666667   -0.41666667    0.37500000          1/144
   4:    -0.41666667   -0.25000000   -0.37500000          1/144
   5:    -0.41666667   -0.25000000   -0.12500000          1/144
   6:    -0.41666667   -0.25000000    0.12500000          1/144
   7:    -0.41666667   -0.25000000    0.37500000          1/144
   8:    -0.41666667   -0.08333333   -0.37500000          1/144
   9:    -0.41666667   -0.08333333   -0.12500000          1/144
          ...
 143:     0.41666667    0.41666667    0.37500000          1/144

Wave functions: Plane wave expansion
  Cutoff energy: 600.000 eV
  Number of coefficients (min, max): 10068, 10125
  Pulay-stress correction: 0.000000 eV/Ang^3 (de/decut=0.000000)
  Using FFTW library
  ScaLapack parameters: grid=1x1, blocksize=None
  Wavefunction extrapolation:
    Improved wavefunction reuse through dual PAW basis 

  Fermi-Dirac: width=0.0010 eV

Eigensolver
   Davidson(niter=2, smin=None, normalize=True) 

Densities:
  Coarse grid: 60*35*27 grid
  Fine grid: 120*70*54 grid
  Total Charge: 0.000000 

Density mixing:
  Method: difference
  Backend: pulay
  Linear mixing parameter: 0.05
  Mixing with 5 old densities
  Damping of long wave oscillations: 50 

Hamiltonian:
  XC and Coulomb potentials evaluated on a 120*70*54 grid
  Using the LDA Exchange-Correlation functional
 

Memory estimate:
  Process memory now: 12809.94 MiB
  Calculator: 375.55 MiB
    Density: 20.02 MiB
      Arrays: 7.57 MiB
      Localized functions: 9.42 MiB
      Mixer: 3.03 MiB
    Hamiltonian: 5.90 MiB
      Arrays: 5.62 MiB
      XC: 0.00 MiB
      Poisson: 0.00 MiB
      vbar: 0.27 MiB
    Wavefunctions: 349.64 MiB
      Arrays psit_nG: 311.46 MiB
      Eigensolver: 19.99 MiB
      Projections: 5.41 MiB
      Projectors: 9.73 MiB
      PW-descriptor: 3.03 MiB

Total number of cores used: 32
Parallelization over k-points: 16
Domain decomposition: 2 x 1 x 1

Number of atoms: 28
Number of atomic orbitals: 148
Number of bands in calculation: 112
Number of valence electrons: 180
Bands to converge: occupied

... initialized

Initializing position-dependent things.

Density initialized from atomic densities
Creating initial wave functions:
  112 bands from LCAO basis set

     .-------------------------.  
    /|         OP              |  
   / |O            O        O  |  
  /  |       O            O  P |  
 *   |O    Mn      O           |  
 |   |          OLi          O |  
 |   .P-O--------------Mn------.  
 |  /          Li    O  Mn  O /   
 | /Li O           PO        /    
 |/       Mn                /     
 *Li-----------------------*      

Positions:
   0 O     -1.360678   -2.541161   -1.202221    ( 0.0000,  0.0000,  0.0000)
   1 O     -3.121941    2.976855    1.167242    ( 0.0000,  0.0000,  0.0000)
   2 O      2.107533    0.508090    1.540712    ( 0.0000,  0.0000,  0.0000)
   3 O      3.869373   -0.072395   -0.838750    ( 0.0000,  0.0000,  0.0000)
   4 O      2.107821    2.976875    1.540792    ( 0.0000,  0.0000,  0.0000)
   5 O      3.869084   -2.541141   -0.828671    ( 0.0000,  0.0000,  0.0000)
   6 O     -1.360390   -0.072375   -1.202141    ( 0.0000,  0.0000,  0.0000)
   7 O     -3.122230    0.508109    1.167321    ( 0.0000,  0.0000,  0.0000)
   8 O     -4.413461   -1.306992   -0.794251    ( 0.0000,  0.0000,  0.0000)
   9 O     -0.069585    1.742707    1.575662    ( 0.0000,  0.0000,  0.0000)
  10 O      5.160604    1.742707    1.132822    ( 0.0000,  0.0000,  0.0000)
  11 O      0.816728   -1.306992   -1.237091    ( 0.0000,  0.0000,  0.0000)
  12 Mn    -2.570809   -1.307302    0.247161    ( 0.0000,  0.0000,  1.0000)
  13 Mn    -1.912021    1.743016   -2.122906    ( 0.0000,  0.0000, -1.0000)
  14 Mn     3.317952    1.743017    0.091411    ( 0.0000,  0.0000, -1.0000)
  15 Mn     2.659164   -1.307302    2.461478    ( 0.0000,  0.0000,  1.0000)
  16 P     -0.620664   -1.306816   -1.828465    ( 0.0000,  0.0000,  0.0000)
  17 P     -3.862097    1.742530    0.541238    ( 0.0000,  0.0000,  0.0000)
  18 P      1.367807    1.742530    2.167036    ( 0.0000,  0.0000,  0.0000)
  19 P      4.609240   -1.306816   -0.202666    ( 0.0000,  0.0000,  0.0000)
  20 O     -0.646437   -1.306845    1.374751    ( 0.0000,  0.0000,  0.0000)
  21 O     -3.836504    1.742559   -0.995565    ( 0.0000,  0.0000,  0.0000)
  22 O      1.393580    1.742559   -1.036179    ( 0.0000,  0.0000,  0.0000)
  23 O      4.583647   -1.306845    1.334136    ( 0.0000,  0.0000,  0.0000)
  24 Li    -4.856429   -2.832143   -2.200714    ( 0.0000,  0.0000,  0.0000)
  25 Li     0.373571   -2.832143    0.169286    ( 0.0000,  0.0000,  0.0000)
  26 Li    -4.856429    0.217857   -2.200714    ( 0.0000,  0.0000,  0.0000)
  27 Li     0.373571    0.217857    0.169286    ( 0.0000,  0.0000,  0.0000)

Unit cell:
           periodic     x           y           z      points  spacing
  1. axis:    yes   10.460000    0.000000    0.000000    60     0.1743
  2. axis:    yes    0.000000    6.100000    0.000000    35     0.1743
  3. axis:    yes    0.000000    0.000000    4.740000    27     0.1756

  Lengths:  10.460000   6.100000   4.740000
  Angles:   90.000000  90.000000  90.000000

Effective grid spacing dv^(1/3) = 0.1747

                     log10-error:           total        iterations:
           time      wfs    density  force  energy       poisson  magmom
iter:   1  23:23:52                       -231.921431             +0.0000
iter:   2  23:24:31  -0.55  -0.94         -231.723381             +0.0053
iter:   3  23:25:11  -0.72  -0.98         -220.582096             +0.0066
iter:   4  23:25:50  -0.95  -1.20         -218.861820             +0.0022
iter:   5  23:26:29  -1.92  -1.36         -222.229416             +0.0014
iter:   6  23:27:09  -1.98  -1.44         -220.887891             +0.0007
iter:   7  23:27:48  -2.07  -1.65         -224.244777             +0.0004
iter:   8  23:28:27  -1.86  -1.85         -225.845873             +0.0000
iter:   9  23:29:07  -2.84  -1.82         -226.840374             +0.0000
iter:  10  23:29:46  -2.58  -1.83         -226.807389             +0.0000
iter:  11  23:30:25  -2.08  -1.89         -226.541198             +0.0000
iter:  12  23:31:04  -2.97  -1.99         -226.490332             +0.0000
iter:  13  23:31:44  -1.80  -2.00         -226.579955             +0.0000
iter:  14  23:32:23  -2.75  -2.30         -226.326315             +0.0000
iter:  15  23:33:02  -2.73  -2.51         -226.233802             +0.0000
iter:  16  23:33:42  -3.50  -2.73         -226.238899             +0.0000
iter:  17  23:34:21  -4.17  -2.85         -226.232419             -0.0000
iter:  18  23:35:00  -4.18  -2.92         -226.231465             +0.0000
iter:  19  23:35:39  -4.51  -2.99         -226.231580             +0.0000
iter:  20  23:36:18  -5.04  -3.03         -226.230448             +0.0000
iter:  21  23:36:58  -4.64  -3.10         -226.230484             +0.0000
iter:  22  23:37:37  -4.99  -3.24         -226.230695             +0.0000
iter:  23  23:38:16  -4.19  -3.33         -226.227566             +0.0000
iter:  24  23:38:55  -5.49  -3.88         -226.227554             +0.0000
iter:  25  23:39:35  -6.47  -4.03         -226.227557             -0.0000
iter:  26  23:40:14  -5.65  -4.07         -226.227533             -0.0000
iter:  27  23:40:53  -6.66  -4.13         -226.227527             -0.0000
iter:  28  23:41:32  -6.16  -4.23         -226.227510             +0.0000
iter:  29  23:42:12  -6.58  -4.29         -226.227515             -0.0000
iter:  30  23:42:51  -6.78  -4.45         -226.227509             -0.0000
iter:  31  23:43:41  -7.48  -4.67         -226.227509             -0.0000
iter:  32  23:44:20  -7.35  -4.72         -226.227505             +0.0000
iter:  33  23:45:00  -7.25  -4.89         -226.227509             +0.0000
iter:  34  23:45:49  -7.47  -4.88    -2.37-226.227505             +0.0000
iter:  35  23:46:39  -7.63  -5.21    -2.85-226.227505             +0.0000
iter:  36  23:47:29  -8.00  -5.33    -2.92-226.227505             +0.0000
iter:  37  23:48:19  -8.68  -5.45    -3.48-226.227505             +0.0000
iter:  38  23:49:09  -9.07  -5.53    -3.59-226.227505             +0.0000
iter:  39  23:49:59  -9.71  -5.61    -3.63-226.227505             +0.0000
iter:  40  23:50:49  -9.53  -5.65    -3.69-226.227505             +0.0000
iter:  41  23:51:39 -10.22  -5.81    -3.71-226.227505             +0.0000
iter:  42  23:52:29  -9.82  -6.07    -3.91-226.227505             +0.0000
iter:  43  23:53:18 -10.70  -6.22    -4.03-226.227505             +0.0000
iter:  44  23:54:08 -11.51  -6.37    -4.74-226.227505             +0.0000
iter:  45  23:54:58 -11.46  -6.39    -4.36-226.227505             +0.0000
iter:  46  23:55:48 -11.21  -6.43    -4.37-226.227505             +0.0000
iter:  47  23:56:38 -11.78  -6.56    -4.63-226.227505             +0.0000
iter:  48  23:57:28 -12.31  -6.57    -4.91-226.227505             +0.0000
iter:  49  23:58:17 -12.26  -6.58    -4.74-226.227505             +0.0000
iter:  50  23:59:07 -11.01  -6.62    -4.36-226.227505             +0.0000
iter:  51  23:59:57 -12.20  -6.93    -5.00-226.227505             +0.0000
iter:  52  00:00:47 -12.17  -6.98    -4.89-226.227505             +0.0000
iter:  53  00:01:37 -12.28  -7.05    -4.99-226.227505             +0.0000
iter:  54  00:02:27 -12.99  -7.11    -5.00-226.227505             +0.0000
iter:  55  00:03:17 -13.15  -7.18    -5.55-226.227505             +0.0000
iter:  56  00:04:07 -12.87  -7.21    -5.35-226.227505             +0.0000
iter:  57  00:04:56 -13.09  -7.44    -5.56-226.227505             +0.0000
iter:  58  00:05:46 -13.75  -7.51    -5.71-226.227505             +0.0000
iter:  59  00:06:36 -13.57  -7.55    -5.31-226.227505             +0.0000
iter:  60  00:07:26 -14.25  -7.72    -5.82-226.227505             +0.0000
iter:  61  00:08:16 -14.15  -7.81    -5.90-226.227505             +0.0000
iter:  62  00:09:06 -13.22  -7.88    -5.57-226.227505             +0.0000
iter:  63  00:09:56 -14.61  -7.99    -6.28-226.227505             +0.0000

Converged after 63 iterations.

Dipole moment: (10.672213, 1.414910, -6.298069) |e|*Ang

Total magnetic moment: (0.000000, 0.000000, 0.000000)
Local magnetic moments:
   0 O  ( 0.000000,  0.000000, -0.000511)
   1 O  ( 0.000000,  0.000000,  0.000546)
   2 O  ( 0.000000,  0.000000,  0.000582)
   3 O  ( 0.000000,  0.000000, -0.000271)
   4 O  ( 0.000000,  0.000000,  0.000386)
   5 O  ( 0.000000,  0.000000, -0.000528)
   6 O  ( 0.000000,  0.000000, -0.000535)
   7 O  ( 0.000000,  0.000000,  0.000564)
   8 O  ( 0.000000,  0.000000,  0.028771)
   9 O  ( 0.000000,  0.000000, -0.028709)
  10 O  ( 0.000000,  0.000000, -0.028640)
  11 O  ( 0.000000,  0.000000,  0.028712)
  12 Mn ( 0.000000,  0.000000,  4.448170)
  13 Mn ( 0.000000,  0.000000, -4.448231)
  14 Mn ( 0.000000,  0.000000, -4.448494)
  15 Mn ( 0.000000,  0.000000,  4.447801)
  16 P  ( 0.000000,  0.000000,  0.001569)
  17 P  ( 0.000000,  0.000000, -0.001536)
  18 P  ( 0.000000,  0.000000, -0.001551)
  19 P  ( 0.000000,  0.000000,  0.001713)
  20 O  ( 0.000000,  0.000000,  0.025318)
  21 O  ( 0.000000,  0.000000, -0.025298)
  22 O  ( 0.000000,  0.000000, -0.025300)
  23 O  ( 0.000000,  0.000000,  0.025284)
  24 Li ( 0.000000,  0.000000,  0.000000)
  25 Li ( 0.000000,  0.000000,  0.000001)
  26 Li ( 0.000000,  0.000000,  0.000007)
  27 Li ( 0.000000,  0.000000, -0.000001)

Energy contributions relative to reference atoms: (reference = -196157.275402)

Kinetic:       +217.106789
Potential:     -195.049554
External:        +0.000000
XC:            -250.326474
Entropy (-ST):   -0.000000
Local:           +2.041735
--------------------------
Free energy:   -226.227505
Extrapolated:  -226.227505

Spin contamination: 9.560287 electrons
Showing only first 2 kpts
                      Up                     Down
 Kpt  Band  Eigenvalues  Occupancy  Eigenvalues  Occupancy
  0    88      5.11261    0.00694      5.10829    0.00694
  0    89      5.13627    0.00694      5.13291    0.00694
  0    90      7.28890    0.00000      7.29071    0.00000
  0    91      7.30653    0.00000      7.30929    0.00000

  1    88      5.13825    0.00694      5.13425    0.00694
  1    89      5.16717    0.00694      5.16353    0.00694
  1    90      7.23159    0.00000      7.23301    0.00000
  1    91      7.24383    0.00000      7.24628    0.00000


Fermi level: 6.15233

Gap: 1.970 eV
Transition (v -> c):
  (s=0, k=70, n=89, [-0.08, 0.42, 0.12]) -> (s=0, k=58, n=90, [-0.08, -0.08, 0.12])
Writing to born-0.01-3z-.gpw (mode='all')

Timing:                              incl.     excl.
-----------------------------------------------------------
Hamiltonian:                         0.445     0.003   0.0% |
 Atomic:                             0.094     0.094   0.0% |
  XC Correction:                     0.000     0.000   0.0% |
 Calculate atomic Hamiltonians:      0.178     0.178   0.0% |
 Communicate:                        0.002     0.002   0.0% |
 Initialize Hamiltonian:             0.000     0.000   0.0% |
 Poisson:                            0.002     0.002   0.0% |
 XC 3D grid:                         0.166     0.166   0.0% |
LCAO initialization:               135.229     0.708   0.0% |
 LCAO eigensolver:                  33.873     0.002   0.0% |
  Calculate projections:             0.057     0.057   0.0% |
  DenseAtomicCorrection:             0.083     0.083   0.0% |
  Distribute overlap matrix:         0.113     0.113   0.0% |
  Orbital Layouts:                   0.362     0.362   0.0% |
  Potential matrix:                 33.166    33.166   0.5% |
  Sum over cells:                    0.090     0.090   0.0% |
 LCAO to grid:                      98.375    98.375   1.6% ||
 Set positions (LCAO WFS):           2.273     0.350   0.0% |
  Basic WFS set positions:           0.001     0.001   0.0% |
  Basis functions set positions:     0.000     0.000   0.0% |
  P tci:                             1.058     1.058   0.0% |
  ST tci:                            0.658     0.658   0.0% |
  mktci:                             0.207     0.207   0.0% |
PWDescriptor:                        0.025     0.025   0.0% |
SCF-cycle:                        2806.775     5.240   0.1% |
 Davidson:                        2348.264   768.035  12.7% |----|
  Apply H:                         163.595   157.966   2.6% ||
   HMM T:                            5.629     5.629   0.1% |
  Subspace diag:                   345.969     0.198   0.0% |
   calc_h_matrix:                  223.585    62.273   1.0% |
    Apply H:                       161.312   156.010   2.6% ||
     HMM T:                          5.302     5.302   0.1% |
   diagonalize:                      7.731     7.731   0.1% |
   rotate_psi:                     114.455   114.455   1.9% ||
  calc. matrices:                  733.187   416.303   6.9% |--|
   Apply H:                        316.885   307.015   5.1% |-|
    HMM T:                           9.870     9.870   0.2% |
  diagonalize:                     104.893   104.893   1.7% ||
  rotate_psi:                      232.584   232.584   3.8% |-|
 Density:                           93.314     0.002   0.0% |
  Atomic density matrices:           1.637     1.637   0.0% |
  Mix:                              15.393    15.393   0.3% |
  Multipole moments:                 0.038     0.038   0.0% |
  Pseudo density:                   76.245    76.243   1.3% ||
   Symmetrize density:               0.002     0.002   0.0% |
 Forces:                           329.382   329.382   5.4% |-|
 Hamiltonian:                       26.161     0.150   0.0% |
  Atomic:                            3.386     3.385   0.1% |
   XC Correction:                    0.000     0.000   0.0% |
  Calculate atomic Hamiltonians:    11.323    11.323   0.2% |
  Communicate:                       0.121     0.121   0.0% |
  Poisson:                           0.100     0.100   0.0% |
  XC 3D grid:                       11.081    11.081   0.2% |
 Orthonormalize:                     4.414     0.004   0.0% |
  calc_s_matrix:                     0.524     0.524   0.0% |
  inverse-cholesky:                  0.055     0.055   0.0% |
  projections:                       2.898     2.898   0.0% |
  rotate_psi_s:                      0.933     0.933   0.0% |
Set symmetry:                        0.000     0.000   0.0% |
Other:                            3124.646  3124.646  51.5% |--------------------|
-----------------------------------------------------------
Total:                                      6067.120 100.0%

Memory usage: 12.51 GiB
Date: Mon Mar 22 01:01:59 2021
