
  ___ ___ ___ _ _ _  
 |   |   |_  | | | | 
 | | | | | . | | | | 
 |__ |  _|___|_____|  20.10.1b1
 |___|_|             

User:   madkru@g064.nifl.fysik.dtu.dk
Date:   Mon Mar 22 23:00:04 2021
Arch:   x86_64
Pid:    60512
Python: 3.7.4
gpaw:   /home/niflheim/madkru/venv_folder/gpaw/gpaw (d0d1ca1c71)
_gpaw:  /home/niflheim/madkru/venv_folder/gpaw/build/lib.linux-x86_64-sandybridge-3.7/
        _gpaw.cpython-37m-x86_64-linux-gnu.so (4fd39e8b1e)
ase:    /home/niflheim/madkru/venv_folder/ase/ase (version 3.21.0b1-7e6c206a91)
numpy:  /home/niflheim/madkru/venv_folder/lib/python3.7/site-packages/numpy (version 1.19.4)
scipy:  /home/niflheim/madkru/venv_folder/lib/python3.7/site-packages/scipy (version 1.5.4)
libxc:  4.3.4
units:  Angstrom and eV
cores: 32
OMP_NUM_THREADS: 1

Input parameters:
  convergence: {bands: occupied,
                density: 0.0001,
                eigenstates: 4e-08,
                energy: 0.0005,
                forces: 1e-06}
  kpts: [6 6 4]
  mode: {ecut: 600.0,
         gammacentered: False,
         name: pw}
  occupations: {fixmagmom: False,
                name: fermi-dirac,
                width: 0.001}
  symmetry: {point_group: False,
             time_reversal: False}

System changes: positions, numbers, cell, pbc, initial_charges, initial_magmoms 

Initialize ...

O-setup:
  name: Oxygen
  id: 9b9d51c344dea68c822856295a461509
  Z: 8.0
  valence: 6
  core: 2
  charge: 0.0
  file: /home/modules/software/GPAW-setups/0.9.20000/O.LDA.gz
  compensation charges: gauss, rc=0.21, lmax=2
  cutoffs: 1.17(filt), 0.83(core),
  valence states:
                energy  radius
    2s(2.00)   -23.752   0.688
    2p(4.00)    -9.195   0.598
    *s           3.459   0.688
    *p          18.016   0.598
    *d           0.000   0.619

  Using partial waves for O as LCAO basis

Mn-setup:
  name: Manganese
  id: 0d715a8018be061a6e9ea6f2d364ac92
  Z: 25.0
  valence: 15
  core: 10
  charge: 0.0
  file: /home/modules/software/GPAW-setups/0.9.20000/Mn.LDA.gz
  compensation charges: gauss, rc=0.38, lmax=2
  cutoffs: 2.14(filt), 0.86(core),
  valence states:
                energy  radius
    3s(2.00)   -85.387   1.275
    4s(2.00)    -5.282   1.275
    3p(6.00)   -54.493   1.281
    4p(0.00)    -1.471   1.281
    3d(5.00)    -7.009   1.138
    *d          20.203   1.138

  Using partial waves for Mn as LCAO basis

P-setup:
  name: Phosphorus
  id: a5561c299094968922a179ab894d2e2d
  Z: 15.0
  valence: 5
  core: 10
  charge: 0.0
  file: /home/modules/software/GPAW-setups/0.9.20000/P.LDA.gz
  compensation charges: gauss, rc=0.30, lmax=2
  cutoffs: 1.69(filt), 1.81(core),
  valence states:
                energy  radius
    3s(2.00)   -14.015   0.953
    3p(3.00)    -5.596   0.953
    *s          13.197   0.953
    *p          21.615   0.953
    *d           0.000   0.953

  Using partial waves for P as LCAO basis

Li-setup:
  name: Lithium
  id: b73562207f97a71b6967473b66fe8b65
  Z: 3.0
  valence: 1
  core: 2
  charge: 0.0
  file: /home/modules/software/GPAW-setups/0.9.20000/Li.LDA.gz
  compensation charges: gauss, rc=0.33, lmax=2
  cutoffs: 1.91(filt), 2.55(core),
  valence states:
                energy  radius
    2s(1.00)    -2.874   1.058
    2p(0.00)    -1.126   1.058
    *s          24.338   1.058

  Using partial waves for Li as LCAO basis

Reference energy: -196157.275402

Spin-polarized calculation.
Magnetic moment: 0.000000

Convergence criteria:
  Maximum total energy change: 0.0005 eV / electron
  Maximum integral of absolute density change: 0.0001 electrons
  Maximum integral of absolute eigenstate change: 4e-08 eV^2
  Maximum change in atomic force: 1e-06 eV / Ang
  Maximum number of iterations: 333

Symmetries present (total): 1

  ( 1  0  0)
  ( 0  1  0)
  ( 0  0  1)

144 k-points: 6 x 6 x 4 Monkhorst-Pack grid
144 k-points in the irreducible part of the Brillouin zone
       k-points in crystal coordinates                weights
   0:    -0.41666667   -0.41666667   -0.37500000          1/144
   1:    -0.41666667   -0.41666667   -0.12500000          1/144
   2:    -0.41666667   -0.41666667    0.12500000          1/144
   3:    -0.41666667   -0.41666667    0.37500000          1/144
   4:    -0.41666667   -0.25000000   -0.37500000          1/144
   5:    -0.41666667   -0.25000000   -0.12500000          1/144
   6:    -0.41666667   -0.25000000    0.12500000          1/144
   7:    -0.41666667   -0.25000000    0.37500000          1/144
   8:    -0.41666667   -0.08333333   -0.37500000          1/144
   9:    -0.41666667   -0.08333333   -0.12500000          1/144
          ...
 143:     0.41666667    0.41666667    0.37500000          1/144

Wave functions: Plane wave expansion
  Cutoff energy: 600.000 eV
  Number of coefficients (min, max): 10068, 10125
  Pulay-stress correction: 0.000000 eV/Ang^3 (de/decut=0.000000)
  Using FFTW library
  ScaLapack parameters: grid=1x1, blocksize=None
  Wavefunction extrapolation:
    Improved wavefunction reuse through dual PAW basis 

  Fermi-Dirac: width=0.0010 eV

Eigensolver
   Davidson(niter=2, smin=None, normalize=True) 

Densities:
  Coarse grid: 60*35*27 grid
  Fine grid: 120*70*54 grid
  Total Charge: 0.000000 

Density mixing:
  Method: difference
  Backend: pulay
  Linear mixing parameter: 0.05
  Mixing with 5 old densities
  Damping of long wave oscillations: 50 

Hamiltonian:
  XC and Coulomb potentials evaluated on a 120*70*54 grid
  Using the LDA Exchange-Correlation functional
 

Memory estimate:
  Process memory now: 13498.57 MiB
  Calculator: 375.55 MiB
    Density: 20.02 MiB
      Arrays: 7.57 MiB
      Localized functions: 9.42 MiB
      Mixer: 3.03 MiB
    Hamiltonian: 5.90 MiB
      Arrays: 5.62 MiB
      XC: 0.00 MiB
      Poisson: 0.00 MiB
      vbar: 0.27 MiB
    Wavefunctions: 349.64 MiB
      Arrays psit_nG: 311.46 MiB
      Eigensolver: 19.99 MiB
      Projections: 5.41 MiB
      Projectors: 9.73 MiB
      PW-descriptor: 3.03 MiB

Total number of cores used: 32
Parallelization over k-points: 16
Domain decomposition: 2 x 1 x 1

Number of atoms: 28
Number of atomic orbitals: 148
Number of bands in calculation: 112
Number of valence electrons: 180
Bands to converge: occupied

... initialized

Initializing position-dependent things.

Density initialized from atomic densities
Creating initial wave functions:
  112 bands from LCAO basis set

     .-------------------------.  
    /|         OP              |  
   / |O            O        O  |  
  /  |       O            O  P |  
 *   |O    Mn      O           |  
 |   |          OLi          O |  
 |   .P-O--------------Mn------.  
 |  /          Li    O  Mn  O /   
 | /Li O           PO        /    
 |/       Mn                /     
 *Li-----------------------*      

Positions:
   0 O     -1.360678   -2.541161   -1.202221    ( 0.0000,  0.0000,  0.0000)
   1 O     -3.121941    2.976855    1.167242    ( 0.0000,  0.0000,  0.0000)
   2 O      2.107533    0.508090    1.540712    ( 0.0000,  0.0000,  0.0000)
   3 O      3.869373   -0.072395   -0.828750    ( 0.0000,  0.0000,  0.0000)
   4 O      2.107821    2.976875    1.540792    ( 0.0000,  0.0000,  0.0000)
   5 O      3.869084   -2.541141   -0.828671    ( 0.0000,  0.0000,  0.0000)
   6 O     -1.360390   -0.072375   -1.202141    ( 0.0000,  0.0000,  0.0000)
   7 O     -3.122230    0.508109    1.167321    ( 0.0000,  0.0000,  0.0000)
   8 O     -4.423461   -1.306992   -0.794251    ( 0.0000,  0.0000,  0.0000)
   9 O     -0.069585    1.742707    1.575662    ( 0.0000,  0.0000,  0.0000)
  10 O      5.160604    1.742707    1.132822    ( 0.0000,  0.0000,  0.0000)
  11 O      0.816728   -1.306992   -1.237091    ( 0.0000,  0.0000,  0.0000)
  12 Mn    -2.570809   -1.307302    0.247161    ( 0.0000,  0.0000,  1.0000)
  13 Mn    -1.912021    1.743016   -2.122906    ( 0.0000,  0.0000, -1.0000)
  14 Mn     3.317952    1.743017    0.091411    ( 0.0000,  0.0000, -1.0000)
  15 Mn     2.659164   -1.307302    2.461478    ( 0.0000,  0.0000,  1.0000)
  16 P     -0.620664   -1.306816   -1.828465    ( 0.0000,  0.0000,  0.0000)
  17 P     -3.862097    1.742530    0.541238    ( 0.0000,  0.0000,  0.0000)
  18 P      1.367807    1.742530    2.167036    ( 0.0000,  0.0000,  0.0000)
  19 P      4.609240   -1.306816   -0.202666    ( 0.0000,  0.0000,  0.0000)
  20 O     -0.646437   -1.306845    1.374751    ( 0.0000,  0.0000,  0.0000)
  21 O     -3.836504    1.742559   -0.995565    ( 0.0000,  0.0000,  0.0000)
  22 O      1.393580    1.742559   -1.036179    ( 0.0000,  0.0000,  0.0000)
  23 O      4.583647   -1.306845    1.334136    ( 0.0000,  0.0000,  0.0000)
  24 Li    -4.856429   -2.832143   -2.200714    ( 0.0000,  0.0000,  0.0000)
  25 Li     0.373571   -2.832143    0.169286    ( 0.0000,  0.0000,  0.0000)
  26 Li    -4.856429    0.217857   -2.200714    ( 0.0000,  0.0000,  0.0000)
  27 Li     0.373571    0.217857    0.169286    ( 0.0000,  0.0000,  0.0000)

Unit cell:
           periodic     x           y           z      points  spacing
  1. axis:    yes   10.460000    0.000000    0.000000    60     0.1743
  2. axis:    yes    0.000000    6.100000    0.000000    35     0.1743
  3. axis:    yes    0.000000    0.000000    4.740000    27     0.1756

  Lengths:  10.460000   6.100000   4.740000
  Angles:   90.000000  90.000000  90.000000

Effective grid spacing dv^(1/3) = 0.1747

                     log10-error:           total        iterations:
           time      wfs    density  force  energy       poisson  magmom
iter:   1  23:03:05                       -231.921277             +0.0000
iter:   2  23:03:44  -0.55  -0.94         -231.745456             +0.0009
iter:   3  23:04:23  -0.72  -0.98         -220.572025             +0.0011
iter:   4  23:05:03  -0.96  -1.20         -218.842543             +0.0004
iter:   5  23:05:42  -1.98  -1.36         -220.495014             +0.0002
iter:   6  23:06:22  -1.68  -1.56         -217.756205             +0.0001
iter:   7  23:07:01  -2.29  -1.94         -217.668541             +0.1754
iter:   8  23:07:41  -2.97  -1.87         -218.500397             +0.1403
iter:   9  23:08:20  -2.81  -1.84         -218.698637             +0.2155
iter:  10  23:09:00  -2.48  -1.85         -218.006534             +0.4254
iter:  11  23:09:39  -3.80  -1.85         -218.145654             +0.3928
iter:  12  23:10:18  -2.01  -1.84         -217.771753             +0.7591
iter:  13  23:10:58  -2.86  -1.85         -217.865391             +0.7914
iter:  14  23:11:37  -2.47  -1.94         -218.571826             +1.6001
iter:  15  23:12:17  -2.61  -2.03         -219.366991             +1.7054
iter:  16  23:12:56  -2.76  -1.86         -219.784746             +1.8860
iter:  17  23:13:35  -2.84  -2.00         -221.396185             +0.8215
iter:  18  23:14:15  -2.61  -1.94         -222.661166             -1.1936
iter:  19  23:14:54  -3.17  -1.92         -223.392963             -1.6072
iter:  20  23:15:34  -2.55  -1.92         -225.122234             -2.2979
iter:  21  23:16:13  -3.43  -1.87         -225.342424             -1.9585
iter:  22  23:16:52  -2.46  -1.87         -226.767118             +0.0239
iter:  23  23:17:32  -2.42  -1.84         -226.986821             +0.0963
iter:  24  23:18:11  -2.13  -1.87         -228.285474             +0.0244
iter:  25  23:18:50  -3.19  -1.79         -227.043771             -0.0292
iter:  26  23:19:30  -2.18  -1.92         -226.638011             -0.0878
iter:  27  23:20:09  -2.58  -2.00         -226.570538             -0.0148
iter:  28  23:20:49  -2.34  -2.04         -226.411093             -0.0671
iter:  29  23:21:28  -2.66  -2.10         -226.469855             -0.0224
iter:  30  23:22:07  -2.64  -2.23         -226.565838             -0.0109
iter:  31  23:22:47  -3.48  -2.27         -226.700220             -0.0316
iter:  32  23:23:26  -2.89  -2.16         -226.680528             -0.0059
iter:  33  23:24:05  -3.22  -2.34         -226.401452             +0.0533
iter:  34  23:24:45  -3.47  -2.69         -226.332074             +0.1505
iter:  35  23:25:24  -3.34  -2.74         -226.268948             +0.0449
iter:  36  23:26:03  -3.59  -2.80         -226.240903             -0.0134
iter:  37  23:26:43  -3.58  -2.84         -226.228561             -0.0045
iter:  38  23:27:22  -3.29  -2.95         -226.205370             -0.0040
iter:  39  23:28:01  -3.99  -3.01         -226.206266             -0.0013
iter:  40  23:28:41  -3.92  -3.14         -226.209400             -0.0008
iter:  41  23:29:20  -4.65  -3.39         -226.206551             -0.0002
iter:  42  23:29:59  -4.57  -3.44         -226.204846             -0.0002
iter:  43  23:30:39  -5.86  -3.48         -226.204868             -0.0001
iter:  44  23:31:18  -4.94  -3.51         -226.205543             +0.0000
iter:  45  23:31:57  -5.53  -3.75         -226.204878             +0.0000
iter:  46  23:32:37  -5.89  -3.79         -226.204747             +0.0000
iter:  47  23:33:16  -6.48  -3.85         -226.204716             +0.0000
iter:  48  23:33:55  -6.12  -3.90         -226.204659             +0.0000
iter:  49  23:34:35  -6.15  -4.04         -226.204630             +0.0000
iter:  50  23:35:14  -6.68  -4.06         -226.204646             +0.0000
iter:  51  23:35:53  -6.05  -4.12         -226.204726             +0.0000
iter:  52  23:36:33  -6.53  -4.33         -226.204650             -0.0000
iter:  53  23:37:12  -6.63  -4.42         -226.204623             +0.0000
iter:  54  23:37:51  -6.64  -4.50         -226.204607             +0.0000
iter:  55  23:38:30  -7.24  -4.56         -226.204604             -0.0000
iter:  56  23:39:20  -8.06  -4.66         -226.204604             -0.0000
iter:  57  23:40:00  -7.06  -4.70         -226.204602             -0.0000
iter:  58  23:40:50  -8.13  -4.85    -2.63-226.204602             -0.0000
iter:  59  23:41:39  -8.33  -4.89    -3.35-226.204602             -0.0000
iter:  60  23:42:29  -8.01  -4.95    -2.96-226.204602             -0.0000
iter:  61  23:43:19  -8.84  -4.99    -3.22-226.204602             -0.0000
iter:  62  23:44:09  -8.19  -5.05    -2.78-226.204602             -0.0000
iter:  63  23:44:59  -8.37  -5.05    -2.90-226.204602             -0.0000
iter:  64  23:45:49  -7.94  -5.11    -2.98-226.204602             -0.0000
iter:  65  23:46:39  -8.32  -5.20    -3.14-226.204602             -0.0000
iter:  66  23:47:29  -8.40  -5.23    -3.15-226.204602             -0.0000
iter:  67  23:48:19  -9.10  -5.70    -3.36-226.204602             -0.0000
iter:  68  23:49:09  -9.58  -5.81    -3.77-226.204602             -0.0000
iter:  69  23:49:59 -10.44  -5.89    -4.11-226.204602             -0.0000
iter:  70  23:50:49 -10.25  -5.93    -3.96-226.204602             -0.0000
iter:  71  23:51:39  -9.95  -5.96    -3.74-226.204602             -0.0000
iter:  72  23:52:28 -10.63  -6.09    -4.30-226.204602             -0.0000
iter:  73  23:53:18 -10.91  -6.11    -4.31-226.204602             -0.0000
iter:  74  23:54:08 -10.82  -6.22    -3.99-226.204602             -0.0000
iter:  75  23:54:58 -11.39  -6.60    -4.64-226.204602             -0.0000
iter:  76  23:55:48 -11.37  -6.70    -4.76-226.204602             -0.0000
iter:  77  23:56:38 -11.27  -6.80    -4.44-226.204602             -0.0000
iter:  78  23:57:28 -11.32  -6.92    -4.59-226.204602             -0.0000
iter:  79  23:58:18 -12.59  -7.09    -5.25-226.204602             -0.0000
iter:  80  23:59:08 -11.81  -7.12    -4.48-226.204602             -0.0000
iter:  81  23:59:58 -11.85  -7.14    -4.82-226.204602             -0.0000
iter:  82  00:00:48 -12.57  -7.53    -5.24-226.204602             -0.0000
iter:  83  00:01:38 -13.35  -7.62    -5.58-226.204602             -0.0000
iter:  84  00:02:27 -13.29  -7.64    -5.33-226.204602             -0.0000
iter:  85  00:03:17 -13.90  -7.71    -5.50-226.204602             -0.0000
iter:  86  00:04:07 -14.36  -7.76    -5.96-226.204602             -0.0000
iter:  87  00:04:57 -13.58  -7.79    -5.94-226.204602             -0.0000
iter:  88  00:05:47 -14.30  -7.91    -5.94-226.204602             -0.0000
iter:  89  00:06:37 -14.84  -7.98    -5.88-226.204602             -0.0000
iter:  90  00:07:27 -14.06  -8.05    -5.77-226.204602             -0.0000
iter:  91  00:08:17 -15.07  -8.14    -6.31-226.204602             -0.0000

Converged after 91 iterations.

Dipole moment: (10.682632, 1.414329, -6.275434) |e|*Ang

Total magnetic moment: (0.000000, 0.000000, -0.000000)
Local magnetic moments:
   0 O  ( 0.000000,  0.000000,  0.004345)
   1 O  ( 0.000000,  0.000000, -0.004374)
   2 O  ( 0.000000,  0.000000,  0.004412)
   3 O  ( 0.000000,  0.000000, -0.004392)
   4 O  ( 0.000000,  0.000000,  0.004391)
   5 O  ( 0.000000,  0.000000, -0.004370)
   6 O  ( 0.000000,  0.000000,  0.004366)
   7 O  ( 0.000000,  0.000000, -0.004395)
   8 O  ( 0.000000,  0.000000, -0.026774)
   9 O  ( 0.000000,  0.000000,  0.027209)
  10 O  ( 0.000000,  0.000000, -0.027077)
  11 O  ( 0.000000,  0.000000,  0.027035)
  12 Mn ( 0.000000,  0.000000, -4.453236)
  13 Mn ( 0.000000,  0.000000,  4.452331)
  14 Mn ( 0.000000,  0.000000, -4.452087)
  15 Mn ( 0.000000,  0.000000,  4.452247)
  16 P  ( 0.000000,  0.000000,  0.009443)
  17 P  ( 0.000000,  0.000000, -0.009432)
  18 P  ( 0.000000,  0.000000,  0.009405)
  19 P  ( 0.000000,  0.000000, -0.009244)
  20 O  ( 0.000000,  0.000000, -0.024452)
  21 O  ( 0.000000,  0.000000,  0.024255)
  22 O  ( 0.000000,  0.000000, -0.024237)
  23 O  ( 0.000000,  0.000000,  0.024307)
  24 Li ( 0.000000,  0.000000, -0.000484)
  25 Li ( 0.000000,  0.000000,  0.000512)
  26 Li ( 0.000000,  0.000000, -0.000486)
  27 Li ( 0.000000,  0.000000,  0.000514)

Energy contributions relative to reference atoms: (reference = -196157.275402)

Kinetic:       +218.163851
Potential:     -195.835069
External:        +0.000000
XC:            -250.572817
Entropy (-ST):   -0.000000
Local:           +2.039434
--------------------------
Free energy:   -226.204602
Extrapolated:  -226.204602

Spin contamination: 9.572925 electrons
Showing only first 2 kpts
                      Up                     Down
 Kpt  Band  Eigenvalues  Occupancy  Eigenvalues  Occupancy
  0    88      5.10958    0.00694      5.09365    0.00694
  0    89      5.16260    0.00694      5.16021    0.00694
  0    90      7.27240    0.00000      7.27759    0.00000
  0    91      7.30059    0.00000      7.30315    0.00000

  1    88      5.14612    0.00694      5.13191    0.00694
  1    89      5.19831    0.00694      5.19552    0.00694
  1    90      7.21410    0.00000      7.22176    0.00000
  1    91      7.24152    0.00000      7.24269    0.00000


Fermi level: 5.81793

Gap: 1.909 eV
Transition (v -> c):
  (s=0, k=89, n=89, [0.08, 0.25, -0.12]) -> (s=0, k=81, n=90, [0.08, -0.08, -0.12])
Writing to born-0.01-8x-.gpw (mode='all')

Timing:                              incl.     excl.
-----------------------------------------------------------
Hamiltonian:                         0.421     0.003   0.0% |
 Atomic:                             0.069     0.069   0.0% |
  XC Correction:                     0.000     0.000   0.0% |
 Calculate atomic Hamiltonians:      0.179     0.179   0.0% |
 Communicate:                        0.003     0.003   0.0% |
 Initialize Hamiltonian:             0.000     0.000   0.0% |
 Poisson:                            0.002     0.002   0.0% |
 XC 3D grid:                         0.165     0.165   0.0% |
LCAO initialization:               133.207     0.677   0.0% |
 LCAO eigensolver:                  34.248     0.003   0.0% |
  Calculate projections:             0.057     0.057   0.0% |
  DenseAtomicCorrection:             0.083     0.083   0.0% |
  Distribute overlap matrix:         0.617     0.617   0.0% |
  Orbital Layouts:                   0.363     0.363   0.0% |
  Potential matrix:                 33.027    33.027   0.5% |
  Sum over cells:                    0.099     0.099   0.0% |
 LCAO to grid:                      96.016    96.016   1.3% ||
 Set positions (LCAO WFS):           2.266     0.346   0.0% |
  Basic WFS set positions:           0.001     0.001   0.0% |
  Basis functions set positions:     0.000     0.000   0.0% |
  P tci:                             1.059     1.059   0.0% |
  ST tci:                            0.655     0.655   0.0% |
  mktci:                             0.205     0.205   0.0% |
PWDescriptor:                        0.025     0.025   0.0% |
SCF-cycle:                        3957.148    19.103   0.3% |
 Davidson:                        3387.981  1108.543  15.1% |-----|
  Apply H:                         234.916   227.365   3.1% ||
   HMM T:                            7.551     7.551   0.1% |
  Subspace diag:                   498.254     0.290   0.0% |
   calc_h_matrix:                  321.812    89.800   1.2% |
    Apply H:                       232.012   224.723   3.1% ||
     HMM T:                          7.288     7.288   0.1% |
   diagonalize:                     10.917    10.917   0.1% |
   rotate_psi:                     165.236   165.236   2.3% ||
  calc. matrices:                 1059.320   600.752   8.2% |--|
   Apply H:                        458.568   444.537   6.1% |-|
    HMM T:                          14.031    14.031   0.2% |
  diagonalize:                     151.490   151.490   2.1% ||
  rotate_psi:                      335.458   335.458   4.6% |-|
 Density:                          135.860     0.003   0.0% |
  Atomic density matrices:           2.416     2.416   0.0% |
  Mix:                              22.264    22.264   0.3% |
  Multipole moments:                 0.054     0.054   0.0% |
  Pseudo density:                  111.124   111.121   1.5% ||
   Symmetrize density:               0.003     0.003   0.0% |
 Forces:                           371.835   371.835   5.1% |-|
 Hamiltonian:                       37.943     0.211   0.0% |
  Atomic:                            4.933     4.932   0.1% |
   XC Correction:                    0.001     0.001   0.0% |
  Calculate atomic Hamiltonians:    16.409    16.409   0.2% |
  Communicate:                       0.156     0.156   0.0% |
  Poisson:                           0.150     0.150   0.0% |
  XC 3D grid:                       16.084    16.084   0.2% |
 Orthonormalize:                     4.426     0.004   0.0% |
  calc_s_matrix:                     0.525     0.525   0.0% |
  inverse-cholesky:                  0.056     0.056   0.0% |
  projections:                       2.905     2.905   0.0% |
  rotate_psi_s:                      0.936     0.936   0.0% |
Set symmetry:                        0.000     0.000   0.0% |
Other:                            3227.047  3227.047  44.1% |-----------------|
-----------------------------------------------------------
Total:                                      7317.848 100.0%

Memory usage: 13.19 GiB
Date: Tue Mar 23 01:02:02 2021
