
  ___ ___ ___ _ _ _  
 |   |   |_  | | | | 
 | | | | | . | | | | 
 |__ |  _|___|_____|  21.1.1b1
 |___|_|             

User:   madkru@g043.nifl.fysik.dtu.dk
Date:   Wed Mar 31 16:28:58 2021
Arch:   x86_64
Pid:    39387
Python: 3.8.6
gpaw:   /home/niflheim/madkru/venv_madkru/gpaw/gpaw (e6f0d78a31)
_gpaw:  /home/niflheim/madkru/venv_madkru/gpaw/build/lib.linux-x86_64-sandybridge-3.8/
        _gpaw.cpython-38-x86_64-linux-gnu.so (e6f0d78a31)
ase:    /home/niflheim/madkru/venv_madkru/ase/ase (version 3.22.0b1-4d5a73cb29)
numpy:  /home/modules/software/SciPy-bundle/2020.11-foss-2020b/lib/python3.8/site-packages/numpy (version 1.19.4)
scipy:  /home/modules/software/SciPy-bundle/2020.11-foss-2020b/lib/python3.8/site-packages/scipy (version 1.5.4)
libxc:  4.3.4
units:  Angstrom and eV
cores: 64
OpenMP: False
OMP_NUM_THREADS: 1

Input parameters:
  convergence: {bands: occupied,
                density: 0.0001,
                eigenstates: 4e-08,
                energy: 0.0005,
                forces: 1e-06}
  kpts: [6 6 4]
  maxiter: 1000
  mode: {ecut: 600.0,
         gammacentered: False,
         name: pw}
  occupations: {fixmagmom: False,
                name: fermi-dirac,
                width: 0.001}
  symmetry: {point_group: False,
             time_reversal: False}

System changes: positions, numbers, cell, pbc, initial_charges, initial_magmoms 

Initialize ...

O-setup:
  name: Oxygen
  id: 9b9d51c344dea68c822856295a461509
  Z: 8.0
  valence: 6
  core: 2
  charge: 0.0
  file: /home/modules/software/GPAW-setups/0.9.20000/O.LDA.gz
  compensation charges: gauss, rc=0.21, lmax=2
  cutoffs: 1.17(filt), 0.83(core),
  valence states:
                energy  radius
    2s(2.00)   -23.752   0.688
    2p(4.00)    -9.195   0.598
    *s           3.459   0.688
    *p          18.016   0.598
    *d           0.000   0.619

  Using partial waves for O as LCAO basis

Mn-setup:
  name: Manganese
  id: 0d715a8018be061a6e9ea6f2d364ac92
  Z: 25.0
  valence: 15
  core: 10
  charge: 0.0
  file: /home/modules/software/GPAW-setups/0.9.20000/Mn.LDA.gz
  compensation charges: gauss, rc=0.38, lmax=2
  cutoffs: 2.14(filt), 0.86(core),
  valence states:
                energy  radius
    3s(2.00)   -85.387   1.275
    4s(2.00)    -5.282   1.275
    3p(6.00)   -54.493   1.281
    4p(0.00)    -1.471   1.281
    3d(5.00)    -7.009   1.138
    *d          20.203   1.138

  Using partial waves for Mn as LCAO basis

P-setup:
  name: Phosphorus
  id: a5561c299094968922a179ab894d2e2d
  Z: 15.0
  valence: 5
  core: 10
  charge: 0.0
  file: /home/modules/software/GPAW-setups/0.9.20000/P.LDA.gz
  compensation charges: gauss, rc=0.30, lmax=2
  cutoffs: 1.69(filt), 1.81(core),
  valence states:
                energy  radius
    3s(2.00)   -14.015   0.953
    3p(3.00)    -5.596   0.953
    *s          13.197   0.953
    *p          21.615   0.953
    *d           0.000   0.953

  Using partial waves for P as LCAO basis

Li-setup:
  name: Lithium
  id: b73562207f97a71b6967473b66fe8b65
  Z: 3.0
  valence: 1
  core: 2
  charge: 0.0
  file: /home/modules/software/GPAW-setups/0.9.20000/Li.LDA.gz
  compensation charges: gauss, rc=0.33, lmax=2
  cutoffs: 1.91(filt), 2.55(core),
  valence states:
                energy  radius
    2s(1.00)    -2.874   1.058
    2p(0.00)    -1.126   1.058
    *s          24.338   1.058

  Using partial waves for Li as LCAO basis

Reference energy: -196157.275402

Spin-polarized calculation.
Magnetic moment: 0.000000

Convergence criteria:
  Maximum total energy change: 0.0005 eV / electron
  Maximum integral of absolute density change: 0.0001 electrons
  Maximum integral of absolute eigenstate change: 4e-08 eV^2
  Maximum change in atomic force: 1e-06 eV / Ang
  Maximum number of iterations: 1000

Symmetries present (total): 1

  ( 1  0  0)
  ( 0  1  0)
  ( 0  0  1)

144 k-points: 6 x 6 x 4 Monkhorst-Pack grid
144 k-points in the irreducible part of the Brillouin zone
       k-points in crystal coordinates                weights
   0:    -0.41666667   -0.41666667   -0.37500000          1/144
   1:    -0.41666667   -0.41666667   -0.12500000          1/144
   2:    -0.41666667   -0.41666667    0.12500000          1/144
   3:    -0.41666667   -0.41666667    0.37500000          1/144
   4:    -0.41666667   -0.25000000   -0.37500000          1/144
   5:    -0.41666667   -0.25000000   -0.12500000          1/144
   6:    -0.41666667   -0.25000000    0.12500000          1/144
   7:    -0.41666667   -0.25000000    0.37500000          1/144
   8:    -0.41666667   -0.08333333   -0.37500000          1/144
   9:    -0.41666667   -0.08333333   -0.12500000          1/144
          ...
 143:     0.41666667    0.41666667    0.37500000          1/144

Wave functions: Plane wave expansion
  Cutoff energy: 600.000 eV
  Number of coefficients (min, max): 10068, 10125
  Pulay-stress correction: 0.000000 eV/Ang^3 (de/decut=0.000000)
  Using FFTW library
  ScaLapack parameters: grid=1x1, blocksize=None
  Wavefunction extrapolation:
    Improved wavefunction reuse through dual PAW basis 

  Fermi-Dirac: width=0.0010 eV

Eigensolver
   Davidson(niter=2) 

Densities:
  Coarse grid: 60*35*27 grid
  Fine grid: 120*70*54 grid
  Total Charge: 0.000000 

Density mixing:
  Method: difference
  Backend: pulay
  Linear mixing parameter: 0.05
  Mixing with 5 old densities
  Damping of long wave oscillations: 50 

Hamiltonian:
  XC and Coulomb potentials evaluated on a 120*70*54 grid
  Using the LDA Exchange-Correlation functional
 

Memory estimate:
  Process memory now: 14415.33 MiB
  Calculator: 354.82 MiB
    Density: 10.06 MiB
      Arrays: 3.79 MiB
      Localized functions: 4.71 MiB
      Mixer: 1.56 MiB
    Hamiltonian: 2.95 MiB
      Arrays: 2.82 MiB
      XC: 0.00 MiB
      Poisson: 0.00 MiB
      vbar: 0.14 MiB
    Wavefunctions: 341.80 MiB
      Arrays psit_nG: 311.46 MiB
      Eigensolver: 19.99 MiB
      Projections: 2.71 MiB
      Projectors: 4.87 MiB
      PW-descriptor: 2.77 MiB

Total number of cores used: 64
Parallelization over k-points: 16
Domain decomposition: 2 x 2 x 1

Number of atoms: 28
Number of atomic orbitals: 148
Number of bands in calculation: 112
Number of valence electrons: 180
Bands to converge: occupied

... initialized

Initializing position-dependent things.

Density initialized from atomic densities
Creating initial wave functions:
  112 bands from LCAO basis set

     .-------------------------.  
    /|         OP              |  
   / |O            O        O  |  
  /  |       O            O  P |  
 *   |O    Mn      O           |  
 |   |          OLi          O |  
 |   .P-O--------------Mn------.  
 |  /          Li    O  Mn  O /   
 | /Li O           PO        /    
 |/       Mn                /     
 *Li-----------------------*      

Positions:
   0 O     -1.360678   -2.541161   -1.202221    ( 0.0000,  0.0000,  0.0000)
   1 O     -3.121941    2.976855    1.167242    ( 0.0000,  0.0000,  0.0000)
   2 O      2.107533    0.508090    1.540712    ( 0.0000,  0.0000,  0.0000)
   3 O      3.869373   -0.072395   -0.828750    ( 0.0000,  0.0000,  0.0000)
   4 O      2.107821    2.976875    1.540792    ( 0.0000,  0.0000,  0.0000)
   5 O      3.869084   -2.541141   -0.828671    ( 0.0000,  0.0000,  0.0000)
   6 O     -1.360390   -0.072375   -1.202141    ( 0.0000,  0.0000,  0.0000)
   7 O     -3.122230    0.508109    1.167321    ( 0.0000,  0.0000,  0.0000)
   8 O     -4.413461   -1.306992   -0.794251    ( 0.0000,  0.0000,  0.0000)
   9 O     -0.069585    1.742707    1.575662    ( 0.0000,  0.0000,  0.0000)
  10 O      5.160604    1.742707    1.132822    ( 0.0000,  0.0000,  0.0000)
  11 O      0.816728   -1.306992   -1.237091    ( 0.0000,  0.0000,  0.0000)
  12 Mn    -2.570809   -1.307302    0.247161    ( 0.0000,  0.0000,  1.0000)
  13 Mn    -1.912021    1.743016   -2.122906    ( 0.0000,  0.0000, -1.0000)
  14 Mn     3.317952    1.743017    0.091411    ( 0.0000,  0.0000, -1.0000)
  15 Mn     2.659164   -1.307302    2.461478    ( 0.0000,  0.0000,  1.0000)
  16 P     -0.620664   -1.306816   -1.828465    ( 0.0000,  0.0000,  0.0000)
  17 P     -3.862097    1.742530    0.541238    ( 0.0000,  0.0000,  0.0000)
  18 P      1.367807    1.742530    2.167036    ( 0.0000,  0.0000,  0.0000)
  19 P      4.609240   -1.296816   -0.202666    ( 0.0000,  0.0000,  0.0000)
  20 O     -0.646437   -1.306845    1.374751    ( 0.0000,  0.0000,  0.0000)
  21 O     -3.836504    1.742559   -0.995565    ( 0.0000,  0.0000,  0.0000)
  22 O      1.393580    1.742559   -1.036179    ( 0.0000,  0.0000,  0.0000)
  23 O      4.583647   -1.306845    1.334136    ( 0.0000,  0.0000,  0.0000)
  24 Li    -4.856429   -2.832143   -2.200714    ( 0.0000,  0.0000,  0.0000)
  25 Li     0.373571   -2.832143    0.169286    ( 0.0000,  0.0000,  0.0000)
  26 Li    -4.856429    0.217857   -2.200714    ( 0.0000,  0.0000,  0.0000)
  27 Li     0.373571    0.217857    0.169286    ( 0.0000,  0.0000,  0.0000)

Unit cell:
           periodic     x           y           z      points  spacing
  1. axis:    yes   10.460000    0.000000    0.000000    60     0.1743
  2. axis:    yes    0.000000    6.100000    0.000000    35     0.1743
  3. axis:    yes    0.000000    0.000000    4.740000    27     0.1756

  Lengths:  10.460000   6.100000   4.740000
  Angles:   90.000000  90.000000  90.000000

Effective grid spacing dv^(1/3) = 0.1747

                     log10-error:           total        iterations:
           time      wfs    density  force  energy       poisson  magmom
iter:   1  16:30:33                       -231.918352             +0.0000
iter:   2  16:30:54  -0.55  -0.94         -231.728986             +0.0055
iter:   3  16:31:15  -0.72  -0.98         -220.582731             +0.0069
iter:   4  16:31:37  -0.96  -1.20         -218.864262             +0.0023
iter:   5  16:31:58  -1.94  -1.36         -221.273265             +0.0015
iter:   6  16:32:19  -1.99  -1.50         -219.989516             +0.0008
iter:   7  16:32:41  -2.21  -1.68         -223.155830             +0.2099
iter:   8  16:33:02  -2.72  -1.89         -220.030631             +0.3014
iter:   9  16:33:23  -2.10  -1.93         -225.827319             +0.4463
iter:  10  16:33:44  -2.24  -1.86         -227.312468             -0.2315
iter:  11  16:34:06  -2.70  -1.82         -227.099894             -0.0310
iter:  12  16:34:28  -2.07  -1.83         -227.081509             -0.0047
iter:  13  16:34:49  -2.66  -1.85         -227.067445             -0.0117
iter:  14  16:35:10  -2.33  -1.96         -227.190686             +0.0006
iter:  15  16:35:32  -2.65  -2.11         -226.932629             -0.0064
iter:  16  16:35:53  -2.72  -2.21         -226.713084             -0.0008
iter:  17  16:36:14  -1.98  -2.27         -226.368065             -0.0003
iter:  18  16:36:36  -3.01  -2.37         -226.388231             -0.0002
iter:  19  16:36:57  -2.96  -2.42         -226.243056             -0.0003
iter:  20  16:37:18  -3.54  -2.49         -226.280841             -0.0001
iter:  21  16:37:39  -3.42  -2.56         -226.243192             -0.0000
iter:  22  16:38:01  -3.47  -2.90         -226.231753             -0.0000
iter:  23  16:38:22  -3.98  -3.00         -226.226119             -0.0000
iter:  24  16:38:43  -4.08  -3.19         -226.227014             -0.0000
iter:  25  16:39:05  -5.31  -3.40         -226.226550             -0.0000
iter:  26  16:39:26  -4.86  -3.46         -226.225749             -0.0000
iter:  27  16:39:47  -5.31  -3.62         -226.225848             -0.0000
iter:  28  16:40:08  -5.37  -3.67         -226.225646             -0.0000
iter:  29  16:40:30  -5.86  -3.76         -226.225684             -0.0000
iter:  30  16:40:51  -5.89  -3.83         -226.225546             -0.0000
iter:  31  16:41:12  -6.26  -4.03         -226.225535             -0.0000
iter:  32  16:41:34  -6.54  -4.07         -226.225516             +0.0000
iter:  33  16:41:55  -6.88  -4.18         -226.225512             +0.0000
iter:  34  16:42:16  -6.29  -4.21         -226.225517             +0.0000
iter:  35  16:42:43  -7.49  -4.40         -226.225510             +0.0000
iter:  36  16:43:04  -7.39  -4.44         -226.225504             -0.0000
iter:  37  16:43:31  -7.59  -4.50    -2.61-226.225502             +0.0000
iter:  38  16:43:52  -7.13  -4.63         -226.225501             -0.0000
iter:  39  16:44:19  -8.28  -4.64    -2.57-226.225500             +0.0000
iter:  40  16:44:46  -7.69  -4.66    -2.49-226.225500             +0.0000
iter:  41  16:45:12  -8.36  -4.73    -3.10-226.225500             +0.0000
iter:  42  16:45:39  -7.87  -4.75    -2.59-226.225500             -0.0000
iter:  43  16:46:06  -8.46  -5.15    -2.96-226.225500             +0.0000
iter:  44  16:46:33  -8.95  -5.36    -3.61-226.225500             +0.0000
iter:  45  16:46:59  -9.18  -5.44    -3.20-226.225500             +0.0000
iter:  46  16:47:26  -8.75  -5.65    -3.28-226.225500             +0.0000
iter:  47  16:47:53  -9.02  -5.62    -3.34-226.225500             +0.0000
iter:  48  16:48:20  -9.27  -5.98    -3.68-226.225500             +0.0000
iter:  49  16:48:46  -9.56  -6.03    -3.56-226.225500             +0.0000
iter:  50  16:49:13 -10.56  -6.28    -4.09-226.225500             +0.0000
iter:  51  16:49:40 -10.99  -6.46    -4.42-226.225500             +0.0000
iter:  52  16:50:07 -10.85  -6.46    -4.05-226.225500             +0.0000
iter:  53  16:50:33 -10.65  -6.60    -4.11-226.225500             +0.0000
iter:  54  16:51:00 -11.72  -6.64    -4.64-226.225500             +0.0000
iter:  55  16:51:27 -10.97  -6.78    -4.35-226.225500             +0.0000
iter:  56  16:51:54 -11.46  -6.85    -4.56-226.225500             +0.0000
iter:  57  16:52:20 -12.69  -7.20    -4.99-226.225500             +0.0000
iter:  58  16:52:47 -12.79  -7.32    -5.12-226.225500             +0.0000
iter:  59  16:53:14 -12.80  -7.49    -5.24-226.225500             +0.0000
iter:  60  16:53:41 -13.03  -7.59    -5.33-226.225500             +0.0000
iter:  61  16:54:07 -13.06  -7.68    -5.34-226.225500             +0.0000
iter:  62  16:54:34 -13.07  -7.72    -5.56-226.225500             +0.0000
iter:  63  16:55:01 -14.15  -8.15    -5.85-226.225500             +0.0000
iter:  64  16:55:28 -14.90  -8.24    -6.06-226.225500             +0.0000

Converged after 64 iterations.

Dipole moment: (10.671459, 1.437658, -6.269789) |e|*Ang

Total magnetic moment: (0.000000, 0.000000, 0.000000)
Local magnetic moments:
   0 O  ( 0.000000,  0.000000, -0.000516)
   1 O  ( 0.000000,  0.000000,  0.000520)
   2 O  ( 0.000000,  0.000000,  0.000519)
   3 O  ( 0.000000,  0.000000, -0.000676)
   4 O  ( 0.000000,  0.000000,  0.000535)
   5 O  ( 0.000000,  0.000000, -0.000419)
   6 O  ( 0.000000,  0.000000, -0.000541)
   7 O  ( 0.000000,  0.000000,  0.000567)
   8 O  ( 0.000000,  0.000000,  0.028694)
   9 O  ( 0.000000,  0.000000, -0.028702)
  10 O  ( 0.000000,  0.000000, -0.028692)
  11 O  ( 0.000000,  0.000000,  0.028701)
  12 Mn ( 0.000000,  0.000000,  4.448161)
  13 Mn ( 0.000000,  0.000000, -4.448240)
  14 Mn ( 0.000000,  0.000000, -4.448143)
  15 Mn ( 0.000000,  0.000000,  4.448226)
  16 P  ( 0.000000,  0.000000,  0.001558)
  17 P  ( 0.000000,  0.000000, -0.001543)
  18 P  ( 0.000000,  0.000000, -0.001558)
  19 P  ( 0.000000,  0.000000,  0.001546)
  20 O  ( 0.000000,  0.000000,  0.025314)
  21 O  ( 0.000000,  0.000000, -0.025306)
  22 O  ( 0.000000,  0.000000, -0.025315)
  23 O  ( 0.000000,  0.000000,  0.025306)
  24 Li ( 0.000000,  0.000000, -0.000004)
  25 Li ( 0.000000,  0.000000, -0.000000)
  26 Li ( 0.000000,  0.000000,  0.000004)
  27 Li ( 0.000000,  0.000000,  0.000000)

Energy contributions relative to reference atoms: (reference = -196157.275402)

Kinetic:       +217.364061
Potential:     -195.246041
External:        +0.000000
XC:            -250.384644
Entropy (-ST):   -0.000000
Local:           +2.041125
--------------------------
Free energy:   -226.225500
Extrapolated:  -226.225500

Spin contamination: 9.560396 electrons
Showing only first 2 kpts
                      Up                     Down
 Kpt  Band  Eigenvalues  Occupancy  Eigenvalues  Occupancy
  0    88      5.10978    1.00000      5.10990    1.00000
  0    89      5.13444    1.00000      5.13430    1.00000
  0    90      7.28860    0.00000      7.28865    0.00000
  0    91      7.30637    0.00000      7.30639    0.00000

  1    88      5.13569    1.00000      5.13555    1.00000
  1    89      5.16472    1.00000      5.16481    1.00000
  1    90      7.23141    0.00000      7.23146    0.00000
  1    91      7.24366    0.00000      7.24368    0.00000


Fermi level: 6.13100

Gap: 1.972 eV
Transition (v -> c):
  (s=0, k=69, n=89, [-0.08, 0.42, -0.12]) -> (s=0, k=61, n=90, [-0.08, 0.08, -0.12])
Writing to born-0.01-19y+.gpw (mode='all')

Timing:                              incl.     excl.
-----------------------------------------------------------
Hamiltonian:                         0.250     0.002   0.0% |
 Atomic:                             0.061     0.061   0.0% |
  XC Correction:                     0.000     0.000   0.0% |
 Calculate atomic Hamiltonians:      0.094     0.094   0.0% |
 Communicate:                        0.001     0.001   0.0% |
 Initialize Hamiltonian:             0.000     0.000   0.0% |
 Poisson:                            0.001     0.001   0.0% |
 XC 3D grid:                         0.091     0.091   0.0% |
LCAO initialization:                69.738     0.674   0.0% |
 LCAO eigensolver:                  17.881     0.003   0.0% |
  Calculate projections:             0.029     0.029   0.0% |
  DenseAtomicCorrection:             0.043     0.043   0.0% |
  Distribute overlap matrix:         0.033     0.033   0.0% |
  Orbital Layouts:                   0.279     0.279   0.0% |
  Potential matrix:                 17.410    17.410   0.5% |
  Sum over cells:                    0.084     0.084   0.0% |
 LCAO to grid:                      49.870    49.870   1.3% ||
 Set positions (LCAO WFS):           1.314     0.216   0.0% |
  Basic WFS set positions:           0.001     0.001   0.0% |
  Basis functions set positions:     0.000     0.000   0.0% |
  P tci:                             0.514     0.514   0.0% |
  ST tci:                            0.369     0.369   0.0% |
  mktci:                             0.213     0.213   0.0% |
PWDescriptor:                        0.025     0.025   0.0% |
SCF-cycle:                        1518.306     7.138   0.2% |
 Davidson:                        1287.931   411.341  11.0% |---|
  Apply H:                          87.277    84.672   2.3% ||
   HMM T:                            2.605     2.605   0.1% |
  Subspace diag:                   185.668     0.185   0.0% |
   calc_h_matrix:                  118.375    32.404   0.9% |
    Apply H:                        85.972    83.559   2.2% ||
     HMM T:                          2.412     2.412   0.1% |
   diagonalize:                      6.634     6.634   0.2% |
   rotate_psi:                      60.473    60.473   1.6% ||
  calc. matrices:                  383.374   214.628   5.8% |-|
   Apply H:                        168.746   164.047   4.4% |-|
    HMM T:                           4.700     4.700   0.1% |
  diagonalize:                      99.761    99.761   2.7% ||
  rotate_psi:                      120.510   120.510   3.2% ||
 Density:                           51.490     0.002   0.0% |
  Atomic density matrices:           0.866     0.866   0.0% |
  Mix:                               8.781     8.781   0.2% |
  Multipole moments:                 0.026     0.026   0.0% |
  Pseudo density:                   41.815    41.813   1.1% |
   Symmetrize density:               0.002     0.002   0.0% |
 Forces:                           153.774   153.774   4.1% |-|
 Hamiltonian:                       15.659     0.137   0.0% |
  Atomic:                            3.633     3.632   0.1% |
   XC Correction:                    0.000     0.000   0.0% |
  Calculate atomic Hamiltonians:     5.965     5.965   0.2% |
  Communicate:                       0.031     0.031   0.0% |
  Poisson:                           0.057     0.057   0.0% |
  XC 3D grid:                        5.837     5.837   0.2% |
 Orthonormalize:                     2.313     0.003   0.0% |
  calc_s_matrix:                     0.266     0.266   0.0% |
  inverse-cholesky:                  0.042     0.042   0.0% |
  projections:                       1.509     1.509   0.0% |
  rotate_psi_s:                      0.493     0.493   0.0% |
Set symmetry:                        0.000     0.000   0.0% |
Other:                            2140.822  2140.822  57.4% |----------------------|
-----------------------------------------------------------
Total:                                      3729.140 100.0%

Memory usage: 14.08 GiB
Date: Wed Mar 31 17:31:07 2021
