
  ___ ___ ___ _ _ _  
 |   |   |_  | | | | 
 | | | | | . | | | | 
 |__ |  _|___|_____|  20.10.1b1
 |___|_|             

User:   madkru@g064.nifl.fysik.dtu.dk
Date:   Mon Mar 22 06:21:28 2021
Arch:   x86_64
Pid:    60512
Python: 3.7.4
gpaw:   /home/niflheim/madkru/venv_folder/gpaw/gpaw (d0d1ca1c71)
_gpaw:  /home/niflheim/madkru/venv_folder/gpaw/build/lib.linux-x86_64-sandybridge-3.7/
        _gpaw.cpython-37m-x86_64-linux-gnu.so (4fd39e8b1e)
ase:    /home/niflheim/madkru/venv_folder/ase/ase (version 3.21.0b1-7e6c206a91)
numpy:  /home/niflheim/madkru/venv_folder/lib/python3.7/site-packages/numpy (version 1.19.4)
scipy:  /home/niflheim/madkru/venv_folder/lib/python3.7/site-packages/scipy (version 1.5.4)
libxc:  4.3.4
units:  Angstrom and eV
cores: 32
OMP_NUM_THREADS: 1

Input parameters:
  convergence: {bands: occupied,
                density: 0.0001,
                eigenstates: 4e-08,
                energy: 0.0005,
                forces: 1e-06}
  kpts: [6 6 4]
  mode: {ecut: 600.0,
         gammacentered: False,
         name: pw}
  occupations: {fixmagmom: False,
                name: fermi-dirac,
                width: 0.001}
  symmetry: {point_group: False,
             time_reversal: False}

System changes: positions, numbers, cell, pbc, initial_charges, initial_magmoms 

Initialize ...

O-setup:
  name: Oxygen
  id: 9b9d51c344dea68c822856295a461509
  Z: 8.0
  valence: 6
  core: 2
  charge: 0.0
  file: /home/modules/software/GPAW-setups/0.9.20000/O.LDA.gz
  compensation charges: gauss, rc=0.21, lmax=2
  cutoffs: 1.17(filt), 0.83(core),
  valence states:
                energy  radius
    2s(2.00)   -23.752   0.688
    2p(4.00)    -9.195   0.598
    *s           3.459   0.688
    *p          18.016   0.598
    *d           0.000   0.619

  Using partial waves for O as LCAO basis

Mn-setup:
  name: Manganese
  id: 0d715a8018be061a6e9ea6f2d364ac92
  Z: 25.0
  valence: 15
  core: 10
  charge: 0.0
  file: /home/modules/software/GPAW-setups/0.9.20000/Mn.LDA.gz
  compensation charges: gauss, rc=0.38, lmax=2
  cutoffs: 2.14(filt), 0.86(core),
  valence states:
                energy  radius
    3s(2.00)   -85.387   1.275
    4s(2.00)    -5.282   1.275
    3p(6.00)   -54.493   1.281
    4p(0.00)    -1.471   1.281
    3d(5.00)    -7.009   1.138
    *d          20.203   1.138

  Using partial waves for Mn as LCAO basis

P-setup:
  name: Phosphorus
  id: a5561c299094968922a179ab894d2e2d
  Z: 15.0
  valence: 5
  core: 10
  charge: 0.0
  file: /home/modules/software/GPAW-setups/0.9.20000/P.LDA.gz
  compensation charges: gauss, rc=0.30, lmax=2
  cutoffs: 1.69(filt), 1.81(core),
  valence states:
                energy  radius
    3s(2.00)   -14.015   0.953
    3p(3.00)    -5.596   0.953
    *s          13.197   0.953
    *p          21.615   0.953
    *d           0.000   0.953

  Using partial waves for P as LCAO basis

Li-setup:
  name: Lithium
  id: b73562207f97a71b6967473b66fe8b65
  Z: 3.0
  valence: 1
  core: 2
  charge: 0.0
  file: /home/modules/software/GPAW-setups/0.9.20000/Li.LDA.gz
  compensation charges: gauss, rc=0.33, lmax=2
  cutoffs: 1.91(filt), 2.55(core),
  valence states:
                energy  radius
    2s(1.00)    -2.874   1.058
    2p(0.00)    -1.126   1.058
    *s          24.338   1.058

  Using partial waves for Li as LCAO basis

Reference energy: -196157.275402

Spin-polarized calculation.
Magnetic moment: 0.000000

Convergence criteria:
  Maximum total energy change: 0.0005 eV / electron
  Maximum integral of absolute density change: 0.0001 electrons
  Maximum integral of absolute eigenstate change: 4e-08 eV^2
  Maximum change in atomic force: 1e-06 eV / Ang
  Maximum number of iterations: 333

Symmetries present (total): 1

  ( 1  0  0)
  ( 0  1  0)
  ( 0  0  1)

144 k-points: 6 x 6 x 4 Monkhorst-Pack grid
144 k-points in the irreducible part of the Brillouin zone
       k-points in crystal coordinates                weights
   0:    -0.41666667   -0.41666667   -0.37500000          1/144
   1:    -0.41666667   -0.41666667   -0.12500000          1/144
   2:    -0.41666667   -0.41666667    0.12500000          1/144
   3:    -0.41666667   -0.41666667    0.37500000          1/144
   4:    -0.41666667   -0.25000000   -0.37500000          1/144
   5:    -0.41666667   -0.25000000   -0.12500000          1/144
   6:    -0.41666667   -0.25000000    0.12500000          1/144
   7:    -0.41666667   -0.25000000    0.37500000          1/144
   8:    -0.41666667   -0.08333333   -0.37500000          1/144
   9:    -0.41666667   -0.08333333   -0.12500000          1/144
          ...
 143:     0.41666667    0.41666667    0.37500000          1/144

Wave functions: Plane wave expansion
  Cutoff energy: 600.000 eV
  Number of coefficients (min, max): 10068, 10125
  Pulay-stress correction: 0.000000 eV/Ang^3 (de/decut=0.000000)
  Using FFTW library
  ScaLapack parameters: grid=1x1, blocksize=None
  Wavefunction extrapolation:
    Improved wavefunction reuse through dual PAW basis 

  Fermi-Dirac: width=0.0010 eV

Eigensolver
   Davidson(niter=2, smin=None, normalize=True) 

Densities:
  Coarse grid: 60*35*27 grid
  Fine grid: 120*70*54 grid
  Total Charge: 0.000000 

Density mixing:
  Method: difference
  Backend: pulay
  Linear mixing parameter: 0.05
  Mixing with 5 old densities
  Damping of long wave oscillations: 50 

Hamiltonian:
  XC and Coulomb potentials evaluated on a 120*70*54 grid
  Using the LDA Exchange-Correlation functional
 

Memory estimate:
  Process memory now: 13005.01 MiB
  Calculator: 375.55 MiB
    Density: 20.02 MiB
      Arrays: 7.57 MiB
      Localized functions: 9.42 MiB
      Mixer: 3.03 MiB
    Hamiltonian: 5.90 MiB
      Arrays: 5.62 MiB
      XC: 0.00 MiB
      Poisson: 0.00 MiB
      vbar: 0.27 MiB
    Wavefunctions: 349.64 MiB
      Arrays psit_nG: 311.46 MiB
      Eigensolver: 19.99 MiB
      Projections: 5.41 MiB
      Projectors: 9.73 MiB
      PW-descriptor: 3.03 MiB

Total number of cores used: 32
Parallelization over k-points: 16
Domain decomposition: 2 x 1 x 1

Number of atoms: 28
Number of atomic orbitals: 148
Number of bands in calculation: 112
Number of valence electrons: 180
Bands to converge: occupied

... initialized

Initializing position-dependent things.

Density initialized from atomic densities
Creating initial wave functions:
  112 bands from LCAO basis set

     .-------------------------.  
    /|         OP              |  
   / |O            O        O  |  
  /  |       O            O  P |  
 *   |O    Mn      O           |  
 |   |          OLi          O |  
 |   .P-O--------------Mn------.  
 |  /          Li    O  Mn  O /   
 | /Li O           PO        /    
 |/       Mn                /     
 *Li-----------------------*      

Positions:
   0 O     -1.360678   -2.541161   -1.202221    ( 0.0000,  0.0000,  0.0000)
   1 O     -3.121941    2.976855    1.167242    ( 0.0000,  0.0000,  0.0000)
   2 O      2.107533    0.508090    1.540712    ( 0.0000,  0.0000,  0.0000)
   3 O      3.869373   -0.072395   -0.828750    ( 0.0000,  0.0000,  0.0000)
   4 O      2.107821    2.976875    1.540792    ( 0.0000,  0.0000,  0.0000)
   5 O      3.859084   -2.541141   -0.828671    ( 0.0000,  0.0000,  0.0000)
   6 O     -1.360390   -0.072375   -1.202141    ( 0.0000,  0.0000,  0.0000)
   7 O     -3.122230    0.508109    1.167321    ( 0.0000,  0.0000,  0.0000)
   8 O     -4.413461   -1.306992   -0.794251    ( 0.0000,  0.0000,  0.0000)
   9 O     -0.069585    1.742707    1.575662    ( 0.0000,  0.0000,  0.0000)
  10 O      5.160604    1.742707    1.132822    ( 0.0000,  0.0000,  0.0000)
  11 O      0.816728   -1.306992   -1.237091    ( 0.0000,  0.0000,  0.0000)
  12 Mn    -2.570809   -1.307302    0.247161    ( 0.0000,  0.0000,  1.0000)
  13 Mn    -1.912021    1.743016   -2.122906    ( 0.0000,  0.0000, -1.0000)
  14 Mn     3.317952    1.743017    0.091411    ( 0.0000,  0.0000, -1.0000)
  15 Mn     2.659164   -1.307302    2.461478    ( 0.0000,  0.0000,  1.0000)
  16 P     -0.620664   -1.306816   -1.828465    ( 0.0000,  0.0000,  0.0000)
  17 P     -3.862097    1.742530    0.541238    ( 0.0000,  0.0000,  0.0000)
  18 P      1.367807    1.742530    2.167036    ( 0.0000,  0.0000,  0.0000)
  19 P      4.609240   -1.306816   -0.202666    ( 0.0000,  0.0000,  0.0000)
  20 O     -0.646437   -1.306845    1.374751    ( 0.0000,  0.0000,  0.0000)
  21 O     -3.836504    1.742559   -0.995565    ( 0.0000,  0.0000,  0.0000)
  22 O      1.393580    1.742559   -1.036179    ( 0.0000,  0.0000,  0.0000)
  23 O      4.583647   -1.306845    1.334136    ( 0.0000,  0.0000,  0.0000)
  24 Li    -4.856429   -2.832143   -2.200714    ( 0.0000,  0.0000,  0.0000)
  25 Li     0.373571   -2.832143    0.169286    ( 0.0000,  0.0000,  0.0000)
  26 Li    -4.856429    0.217857   -2.200714    ( 0.0000,  0.0000,  0.0000)
  27 Li     0.373571    0.217857    0.169286    ( 0.0000,  0.0000,  0.0000)

Unit cell:
           periodic     x           y           z      points  spacing
  1. axis:    yes   10.460000    0.000000    0.000000    60     0.1743
  2. axis:    yes    0.000000    6.100000    0.000000    35     0.1743
  3. axis:    yes    0.000000    0.000000    4.740000    27     0.1756

  Lengths:  10.460000   6.100000   4.740000
  Angles:   90.000000  90.000000  90.000000

Effective grid spacing dv^(1/3) = 0.1747

                     log10-error:           total        iterations:
           time      wfs    density  force  energy       poisson  magmom
iter:   1  06:24:28                       -231.918819             +0.0000
iter:   2  06:25:07  -0.55  -0.94         -231.715228             +0.0103
iter:   3  06:25:47  -0.72  -0.98         -220.588187             +0.0129
iter:   4  06:26:26  -0.95  -1.20         -218.872143             +0.0051
iter:   5  06:27:05  -1.92  -1.36         -222.319401             +0.0032
iter:   6  06:27:45  -1.98  -1.43         -220.933170             +0.0015
iter:   7  06:28:24  -2.06  -1.64         -224.234858             -0.0035
iter:   8  06:29:03  -1.98  -1.82         -225.737742             +0.0335
iter:   9  06:29:43  -2.65  -1.82         -226.668681             +0.0062
iter:  10  06:30:22  -1.98  -1.84         -226.565555             -0.0029
iter:  11  06:31:01  -2.19  -2.00         -226.453596             -0.0010
iter:  12  06:31:41  -2.79  -2.22         -226.297985             -0.0004
iter:  13  06:32:20  -2.42  -2.38         -226.399534             -0.0002
iter:  14  06:32:59  -2.48  -2.33         -226.273543             -0.0001
iter:  15  06:33:38  -3.13  -2.75         -226.243973             -0.0000
iter:  16  06:34:18  -3.21  -2.84         -226.231334             -0.0000
iter:  17  06:34:57  -4.10  -3.11         -226.232415             -0.0000
iter:  18  06:35:36  -3.72  -3.19         -226.230188             +0.0000
iter:  19  06:36:16  -4.34  -3.31         -226.227570             -0.0000
iter:  20  06:36:55  -5.15  -3.62         -226.227476             -0.0000
iter:  21  06:37:34  -5.34  -3.59         -226.227461             -0.0000
iter:  22  06:38:14  -5.73  -3.70         -226.227432             -0.0000
iter:  23  06:38:53  -6.65  -3.83         -226.227412             -0.0000
iter:  24  06:39:32  -6.28  -3.90         -226.227384             -0.0000
iter:  25  06:40:12  -6.47  -4.10         -226.227406             -0.0000
iter:  26  06:40:51  -6.87  -4.17         -226.227419             -0.0000
iter:  27  06:41:30  -6.16  -4.24         -226.227382             -0.0000
iter:  28  06:42:10  -7.35  -4.39         -226.227381             -0.0000
iter:  29  06:42:49  -7.26  -4.47         -226.227377             +0.0000
iter:  30  06:43:28  -6.92  -4.69         -226.227378             -0.0000
iter:  31  06:44:18  -7.51  -4.75         -226.227375             +0.0000
iter:  32  06:45:08  -7.92  -4.86    -2.89-226.227374             +0.0000
iter:  33  06:45:58  -7.52  -4.88    -2.68-226.227377             +0.0000
iter:  34  06:46:48  -7.67  -5.08    -2.72-226.227374             +0.0000
iter:  35  06:47:38  -8.03  -5.22    -2.74-226.227374             +0.0000
iter:  36  06:48:28  -9.16  -5.58    -3.37-226.227374             +0.0000
iter:  37  06:49:18  -9.89  -5.69    -3.39-226.227374             +0.0000
iter:  38  06:50:08  -9.35  -5.80    -3.54-226.227374             +0.0000
iter:  39  06:50:57  -9.94  -6.22    -4.19-226.227374             +0.0000
iter:  40  06:51:47 -10.38  -6.31    -3.98-226.227374             +0.0000
iter:  41  06:52:37 -11.56  -6.53    -4.67-226.227374             +0.0000
iter:  42  06:53:27 -11.97  -6.56    -4.98-226.227374             -0.0000
iter:  43  06:54:17 -11.10  -6.59    -4.25-226.227374             -0.0000
iter:  44  06:55:07 -12.03  -6.77    -4.78-226.227374             -0.0000
iter:  45  06:55:57 -11.91  -6.82    -4.89-226.227374             -0.0000
iter:  46  06:56:47 -12.20  -6.86    -4.52-226.227374             -0.0000
iter:  47  06:57:37 -12.11  -7.06    -4.93-226.227374             -0.0000
iter:  48  06:58:27 -12.76  -7.12    -5.07-226.227374             -0.0000
iter:  49  06:59:17 -12.23  -7.18    -5.24-226.227374             -0.0000
iter:  50  07:00:07 -13.01  -7.26    -5.52-226.227374             -0.0000
iter:  51  07:00:56 -13.85  -7.33    -5.82-226.227374             -0.0000
iter:  52  07:01:46 -12.74  -7.37    -5.03-226.227374             -0.0000
iter:  53  07:02:36 -13.67  -7.72    -5.50-226.227374             -0.0000
iter:  54  07:03:26 -14.16  -7.83    -6.07-226.227374             -0.0000

Converged after 54 iterations.

Dipole moment: (10.676298, 1.414106, -6.266963) |e|*Ang

Total magnetic moment: (0.000000, 0.000000, -0.000000)
Local magnetic moments:
   0 O  ( 0.000000,  0.000000, -0.000499)
   1 O  ( 0.000000,  0.000000,  0.000557)
   2 O  ( 0.000000,  0.000000,  0.000470)
   3 O  ( 0.000000,  0.000000, -0.000534)
   4 O  ( 0.000000,  0.000000,  0.000496)
   5 O  ( 0.000000,  0.000000, -0.000490)
   6 O  ( 0.000000,  0.000000, -0.000519)
   7 O  ( 0.000000,  0.000000,  0.000573)
   8 O  ( 0.000000,  0.000000,  0.028575)
   9 O  ( 0.000000,  0.000000, -0.028756)
  10 O  ( 0.000000,  0.000000, -0.028646)
  11 O  ( 0.000000,  0.000000,  0.028702)
  12 Mn ( 0.000000,  0.000000,  4.448140)
  13 Mn ( 0.000000,  0.000000, -4.448233)
  14 Mn ( 0.000000,  0.000000, -4.447417)
  15 Mn ( 0.000000,  0.000000,  4.447656)
  16 P  ( 0.000000,  0.000000,  0.001568)
  17 P  ( 0.000000,  0.000000, -0.001555)
  18 P  ( 0.000000,  0.000000, -0.001546)
  19 P  ( 0.000000,  0.000000,  0.001585)
  20 O  ( 0.000000,  0.000000,  0.025357)
  21 O  ( 0.000000,  0.000000, -0.025282)
  22 O  ( 0.000000,  0.000000, -0.025351)
  23 O  ( 0.000000,  0.000000,  0.025271)
  24 Li ( 0.000000,  0.000000,  0.000004)
  25 Li ( 0.000000,  0.000000, -0.000000)
  26 Li ( 0.000000,  0.000000, -0.000003)
  27 Li ( 0.000000,  0.000000,  0.000000)

Energy contributions relative to reference atoms: (reference = -196157.275402)

Kinetic:       +217.087300
Potential:     -195.035842
External:        +0.000000
XC:            -250.320327
Entropy (-ST):   -0.000000
Local:           +2.041495
--------------------------
Free energy:   -226.227374
Extrapolated:  -226.227374

Spin contamination: 9.559611 electrons
Showing only first 2 kpts
                      Up                     Down
 Kpt  Band  Eigenvalues  Occupancy  Eigenvalues  Occupancy
  0    88      5.10973    0.00694      5.11210    0.00694
  0    89      5.13697    0.00694      5.13892    0.00694
  0    90      7.29061    0.00000      7.28783    0.00000
  0    91      7.30913    0.00000      7.31161    0.00000

  1    88      5.13597    0.00694      5.13791    0.00694
  1    89      5.16698    0.00694      5.16924    0.00694
  1    90      7.23317    0.00000      7.23011    0.00000
  1    91      7.24670    0.00000      7.25114    0.00000


Fermi level: 6.36821

Gap: 1.970 eV
Transition (v -> c):
  (s=1, k=69, n=89, [-0.08, 0.42, -0.12]) -> (s=1, k=82, n=90, [0.08, -0.08, 0.12])
Writing to born-0.01-5x-.gpw (mode='all')

Timing:                              incl.     excl.
-----------------------------------------------------------
Hamiltonian:                         0.416     0.002   0.0% |
 Atomic:                             0.054     0.054   0.0% |
  XC Correction:                     0.000     0.000   0.0% |
 Calculate atomic Hamiltonians:      0.181     0.181   0.0% |
 Communicate:                        0.002     0.002   0.0% |
 Initialize Hamiltonian:             0.000     0.000   0.0% |
 Poisson:                            0.002     0.002   0.0% |
 XC 3D grid:                         0.175     0.175   0.0% |
LCAO initialization:               134.504     0.711   0.0% |
 LCAO eigensolver:                  33.952     0.003   0.0% |
  Calculate projections:             0.057     0.057   0.0% |
  DenseAtomicCorrection:             0.083     0.083   0.0% |
  Distribute overlap matrix:         0.280     0.280   0.0% |
  Orbital Layouts:                   0.363     0.363   0.0% |
  Potential matrix:                 33.078    33.078   0.6% |
  Sum over cells:                    0.088     0.088   0.0% |
 LCAO to grid:                      97.564    97.564   1.7% ||
 Set positions (LCAO WFS):           2.277     0.351   0.0% |
  Basic WFS set positions:           0.001     0.001   0.0% |
  Basis functions set positions:     0.000     0.000   0.0% |
  P tci:                             1.059     1.059   0.0% |
  ST tci:                            0.658     0.658   0.0% |
  mktci:                             0.207     0.207   0.0% |
PWDescriptor:                        0.025     0.025   0.0% |
SCF-cycle:                        2382.011     8.757   0.2% |
 Davidson:                        2011.794   658.064  11.4% |----|
  Apply H:                         139.643   135.537   2.4% ||
   HMM T:                            4.106     4.106   0.1% |
  Subspace diag:                   295.731     0.173   0.0% |
   calc_h_matrix:                  190.775    53.326   0.9% |
    Apply H:                       137.448   133.510   2.3% ||
     HMM T:                          3.938     3.938   0.1% |
   diagonalize:                      6.593     6.593   0.1% |
   rotate_psi:                      98.191    98.191   1.7% ||
  calc. matrices:                  628.947   356.685   6.2% |-|
   Apply H:                        272.262   264.768   4.6% |-|
    HMM T:                           7.494     7.494   0.1% |
  diagonalize:                      90.271    90.271   1.6% ||
  rotate_psi:                      199.137   199.137   3.5% ||
 Density:                           79.852     0.001   0.0% |
  Atomic density matrices:           1.388     1.388   0.0% |
  Mix:                              13.065    13.065   0.2% |
  Multipole moments:                 0.033     0.033   0.0% |
  Pseudo density:                   65.365    65.364   1.1% |
   Symmetrize density:               0.002     0.002   0.0% |
 Forces:                           254.837   254.837   4.4% |-|
 Hamiltonian:                       22.349     0.125   0.0% |
  Atomic:                            2.894     2.893   0.1% |
   XC Correction:                    0.000     0.000   0.0% |
  Calculate atomic Hamiltonians:     9.628     9.628   0.2% |
  Communicate:                       0.101     0.101   0.0% |
  Poisson:                           0.087     0.087   0.0% |
  XC 3D grid:                        9.514     9.514   0.2% |
 Orthonormalize:                     4.422     0.004   0.0% |
  calc_s_matrix:                     0.525     0.525   0.0% |
  inverse-cholesky:                  0.055     0.055   0.0% |
  projections:                       2.903     2.903   0.1% |
  rotate_psi_s:                      0.935     0.935   0.0% |
Set symmetry:                        0.000     0.000   0.0% |
Other:                            3234.063  3234.063  56.2% |---------------------|
-----------------------------------------------------------
Total:                                      5751.019 100.0%

Memory usage: 12.70 GiB
Date: Mon Mar 22 07:57:19 2021
