
  ___ ___ ___ _ _ _  
 |   |   |_  | | | | 
 | | | | | . | | | | 
 |__ |  _|___|_____|  20.10.1b1
 |___|_|             

User:   madkru@g064.nifl.fysik.dtu.dk
Date:   Mon Mar 22 05:31:14 2021
Arch:   x86_64
Pid:    60512
Python: 3.7.4
gpaw:   /home/niflheim/madkru/venv_folder/gpaw/gpaw (d0d1ca1c71)
_gpaw:  /home/niflheim/madkru/venv_folder/gpaw/build/lib.linux-x86_64-sandybridge-3.7/
        _gpaw.cpython-37m-x86_64-linux-gnu.so (4fd39e8b1e)
ase:    /home/niflheim/madkru/venv_folder/ase/ase (version 3.21.0b1-7e6c206a91)
numpy:  /home/niflheim/madkru/venv_folder/lib/python3.7/site-packages/numpy (version 1.19.4)
scipy:  /home/niflheim/madkru/venv_folder/lib/python3.7/site-packages/scipy (version 1.5.4)
libxc:  4.3.4
units:  Angstrom and eV
cores: 32
OMP_NUM_THREADS: 1

Input parameters:
  convergence: {bands: occupied,
                density: 0.0001,
                eigenstates: 4e-08,
                energy: 0.0005,
                forces: 1e-06}
  kpts: [6 6 4]
  mode: {ecut: 600.0,
         gammacentered: False,
         name: pw}
  occupations: {fixmagmom: False,
                name: fermi-dirac,
                width: 0.001}
  symmetry: {point_group: False,
             time_reversal: False}

System changes: positions, numbers, cell, pbc, initial_charges, initial_magmoms 

Initialize ...

O-setup:
  name: Oxygen
  id: 9b9d51c344dea68c822856295a461509
  Z: 8.0
  valence: 6
  core: 2
  charge: 0.0
  file: /home/modules/software/GPAW-setups/0.9.20000/O.LDA.gz
  compensation charges: gauss, rc=0.21, lmax=2
  cutoffs: 1.17(filt), 0.83(core),
  valence states:
                energy  radius
    2s(2.00)   -23.752   0.688
    2p(4.00)    -9.195   0.598
    *s           3.459   0.688
    *p          18.016   0.598
    *d           0.000   0.619

  Using partial waves for O as LCAO basis

Mn-setup:
  name: Manganese
  id: 0d715a8018be061a6e9ea6f2d364ac92
  Z: 25.0
  valence: 15
  core: 10
  charge: 0.0
  file: /home/modules/software/GPAW-setups/0.9.20000/Mn.LDA.gz
  compensation charges: gauss, rc=0.38, lmax=2
  cutoffs: 2.14(filt), 0.86(core),
  valence states:
                energy  radius
    3s(2.00)   -85.387   1.275
    4s(2.00)    -5.282   1.275
    3p(6.00)   -54.493   1.281
    4p(0.00)    -1.471   1.281
    3d(5.00)    -7.009   1.138
    *d          20.203   1.138

  Using partial waves for Mn as LCAO basis

P-setup:
  name: Phosphorus
  id: a5561c299094968922a179ab894d2e2d
  Z: 15.0
  valence: 5
  core: 10
  charge: 0.0
  file: /home/modules/software/GPAW-setups/0.9.20000/P.LDA.gz
  compensation charges: gauss, rc=0.30, lmax=2
  cutoffs: 1.69(filt), 1.81(core),
  valence states:
                energy  radius
    3s(2.00)   -14.015   0.953
    3p(3.00)    -5.596   0.953
    *s          13.197   0.953
    *p          21.615   0.953
    *d           0.000   0.953

  Using partial waves for P as LCAO basis

Li-setup:
  name: Lithium
  id: b73562207f97a71b6967473b66fe8b65
  Z: 3.0
  valence: 1
  core: 2
  charge: 0.0
  file: /home/modules/software/GPAW-setups/0.9.20000/Li.LDA.gz
  compensation charges: gauss, rc=0.33, lmax=2
  cutoffs: 1.91(filt), 2.55(core),
  valence states:
                energy  radius
    2s(1.00)    -2.874   1.058
    2p(0.00)    -1.126   1.058
    *s          24.338   1.058

  Using partial waves for Li as LCAO basis

Reference energy: -196157.275402

Spin-polarized calculation.
Magnetic moment: 0.000000

Convergence criteria:
  Maximum total energy change: 0.0005 eV / electron
  Maximum integral of absolute density change: 0.0001 electrons
  Maximum integral of absolute eigenstate change: 4e-08 eV^2
  Maximum change in atomic force: 1e-06 eV / Ang
  Maximum number of iterations: 333

Symmetries present (total): 1

  ( 1  0  0)
  ( 0  1  0)
  ( 0  0  1)

144 k-points: 6 x 6 x 4 Monkhorst-Pack grid
144 k-points in the irreducible part of the Brillouin zone
       k-points in crystal coordinates                weights
   0:    -0.41666667   -0.41666667   -0.37500000          1/144
   1:    -0.41666667   -0.41666667   -0.12500000          1/144
   2:    -0.41666667   -0.41666667    0.12500000          1/144
   3:    -0.41666667   -0.41666667    0.37500000          1/144
   4:    -0.41666667   -0.25000000   -0.37500000          1/144
   5:    -0.41666667   -0.25000000   -0.12500000          1/144
   6:    -0.41666667   -0.25000000    0.12500000          1/144
   7:    -0.41666667   -0.25000000    0.37500000          1/144
   8:    -0.41666667   -0.08333333   -0.37500000          1/144
   9:    -0.41666667   -0.08333333   -0.12500000          1/144
          ...
 143:     0.41666667    0.41666667    0.37500000          1/144

Wave functions: Plane wave expansion
  Cutoff energy: 600.000 eV
  Number of coefficients (min, max): 10068, 10125
  Pulay-stress correction: 0.000000 eV/Ang^3 (de/decut=0.000000)
  Using FFTW library
  ScaLapack parameters: grid=1x1, blocksize=None
  Wavefunction extrapolation:
    Improved wavefunction reuse through dual PAW basis 

  Fermi-Dirac: width=0.0010 eV

Eigensolver
   Davidson(niter=2, smin=None, normalize=True) 

Densities:
  Coarse grid: 60*35*27 grid
  Fine grid: 120*70*54 grid
  Total Charge: 0.000000 

Density mixing:
  Method: difference
  Backend: pulay
  Linear mixing parameter: 0.05
  Mixing with 5 old densities
  Damping of long wave oscillations: 50 

Hamiltonian:
  XC and Coulomb potentials evaluated on a 120*70*54 grid
  Using the LDA Exchange-Correlation functional
 

Memory estimate:
  Process memory now: 12945.60 MiB
  Calculator: 375.55 MiB
    Density: 20.02 MiB
      Arrays: 7.57 MiB
      Localized functions: 9.42 MiB
      Mixer: 3.03 MiB
    Hamiltonian: 5.90 MiB
      Arrays: 5.62 MiB
      XC: 0.00 MiB
      Poisson: 0.00 MiB
      vbar: 0.27 MiB
    Wavefunctions: 349.64 MiB
      Arrays psit_nG: 311.46 MiB
      Eigensolver: 19.99 MiB
      Projections: 5.41 MiB
      Projectors: 9.73 MiB
      PW-descriptor: 3.03 MiB

Total number of cores used: 32
Parallelization over k-points: 16
Domain decomposition: 2 x 1 x 1

Number of atoms: 28
Number of atomic orbitals: 148
Number of bands in calculation: 112
Number of valence electrons: 180
Bands to converge: occupied

... initialized

Initializing position-dependent things.

Density initialized from atomic densities
Creating initial wave functions:
  112 bands from LCAO basis set

     .-------------------------.  
    /|         OP              |  
   / |O            O        O  |  
  /  |       O            O  P |  
 *   |O    Mn      O           |  
 |   |          OLi          O |  
 |   .P-O--------------Mn------.  
 |  /          Li    O  Mn  O /   
 | /Li O           PO        /    
 |/       Mn                /     
 *Li-----------------------*      

Positions:
   0 O     -1.360678   -2.541161   -1.202221    ( 0.0000,  0.0000,  0.0000)
   1 O     -3.121941    2.976855    1.167242    ( 0.0000,  0.0000,  0.0000)
   2 O      2.107533    0.508090    1.540712    ( 0.0000,  0.0000,  0.0000)
   3 O      3.869373   -0.072395   -0.828750    ( 0.0000,  0.0000,  0.0000)
   4 O      2.107821    2.976875    1.550792    ( 0.0000,  0.0000,  0.0000)
   5 O      3.869084   -2.541141   -0.828671    ( 0.0000,  0.0000,  0.0000)
   6 O     -1.360390   -0.072375   -1.202141    ( 0.0000,  0.0000,  0.0000)
   7 O     -3.122230    0.508109    1.167321    ( 0.0000,  0.0000,  0.0000)
   8 O     -4.413461   -1.306992   -0.794251    ( 0.0000,  0.0000,  0.0000)
   9 O     -0.069585    1.742707    1.575662    ( 0.0000,  0.0000,  0.0000)
  10 O      5.160604    1.742707    1.132822    ( 0.0000,  0.0000,  0.0000)
  11 O      0.816728   -1.306992   -1.237091    ( 0.0000,  0.0000,  0.0000)
  12 Mn    -2.570809   -1.307302    0.247161    ( 0.0000,  0.0000,  1.0000)
  13 Mn    -1.912021    1.743016   -2.122906    ( 0.0000,  0.0000, -1.0000)
  14 Mn     3.317952    1.743017    0.091411    ( 0.0000,  0.0000, -1.0000)
  15 Mn     2.659164   -1.307302    2.461478    ( 0.0000,  0.0000,  1.0000)
  16 P     -0.620664   -1.306816   -1.828465    ( 0.0000,  0.0000,  0.0000)
  17 P     -3.862097    1.742530    0.541238    ( 0.0000,  0.0000,  0.0000)
  18 P      1.367807    1.742530    2.167036    ( 0.0000,  0.0000,  0.0000)
  19 P      4.609240   -1.306816   -0.202666    ( 0.0000,  0.0000,  0.0000)
  20 O     -0.646437   -1.306845    1.374751    ( 0.0000,  0.0000,  0.0000)
  21 O     -3.836504    1.742559   -0.995565    ( 0.0000,  0.0000,  0.0000)
  22 O      1.393580    1.742559   -1.036179    ( 0.0000,  0.0000,  0.0000)
  23 O      4.583647   -1.306845    1.334136    ( 0.0000,  0.0000,  0.0000)
  24 Li    -4.856429   -2.832143   -2.200714    ( 0.0000,  0.0000,  0.0000)
  25 Li     0.373571   -2.832143    0.169286    ( 0.0000,  0.0000,  0.0000)
  26 Li    -4.856429    0.217857   -2.200714    ( 0.0000,  0.0000,  0.0000)
  27 Li     0.373571    0.217857    0.169286    ( 0.0000,  0.0000,  0.0000)

Unit cell:
           periodic     x           y           z      points  spacing
  1. axis:    yes   10.460000    0.000000    0.000000    60     0.1743
  2. axis:    yes    0.000000    6.100000    0.000000    35     0.1743
  3. axis:    yes    0.000000    0.000000    4.740000    27     0.1756

  Lengths:  10.460000   6.100000   4.740000
  Angles:   90.000000  90.000000  90.000000

Effective grid spacing dv^(1/3) = 0.1747

                     log10-error:           total        iterations:
           time      wfs    density  force  energy       poisson  magmom
iter:   1  05:34:16                       -231.918605             +0.0000
iter:   2  05:34:55  -0.55  -0.94         -231.737943             +0.0052
iter:   3  05:35:35  -0.72  -0.98         -220.591862             +0.0066
iter:   4  05:36:14  -0.95  -1.20         -218.880087             +0.0022
iter:   5  05:36:54  -1.93  -1.36         -222.088203             +0.0014
iter:   6  05:37:33  -1.98  -1.44         -220.940438             +0.0006
iter:   7  05:38:13  -2.15  -1.66         -224.377066             +0.0004
iter:   8  05:38:52  -1.84  -1.88         -226.794053             +0.0001
iter:   9  05:39:32  -2.42  -1.83         -227.707919             +0.0000
iter:  10  05:40:11  -2.28  -1.76         -226.936726             +0.0000
iter:  11  05:40:51  -1.87  -1.90         -226.423181             +0.0000
iter:  12  05:41:30  -2.19  -2.24         -226.372339             +0.0000
iter:  13  05:42:10  -3.33  -2.40         -226.323927             +0.0000
iter:  14  05:42:49  -2.30  -2.45         -226.283443             +0.0000
iter:  15  05:43:29  -3.66  -2.81         -226.249674             +0.0000
iter:  16  05:44:08  -3.14  -2.90         -226.234959             +0.0000
iter:  17  05:44:47  -3.73  -2.97         -226.228393             +0.0000
iter:  18  05:45:27  -5.11  -3.24         -226.228076             +0.0000
iter:  19  05:46:06  -4.76  -3.27         -226.228314             +0.0000
iter:  20  05:46:46  -4.37  -3.35         -226.228571             +0.0000
iter:  21  05:47:25  -5.02  -3.32         -226.227835             +0.0000
iter:  22  05:48:05  -5.50  -3.52         -226.227876             +0.0000
iter:  23  05:48:44  -5.27  -3.59         -226.227727             +0.0000
iter:  24  05:49:23  -5.18  -3.67         -226.227808             +0.0000
iter:  25  05:50:03  -5.01  -4.01         -226.227622             +0.0000
iter:  26  05:50:42  -5.86  -3.90         -226.227514             +0.0000
iter:  27  05:51:21  -6.88  -4.50         -226.227512             +0.0000
iter:  28  05:52:01  -6.89  -4.55         -226.227512             -0.0000
iter:  29  05:52:40  -7.00  -4.50         -226.227508             +0.0000
iter:  30  05:53:19  -7.15  -4.75         -226.227510             -0.0000
iter:  31  05:54:09  -7.89  -4.92         -226.227509             +0.0000
iter:  32  05:54:59  -7.86  -4.96    -2.83-226.227508             +0.0000
iter:  33  05:55:49  -9.04  -5.18    -3.54-226.227508             +0.0000
iter:  34  05:56:39  -9.32  -5.23    -3.24-226.227508             -0.0000
iter:  35  05:57:29  -8.62  -5.35    -3.27-226.227507             +0.0000
iter:  36  05:58:19  -8.30  -5.44    -3.10-226.227508             +0.0000
iter:  37  05:59:09  -8.53  -5.31    -3.27-226.227507             +0.0000
iter:  38  05:59:59  -8.91  -5.89    -3.65-226.227507             +0.0000
iter:  39  06:00:49  -9.95  -6.26    -3.97-226.227507             -0.0000
iter:  40  06:01:39 -10.42  -6.29    -4.19-226.227507             -0.0000
iter:  41  06:02:29 -10.08  -6.55    -4.35-226.227507             -0.0000
iter:  42  06:03:19 -11.34  -6.66    -4.91-226.227507             -0.0000
iter:  43  06:04:09 -11.35  -6.69    -4.80-226.227507             +0.0000
iter:  44  06:04:59 -12.26  -6.75    -4.85-226.227507             +0.0000
iter:  45  06:05:49 -11.75  -6.82    -4.92-226.227507             +0.0000
iter:  46  06:06:39 -11.08  -6.86    -4.56-226.227507             +0.0000
iter:  47  06:07:29 -11.82  -7.05    -4.83-226.227507             -0.0000
iter:  48  06:08:19 -12.98  -7.49    -5.94-226.227507             -0.0000
iter:  49  06:09:09 -13.12  -7.53    -5.14-226.227507             -0.0000
iter:  50  06:09:59 -12.97  -7.63    -5.60-226.227507             -0.0000
iter:  51  06:10:49 -13.38  -7.83    -5.93-226.227507             -0.0000
iter:  52  06:11:39 -13.86  -7.97    -5.67-226.227507             -0.0000
iter:  53  06:12:29 -14.22  -8.17    -6.01-226.227507             -0.0000

Converged after 53 iterations.

Dipole moment: (10.672303, 1.413032, -6.274460) |e|*Ang

Total magnetic moment: (0.000000, 0.000000, -0.000000)
Local magnetic moments:
   0 O  ( 0.000000,  0.000000, -0.000508)
   1 O  ( 0.000000,  0.000000,  0.000537)
   2 O  ( 0.000000,  0.000000,  0.000543)
   3 O  ( 0.000000,  0.000000, -0.000685)
   4 O  ( 0.000000,  0.000000,  0.000801)
   5 O  ( 0.000000,  0.000000, -0.000489)
   6 O  ( 0.000000,  0.000000, -0.000525)
   7 O  ( 0.000000,  0.000000,  0.000561)
   8 O  ( 0.000000,  0.000000,  0.028685)
   9 O  ( 0.000000,  0.000000, -0.028623)
  10 O  ( 0.000000,  0.000000, -0.028682)
  11 O  ( 0.000000,  0.000000,  0.028753)
  12 Mn ( 0.000000,  0.000000,  4.448171)
  13 Mn ( 0.000000,  0.000000, -4.448232)
  14 Mn ( 0.000000,  0.000000, -4.448581)
  15 Mn ( 0.000000,  0.000000,  4.447898)
  16 P  ( 0.000000,  0.000000,  0.001565)
  17 P  ( 0.000000,  0.000000, -0.001532)
  18 P  ( 0.000000,  0.000000, -0.001389)
  19 P  ( 0.000000,  0.000000,  0.001550)
  20 O  ( 0.000000,  0.000000,  0.025322)
  21 O  ( 0.000000,  0.000000, -0.025303)
  22 O  ( 0.000000,  0.000000, -0.025337)
  23 O  ( 0.000000,  0.000000,  0.025320)
  24 Li ( 0.000000,  0.000000, -0.000001)
  25 Li ( 0.000000,  0.000000,  0.000006)
  26 Li ( 0.000000,  0.000000,  0.000001)
  27 Li ( 0.000000,  0.000000,  0.000000)

Energy contributions relative to reference atoms: (reference = -196157.275402)

Kinetic:       +217.600001
Potential:     -195.426438
External:        +0.000000
XC:            -250.441391
Entropy (-ST):   -0.000000
Local:           +2.040321
--------------------------
Free energy:   -226.227507
Extrapolated:  -226.227507

Spin contamination: 9.560522 electrons
Showing only first 2 kpts
                      Up                     Down
 Kpt  Band  Eigenvalues  Occupancy  Eigenvalues  Occupancy
  0    88      5.11139    0.00694      5.10781    0.00694
  0    89      5.13591    0.00694      5.13191    0.00694
  0    90      7.28556    0.00000      7.28846    0.00000
  0    91      7.30448    0.00000      7.30613    0.00000

  1    88      5.13700    0.00694      5.13340    0.00694
  1    89      5.16609    0.00694      5.16213    0.00694
  1    90      7.22880    0.00000      7.23130    0.00000
  1    91      7.24210    0.00000      7.24346    0.00000


Fermi level: 6.52094

Gap: 1.969 eV
Transition (v -> c):
  (s=0, k=50, n=89, [-0.08, -0.42, 0.12]) -> (s=0, k=86, n=90, [0.08, 0.08, 0.12])
Writing to born-0.01-4z+.gpw (mode='all')

Timing:                              incl.     excl.
-----------------------------------------------------------
Hamiltonian:                         0.437     0.003   0.0% |
 Atomic:                             0.089     0.089   0.0% |
  XC Correction:                     0.000     0.000   0.0% |
 Calculate atomic Hamiltonians:      0.178     0.178   0.0% |
 Communicate:                        0.001     0.001   0.0% |
 Initialize Hamiltonian:             0.000     0.000   0.0% |
 Poisson:                            0.002     0.002   0.0% |
 XC 3D grid:                         0.164     0.164   0.0% |
LCAO initialization:               134.681     0.680   0.0% |
 LCAO eigensolver:                  34.063     0.003   0.0% |
  Calculate projections:             0.057     0.057   0.0% |
  DenseAtomicCorrection:             0.082     0.082   0.0% |
  Distribute overlap matrix:         0.571     0.571   0.0% |
  Orbital Layouts:                   0.366     0.366   0.0% |
  Potential matrix:                 32.898    32.898   0.6% |
  Sum over cells:                    0.087     0.087   0.0% |
 LCAO to grid:                      97.672    97.672   1.7% ||
 Set positions (LCAO WFS):           2.266     0.346   0.0% |
  Basic WFS set positions:           0.001     0.001   0.0% |
  Basis functions set positions:     0.000     0.000   0.0% |
  P tci:                             1.058     1.058   0.0% |
  ST tci:                            0.655     0.655   0.0% |
  mktci:                             0.206     0.206   0.0% |
PWDescriptor:                        0.025     0.025   0.0% |
SCF-cycle:                        2338.250    14.040   0.2% |
 Davidson:                        1974.390   645.645  11.5% |----|
  Apply H:                         137.345   132.912   2.4% ||
   HMM T:                            4.433     4.433   0.1% |
  Subspace diag:                   290.708     0.168   0.0% |
   calc_h_matrix:                  187.793    52.320   0.9% |
    Apply H:                       135.473   131.316   2.3% ||
     HMM T:                          4.156     4.156   0.1% |
   diagonalize:                      6.493     6.493   0.1% |
   rotate_psi:                      96.255    96.255   1.7% ||
  calc. matrices:                  616.781   350.190   6.2% |-|
   Apply H:                        266.591   258.721   4.6% |-|
    HMM T:                           7.869     7.869   0.1% |
  diagonalize:                      88.206    88.206   1.6% ||
  rotate_psi:                      195.705   195.705   3.5% ||
 Density:                           79.247     0.001   0.0% |
  Atomic density matrices:           1.314     1.314   0.0% |
  Mix:                              12.941    12.941   0.2% |
  Multipole moments:                 0.030     0.030   0.0% |
  Pseudo density:                   64.961    64.959   1.2% |
   Symmetrize density:               0.002     0.002   0.0% |
 Forces:                           244.207   244.207   4.3% |-|
 Hamiltonian:                       21.944     0.120   0.0% |
  Atomic:                            2.847     2.847   0.1% |
   XC Correction:                    0.000     0.000   0.0% |
  Calculate atomic Hamiltonians:     9.529     9.529   0.2% |
  Communicate:                       0.090     0.090   0.0% |
  Poisson:                           0.087     0.087   0.0% |
  XC 3D grid:                        9.270     9.270   0.2% |
 Orthonormalize:                     4.422     0.004   0.0% |
  calc_s_matrix:                     0.524     0.524   0.0% |
  inverse-cholesky:                  0.054     0.054   0.0% |
  projections:                       2.905     2.905   0.1% |
  rotate_psi_s:                      0.936     0.936   0.0% |
Set symmetry:                        0.000     0.000   0.0% |
Other:                            3148.357  3148.357  56.0% |---------------------|
-----------------------------------------------------------
Total:                                      5621.750 100.0%

Memory usage: 12.70 GiB
Date: Mon Mar 22 07:04:55 2021
