
  ___ ___ ___ _ _ _  
 |   |   |_  | | | | 
 | | | | | . | | | | 
 |__ |  _|___|_____|  21.1.1b1
 |___|_|             

User:   madkru@g043.nifl.fysik.dtu.dk
Date:   Wed Mar 31 00:21:28 2021
Arch:   x86_64
Pid:    39387
Python: 3.8.6
gpaw:   /home/niflheim/madkru/venv_madkru/gpaw/gpaw (e6f0d78a31)
_gpaw:  /home/niflheim/madkru/venv_madkru/gpaw/build/lib.linux-x86_64-sandybridge-3.8/
        _gpaw.cpython-38-x86_64-linux-gnu.so (e6f0d78a31)
ase:    /home/niflheim/madkru/venv_madkru/ase/ase (version 3.22.0b1-4d5a73cb29)
numpy:  /home/modules/software/SciPy-bundle/2020.11-foss-2020b/lib/python3.8/site-packages/numpy (version 1.19.4)
scipy:  /home/modules/software/SciPy-bundle/2020.11-foss-2020b/lib/python3.8/site-packages/scipy (version 1.5.4)
libxc:  4.3.4
units:  Angstrom and eV
cores: 64
OpenMP: False
OMP_NUM_THREADS: 1

Input parameters:
  convergence: {bands: occupied,
                density: 0.0001,
                eigenstates: 4e-08,
                energy: 0.0005,
                forces: 1e-06}
  kpts: [6 6 4]
  maxiter: 1000
  mode: {ecut: 600.0,
         gammacentered: False,
         name: pw}
  occupations: {fixmagmom: False,
                name: fermi-dirac,
                width: 0.001}
  symmetry: {point_group: False,
             time_reversal: False}

System changes: positions, numbers, cell, pbc, initial_charges, initial_magmoms 

Initialize ...

O-setup:
  name: Oxygen
  id: 9b9d51c344dea68c822856295a461509
  Z: 8.0
  valence: 6
  core: 2
  charge: 0.0
  file: /home/modules/software/GPAW-setups/0.9.20000/O.LDA.gz
  compensation charges: gauss, rc=0.21, lmax=2
  cutoffs: 1.17(filt), 0.83(core),
  valence states:
                energy  radius
    2s(2.00)   -23.752   0.688
    2p(4.00)    -9.195   0.598
    *s           3.459   0.688
    *p          18.016   0.598
    *d           0.000   0.619

  Using partial waves for O as LCAO basis

Mn-setup:
  name: Manganese
  id: 0d715a8018be061a6e9ea6f2d364ac92
  Z: 25.0
  valence: 15
  core: 10
  charge: 0.0
  file: /home/modules/software/GPAW-setups/0.9.20000/Mn.LDA.gz
  compensation charges: gauss, rc=0.38, lmax=2
  cutoffs: 2.14(filt), 0.86(core),
  valence states:
                energy  radius
    3s(2.00)   -85.387   1.275
    4s(2.00)    -5.282   1.275
    3p(6.00)   -54.493   1.281
    4p(0.00)    -1.471   1.281
    3d(5.00)    -7.009   1.138
    *d          20.203   1.138

  Using partial waves for Mn as LCAO basis

P-setup:
  name: Phosphorus
  id: a5561c299094968922a179ab894d2e2d
  Z: 15.0
  valence: 5
  core: 10
  charge: 0.0
  file: /home/modules/software/GPAW-setups/0.9.20000/P.LDA.gz
  compensation charges: gauss, rc=0.30, lmax=2
  cutoffs: 1.69(filt), 1.81(core),
  valence states:
                energy  radius
    3s(2.00)   -14.015   0.953
    3p(3.00)    -5.596   0.953
    *s          13.197   0.953
    *p          21.615   0.953
    *d           0.000   0.953

  Using partial waves for P as LCAO basis

Li-setup:
  name: Lithium
  id: b73562207f97a71b6967473b66fe8b65
  Z: 3.0
  valence: 1
  core: 2
  charge: 0.0
  file: /home/modules/software/GPAW-setups/0.9.20000/Li.LDA.gz
  compensation charges: gauss, rc=0.33, lmax=2
  cutoffs: 1.91(filt), 2.55(core),
  valence states:
                energy  radius
    2s(1.00)    -2.874   1.058
    2p(0.00)    -1.126   1.058
    *s          24.338   1.058

  Using partial waves for Li as LCAO basis

Reference energy: -196157.275402

Spin-polarized calculation.
Magnetic moment: 0.000000

Convergence criteria:
  Maximum total energy change: 0.0005 eV / electron
  Maximum integral of absolute density change: 0.0001 electrons
  Maximum integral of absolute eigenstate change: 4e-08 eV^2
  Maximum change in atomic force: 1e-06 eV / Ang
  Maximum number of iterations: 1000

Symmetries present (total): 1

  ( 1  0  0)
  ( 0  1  0)
  ( 0  0  1)

144 k-points: 6 x 6 x 4 Monkhorst-Pack grid
144 k-points in the irreducible part of the Brillouin zone
       k-points in crystal coordinates                weights
   0:    -0.41666667   -0.41666667   -0.37500000          1/144
   1:    -0.41666667   -0.41666667   -0.12500000          1/144
   2:    -0.41666667   -0.41666667    0.12500000          1/144
   3:    -0.41666667   -0.41666667    0.37500000          1/144
   4:    -0.41666667   -0.25000000   -0.37500000          1/144
   5:    -0.41666667   -0.25000000   -0.12500000          1/144
   6:    -0.41666667   -0.25000000    0.12500000          1/144
   7:    -0.41666667   -0.25000000    0.37500000          1/144
   8:    -0.41666667   -0.08333333   -0.37500000          1/144
   9:    -0.41666667   -0.08333333   -0.12500000          1/144
          ...
 143:     0.41666667    0.41666667    0.37500000          1/144

Wave functions: Plane wave expansion
  Cutoff energy: 600.000 eV
  Number of coefficients (min, max): 10068, 10125
  Pulay-stress correction: 0.000000 eV/Ang^3 (de/decut=0.000000)
  Using FFTW library
  ScaLapack parameters: grid=1x1, blocksize=None
  Wavefunction extrapolation:
    Improved wavefunction reuse through dual PAW basis 

  Fermi-Dirac: width=0.0010 eV

Eigensolver
   Davidson(niter=2) 

Densities:
  Coarse grid: 60*35*27 grid
  Fine grid: 120*70*54 grid
  Total Charge: 0.000000 

Density mixing:
  Method: difference
  Backend: pulay
  Linear mixing parameter: 0.05
  Mixing with 5 old densities
  Damping of long wave oscillations: 50 

Hamiltonian:
  XC and Coulomb potentials evaluated on a 120*70*54 grid
  Using the LDA Exchange-Correlation functional
 

Memory estimate:
  Process memory now: 13207.39 MiB
  Calculator: 354.82 MiB
    Density: 10.06 MiB
      Arrays: 3.79 MiB
      Localized functions: 4.71 MiB
      Mixer: 1.56 MiB
    Hamiltonian: 2.95 MiB
      Arrays: 2.82 MiB
      XC: 0.00 MiB
      Poisson: 0.00 MiB
      vbar: 0.14 MiB
    Wavefunctions: 341.80 MiB
      Arrays psit_nG: 311.46 MiB
      Eigensolver: 19.99 MiB
      Projections: 2.71 MiB
      Projectors: 4.87 MiB
      PW-descriptor: 2.77 MiB

Total number of cores used: 64
Parallelization over k-points: 16
Domain decomposition: 2 x 2 x 1

Number of atoms: 28
Number of atomic orbitals: 148
Number of bands in calculation: 112
Number of valence electrons: 180
Bands to converge: occupied

... initialized

Initializing position-dependent things.

Density initialized from atomic densities
Creating initial wave functions:
  112 bands from LCAO basis set

     .-------------------------.  
    /|         OP              |  
   / |O            O        O  |  
  /  |       O            O  P |  
 *   |O    Mn      O           |  
 |   |          OLi          O |  
 |   .P-O--------------Mn------.  
 |  /          Li    O  Mn  O /   
 | /Li O           PO        /    
 |/       Mn                /     
 *Li-----------------------*      

Positions:
   0 O     -1.360678   -2.541161   -1.202221    ( 0.0000,  0.0000,  0.0000)
   1 O     -3.121941    2.976855    1.167242    ( 0.0000,  0.0000,  0.0000)
   2 O      2.107533    0.508090    1.540712    ( 0.0000,  0.0000,  0.0000)
   3 O      3.869373   -0.072395   -0.828750    ( 0.0000,  0.0000,  0.0000)
   4 O      2.107821    2.976875    1.540792    ( 0.0000,  0.0000,  0.0000)
   5 O      3.869084   -2.541141   -0.828671    ( 0.0000,  0.0000,  0.0000)
   6 O     -1.360390   -0.072375   -1.202141    ( 0.0000,  0.0000,  0.0000)
   7 O     -3.122230    0.508109    1.167321    ( 0.0000,  0.0000,  0.0000)
   8 O     -4.413461   -1.306992   -0.794251    ( 0.0000,  0.0000,  0.0000)
   9 O     -0.069585    1.742707    1.575662    ( 0.0000,  0.0000,  0.0000)
  10 O      5.160604    1.742707    1.132822    ( 0.0000,  0.0000,  0.0000)
  11 O      0.816728   -1.306992   -1.237091    ( 0.0000,  0.0000,  0.0000)
  12 Mn    -2.570809   -1.307302    0.247161    ( 0.0000,  0.0000,  1.0000)
  13 Mn    -1.912021    1.743016   -2.122906    ( 0.0000,  0.0000, -1.0000)
  14 Mn     3.317952    1.743017    0.091411    ( 0.0000,  0.0000, -1.0000)
  15 Mn     2.649164   -1.307302    2.461478    ( 0.0000,  0.0000,  1.0000)
  16 P     -0.620664   -1.306816   -1.828465    ( 0.0000,  0.0000,  0.0000)
  17 P     -3.862097    1.742530    0.541238    ( 0.0000,  0.0000,  0.0000)
  18 P      1.367807    1.742530    2.167036    ( 0.0000,  0.0000,  0.0000)
  19 P      4.609240   -1.306816   -0.202666    ( 0.0000,  0.0000,  0.0000)
  20 O     -0.646437   -1.306845    1.374751    ( 0.0000,  0.0000,  0.0000)
  21 O     -3.836504    1.742559   -0.995565    ( 0.0000,  0.0000,  0.0000)
  22 O      1.393580    1.742559   -1.036179    ( 0.0000,  0.0000,  0.0000)
  23 O      4.583647   -1.306845    1.334136    ( 0.0000,  0.0000,  0.0000)
  24 Li    -4.856429   -2.832143   -2.200714    ( 0.0000,  0.0000,  0.0000)
  25 Li     0.373571   -2.832143    0.169286    ( 0.0000,  0.0000,  0.0000)
  26 Li    -4.856429    0.217857   -2.200714    ( 0.0000,  0.0000,  0.0000)
  27 Li     0.373571    0.217857    0.169286    ( 0.0000,  0.0000,  0.0000)

Unit cell:
           periodic     x           y           z      points  spacing
  1. axis:    yes   10.460000    0.000000    0.000000    60     0.1743
  2. axis:    yes    0.000000    6.100000    0.000000    35     0.1743
  3. axis:    yes    0.000000    0.000000    4.740000    27     0.1756

  Lengths:  10.460000   6.100000   4.740000
  Angles:   90.000000  90.000000  90.000000

Effective grid spacing dv^(1/3) = 0.1747

                     log10-error:           total        iterations:
           time      wfs    density  force  energy       poisson  magmom
iter:   1  00:23:03                       -231.919094             +0.0000
iter:   2  00:23:24  -0.55  -0.94         -231.743275             +0.0050
iter:   3  00:23:45  -0.72  -0.98         -220.594204             +0.0062
iter:   4  00:24:07  -0.95  -1.20         -218.887395             +0.0021
iter:   5  00:24:28  -1.93  -1.36         -222.093674             +0.0013
iter:   6  00:24:49  -1.99  -1.44         -221.037819             -0.0053
iter:   7  00:25:11  -2.20  -1.67         -224.344805             -0.1196
iter:   8  00:25:32  -1.80  -1.88         -226.767017             +0.3406
iter:   9  00:25:53  -2.42  -1.85         -227.710506             +0.0925
iter:  10  00:26:14  -2.12  -1.77         -226.784710             -0.0001
iter:  11  00:26:36  -1.79  -1.94         -226.387258             +0.0048
iter:  12  00:26:57  -2.50  -2.31         -226.361115             -0.0012
iter:  13  00:27:18  -3.35  -2.36         -226.305787             +0.0046
iter:  14  00:27:39  -2.54  -2.46         -226.248741             +0.0016
iter:  15  00:28:01  -3.95  -2.93         -226.238949             +0.0012
iter:  16  00:28:22  -3.19  -2.97         -226.236614             +0.0000
iter:  17  00:28:43  -3.44  -3.05         -226.232525             +0.0001
iter:  18  00:29:04  -4.33  -3.18         -226.228568             +0.0000
iter:  19  00:29:26  -4.80  -3.39         -226.228626             -0.0000
iter:  20  00:29:47  -4.24  -3.47         -226.228523             -0.0000
iter:  21  00:30:08  -5.15  -3.61         -226.227816             -0.0000
iter:  22  00:30:29  -5.12  -3.85         -226.227627             -0.0000
iter:  23  00:30:50  -5.94  -3.97         -226.227586             -0.0000
iter:  24  00:31:12  -6.73  -4.29         -226.227592             -0.0000
iter:  25  00:31:33  -6.57  -4.30         -226.227580             -0.0000
iter:  26  00:31:54  -6.60  -4.52         -226.227582             -0.0000
iter:  27  00:32:21  -7.57  -4.58         -226.227579             -0.0000
iter:  28  00:32:47  -8.04  -4.68    -2.54-226.227577             -0.0000
iter:  29  00:33:14  -7.99  -4.82    -2.78-226.227576             -0.0000
iter:  30  00:33:41  -7.92  -4.87    -2.81-226.227576             -0.0000
iter:  31  00:34:08  -7.82  -4.99    -2.99-226.227577             -0.0000
iter:  32  00:34:35  -8.44  -5.07    -3.05-226.227576             -0.0000
iter:  33  00:35:01  -8.52  -5.19    -3.31-226.227576             -0.0000
iter:  34  00:35:28  -9.32  -5.27    -3.59-226.227576             +0.0000
iter:  35  00:35:55  -7.99  -5.31    -2.99-226.227576             -0.0000
iter:  36  00:36:21  -9.14  -5.46    -3.57-226.227576             -0.0000
iter:  37  00:36:48  -9.12  -5.52    -3.43-226.227576             +0.0000
iter:  38  00:37:15  -9.61  -5.62    -3.41-226.227576             -0.0000
iter:  39  00:37:41  -9.52  -5.67    -3.59-226.227576             -0.0000
iter:  40  00:38:08 -10.19  -5.78    -3.85-226.227576             -0.0000
iter:  41  00:38:35  -9.99  -5.88    -3.71-226.227576             -0.0000
iter:  42  00:39:02 -10.30  -6.00    -3.93-226.227576             +0.0000
iter:  43  00:39:28 -10.64  -6.09    -3.96-226.227576             -0.0000
iter:  44  00:39:55 -11.11  -6.16    -4.25-226.227576             +0.0000
iter:  45  00:40:22 -10.48  -6.20    -4.13-226.227576             +0.0000
iter:  46  00:40:48 -11.05  -6.33    -4.62-226.227576             +0.0000
iter:  47  00:41:15 -11.06  -6.36    -4.56-226.227576             +0.0000
iter:  48  00:41:42 -11.61  -6.70    -4.61-226.227576             +0.0000
iter:  49  00:42:09 -12.27  -6.92    -4.89-226.227576             +0.0000
iter:  50  00:42:35 -13.18  -6.96    -5.18-226.227576             +0.0000
iter:  51  00:43:02 -11.97  -7.02    -4.91-226.227576             +0.0000
iter:  52  00:43:29 -13.23  -7.32    -5.49-226.227576             +0.0000
iter:  53  00:43:55 -12.20  -7.38    -4.97-226.227576             +0.0000
iter:  54  00:44:22 -13.32  -7.55    -5.55-226.227576             +0.0000
iter:  55  00:44:49 -13.35  -7.70    -5.50-226.227576             +0.0000
iter:  56  00:45:16 -13.95  -7.77    -5.81-226.227576             +0.0000
iter:  57  00:45:42 -13.78  -7.82    -5.81-226.227576             +0.0000
iter:  58  00:46:09 -14.61  -7.95    -6.12-226.227576             +0.0000

Converged after 58 iterations.

Dipole moment: (10.663078, 1.412154, -6.268385) |e|*Ang

Total magnetic moment: (0.000000, 0.000000, 0.000000)
Local magnetic moments:
   0 O  ( 0.000000,  0.000000, -0.000495)
   1 O  ( 0.000000,  0.000000,  0.000512)
   2 O  ( 0.000000,  0.000000,  0.000777)
   3 O  ( 0.000000,  0.000000, -0.000909)
   4 O  ( 0.000000,  0.000000,  0.000757)
   5 O  ( 0.000000,  0.000000, -0.000889)
   6 O  ( 0.000000,  0.000000, -0.000515)
   7 O  ( 0.000000,  0.000000,  0.000532)
   8 O  ( 0.000000,  0.000000,  0.028761)
   9 O  ( 0.000000,  0.000000, -0.028681)
  10 O  ( 0.000000,  0.000000, -0.028723)
  11 O  ( 0.000000,  0.000000,  0.029149)
  12 Mn ( 0.000000,  0.000000,  4.448192)
  13 Mn ( 0.000000,  0.000000, -4.448229)
  14 Mn ( 0.000000,  0.000000, -4.448332)
  15 Mn ( 0.000000,  0.000000,  4.447890)
  16 P  ( 0.000000,  0.000000,  0.001685)
  17 P  ( 0.000000,  0.000000, -0.001547)
  18 P  ( 0.000000,  0.000000, -0.001513)
  19 P  ( 0.000000,  0.000000,  0.001377)
  20 O  ( 0.000000,  0.000000,  0.025286)
  21 O  ( 0.000000,  0.000000, -0.025338)
  22 O  ( 0.000000,  0.000000, -0.025259)
  23 O  ( 0.000000,  0.000000,  0.024934)
  24 Li ( 0.000000,  0.000000,  0.000003)
  25 Li ( 0.000000,  0.000000,  0.000010)
  26 Li ( 0.000000,  0.000000,  0.000003)
  27 Li ( 0.000000,  0.000000,  0.000010)

Energy contributions relative to reference atoms: (reference = -196157.275402)

Kinetic:       +217.357306
Potential:     -195.246222
External:        +0.000000
XC:            -250.379729
Entropy (-ST):   -0.000000
Local:           +2.041070
--------------------------
Free energy:   -226.227576
Extrapolated:  -226.227576

Spin contamination: 9.560808 electrons
Showing only first 2 kpts
                      Up                     Down
 Kpt  Band  Eigenvalues  Occupancy  Eigenvalues  Occupancy
  0    88      5.11239    1.00000      5.10992    1.00000
  0    89      5.13604    1.00000      5.13610    1.00000
  0    90      7.28900    0.00000      7.28796    0.00000
  0    91      7.30684    0.00000      7.30533    0.00000

  1    88      5.13779    1.00000      5.13572    1.00000
  1    89      5.16632    1.00000      5.16639    1.00000
  1    90      7.23172    0.00000      7.23022    0.00000
  1    91      7.24446    0.00000      7.24205    0.00000


Fermi level: 6.63501

Gap: 1.967 eV
Transition (v -> c):
  (s=0, k=70, n=89, [-0.08, 0.42, 0.12]) -> (s=1, k=58, n=90, [-0.08, -0.08, 0.12])
Writing to born-0.01-15x-.gpw (mode='all')

Timing:                              incl.     excl.
-----------------------------------------------------------
Hamiltonian:                         0.260     0.003   0.0% |
 Atomic:                             0.072     0.072   0.0% |
  XC Correction:                     0.000     0.000   0.0% |
 Calculate atomic Hamiltonians:      0.093     0.093   0.0% |
 Communicate:                        0.000     0.000   0.0% |
 Initialize Hamiltonian:             0.000     0.000   0.0% |
 Poisson:                            0.001     0.001   0.0% |
 XC 3D grid:                         0.091     0.091   0.0% |
LCAO initialization:                69.551     0.673   0.0% |
 LCAO eigensolver:                  17.923     0.002   0.0% |
  Calculate projections:             0.029     0.029   0.0% |
  DenseAtomicCorrection:             0.043     0.043   0.0% |
  Distribute overlap matrix:         0.013     0.013   0.0% |
  Orbital Layouts:                   0.277     0.277   0.0% |
  Potential matrix:                 17.475    17.475   0.5% |
  Sum over cells:                    0.084     0.084   0.0% |
 LCAO to grid:                      49.650    49.650   1.4% ||
 Set positions (LCAO WFS):           1.305     0.179   0.0% |
  Basic WFS set positions:           0.002     0.002   0.0% |
  Basis functions set positions:     0.000     0.000   0.0% |
  P tci:                             0.515     0.515   0.0% |
  ST tci:                            0.367     0.367   0.0% |
  mktci:                             0.241     0.241   0.0% |
PWDescriptor:                        0.025     0.025   0.0% |
SCF-cycle:                        1409.933     3.603   0.1% |
 Davidson:                        1167.862   372.305  10.7% |---|
  Apply H:                          79.009    76.611   2.2% ||
   HMM T:                            2.398     2.398   0.1% |
  Subspace diag:                   168.583     0.171   0.0% |
   calc_h_matrix:                  107.665    29.318   0.8% |
    Apply H:                        78.348    76.038   2.2% ||
     HMM T:                          2.310     2.310   0.1% |
   diagonalize:                      5.921     5.921   0.2% |
   rotate_psi:                      54.826    54.826   1.6% ||
  calc. matrices:                  348.627   194.435   5.6% |-|
   Apply H:                        154.191   149.710   4.3% |-|
    HMM T:                           4.481     4.481   0.1% |
  diagonalize:                      90.102    90.102   2.6% ||
  rotate_psi:                      109.237   109.237   3.1% ||
 Density:                           46.320     0.001   0.0% |
  Atomic density matrices:           0.767     0.767   0.0% |
  Mix:                               7.922     7.922   0.2% |
  Multipole moments:                 0.021     0.021   0.0% |
  Pseudo density:                   37.609    37.607   1.1% |
   Symmetrize density:               0.001     0.001   0.0% |
 Forces:                           175.714   175.714   5.1% |-|
 Hamiltonian:                       14.144     0.125   0.0% |
  Atomic:                            3.241     3.241   0.1% |
   XC Correction:                    0.000     0.000   0.0% |
  Calculate atomic Hamiltonians:     5.401     5.401   0.2% |
  Communicate:                       0.036     0.036   0.0% |
  Poisson:                           0.050     0.050   0.0% |
  XC 3D grid:                        5.292     5.292   0.2% |
 Orthonormalize:                     2.290     0.003   0.0% |
  calc_s_matrix:                     0.265     0.265   0.0% |
  inverse-cholesky:                  0.040     0.040   0.0% |
  projections:                       1.488     1.488   0.0% |
  rotate_psi_s:                      0.493     0.493   0.0% |
Set symmetry:                        0.000     0.000   0.0% |
Other:                            1988.483  1988.483  57.3% |----------------------|
-----------------------------------------------------------
Total:                                      3468.251 100.0%

Memory usage: 12.92 GiB
Date: Wed Mar 31 01:19:16 2021
