
  ___ ___ ___ _ _ _  
 |   |   |_  | | | | 
 | | | | | . | | | | 
 |__ |  _|___|_____|  21.1.1b1
 |___|_|             

User:   madkru@g043.nifl.fysik.dtu.dk
Date:   Tue Mar 30 18:40:25 2021
Arch:   x86_64
Pid:    39387
Python: 3.8.6
gpaw:   /home/niflheim/madkru/venv_madkru/gpaw/gpaw (e6f0d78a31)
_gpaw:  /home/niflheim/madkru/venv_madkru/gpaw/build/lib.linux-x86_64-sandybridge-3.8/
        _gpaw.cpython-38-x86_64-linux-gnu.so (e6f0d78a31)
ase:    /home/niflheim/madkru/venv_madkru/ase/ase (version 3.22.0b1-4d5a73cb29)
numpy:  /home/modules/software/SciPy-bundle/2020.11-foss-2020b/lib/python3.8/site-packages/numpy (version 1.19.4)
scipy:  /home/modules/software/SciPy-bundle/2020.11-foss-2020b/lib/python3.8/site-packages/scipy (version 1.5.4)
libxc:  4.3.4
units:  Angstrom and eV
cores: 64
OpenMP: False
OMP_NUM_THREADS: 1

Input parameters:
  convergence: {bands: occupied,
                density: 0.0001,
                eigenstates: 4e-08,
                energy: 0.0005,
                forces: 1e-06}
  kpts: [6 6 4]
  maxiter: 1000
  mode: {ecut: 600.0,
         gammacentered: False,
         name: pw}
  occupations: {fixmagmom: False,
                name: fermi-dirac,
                width: 0.001}
  symmetry: {point_group: False,
             time_reversal: False}

System changes: positions, numbers, cell, pbc, initial_charges, initial_magmoms 

Initialize ...

O-setup:
  name: Oxygen
  id: 9b9d51c344dea68c822856295a461509
  Z: 8.0
  valence: 6
  core: 2
  charge: 0.0
  file: /home/modules/software/GPAW-setups/0.9.20000/O.LDA.gz
  compensation charges: gauss, rc=0.21, lmax=2
  cutoffs: 1.17(filt), 0.83(core),
  valence states:
                energy  radius
    2s(2.00)   -23.752   0.688
    2p(4.00)    -9.195   0.598
    *s           3.459   0.688
    *p          18.016   0.598
    *d           0.000   0.619

  Using partial waves for O as LCAO basis

Mn-setup:
  name: Manganese
  id: 0d715a8018be061a6e9ea6f2d364ac92
  Z: 25.0
  valence: 15
  core: 10
  charge: 0.0
  file: /home/modules/software/GPAW-setups/0.9.20000/Mn.LDA.gz
  compensation charges: gauss, rc=0.38, lmax=2
  cutoffs: 2.14(filt), 0.86(core),
  valence states:
                energy  radius
    3s(2.00)   -85.387   1.275
    4s(2.00)    -5.282   1.275
    3p(6.00)   -54.493   1.281
    4p(0.00)    -1.471   1.281
    3d(5.00)    -7.009   1.138
    *d          20.203   1.138

  Using partial waves for Mn as LCAO basis

P-setup:
  name: Phosphorus
  id: a5561c299094968922a179ab894d2e2d
  Z: 15.0
  valence: 5
  core: 10
  charge: 0.0
  file: /home/modules/software/GPAW-setups/0.9.20000/P.LDA.gz
  compensation charges: gauss, rc=0.30, lmax=2
  cutoffs: 1.69(filt), 1.81(core),
  valence states:
                energy  radius
    3s(2.00)   -14.015   0.953
    3p(3.00)    -5.596   0.953
    *s          13.197   0.953
    *p          21.615   0.953
    *d           0.000   0.953

  Using partial waves for P as LCAO basis

Li-setup:
  name: Lithium
  id: b73562207f97a71b6967473b66fe8b65
  Z: 3.0
  valence: 1
  core: 2
  charge: 0.0
  file: /home/modules/software/GPAW-setups/0.9.20000/Li.LDA.gz
  compensation charges: gauss, rc=0.33, lmax=2
  cutoffs: 1.91(filt), 2.55(core),
  valence states:
                energy  radius
    2s(1.00)    -2.874   1.058
    2p(0.00)    -1.126   1.058
    *s          24.338   1.058

  Using partial waves for Li as LCAO basis

Reference energy: -196157.275402

Spin-polarized calculation.
Magnetic moment: 0.000000

Convergence criteria:
  Maximum total energy change: 0.0005 eV / electron
  Maximum integral of absolute density change: 0.0001 electrons
  Maximum integral of absolute eigenstate change: 4e-08 eV^2
  Maximum change in atomic force: 1e-06 eV / Ang
  Maximum number of iterations: 1000

Symmetries present (total): 1

  ( 1  0  0)
  ( 0  1  0)
  ( 0  0  1)

144 k-points: 6 x 6 x 4 Monkhorst-Pack grid
144 k-points in the irreducible part of the Brillouin zone
       k-points in crystal coordinates                weights
   0:    -0.41666667   -0.41666667   -0.37500000          1/144
   1:    -0.41666667   -0.41666667   -0.12500000          1/144
   2:    -0.41666667   -0.41666667    0.12500000          1/144
   3:    -0.41666667   -0.41666667    0.37500000          1/144
   4:    -0.41666667   -0.25000000   -0.37500000          1/144
   5:    -0.41666667   -0.25000000   -0.12500000          1/144
   6:    -0.41666667   -0.25000000    0.12500000          1/144
   7:    -0.41666667   -0.25000000    0.37500000          1/144
   8:    -0.41666667   -0.08333333   -0.37500000          1/144
   9:    -0.41666667   -0.08333333   -0.12500000          1/144
          ...
 143:     0.41666667    0.41666667    0.37500000          1/144

Wave functions: Plane wave expansion
  Cutoff energy: 600.000 eV
  Number of coefficients (min, max): 10068, 10125
  Pulay-stress correction: 0.000000 eV/Ang^3 (de/decut=0.000000)
  Using FFTW library
  ScaLapack parameters: grid=1x1, blocksize=None
  Wavefunction extrapolation:
    Improved wavefunction reuse through dual PAW basis 

  Fermi-Dirac: width=0.0010 eV

Eigensolver
   Davidson(niter=2) 

Densities:
  Coarse grid: 60*35*27 grid
  Fine grid: 120*70*54 grid
  Total Charge: 0.000000 

Density mixing:
  Method: difference
  Backend: pulay
  Linear mixing parameter: 0.05
  Mixing with 5 old densities
  Damping of long wave oscillations: 50 

Hamiltonian:
  XC and Coulomb potentials evaluated on a 120*70*54 grid
  Using the LDA Exchange-Correlation functional
 

Memory estimate:
  Process memory now: 12936.31 MiB
  Calculator: 354.82 MiB
    Density: 10.06 MiB
      Arrays: 3.79 MiB
      Localized functions: 4.71 MiB
      Mixer: 1.56 MiB
    Hamiltonian: 2.95 MiB
      Arrays: 2.82 MiB
      XC: 0.00 MiB
      Poisson: 0.00 MiB
      vbar: 0.14 MiB
    Wavefunctions: 341.80 MiB
      Arrays psit_nG: 311.46 MiB
      Eigensolver: 19.99 MiB
      Projections: 2.71 MiB
      Projectors: 4.87 MiB
      PW-descriptor: 2.77 MiB

Total number of cores used: 64
Parallelization over k-points: 16
Domain decomposition: 2 x 2 x 1

Number of atoms: 28
Number of atomic orbitals: 148
Number of bands in calculation: 112
Number of valence electrons: 180
Bands to converge: occupied

... initialized

Initializing position-dependent things.

Density initialized from atomic densities
Creating initial wave functions:
  112 bands from LCAO basis set

     .-------------------------.  
    /|         OP              |  
   / |O            O        O  |  
  /  |       O            O  P |  
 *   |O    Mn      O           |  
 |   |          OLi          O |  
 |   .P-O--------------Mn------.  
 |  /          Li    O  Mn  O /   
 | /Li O           PO        /    
 |/       Mn                /     
 *Li-----------------------*      

Positions:
   0 O     -1.360678   -2.541161   -1.202221    ( 0.0000,  0.0000,  0.0000)
   1 O     -3.121941    2.976855    1.167242    ( 0.0000,  0.0000,  0.0000)
   2 O      2.107533    0.508090    1.540712    ( 0.0000,  0.0000,  0.0000)
   3 O      3.869373   -0.072395   -0.828750    ( 0.0000,  0.0000,  0.0000)
   4 O      2.107821    2.976875    1.540792    ( 0.0000,  0.0000,  0.0000)
   5 O      3.869084   -2.541141   -0.828671    ( 0.0000,  0.0000,  0.0000)
   6 O     -1.360390   -0.072375   -1.202141    ( 0.0000,  0.0000,  0.0000)
   7 O     -3.122230    0.508109    1.167321    ( 0.0000,  0.0000,  0.0000)
   8 O     -4.413461   -1.306992   -0.794251    ( 0.0000,  0.0000,  0.0000)
   9 O     -0.069585    1.742707    1.575662    ( 0.0000,  0.0000,  0.0000)
  10 O      5.160604    1.742707    1.132822    ( 0.0000,  0.0000,  0.0000)
  11 O      0.816728   -1.306992   -1.237091    ( 0.0000,  0.0000,  0.0000)
  12 Mn    -2.570809   -1.307302    0.247161    ( 0.0000,  0.0000,  1.0000)
  13 Mn    -1.912021    1.733016   -2.122906    ( 0.0000,  0.0000, -1.0000)
  14 Mn     3.317952    1.743017    0.091411    ( 0.0000,  0.0000, -1.0000)
  15 Mn     2.659164   -1.307302    2.461478    ( 0.0000,  0.0000,  1.0000)
  16 P     -0.620664   -1.306816   -1.828465    ( 0.0000,  0.0000,  0.0000)
  17 P     -3.862097    1.742530    0.541238    ( 0.0000,  0.0000,  0.0000)
  18 P      1.367807    1.742530    2.167036    ( 0.0000,  0.0000,  0.0000)
  19 P      4.609240   -1.306816   -0.202666    ( 0.0000,  0.0000,  0.0000)
  20 O     -0.646437   -1.306845    1.374751    ( 0.0000,  0.0000,  0.0000)
  21 O     -3.836504    1.742559   -0.995565    ( 0.0000,  0.0000,  0.0000)
  22 O      1.393580    1.742559   -1.036179    ( 0.0000,  0.0000,  0.0000)
  23 O      4.583647   -1.306845    1.334136    ( 0.0000,  0.0000,  0.0000)
  24 Li    -4.856429   -2.832143   -2.200714    ( 0.0000,  0.0000,  0.0000)
  25 Li     0.373571   -2.832143    0.169286    ( 0.0000,  0.0000,  0.0000)
  26 Li    -4.856429    0.217857   -2.200714    ( 0.0000,  0.0000,  0.0000)
  27 Li     0.373571    0.217857    0.169286    ( 0.0000,  0.0000,  0.0000)

Unit cell:
           periodic     x           y           z      points  spacing
  1. axis:    yes   10.460000    0.000000    0.000000    60     0.1743
  2. axis:    yes    0.000000    6.100000    0.000000    35     0.1743
  3. axis:    yes    0.000000    0.000000    4.740000    27     0.1756

  Lengths:  10.460000   6.100000   4.740000
  Angles:   90.000000  90.000000  90.000000

Effective grid spacing dv^(1/3) = 0.1747

                     log10-error:           total        iterations:
           time      wfs    density  force  energy       poisson  magmom
iter:   1  18:42:00                       -231.920285             +0.0000
iter:   2  18:42:21  -0.55  -0.94         -231.731280             +0.0052
iter:   3  18:42:43  -0.72  -0.98         -220.584913             +0.0065
iter:   4  18:43:04  -0.96  -1.20         -218.866974             +0.0022
iter:   5  18:43:25  -1.94  -1.36         -221.340362             +0.0014
iter:   6  18:43:46  -1.99  -1.49         -220.013665             +0.0007
iter:   7  18:44:08  -2.20  -1.68         -223.449685             +0.2874
iter:   8  18:44:29  -2.72  -1.89         -220.359203             +0.4284
iter:   9  18:44:50  -1.99  -1.93         -226.558718             +0.1506
iter:  10  18:45:11  -2.41  -1.85         -227.428258             -0.3562
iter:  11  18:45:33  -2.06  -1.80         -226.955687             -0.0620
iter:  12  18:45:54  -1.88  -1.90         -227.276959             -0.0215
iter:  13  18:46:15  -2.84  -2.07         -226.827662             +0.0804
iter:  14  18:46:36  -1.99  -2.06         -226.458932             +0.2937
iter:  15  18:46:58  -2.33  -2.26         -226.602619             +0.0586
iter:  16  18:47:19  -2.34  -2.33         -226.515207             +0.0306
iter:  17  18:47:40  -2.69  -2.43         -226.293145             +0.0141
iter:  18  18:48:01  -3.39  -2.54         -226.254450             +0.0064
iter:  19  18:48:23  -3.27  -2.70         -226.234067             +0.0011
iter:  20  18:48:44  -4.31  -3.08         -226.233213             +0.0002
iter:  21  18:49:05  -4.82  -3.08         -226.231786             -0.0001
iter:  22  18:49:26  -4.41  -3.12         -226.230575             -0.0000
iter:  23  18:49:47  -3.97  -3.16         -226.228745             -0.0000
iter:  24  18:50:09  -4.47  -3.35         -226.229361             -0.0000
iter:  25  18:50:30  -5.38  -3.43         -226.228327             -0.0000
iter:  26  18:50:51  -5.32  -3.52         -226.227909             -0.0000
iter:  27  18:51:12  -5.75  -3.66         -226.228013             -0.0000
iter:  28  18:51:34  -5.84  -3.74         -226.227866             -0.0000
iter:  29  18:51:55  -5.61  -3.82         -226.227747             -0.0000
iter:  30  18:52:16  -6.32  -3.91         -226.227748             -0.0000
iter:  31  18:52:37  -5.90  -3.95         -226.227685             -0.0000
iter:  32  18:52:59  -6.65  -4.20         -226.227678             -0.0000
iter:  33  18:53:20  -6.58  -4.24         -226.227665             +0.0000
iter:  34  18:53:41  -6.96  -4.45         -226.227665             -0.0000
iter:  35  18:54:02  -7.00  -4.53         -226.227661             +0.0000
iter:  36  18:54:29  -8.28  -4.61         -226.227660             +0.0000
iter:  37  18:54:50  -7.35  -4.63         -226.227660             -0.0000
iter:  38  18:55:17  -8.20  -4.74    -2.62-226.227660             +0.0000
iter:  39  18:55:38  -7.19  -4.80         -226.227660             +0.0000
iter:  40  18:56:05  -7.89  -5.01    -2.55-226.227659             +0.0000
iter:  41  18:56:31  -8.63  -5.16    -3.57-226.227659             +0.0000
iter:  42  18:56:58  -7.87  -5.22    -2.75-226.227659             -0.0000
iter:  43  18:57:25  -9.20  -5.46    -3.51-226.227659             +0.0000
iter:  44  18:57:52  -9.48  -5.53    -3.58-226.227659             +0.0000
iter:  45  18:58:18  -8.73  -5.59    -3.15-226.227659             +0.0000
iter:  46  18:58:45  -9.99  -5.91    -4.00-226.227659             +0.0000
iter:  47  18:59:12  -9.71  -5.94    -3.82-226.227659             +0.0000
iter:  48  18:59:38 -10.18  -6.00    -3.78-226.227659             +0.0000
iter:  49  19:00:05 -10.21  -6.09    -4.01-226.227659             +0.0000
iter:  50  19:00:32 -10.04  -6.18    -4.04-226.227659             +0.0000
iter:  51  19:00:58 -10.18  -6.26    -3.99-226.227659             +0.0000
iter:  52  19:01:25 -11.47  -6.49    -4.77-226.227659             +0.0000
iter:  53  19:01:52 -11.24  -6.54    -4.40-226.227659             +0.0000
iter:  54  19:02:18 -11.29  -6.70    -4.57-226.227659             +0.0000
iter:  55  19:02:45 -11.77  -6.78    -4.79-226.227659             +0.0000
iter:  56  19:03:12 -11.54  -6.83    -4.84-226.227659             +0.0000
iter:  57  19:03:39 -11.88  -6.91    -4.53-226.227659             +0.0000
iter:  58  19:04:06 -12.72  -7.15    -5.49-226.227659             +0.0000
iter:  59  19:04:32 -12.40  -7.24    -5.24-226.227659             +0.0000
iter:  60  19:04:59 -12.50  -7.35    -5.12-226.227659             +0.0000
iter:  61  19:05:26 -12.42  -7.44    -4.87-226.227659             +0.0000
iter:  62  19:05:52 -13.35  -7.53    -5.32-226.227659             +0.0000
iter:  63  19:06:19 -13.42  -7.60    -5.55-226.227659             +0.0000
iter:  64  19:06:46 -13.73  -7.67    -5.33-226.227659             +0.0000
iter:  65  19:07:13 -13.24  -7.85    -5.36-226.227659             +0.0000
iter:  66  19:07:39 -14.25  -8.14    -6.39-226.227659             +0.0000

Converged after 66 iterations.

Dipole moment: (10.671462, 1.399515, -6.269775) |e|*Ang

Total magnetic moment: (0.000000, 0.000000, 0.000000)
Local magnetic moments:
   0 O  ( 0.000000,  0.000000, -0.000011)
   1 O  ( 0.000000,  0.000000,  0.000919)
   2 O  ( 0.000000,  0.000000,  0.000552)
   3 O  ( 0.000000,  0.000000, -0.000553)
   4 O  ( 0.000000,  0.000000,  0.000503)
   5 O  ( 0.000000,  0.000000, -0.000535)
   6 O  ( 0.000000,  0.000000, -0.001053)
   7 O  ( 0.000000,  0.000000,  0.000170)
   8 O  ( 0.000000,  0.000000,  0.028693)
   9 O  ( 0.000000,  0.000000, -0.028703)
  10 O  ( 0.000000,  0.000000, -0.028693)
  11 O  ( 0.000000,  0.000000,  0.028700)
  12 Mn ( 0.000000,  0.000000,  4.448155)
  13 Mn ( 0.000000,  0.000000, -4.448192)
  14 Mn ( 0.000000,  0.000000, -4.448161)
  15 Mn ( 0.000000,  0.000000,  4.448241)
  16 P  ( 0.000000,  0.000000,  0.001555)
  17 P  ( 0.000000,  0.000000, -0.001544)
  18 P  ( 0.000000,  0.000000, -0.001557)
  19 P  ( 0.000000,  0.000000,  0.001543)
  20 O  ( 0.000000,  0.000000,  0.025313)
  21 O  ( 0.000000,  0.000000, -0.025308)
  22 O  ( 0.000000,  0.000000, -0.025315)
  23 O  ( 0.000000,  0.000000,  0.025306)
  24 Li ( 0.000000,  0.000000, -0.000005)
  25 Li ( 0.000000,  0.000000,  0.000001)
  26 Li ( 0.000000,  0.000000,  0.000005)
  27 Li ( 0.000000,  0.000000, -0.000002)

Energy contributions relative to reference atoms: (reference = -196157.275402)

Kinetic:       +217.355570
Potential:     -195.240011
External:        +0.000000
XC:            -250.384350
Entropy (-ST):   -0.000000
Local:           +2.041132
--------------------------
Free energy:   -226.227659
Extrapolated:  -226.227659

Spin contamination: 9.560404 electrons
Showing only first 2 kpts
                      Up                     Down
 Kpt  Band  Eigenvalues  Occupancy  Eigenvalues  Occupancy
  0    88      5.10978    1.00000      5.10948    1.00000
  0    89      5.13439    1.00000      5.13455    1.00000
  0    90      7.28863    0.00000      7.28867    0.00000
  0    91      7.30630    0.00000      7.30636    0.00000

  1    88      5.13554    1.00000      5.13552    1.00000
  1    89      5.16483    1.00000      5.16474    1.00000
  1    90      7.23141    0.00000      7.23146    0.00000
  1    91      7.24365    0.00000      7.24366    0.00000


Fermi level: 6.20641

Gap: 1.972 eV
Transition (v -> c):
  (s=1, k=69, n=89, [-0.08, 0.42, -0.12]) -> (s=1, k=58, n=90, [-0.08, -0.08, 0.12])
Writing to born-0.01-13y-.gpw (mode='all')

Timing:                              incl.     excl.
-----------------------------------------------------------
Hamiltonian:                         0.271     0.003   0.0% |
 Atomic:                             0.084     0.084   0.0% |
  XC Correction:                     0.000     0.000   0.0% |
 Calculate atomic Hamiltonians:      0.091     0.091   0.0% |
 Communicate:                        0.001     0.001   0.0% |
 Initialize Hamiltonian:             0.000     0.000   0.0% |
 Poisson:                            0.001     0.001   0.0% |
 XC 3D grid:                         0.091     0.091   0.0% |
LCAO initialization:                69.141     0.673   0.0% |
 LCAO eigensolver:                  17.921     0.003   0.0% |
  Calculate projections:             0.029     0.029   0.0% |
  DenseAtomicCorrection:             0.043     0.043   0.0% |
  Distribute overlap matrix:         0.005     0.005   0.0% |
  Orbital Layouts:                   0.277     0.277   0.0% |
  Potential matrix:                 17.477    17.477   0.5% |
  Sum over cells:                    0.088     0.088   0.0% |
 LCAO to grid:                      49.269    49.269   1.3% ||
 Set positions (LCAO WFS):           1.277     0.180   0.0% |
  Basic WFS set positions:           0.001     0.001   0.0% |
  Basis functions set positions:     0.000     0.000   0.0% |
  P tci:                             0.515     0.515   0.0% |
  ST tci:                            0.368     0.368   0.0% |
  mktci:                             0.213     0.213   0.0% |
PWDescriptor:                        0.025     0.025   0.0% |
SCF-cycle:                        1563.616     7.113   0.2% |
 Davidson:                        1326.190   424.355  11.1% |---|
  Apply H:                          88.777    86.104   2.2% ||
   HMM T:                            2.673     2.673   0.1% |
  Subspace diag:                   190.517     0.193   0.0% |
   calc_h_matrix:                  121.411    33.196   0.9% |
    Apply H:                        88.215    85.671   2.2% ||
     HMM T:                          2.544     2.544   0.1% |
   diagonalize:                      6.763     6.763   0.2% |
   rotate_psi:                      62.150    62.150   1.6% ||
  calc. matrices:                  396.086   221.180   5.8% |-|
   Apply H:                        174.906   169.777   4.4% |-|
    HMM T:                           5.129     5.129   0.1% |
  diagonalize:                     102.503   102.503   2.7% ||
  rotate_psi:                      123.952   123.952   3.2% ||
 Density:                           52.784     0.002   0.0% |
  Atomic density matrices:           0.870     0.870   0.0% |
  Mix:                               8.989     8.989   0.2% |
  Multipole moments:                 0.023     0.023   0.0% |
  Pseudo density:                   42.900    42.899   1.1% |
   Symmetrize density:               0.002     0.002   0.0% |
 Forces:                           159.116   159.116   4.1% |-|
 Hamiltonian:                       16.125     0.140   0.0% |
  Atomic:                            3.702     3.701   0.1% |
   XC Correction:                    0.000     0.000   0.0% |
  Calculate atomic Hamiltonians:     6.158     6.158   0.2% |
  Communicate:                       0.029     0.029   0.0% |
  Poisson:                           0.059     0.059   0.0% |
  XC 3D grid:                        6.038     6.038   0.2% |
 Orthonormalize:                     2.288     0.003   0.0% |
  calc_s_matrix:                     0.266     0.266   0.0% |
  inverse-cholesky:                  0.040     0.040   0.0% |
  projections:                       1.490     1.490   0.0% |
  rotate_psi_s:                      0.489     0.489   0.0% |
Set symmetry:                        0.000     0.000   0.0% |
Other:                            2201.096  2201.096  57.4% |----------------------|
-----------------------------------------------------------
Total:                                      3834.149 100.0%

Memory usage: 12.68 GiB
Date: Tue Mar 30 19:44:19 2021
