
  ___ ___ ___ _ _ _  
 |   |   |_  | | | | 
 | | | | | . | | | | 
 |__ |  _|___|_____|  20.10.1b1
 |___|_|             

User:   madkru@g064.nifl.fysik.dtu.dk
Date:   Mon Mar 22 07:12:29 2021
Arch:   x86_64
Pid:    60512
Python: 3.7.4
gpaw:   /home/niflheim/madkru/venv_folder/gpaw/gpaw (d0d1ca1c71)
_gpaw:  /home/niflheim/madkru/venv_folder/gpaw/build/lib.linux-x86_64-sandybridge-3.7/
        _gpaw.cpython-37m-x86_64-linux-gnu.so (4fd39e8b1e)
ase:    /home/niflheim/madkru/venv_folder/ase/ase (version 3.21.0b1-7e6c206a91)
numpy:  /home/niflheim/madkru/venv_folder/lib/python3.7/site-packages/numpy (version 1.19.4)
scipy:  /home/niflheim/madkru/venv_folder/lib/python3.7/site-packages/scipy (version 1.5.4)
libxc:  4.3.4
units:  Angstrom and eV
cores: 32
OMP_NUM_THREADS: 1

Input parameters:
  convergence: {bands: occupied,
                density: 0.0001,
                eigenstates: 4e-08,
                energy: 0.0005,
                forces: 1e-06}
  kpts: [6 6 4]
  mode: {ecut: 600.0,
         gammacentered: False,
         name: pw}
  occupations: {fixmagmom: False,
                name: fermi-dirac,
                width: 0.001}
  symmetry: {point_group: False,
             time_reversal: False}

System changes: positions, numbers, cell, pbc, initial_charges, initial_magmoms 

Initialize ...

O-setup:
  name: Oxygen
  id: 9b9d51c344dea68c822856295a461509
  Z: 8.0
  valence: 6
  core: 2
  charge: 0.0
  file: /home/modules/software/GPAW-setups/0.9.20000/O.LDA.gz
  compensation charges: gauss, rc=0.21, lmax=2
  cutoffs: 1.17(filt), 0.83(core),
  valence states:
                energy  radius
    2s(2.00)   -23.752   0.688
    2p(4.00)    -9.195   0.598
    *s           3.459   0.688
    *p          18.016   0.598
    *d           0.000   0.619

  Using partial waves for O as LCAO basis

Mn-setup:
  name: Manganese
  id: 0d715a8018be061a6e9ea6f2d364ac92
  Z: 25.0
  valence: 15
  core: 10
  charge: 0.0
  file: /home/modules/software/GPAW-setups/0.9.20000/Mn.LDA.gz
  compensation charges: gauss, rc=0.38, lmax=2
  cutoffs: 2.14(filt), 0.86(core),
  valence states:
                energy  radius
    3s(2.00)   -85.387   1.275
    4s(2.00)    -5.282   1.275
    3p(6.00)   -54.493   1.281
    4p(0.00)    -1.471   1.281
    3d(5.00)    -7.009   1.138
    *d          20.203   1.138

  Using partial waves for Mn as LCAO basis

P-setup:
  name: Phosphorus
  id: a5561c299094968922a179ab894d2e2d
  Z: 15.0
  valence: 5
  core: 10
  charge: 0.0
  file: /home/modules/software/GPAW-setups/0.9.20000/P.LDA.gz
  compensation charges: gauss, rc=0.30, lmax=2
  cutoffs: 1.69(filt), 1.81(core),
  valence states:
                energy  radius
    3s(2.00)   -14.015   0.953
    3p(3.00)    -5.596   0.953
    *s          13.197   0.953
    *p          21.615   0.953
    *d           0.000   0.953

  Using partial waves for P as LCAO basis

Li-setup:
  name: Lithium
  id: b73562207f97a71b6967473b66fe8b65
  Z: 3.0
  valence: 1
  core: 2
  charge: 0.0
  file: /home/modules/software/GPAW-setups/0.9.20000/Li.LDA.gz
  compensation charges: gauss, rc=0.33, lmax=2
  cutoffs: 1.91(filt), 2.55(core),
  valence states:
                energy  radius
    2s(1.00)    -2.874   1.058
    2p(0.00)    -1.126   1.058
    *s          24.338   1.058

  Using partial waves for Li as LCAO basis

Reference energy: -196157.275402

Spin-polarized calculation.
Magnetic moment: 0.000000

Convergence criteria:
  Maximum total energy change: 0.0005 eV / electron
  Maximum integral of absolute density change: 0.0001 electrons
  Maximum integral of absolute eigenstate change: 4e-08 eV^2
  Maximum change in atomic force: 1e-06 eV / Ang
  Maximum number of iterations: 333

Symmetries present (total): 1

  ( 1  0  0)
  ( 0  1  0)
  ( 0  0  1)

144 k-points: 6 x 6 x 4 Monkhorst-Pack grid
144 k-points in the irreducible part of the Brillouin zone
       k-points in crystal coordinates                weights
   0:    -0.41666667   -0.41666667   -0.37500000          1/144
   1:    -0.41666667   -0.41666667   -0.12500000          1/144
   2:    -0.41666667   -0.41666667    0.12500000          1/144
   3:    -0.41666667   -0.41666667    0.37500000          1/144
   4:    -0.41666667   -0.25000000   -0.37500000          1/144
   5:    -0.41666667   -0.25000000   -0.12500000          1/144
   6:    -0.41666667   -0.25000000    0.12500000          1/144
   7:    -0.41666667   -0.25000000    0.37500000          1/144
   8:    -0.41666667   -0.08333333   -0.37500000          1/144
   9:    -0.41666667   -0.08333333   -0.12500000          1/144
          ...
 143:     0.41666667    0.41666667    0.37500000          1/144

Wave functions: Plane wave expansion
  Cutoff energy: 600.000 eV
  Number of coefficients (min, max): 10068, 10125
  Pulay-stress correction: 0.000000 eV/Ang^3 (de/decut=0.000000)
  Using FFTW library
  ScaLapack parameters: grid=1x1, blocksize=None
  Wavefunction extrapolation:
    Improved wavefunction reuse through dual PAW basis 

  Fermi-Dirac: width=0.0010 eV

Eigensolver
   Davidson(niter=2, smin=None, normalize=True) 

Densities:
  Coarse grid: 60*35*27 grid
  Fine grid: 120*70*54 grid
  Total Charge: 0.000000 

Density mixing:
  Method: difference
  Backend: pulay
  Linear mixing parameter: 0.05
  Mixing with 5 old densities
  Damping of long wave oscillations: 50 

Hamiltonian:
  XC and Coulomb potentials evaluated on a 120*70*54 grid
  Using the LDA Exchange-Correlation functional
 

Memory estimate:
  Process memory now: 13005.01 MiB
  Calculator: 375.55 MiB
    Density: 20.02 MiB
      Arrays: 7.57 MiB
      Localized functions: 9.42 MiB
      Mixer: 3.03 MiB
    Hamiltonian: 5.90 MiB
      Arrays: 5.62 MiB
      XC: 0.00 MiB
      Poisson: 0.00 MiB
      vbar: 0.27 MiB
    Wavefunctions: 349.64 MiB
      Arrays psit_nG: 311.46 MiB
      Eigensolver: 19.99 MiB
      Projections: 5.41 MiB
      Projectors: 9.73 MiB
      PW-descriptor: 3.03 MiB

Total number of cores used: 32
Parallelization over k-points: 16
Domain decomposition: 2 x 1 x 1

Number of atoms: 28
Number of atomic orbitals: 148
Number of bands in calculation: 112
Number of valence electrons: 180
Bands to converge: occupied

... initialized

Initializing position-dependent things.

Density initialized from atomic densities
Creating initial wave functions:
  112 bands from LCAO basis set

     .-------------------------.  
    /|         OP              |  
   / |O            O        O  |  
  /  |       O            O  P |  
 *   |O    Mn      O           |  
 |   |          OLi          O |  
 |   .P-O--------------Mn------.  
 |  /          Li    O  Mn  O /   
 | /Li O           PO        /    
 |/       Mn                /     
 *Li-----------------------*      

Positions:
   0 O     -1.360678   -2.541161   -1.202221    ( 0.0000,  0.0000,  0.0000)
   1 O     -3.121941    2.976855    1.167242    ( 0.0000,  0.0000,  0.0000)
   2 O      2.107533    0.508090    1.540712    ( 0.0000,  0.0000,  0.0000)
   3 O      3.869373   -0.072395   -0.828750    ( 0.0000,  0.0000,  0.0000)
   4 O      2.107821    2.976875    1.540792    ( 0.0000,  0.0000,  0.0000)
   5 O      3.879084   -2.541141   -0.828671    ( 0.0000,  0.0000,  0.0000)
   6 O     -1.360390   -0.072375   -1.202141    ( 0.0000,  0.0000,  0.0000)
   7 O     -3.122230    0.508109    1.167321    ( 0.0000,  0.0000,  0.0000)
   8 O     -4.413461   -1.306992   -0.794251    ( 0.0000,  0.0000,  0.0000)
   9 O     -0.069585    1.742707    1.575662    ( 0.0000,  0.0000,  0.0000)
  10 O      5.160604    1.742707    1.132822    ( 0.0000,  0.0000,  0.0000)
  11 O      0.816728   -1.306992   -1.237091    ( 0.0000,  0.0000,  0.0000)
  12 Mn    -2.570809   -1.307302    0.247161    ( 0.0000,  0.0000,  1.0000)
  13 Mn    -1.912021    1.743016   -2.122906    ( 0.0000,  0.0000, -1.0000)
  14 Mn     3.317952    1.743017    0.091411    ( 0.0000,  0.0000, -1.0000)
  15 Mn     2.659164   -1.307302    2.461478    ( 0.0000,  0.0000,  1.0000)
  16 P     -0.620664   -1.306816   -1.828465    ( 0.0000,  0.0000,  0.0000)
  17 P     -3.862097    1.742530    0.541238    ( 0.0000,  0.0000,  0.0000)
  18 P      1.367807    1.742530    2.167036    ( 0.0000,  0.0000,  0.0000)
  19 P      4.609240   -1.306816   -0.202666    ( 0.0000,  0.0000,  0.0000)
  20 O     -0.646437   -1.306845    1.374751    ( 0.0000,  0.0000,  0.0000)
  21 O     -3.836504    1.742559   -0.995565    ( 0.0000,  0.0000,  0.0000)
  22 O      1.393580    1.742559   -1.036179    ( 0.0000,  0.0000,  0.0000)
  23 O      4.583647   -1.306845    1.334136    ( 0.0000,  0.0000,  0.0000)
  24 Li    -4.856429   -2.832143   -2.200714    ( 0.0000,  0.0000,  0.0000)
  25 Li     0.373571   -2.832143    0.169286    ( 0.0000,  0.0000,  0.0000)
  26 Li    -4.856429    0.217857   -2.200714    ( 0.0000,  0.0000,  0.0000)
  27 Li     0.373571    0.217857    0.169286    ( 0.0000,  0.0000,  0.0000)

Unit cell:
           periodic     x           y           z      points  spacing
  1. axis:    yes   10.460000    0.000000    0.000000    60     0.1743
  2. axis:    yes    0.000000    6.100000    0.000000    35     0.1743
  3. axis:    yes    0.000000    0.000000    4.740000    27     0.1756

  Lengths:  10.460000   6.100000   4.740000
  Angles:   90.000000  90.000000  90.000000

Effective grid spacing dv^(1/3) = 0.1747

                     log10-error:           total        iterations:
           time      wfs    density  force  energy       poisson  magmom
iter:   1  07:15:28                       -231.921213             +0.0000
iter:   2  07:16:07  -0.55  -0.94         -231.746199             +0.0001
iter:   3  07:16:47  -0.72  -0.98         -220.585210             +0.0002
iter:   4  07:17:26  -0.95  -1.20         -218.868965             +0.0001
iter:   5  07:18:06  -1.93  -1.36         -222.054378             +0.0000
iter:   6  07:18:45  -1.99  -1.45         -220.994076             -0.0161
iter:   7  07:19:25  -2.23  -1.67         -224.344768             -0.2615
iter:   8  07:20:04  -1.76  -1.89         -226.753625             +0.2350
iter:   9  07:20:44  -2.41  -1.86         -227.723612             +0.0636
iter:  10  07:21:23  -1.84  -1.78         -226.581772             -0.0012
iter:  11  07:22:03  -1.93  -2.02         -226.450565             +0.0065
iter:  12  07:22:42  -3.00  -2.25         -226.373479             -0.0065
iter:  13  07:23:22  -2.71  -2.30         -226.233999             +0.0052
iter:  14  07:24:01  -3.42  -2.81         -226.231786             +0.0008
iter:  15  07:24:41  -4.03  -2.97         -226.230784             -0.0007
iter:  16  07:25:20  -4.28  -3.06         -226.229487             -0.0002
iter:  17  07:26:00  -4.33  -3.15         -226.227971             -0.0002
iter:  18  07:26:39  -5.33  -3.49         -226.227910             -0.0000
iter:  19  07:27:19  -4.53  -3.55         -226.227838             +0.0000
iter:  20  07:27:58  -5.60  -3.69         -226.227518             +0.0000
iter:  21  07:28:38  -6.30  -3.84         -226.227474             -0.0000
iter:  22  07:29:17  -5.51  -3.89         -226.227443             -0.0000
iter:  23  07:29:57  -6.48  -4.01         -226.227415             -0.0000
iter:  24  07:30:36  -5.77  -4.09         -226.227390             -0.0000
iter:  25  07:31:15  -6.71  -4.16         -226.227370             -0.0000
iter:  26  07:31:55  -6.81  -4.31         -226.227362             -0.0000
iter:  27  07:32:45  -7.92  -4.61         -226.227362             -0.0000
iter:  28  07:33:35  -7.44  -4.63    -2.40-226.227362             -0.0000
iter:  29  07:34:25  -7.92  -4.75    -2.56-226.227361             -0.0000
iter:  30  07:35:04  -7.19  -4.88         -226.227363             -0.0000
iter:  31  07:35:54  -7.43  -4.70    -2.98-226.227362             -0.0000
iter:  32  07:36:44  -8.92  -5.13    -3.19-226.227361             -0.0000
iter:  33  07:37:34  -8.23  -5.22    -2.94-226.227361             -0.0000
iter:  34  07:38:24  -8.70  -5.28    -3.28-226.227361             -0.0000
iter:  35  07:39:14  -9.36  -5.57    -3.64-226.227361             -0.0000
iter:  36  07:40:05  -9.72  -5.62    -4.05-226.227361             -0.0000
iter:  37  07:40:55  -9.97  -5.65    -3.80-226.227361             +0.0000
iter:  38  07:41:45 -10.96  -5.77    -4.31-226.227361             +0.0000
iter:  39  07:42:35 -10.09  -5.82    -4.01-226.227361             +0.0000
iter:  40  07:43:25 -10.83  -5.94    -4.36-226.227361             +0.0000
iter:  41  07:44:15 -10.13  -5.97    -3.93-226.227361             +0.0000
iter:  42  07:45:05 -11.00  -6.06    -4.59-226.227361             +0.0000
iter:  43  07:45:55  -9.76  -6.09    -3.86-226.227361             +0.0000
iter:  44  07:46:45 -11.12  -6.27    -4.40-226.227361             +0.0000
iter:  45  07:47:35 -11.03  -6.32    -4.45-226.227361             +0.0000
iter:  46  07:48:24 -10.92  -6.37    -4.25-226.227361             +0.0000
iter:  47  07:49:14 -11.18  -6.51    -4.51-226.227361             +0.0000
iter:  48  07:50:05 -11.60  -6.66    -5.12-226.227361             +0.0000
iter:  49  07:50:55 -11.50  -6.73    -4.58-226.227361             +0.0000
iter:  50  07:51:44 -11.27  -6.90    -4.58-226.227361             +0.0000
iter:  51  07:52:35 -12.79  -7.32    -5.37-226.227361             +0.0000
iter:  52  07:53:25 -13.17  -7.34    -5.55-226.227361             +0.0000
iter:  53  07:54:15 -12.40  -7.38    -5.16-226.227361             +0.0000
iter:  54  07:55:05 -13.01  -7.46    -5.33-226.227361             +0.0000
iter:  55  07:55:55 -13.48  -7.69    -6.00-226.227361             +0.0000

Converged after 55 iterations.

Dipole moment: (10.666594, 1.409921, -6.272592) |e|*Ang

Total magnetic moment: (0.000000, 0.000000, 0.000000)
Local magnetic moments:
   0 O  ( 0.000000,  0.000000, -0.000538)
   1 O  ( 0.000000,  0.000000,  0.000509)
   2 O  ( 0.000000,  0.000000,  0.000605)
   3 O  ( 0.000000,  0.000000, -0.000572)
   4 O  ( 0.000000,  0.000000,  0.000540)
   5 O  ( 0.000000,  0.000000, -0.000576)
   6 O  ( 0.000000,  0.000000, -0.000558)
   7 O  ( 0.000000,  0.000000,  0.000533)
   8 O  ( 0.000000,  0.000000,  0.028812)
   9 O  ( 0.000000,  0.000000, -0.028647)
  10 O  ( 0.000000,  0.000000, -0.028739)
  11 O  ( 0.000000,  0.000000,  0.028701)
  12 Mn ( 0.000000,  0.000000,  4.448180)
  13 Mn ( 0.000000,  0.000000, -4.448246)
  14 Mn ( 0.000000,  0.000000, -4.448890)
  15 Mn ( 0.000000,  0.000000,  4.448805)
  16 P  ( 0.000000,  0.000000,  0.001547)
  17 P  ( 0.000000,  0.000000, -0.001531)
  18 P  ( 0.000000,  0.000000, -0.001569)
  19 P  ( 0.000000,  0.000000,  0.001504)
  20 O  ( 0.000000,  0.000000,  0.025272)
  21 O  ( 0.000000,  0.000000, -0.025331)
  22 O  ( 0.000000,  0.000000, -0.025279)
  23 O  ( 0.000000,  0.000000,  0.025341)
  24 Li ( 0.000000,  0.000000, -0.000004)
  25 Li ( 0.000000,  0.000000,  0.000000)
  26 Li ( 0.000000,  0.000000,  0.000003)
  27 Li ( 0.000000,  0.000000, -0.000000)

Energy contributions relative to reference atoms: (reference = -196157.275402)

Kinetic:       +217.621099
Potential:     -195.441669
External:        +0.000000
XC:            -250.447612
Entropy (-ST):   -0.000000
Local:           +2.040821
--------------------------
Free energy:   -226.227361
Extrapolated:  -226.227361

Spin contamination: 9.561200 electrons
Showing only first 2 kpts
                      Up                     Down
 Kpt  Band  Eigenvalues  Occupancy  Eigenvalues  Occupancy
  0    88      5.10652    0.00694      5.10596    0.00694
  0    89      5.13537    0.00694      5.13153    0.00694
  0    90      7.28499    0.00000      7.28514    0.00000
  0    91      7.30523    0.00000      7.30534    0.00000

  1    88      5.13212    0.00694      5.13187    0.00694
  1    89      5.16587    0.00694      5.16185    0.00694
  1    90      7.22738    0.00000      7.22559    0.00000
  1    91      7.24291    0.00000      7.24330    0.00000


Fermi level: 6.49788

Gap: 1.967 eV
Transition (v -> c):
  (s=0, k=94, n=89, [0.08, 0.42, 0.12]) -> (s=1, k=81, n=90, [0.08, -0.08, -0.12])
Writing to born-0.01-5x+.gpw (mode='all')

Timing:                              incl.     excl.
-----------------------------------------------------------
Hamiltonian:                         0.410     0.003   0.0% |
 Atomic:                             0.054     0.054   0.0% |
  XC Correction:                     0.000     0.000   0.0% |
 Calculate atomic Hamiltonians:      0.179     0.179   0.0% |
 Communicate:                        0.002     0.002   0.0% |
 Initialize Hamiltonian:             0.000     0.000   0.0% |
 Poisson:                            0.002     0.002   0.0% |
 XC 3D grid:                         0.171     0.171   0.0% |
LCAO initialization:               134.791     0.677   0.0% |
 LCAO eigensolver:                  34.436     0.003   0.0% |
  Calculate projections:             0.057     0.057   0.0% |
  DenseAtomicCorrection:             0.083     0.083   0.0% |
  Distribute overlap matrix:         0.588     0.588   0.0% |
  Orbital Layouts:                   0.365     0.365   0.0% |
  Potential matrix:                 33.247    33.247   0.6% |
  Sum over cells:                    0.095     0.095   0.0% |
 LCAO to grid:                      97.416    97.416   1.7% ||
 Set positions (LCAO WFS):           2.261     0.345   0.0% |
  Basic WFS set positions:           0.001     0.001   0.0% |
  Basis functions set positions:     0.000     0.000   0.0% |
  P tci:                             1.054     1.054   0.0% |
  ST tci:                            0.655     0.655   0.0% |
  mktci:                             0.205     0.205   0.0% |
PWDescriptor:                        0.025     0.025   0.0% |
SCF-cycle:                        2468.882    12.656   0.2% |
 Davidson:                        2049.512   670.587  11.8% |----|
  Apply H:                         141.451   137.171   2.4% ||
   HMM T:                            4.280     4.280   0.1% |
  Subspace diag:                   301.020     0.172   0.0% |
   calc_h_matrix:                  194.432    54.237   1.0% |
    Apply H:                       140.195   136.019   2.4% ||
     HMM T:                          4.176     4.176   0.1% |
   diagonalize:                      6.671     6.671   0.1% |
   rotate_psi:                      99.745    99.745   1.8% ||
  calc. matrices:                  642.132   363.551   6.4% |--|
   Apply H:                        278.581   270.425   4.7% |-|
    HMM T:                           8.157     8.157   0.1% |
  diagonalize:                      91.668    91.668   1.6% ||
  rotate_psi:                      202.654   202.654   3.6% ||
 Density:                           82.090     0.001   0.0% |
  Atomic density matrices:           1.520     1.520   0.0% |
  Mix:                              13.331    13.331   0.2% |
  Multipole moments:                 0.032     0.032   0.0% |
  Pseudo density:                   67.206    67.204   1.2% |
   Symmetrize density:               0.002     0.002   0.0% |
 Forces:                           297.444   297.444   5.2% |-|
 Hamiltonian:                       22.779     0.132   0.0% |
  Atomic:                            2.959     2.959   0.1% |
   XC Correction:                    0.000     0.000   0.0% |
  Calculate atomic Hamiltonians:     9.866     9.866   0.2% |
  Communicate:                       0.099     0.099   0.0% |
  Poisson:                           0.086     0.086   0.0% |
  XC 3D grid:                        9.637     9.637   0.2% |
 Orthonormalize:                     4.400     0.003   0.0% |
  calc_s_matrix:                     0.521     0.521   0.0% |
  inverse-cholesky:                  0.054     0.054   0.0% |
  projections:                       2.892     2.892   0.1% |
  rotate_psi_s:                      0.930     0.930   0.0% |
Set symmetry:                        0.000     0.000   0.0% |
Other:                            3089.786  3089.786  54.3% |---------------------|
-----------------------------------------------------------
Total:                                      5693.895 100.0%

Memory usage: 12.73 GiB
Date: Mon Mar 22 08:47:23 2021
