
  ___ ___ ___ _ _ _  
 |   |   |_  | | | | 
 | | | | | . | | | | 
 |__ |  _|___|_____|  20.10.1b1
 |___|_|             

User:   madkru@g064.nifl.fysik.dtu.dk
Date:   Sun Mar 21 07:45:40 2021
Arch:   x86_64
Pid:    60512
Python: 3.7.4
gpaw:   /home/niflheim/madkru/venv_folder/gpaw/gpaw (d0d1ca1c71)
_gpaw:  /home/niflheim/madkru/venv_folder/gpaw/build/lib.linux-x86_64-sandybridge-3.7/
        _gpaw.cpython-37m-x86_64-linux-gnu.so (4fd39e8b1e)
ase:    /home/niflheim/madkru/venv_folder/ase/ase (version 3.21.0b1-7e6c206a91)
numpy:  /home/niflheim/madkru/venv_folder/lib/python3.7/site-packages/numpy (version 1.19.4)
scipy:  /home/niflheim/madkru/venv_folder/lib/python3.7/site-packages/scipy (version 1.5.4)
libxc:  4.3.4
units:  Angstrom and eV
cores: 32
OMP_NUM_THREADS: 1

Input parameters:
  convergence: {bands: occupied,
                density: 0.0001,
                eigenstates: 4e-08,
                energy: 0.0005,
                forces: 1e-06}
  kpts: [6 6 4]
  mode: {ecut: 600.0,
         gammacentered: False,
         name: pw}
  occupations: {fixmagmom: False,
                name: fermi-dirac,
                width: 0.001}
  symmetry: {point_group: False,
             time_reversal: False}

System changes: positions, numbers, cell, pbc, initial_charges, initial_magmoms 

Initialize ...

O-setup:
  name: Oxygen
  id: 9b9d51c344dea68c822856295a461509
  Z: 8.0
  valence: 6
  core: 2
  charge: 0.0
  file: /home/modules/software/GPAW-setups/0.9.20000/O.LDA.gz
  compensation charges: gauss, rc=0.21, lmax=2
  cutoffs: 1.17(filt), 0.83(core),
  valence states:
                energy  radius
    2s(2.00)   -23.752   0.688
    2p(4.00)    -9.195   0.598
    *s           3.459   0.688
    *p          18.016   0.598
    *d           0.000   0.619

  Using partial waves for O as LCAO basis

Mn-setup:
  name: Manganese
  id: 0d715a8018be061a6e9ea6f2d364ac92
  Z: 25.0
  valence: 15
  core: 10
  charge: 0.0
  file: /home/modules/software/GPAW-setups/0.9.20000/Mn.LDA.gz
  compensation charges: gauss, rc=0.38, lmax=2
  cutoffs: 2.14(filt), 0.86(core),
  valence states:
                energy  radius
    3s(2.00)   -85.387   1.275
    4s(2.00)    -5.282   1.275
    3p(6.00)   -54.493   1.281
    4p(0.00)    -1.471   1.281
    3d(5.00)    -7.009   1.138
    *d          20.203   1.138

  Using partial waves for Mn as LCAO basis

P-setup:
  name: Phosphorus
  id: a5561c299094968922a179ab894d2e2d
  Z: 15.0
  valence: 5
  core: 10
  charge: 0.0
  file: /home/modules/software/GPAW-setups/0.9.20000/P.LDA.gz
  compensation charges: gauss, rc=0.30, lmax=2
  cutoffs: 1.69(filt), 1.81(core),
  valence states:
                energy  radius
    3s(2.00)   -14.015   0.953
    3p(3.00)    -5.596   0.953
    *s          13.197   0.953
    *p          21.615   0.953
    *d           0.000   0.953

  Using partial waves for P as LCAO basis

Li-setup:
  name: Lithium
  id: b73562207f97a71b6967473b66fe8b65
  Z: 3.0
  valence: 1
  core: 2
  charge: 0.0
  file: /home/modules/software/GPAW-setups/0.9.20000/Li.LDA.gz
  compensation charges: gauss, rc=0.33, lmax=2
  cutoffs: 1.91(filt), 2.55(core),
  valence states:
                energy  radius
    2s(1.00)    -2.874   1.058
    2p(0.00)    -1.126   1.058
    *s          24.338   1.058

  Using partial waves for Li as LCAO basis

Reference energy: -196157.275402

Spin-polarized calculation.
Magnetic moment: 0.000000

Convergence criteria:
  Maximum total energy change: 0.0005 eV / electron
  Maximum integral of absolute density change: 0.0001 electrons
  Maximum integral of absolute eigenstate change: 4e-08 eV^2
  Maximum change in atomic force: 1e-06 eV / Ang
  Maximum number of iterations: 333

Symmetries present (total): 1

  ( 1  0  0)
  ( 0  1  0)
  ( 0  0  1)

144 k-points: 6 x 6 x 4 Monkhorst-Pack grid
144 k-points in the irreducible part of the Brillouin zone
       k-points in crystal coordinates                weights
   0:    -0.41666667   -0.41666667   -0.37500000          1/144
   1:    -0.41666667   -0.41666667   -0.12500000          1/144
   2:    -0.41666667   -0.41666667    0.12500000          1/144
   3:    -0.41666667   -0.41666667    0.37500000          1/144
   4:    -0.41666667   -0.25000000   -0.37500000          1/144
   5:    -0.41666667   -0.25000000   -0.12500000          1/144
   6:    -0.41666667   -0.25000000    0.12500000          1/144
   7:    -0.41666667   -0.25000000    0.37500000          1/144
   8:    -0.41666667   -0.08333333   -0.37500000          1/144
   9:    -0.41666667   -0.08333333   -0.12500000          1/144
          ...
 143:     0.41666667    0.41666667    0.37500000          1/144

Wave functions: Plane wave expansion
  Cutoff energy: 600.000 eV
  Number of coefficients (min, max): 10068, 10125
  Pulay-stress correction: 0.000000 eV/Ang^3 (de/decut=0.000000)
  Using FFTW library
  ScaLapack parameters: grid=1x1, blocksize=None
  Wavefunction extrapolation:
    Improved wavefunction reuse through dual PAW basis 

  Fermi-Dirac: width=0.0010 eV

Eigensolver
   Davidson(niter=2, smin=None, normalize=True) 

Densities:
  Coarse grid: 60*35*27 grid
  Fine grid: 120*70*54 grid
  Total Charge: 0.000000 

Density mixing:
  Method: difference
  Backend: pulay
  Linear mixing parameter: 0.05
  Mixing with 5 old densities
  Damping of long wave oscillations: 50 

Hamiltonian:
  XC and Coulomb potentials evaluated on a 120*70*54 grid
  Using the LDA Exchange-Correlation functional
 

Memory estimate:
  Process memory now: 12299.66 MiB
  Calculator: 375.55 MiB
    Density: 20.02 MiB
      Arrays: 7.57 MiB
      Localized functions: 9.42 MiB
      Mixer: 3.03 MiB
    Hamiltonian: 5.90 MiB
      Arrays: 5.62 MiB
      XC: 0.00 MiB
      Poisson: 0.00 MiB
      vbar: 0.27 MiB
    Wavefunctions: 349.64 MiB
      Arrays psit_nG: 311.46 MiB
      Eigensolver: 19.99 MiB
      Projections: 5.41 MiB
      Projectors: 9.73 MiB
      PW-descriptor: 3.03 MiB

Total number of cores used: 32
Parallelization over k-points: 16
Domain decomposition: 2 x 1 x 1

Number of atoms: 28
Number of atomic orbitals: 148
Number of bands in calculation: 112
Number of valence electrons: 180
Bands to converge: occupied

... initialized

Initializing position-dependent things.

Density initialized from atomic densities
Creating initial wave functions:
  112 bands from LCAO basis set

     .-------------------------.  
    /|         OP              |  
   / |O            O        O  |  
  /  |       O            O  P |  
 *   |O    Mn      O           |  
 |   |          OLi          O |  
 |   .P-O--------------Mn------.  
 |  /          Li    O  Mn  O /   
 | /Li O           PO        /    
 |/       Mn                /     
 *Li-----------------------*      

Positions:
   0 O     -1.360678   -2.541161   -1.192221    ( 0.0000,  0.0000,  0.0000)
   1 O     -3.121941    2.976855    1.167242    ( 0.0000,  0.0000,  0.0000)
   2 O      2.107533    0.508090    1.540712    ( 0.0000,  0.0000,  0.0000)
   3 O      3.869373   -0.072395   -0.828750    ( 0.0000,  0.0000,  0.0000)
   4 O      2.107821    2.976875    1.540792    ( 0.0000,  0.0000,  0.0000)
   5 O      3.869084   -2.541141   -0.828671    ( 0.0000,  0.0000,  0.0000)
   6 O     -1.360390   -0.072375   -1.202141    ( 0.0000,  0.0000,  0.0000)
   7 O     -3.122230    0.508109    1.167321    ( 0.0000,  0.0000,  0.0000)
   8 O     -4.413461   -1.306992   -0.794251    ( 0.0000,  0.0000,  0.0000)
   9 O     -0.069585    1.742707    1.575662    ( 0.0000,  0.0000,  0.0000)
  10 O      5.160604    1.742707    1.132822    ( 0.0000,  0.0000,  0.0000)
  11 O      0.816728   -1.306992   -1.237091    ( 0.0000,  0.0000,  0.0000)
  12 Mn    -2.570809   -1.307302    0.247161    ( 0.0000,  0.0000,  1.0000)
  13 Mn    -1.912021    1.743016   -2.122906    ( 0.0000,  0.0000, -1.0000)
  14 Mn     3.317952    1.743017    0.091411    ( 0.0000,  0.0000, -1.0000)
  15 Mn     2.659164   -1.307302    2.461478    ( 0.0000,  0.0000,  1.0000)
  16 P     -0.620664   -1.306816   -1.828465    ( 0.0000,  0.0000,  0.0000)
  17 P     -3.862097    1.742530    0.541238    ( 0.0000,  0.0000,  0.0000)
  18 P      1.367807    1.742530    2.167036    ( 0.0000,  0.0000,  0.0000)
  19 P      4.609240   -1.306816   -0.202666    ( 0.0000,  0.0000,  0.0000)
  20 O     -0.646437   -1.306845    1.374751    ( 0.0000,  0.0000,  0.0000)
  21 O     -3.836504    1.742559   -0.995565    ( 0.0000,  0.0000,  0.0000)
  22 O      1.393580    1.742559   -1.036179    ( 0.0000,  0.0000,  0.0000)
  23 O      4.583647   -1.306845    1.334136    ( 0.0000,  0.0000,  0.0000)
  24 Li    -4.856429   -2.832143   -2.200714    ( 0.0000,  0.0000,  0.0000)
  25 Li     0.373571   -2.832143    0.169286    ( 0.0000,  0.0000,  0.0000)
  26 Li    -4.856429    0.217857   -2.200714    ( 0.0000,  0.0000,  0.0000)
  27 Li     0.373571    0.217857    0.169286    ( 0.0000,  0.0000,  0.0000)

Unit cell:
           periodic     x           y           z      points  spacing
  1. axis:    yes   10.460000    0.000000    0.000000    60     0.1743
  2. axis:    yes    0.000000    6.100000    0.000000    35     0.1743
  3. axis:    yes    0.000000    0.000000    4.740000    27     0.1756

  Lengths:  10.460000   6.100000   4.740000
  Angles:   90.000000  90.000000  90.000000

Effective grid spacing dv^(1/3) = 0.1747

                     log10-error:           total        iterations:
           time      wfs    density  force  energy       poisson  magmom
iter:   1  07:48:34                       -231.921526             +0.0000
iter:   2  07:49:14  -0.55  -0.94         -231.723486             +0.0053
iter:   3  07:49:53  -0.72  -0.98         -220.584045             +0.0067
iter:   4  07:50:33  -0.95  -1.20         -218.867071             +0.0030
iter:   5  07:51:12  -1.93  -1.36         -222.382407             +0.0018
iter:   6  07:51:52  -2.00  -1.41         -221.612788             +0.0079
iter:   7  07:52:31  -1.80  -1.57         -224.984728             -0.0559
iter:   8  07:53:10  -2.31  -1.60         -224.700435             -1.5034
iter:   9  07:53:50  -2.64  -1.82         -226.091200             -1.5024
iter:  10  07:54:29  -2.28  -1.82         -226.845984             -0.4504
iter:  11  07:55:08  -1.78  -1.84         -226.733597             -0.1156
iter:  12  07:55:47  -2.32  -2.04         -226.541030             -0.0960
iter:  13  07:56:27  -2.16  -2.19         -226.305192             -0.0258
iter:  14  07:57:06  -2.96  -2.47         -226.309028             -0.0199
iter:  15  07:57:45  -2.83  -2.55         -226.224267             +0.0009
iter:  16  07:58:25  -3.69  -2.82         -226.232625             -0.0024
iter:  17  07:59:04  -3.78  -2.90         -226.229841             -0.0010
iter:  18  07:59:43  -3.78  -3.05         -226.232547             -0.0004
iter:  19  08:00:23  -4.52  -3.36         -226.228634             -0.0002
iter:  20  08:01:02  -4.60  -3.44         -226.227529             -0.0001
iter:  21  08:01:41  -5.54  -3.73         -226.227717             -0.0000
iter:  22  08:02:21  -6.32  -3.80         -226.227612             -0.0000
iter:  23  08:03:00  -5.35  -3.87         -226.227471             -0.0000
iter:  24  08:03:40  -6.47  -3.99         -226.227474             -0.0000
iter:  25  08:04:19  -6.65  -4.02         -226.227483             -0.0000
iter:  26  08:04:58  -6.05  -4.07         -226.227464             -0.0000
iter:  27  08:05:38  -6.66  -4.50         -226.227451             -0.0000
iter:  28  08:06:28  -7.58  -4.69         -226.227450             -0.0000
iter:  29  08:07:18  -7.47  -4.74    -2.61-226.227450             -0.0000
iter:  30  08:08:07  -7.57  -4.92    -2.98-226.227450             +0.0000
iter:  31  08:08:57  -8.28  -5.12    -3.10-226.227450             -0.0000
iter:  32  08:09:47  -8.88  -5.24    -3.28-226.227450             +0.0000
iter:  33  08:10:37  -8.05  -5.33    -2.96-226.227449             +0.0000
iter:  34  08:11:27  -9.20  -5.47    -3.60-226.227449             +0.0000
iter:  35  08:12:17  -8.63  -5.50    -3.07-226.227449             +0.0000
iter:  36  08:13:07  -9.22  -5.65    -3.47-226.227449             +0.0000
iter:  37  08:13:57  -9.35  -5.79    -3.55-226.227449             +0.0000
iter:  38  08:14:47  -9.49  -5.85    -3.61-226.227449             +0.0000
iter:  39  08:15:37  -9.79  -5.94    -3.73-226.227449             +0.0000
iter:  40  08:16:27 -10.12  -6.12    -3.87-226.227449             +0.0000
iter:  41  08:17:17 -10.65  -6.68    -4.26-226.227449             +0.0000
iter:  42  08:18:07 -11.25  -6.69    -4.54-226.227449             +0.0000
iter:  43  08:18:57 -11.71  -6.80    -4.99-226.227449             -0.0000
iter:  44  08:19:47 -12.51  -6.86    -5.12-226.227449             -0.0000
iter:  45  08:20:37 -12.45  -6.89    -4.79-226.227449             -0.0000
iter:  46  08:21:27 -11.67  -6.91    -4.75-226.227449             +0.0000
iter:  47  08:22:16 -12.33  -6.99    -4.71-226.227449             +0.0000
iter:  48  08:23:06 -12.25  -7.24    -4.93-226.227449             +0.0000
iter:  49  08:23:56 -12.45  -7.36    -5.11-226.227449             +0.0000
iter:  50  08:24:46 -13.36  -7.60    -5.92-226.227449             +0.0000
iter:  51  08:25:36 -12.83  -7.71    -5.33-226.227449             +0.0000
iter:  52  08:26:26 -13.54  -7.86    -5.50-226.227449             +0.0000
iter:  53  08:27:16 -13.70  -7.95    -5.72-226.227449             +0.0000
iter:  54  08:28:06 -14.73  -8.05    -6.39-226.227449             +0.0000

Converged after 54 iterations.

Dipole moment: (10.671072, 1.412887, -6.269084) |e|*Ang

Total magnetic moment: (0.000000, 0.000000, 0.000000)
Local magnetic moments:
   0 O  ( 0.000000,  0.000000, -0.000236)
   1 O  ( 0.000000,  0.000000,  0.000578)
   2 O  ( 0.000000,  0.000000,  0.000551)
   3 O  ( 0.000000,  0.000000, -0.000546)
   4 O  ( 0.000000,  0.000000,  0.000528)
   5 O  ( 0.000000,  0.000000, -0.000530)
   6 O  ( 0.000000,  0.000000, -0.000532)
   7 O  ( 0.000000,  0.000000,  0.000421)
   8 O  ( 0.000000,  0.000000,  0.028703)
   9 O  ( 0.000000,  0.000000, -0.028649)
  10 O  ( 0.000000,  0.000000, -0.028700)
  11 O  ( 0.000000,  0.000000,  0.028780)
  12 Mn ( 0.000000,  0.000000,  4.447719)
  13 Mn ( 0.000000,  0.000000, -4.448572)
  14 Mn ( 0.000000,  0.000000, -4.448152)
  15 Mn ( 0.000000,  0.000000,  4.448250)
  16 P  ( 0.000000,  0.000000,  0.001727)
  17 P  ( 0.000000,  0.000000, -0.001537)
  18 P  ( 0.000000,  0.000000, -0.001550)
  19 P  ( 0.000000,  0.000000,  0.001555)
  20 O  ( 0.000000,  0.000000,  0.025293)
  21 O  ( 0.000000,  0.000000, -0.025291)
  22 O  ( 0.000000,  0.000000, -0.025307)
  23 O  ( 0.000000,  0.000000,  0.025309)
  24 Li ( 0.000000,  0.000000, -0.000001)
  25 Li ( 0.000000,  0.000000,  0.000007)
  26 Li ( 0.000000,  0.000000,  0.000001)
  27 Li ( 0.000000,  0.000000,  0.000000)

Energy contributions relative to reference atoms: (reference = -196157.275402)

Kinetic:       +217.106861
Potential:     -195.049853
External:        +0.000000
XC:            -250.326431
Entropy (-ST):   -0.000000
Local:           +2.041973
--------------------------
Free energy:   -226.227449
Extrapolated:  -226.227449

Spin contamination: 9.560275 electrons
Showing only first 2 kpts
                      Up                     Down
 Kpt  Band  Eigenvalues  Occupancy  Eigenvalues  Occupancy
  0    88      5.11162    0.00694      5.10812    0.00694
  0    89      5.13725    0.00694      5.13308    0.00694
  0    90      7.28883    0.00000      7.29095    0.00000
  0    91      7.30657    0.00000      7.30896    0.00000

  1    88      5.13750    0.00694      5.13405    0.00694
  1    89      5.16793    0.00694      5.16373    0.00694
  1    90      7.23157    0.00000      7.23321    0.00000
  1    91      7.24384    0.00000      7.24604    0.00000


Fermi level: 5.64953

Gap: 1.970 eV
Transition (v -> c):
  (s=0, k=49, n=89, [-0.08, -0.42, -0.12]) -> (s=0, k=61, n=90, [-0.08, 0.08, -0.12])
Writing to born-0.01-0z+.gpw (mode='all')

Timing:                              incl.     excl.
-----------------------------------------------------------
Hamiltonian:                         0.416     0.003   0.0% |
 Atomic:                             0.059     0.059   0.0% |
  XC Correction:                     0.000     0.000   0.0% |
 Calculate atomic Hamiltonians:      0.182     0.182   0.0% |
 Communicate:                        0.001     0.001   0.0% |
 Initialize Hamiltonian:             0.000     0.000   0.0% |
 Poisson:                            0.002     0.002   0.0% |
 XC 3D grid:                         0.169     0.169   0.0% |
LCAO initialization:               126.247     0.679   0.0% |
 LCAO eigensolver:                  33.747     0.002   0.0% |
  Calculate projections:             0.057     0.057   0.0% |
  DenseAtomicCorrection:             0.082     0.082   0.0% |
  Distribute overlap matrix:         0.209     0.209   0.0% |
  Orbital Layouts:                   0.363     0.363   0.0% |
  Potential matrix:                 32.945    32.945   0.6% |
  Sum over cells:                    0.090     0.090   0.0% |
 LCAO to grid:                      89.525    89.525   1.5% ||
 Set positions (LCAO WFS):           2.296     0.343   0.0% |
  Basic WFS set positions:           0.001     0.001   0.0% |
  Basis functions set positions:     0.000     0.000   0.0% |
  P tci:                             1.087     1.087   0.0% |
  ST tci:                            0.657     0.657   0.0% |
  mktci:                             0.207     0.207   0.0% |
PWDescriptor:                        0.025     0.025   0.0% |
SCF-cycle:                        2417.407     8.976   0.2% |
 Davidson:                        2014.196   657.360  11.0% |---|
  Apply H:                         140.768   136.636   2.3% ||
   HMM T:                            4.132     4.132   0.1% |
  Subspace diag:                   297.039     0.170   0.0% |
   calc_h_matrix:                  191.980    53.362   0.9% |
    Apply H:                       138.618   134.686   2.3% ||
     HMM T:                          3.932     3.932   0.1% |
   diagonalize:                      6.606     6.606   0.1% |
   rotate_psi:                      98.283    98.283   1.6% ||
  calc. matrices:                  629.670   356.818   6.0% |-|
   Apply H:                        272.852   265.396   4.4% |-|
    HMM T:                           7.456     7.456   0.1% |
  diagonalize:                      89.781    89.781   1.5% ||
  rotate_psi:                      199.577   199.577   3.3% ||
 Density:                           80.661     0.001   0.0% |
  Atomic density matrices:           1.484     1.484   0.0% |
  Mix:                              13.084    13.084   0.2% |
  Multipole moments:                 0.032     0.032   0.0% |
  Pseudo density:                   66.060    66.059   1.1% |
   Symmetrize density:               0.002     0.002   0.0% |
 Forces:                           286.760   286.760   4.8% |-|
 Hamiltonian:                       22.416     0.124   0.0% |
  Atomic:                            2.965     2.964   0.0% |
   XC Correction:                    0.000     0.000   0.0% |
  Calculate atomic Hamiltonians:     9.673     9.673   0.2% |
  Communicate:                       0.100     0.100   0.0% |
  Poisson:                           0.089     0.089   0.0% |
  XC 3D grid:                        9.465     9.465   0.2% |
 Orthonormalize:                     4.397     0.003   0.0% |
  calc_s_matrix:                     0.523     0.523   0.0% |
  inverse-cholesky:                  0.055     0.055   0.0% |
  projections:                       2.882     2.882   0.0% |
  rotate_psi_s:                      0.933     0.933   0.0% |
Set symmetry:                        0.000     0.000   0.0% |
Other:                            3436.416  3436.416  57.5% |----------------------|
-----------------------------------------------------------
Total:                                      5980.511 100.0%

Memory usage: 12.01 GiB
Date: Sun Mar 21 09:25:21 2021
