
  ___ ___ ___ _ _ _  
 |   |   |_  | | | | 
 | | | | | . | | | | 
 |__ |  _|___|_____|  20.10.1b1
 |___|_|             

User:   madkru@g064.nifl.fysik.dtu.dk
Date:   Mon Mar 22 17:22:53 2021
Arch:   x86_64
Pid:    60512
Python: 3.7.4
gpaw:   /home/niflheim/madkru/venv_folder/gpaw/gpaw (d0d1ca1c71)
_gpaw:  /home/niflheim/madkru/venv_folder/gpaw/build/lib.linux-x86_64-sandybridge-3.7/
        _gpaw.cpython-37m-x86_64-linux-gnu.so (4fd39e8b1e)
ase:    /home/niflheim/madkru/venv_folder/ase/ase (version 3.21.0b1-7e6c206a91)
numpy:  /home/niflheim/madkru/venv_folder/lib/python3.7/site-packages/numpy (version 1.19.4)
scipy:  /home/niflheim/madkru/venv_folder/lib/python3.7/site-packages/scipy (version 1.5.4)
libxc:  4.3.4
units:  Angstrom and eV
cores: 32
OMP_NUM_THREADS: 1

Input parameters:
  convergence: {bands: occupied,
                density: 0.0001,
                eigenstates: 4e-08,
                energy: 0.0005,
                forces: 1e-06}
  kpts: [6 6 4]
  mode: {ecut: 600.0,
         gammacentered: False,
         name: pw}
  occupations: {fixmagmom: False,
                name: fermi-dirac,
                width: 0.001}
  symmetry: {point_group: False,
             time_reversal: False}

System changes: positions, numbers, cell, pbc, initial_charges, initial_magmoms 

Initialize ...

O-setup:
  name: Oxygen
  id: 9b9d51c344dea68c822856295a461509
  Z: 8.0
  valence: 6
  core: 2
  charge: 0.0
  file: /home/modules/software/GPAW-setups/0.9.20000/O.LDA.gz
  compensation charges: gauss, rc=0.21, lmax=2
  cutoffs: 1.17(filt), 0.83(core),
  valence states:
                energy  radius
    2s(2.00)   -23.752   0.688
    2p(4.00)    -9.195   0.598
    *s           3.459   0.688
    *p          18.016   0.598
    *d           0.000   0.619

  Using partial waves for O as LCAO basis

Mn-setup:
  name: Manganese
  id: 0d715a8018be061a6e9ea6f2d364ac92
  Z: 25.0
  valence: 15
  core: 10
  charge: 0.0
  file: /home/modules/software/GPAW-setups/0.9.20000/Mn.LDA.gz
  compensation charges: gauss, rc=0.38, lmax=2
  cutoffs: 2.14(filt), 0.86(core),
  valence states:
                energy  radius
    3s(2.00)   -85.387   1.275
    4s(2.00)    -5.282   1.275
    3p(6.00)   -54.493   1.281
    4p(0.00)    -1.471   1.281
    3d(5.00)    -7.009   1.138
    *d          20.203   1.138

  Using partial waves for Mn as LCAO basis

P-setup:
  name: Phosphorus
  id: a5561c299094968922a179ab894d2e2d
  Z: 15.0
  valence: 5
  core: 10
  charge: 0.0
  file: /home/modules/software/GPAW-setups/0.9.20000/P.LDA.gz
  compensation charges: gauss, rc=0.30, lmax=2
  cutoffs: 1.69(filt), 1.81(core),
  valence states:
                energy  radius
    3s(2.00)   -14.015   0.953
    3p(3.00)    -5.596   0.953
    *s          13.197   0.953
    *p          21.615   0.953
    *d           0.000   0.953

  Using partial waves for P as LCAO basis

Li-setup:
  name: Lithium
  id: b73562207f97a71b6967473b66fe8b65
  Z: 3.0
  valence: 1
  core: 2
  charge: 0.0
  file: /home/modules/software/GPAW-setups/0.9.20000/Li.LDA.gz
  compensation charges: gauss, rc=0.33, lmax=2
  cutoffs: 1.91(filt), 2.55(core),
  valence states:
                energy  radius
    2s(1.00)    -2.874   1.058
    2p(0.00)    -1.126   1.058
    *s          24.338   1.058

  Using partial waves for Li as LCAO basis

Reference energy: -196157.275402

Spin-polarized calculation.
Magnetic moment: 0.000000

Convergence criteria:
  Maximum total energy change: 0.0005 eV / electron
  Maximum integral of absolute density change: 0.0001 electrons
  Maximum integral of absolute eigenstate change: 4e-08 eV^2
  Maximum change in atomic force: 1e-06 eV / Ang
  Maximum number of iterations: 333

Symmetries present (total): 1

  ( 1  0  0)
  ( 0  1  0)
  ( 0  0  1)

144 k-points: 6 x 6 x 4 Monkhorst-Pack grid
144 k-points in the irreducible part of the Brillouin zone
       k-points in crystal coordinates                weights
   0:    -0.41666667   -0.41666667   -0.37500000          1/144
   1:    -0.41666667   -0.41666667   -0.12500000          1/144
   2:    -0.41666667   -0.41666667    0.12500000          1/144
   3:    -0.41666667   -0.41666667    0.37500000          1/144
   4:    -0.41666667   -0.25000000   -0.37500000          1/144
   5:    -0.41666667   -0.25000000   -0.12500000          1/144
   6:    -0.41666667   -0.25000000    0.12500000          1/144
   7:    -0.41666667   -0.25000000    0.37500000          1/144
   8:    -0.41666667   -0.08333333   -0.37500000          1/144
   9:    -0.41666667   -0.08333333   -0.12500000          1/144
          ...
 143:     0.41666667    0.41666667    0.37500000          1/144

Wave functions: Plane wave expansion
  Cutoff energy: 600.000 eV
  Number of coefficients (min, max): 10068, 10125
  Pulay-stress correction: 0.000000 eV/Ang^3 (de/decut=0.000000)
  Using FFTW library
  ScaLapack parameters: grid=1x1, blocksize=None
  Wavefunction extrapolation:
    Improved wavefunction reuse through dual PAW basis 

  Fermi-Dirac: width=0.0010 eV

Eigensolver
   Davidson(niter=2, smin=None, normalize=True) 

Densities:
  Coarse grid: 60*35*27 grid
  Fine grid: 120*70*54 grid
  Total Charge: 0.000000 

Density mixing:
  Method: difference
  Backend: pulay
  Linear mixing parameter: 0.05
  Mixing with 5 old densities
  Damping of long wave oscillations: 50 

Hamiltonian:
  XC and Coulomb potentials evaluated on a 120*70*54 grid
  Using the LDA Exchange-Correlation functional
 

Memory estimate:
  Process memory now: 13351.39 MiB
  Calculator: 375.55 MiB
    Density: 20.02 MiB
      Arrays: 7.57 MiB
      Localized functions: 9.42 MiB
      Mixer: 3.03 MiB
    Hamiltonian: 5.90 MiB
      Arrays: 5.62 MiB
      XC: 0.00 MiB
      Poisson: 0.00 MiB
      vbar: 0.27 MiB
    Wavefunctions: 349.64 MiB
      Arrays psit_nG: 311.46 MiB
      Eigensolver: 19.99 MiB
      Projections: 5.41 MiB
      Projectors: 9.73 MiB
      PW-descriptor: 3.03 MiB

Total number of cores used: 32
Parallelization over k-points: 16
Domain decomposition: 2 x 1 x 1

Number of atoms: 28
Number of atomic orbitals: 148
Number of bands in calculation: 112
Number of valence electrons: 180
Bands to converge: occupied

... initialized

Initializing position-dependent things.

Density initialized from atomic densities
Creating initial wave functions:
  112 bands from LCAO basis set

     .-------------------------.  
    /|         OP              |  
   / |O            O        O  |  
  /  |       O            O  P |  
 *   |O    Mn      O           |  
 |   |          OLi          O |  
 |   .P-O--------------Mn------.  
 |  /          Li    O  Mn  O /   
 | /Li O           PO        /    
 |/       Mn                /     
 *Li-----------------------*      

Positions:
   0 O     -1.360678   -2.541161   -1.202221    ( 0.0000,  0.0000,  0.0000)
   1 O     -3.121941    2.976855    1.167242    ( 0.0000,  0.0000,  0.0000)
   2 O      2.107533    0.508090    1.540712    ( 0.0000,  0.0000,  0.0000)
   3 O      3.869373   -0.072395   -0.828750    ( 0.0000,  0.0000,  0.0000)
   4 O      2.107821    2.976875    1.540792    ( 0.0000,  0.0000,  0.0000)
   5 O      3.869084   -2.541141   -0.828671    ( 0.0000,  0.0000,  0.0000)
   6 O     -1.360390   -0.072375   -1.202141    ( 0.0000,  0.0000,  0.0000)
   7 O     -3.132230    0.508109    1.167321    ( 0.0000,  0.0000,  0.0000)
   8 O     -4.413461   -1.306992   -0.794251    ( 0.0000,  0.0000,  0.0000)
   9 O     -0.069585    1.742707    1.575662    ( 0.0000,  0.0000,  0.0000)
  10 O      5.160604    1.742707    1.132822    ( 0.0000,  0.0000,  0.0000)
  11 O      0.816728   -1.306992   -1.237091    ( 0.0000,  0.0000,  0.0000)
  12 Mn    -2.570809   -1.307302    0.247161    ( 0.0000,  0.0000,  1.0000)
  13 Mn    -1.912021    1.743016   -2.122906    ( 0.0000,  0.0000, -1.0000)
  14 Mn     3.317952    1.743017    0.091411    ( 0.0000,  0.0000, -1.0000)
  15 Mn     2.659164   -1.307302    2.461478    ( 0.0000,  0.0000,  1.0000)
  16 P     -0.620664   -1.306816   -1.828465    ( 0.0000,  0.0000,  0.0000)
  17 P     -3.862097    1.742530    0.541238    ( 0.0000,  0.0000,  0.0000)
  18 P      1.367807    1.742530    2.167036    ( 0.0000,  0.0000,  0.0000)
  19 P      4.609240   -1.306816   -0.202666    ( 0.0000,  0.0000,  0.0000)
  20 O     -0.646437   -1.306845    1.374751    ( 0.0000,  0.0000,  0.0000)
  21 O     -3.836504    1.742559   -0.995565    ( 0.0000,  0.0000,  0.0000)
  22 O      1.393580    1.742559   -1.036179    ( 0.0000,  0.0000,  0.0000)
  23 O      4.583647   -1.306845    1.334136    ( 0.0000,  0.0000,  0.0000)
  24 Li    -4.856429   -2.832143   -2.200714    ( 0.0000,  0.0000,  0.0000)
  25 Li     0.373571   -2.832143    0.169286    ( 0.0000,  0.0000,  0.0000)
  26 Li    -4.856429    0.217857   -2.200714    ( 0.0000,  0.0000,  0.0000)
  27 Li     0.373571    0.217857    0.169286    ( 0.0000,  0.0000,  0.0000)

Unit cell:
           periodic     x           y           z      points  spacing
  1. axis:    yes   10.460000    0.000000    0.000000    60     0.1743
  2. axis:    yes    0.000000    6.100000    0.000000    35     0.1743
  3. axis:    yes    0.000000    0.000000    4.740000    27     0.1756

  Lengths:  10.460000   6.100000   4.740000
  Angles:   90.000000  90.000000  90.000000

Effective grid spacing dv^(1/3) = 0.1747

                     log10-error:           total        iterations:
           time      wfs    density  force  energy       poisson  magmom
iter:   1  17:25:53                       -231.921193             +0.0000
iter:   2  17:26:32  -0.55  -0.94         -231.746233             +0.0104
iter:   3  17:27:12  -0.72  -0.98         -220.588182             +0.0130
iter:   4  17:27:52  -0.94  -1.20         -218.875075             +0.0049
iter:   5  17:28:32  -1.94  -1.36         -222.304786             +0.0030
iter:   6  17:29:11  -1.99  -1.41         -221.533781             +0.0076
iter:   7  17:29:51  -1.83  -1.59         -224.893207             +0.1969
iter:   8  17:30:31  -2.34  -1.65         -225.064623             -0.9702
iter:   9  17:31:10  -2.67  -1.83         -226.307555             -1.0075
iter:  10  17:31:50  -2.66  -1.82         -227.157959             -0.3148
iter:  11  17:32:29  -2.47  -1.79         -227.005970             -0.0783
iter:  12  17:33:08  -3.12  -1.77         -226.913874             -0.0148
iter:  13  17:33:48  -1.77  -1.80         -226.813944             +0.0016
iter:  14  17:34:28  -2.28  -2.12         -226.375893             -0.0056
iter:  15  17:35:07  -2.16  -2.18         -226.502654             -0.0017
iter:  16  17:35:47  -3.01  -2.39         -226.343117             -0.0015
iter:  17  17:36:26  -3.67  -2.54         -226.295506             -0.0004
iter:  18  17:37:06  -2.81  -2.63         -226.228470             +0.0001
iter:  19  17:37:45  -3.46  -2.89         -226.232621             -0.0001
iter:  20  17:38:25  -4.20  -2.95         -226.229630             -0.0001
iter:  21  17:39:04  -5.25  -3.15         -226.229281             -0.0000
iter:  22  17:39:44  -4.37  -3.20         -226.228901             -0.0000
iter:  23  17:40:23  -4.69  -3.41         -226.227624             -0.0000
iter:  24  17:41:03  -5.70  -3.48         -226.227570             -0.0000
iter:  25  17:41:42  -4.88  -3.52         -226.227786             -0.0000
iter:  26  17:42:21  -4.95  -3.45         -226.227395             -0.0000
iter:  27  17:43:01  -6.36  -3.86         -226.227383             -0.0000
iter:  28  17:43:40  -6.14  -3.98         -226.227439             -0.0000
iter:  29  17:44:20  -6.19  -4.07         -226.227390             +0.0000
iter:  30  17:44:59  -5.94  -4.18         -226.227401             -0.0000
iter:  31  17:45:39  -6.45  -4.08         -226.227375             -0.0000
iter:  32  17:46:18  -6.81  -4.44         -226.227371             -0.0000
iter:  33  17:46:58  -7.09  -4.48         -226.227374             +0.0000
iter:  34  17:47:37  -7.28  -4.57         -226.227370             +0.0000
iter:  35  17:48:27  -7.60  -4.98         -226.227370             +0.0000
iter:  36  17:49:17  -8.19  -4.98    -3.08-226.227370             +0.0000
iter:  37  17:50:07  -8.17  -5.03    -3.18-226.227370             +0.0000
iter:  38  17:50:57  -8.67  -5.10    -3.29-226.227370             +0.0000
iter:  39  17:51:47  -8.67  -5.18    -3.21-226.227370             -0.0000
iter:  40  17:52:37  -9.15  -5.24    -3.49-226.227370             +0.0000
iter:  41  17:53:27  -9.10  -5.29    -3.55-226.227370             +0.0000
iter:  42  17:54:17  -9.11  -5.34    -3.44-226.227370             +0.0000
iter:  43  17:55:07  -9.18  -5.38    -3.30-226.227370             +0.0000
iter:  44  17:55:57  -9.35  -5.49    -3.63-226.227370             -0.0000
iter:  45  17:56:47 -10.51  -5.55    -4.06-226.227370             +0.0000
iter:  46  17:57:37  -9.93  -5.59    -3.78-226.227370             +0.0000
iter:  47  17:58:27 -10.24  -5.64    -3.97-226.227370             +0.0000
iter:  48  17:59:17 -10.31  -5.74    -4.23-226.227370             -0.0000
iter:  49  18:00:07 -10.50  -5.82    -3.93-226.227370             -0.0000
iter:  50  18:00:57  -9.87  -5.90    -3.98-226.227370             -0.0000
iter:  51  18:01:46 -10.39  -6.15    -4.01-226.227370             -0.0000
iter:  52  18:02:36 -11.47  -6.32    -4.62-226.227370             -0.0000
iter:  53  18:03:26 -10.84  -6.36    -4.16-226.227370             -0.0000
iter:  54  18:04:16 -11.76  -6.53    -4.54-226.227370             -0.0000
iter:  55  18:05:06 -11.58  -6.60    -4.69-226.227370             -0.0000
iter:  56  18:05:56 -12.16  -6.66    -5.10-226.227370             -0.0000
iter:  57  18:06:46 -11.45  -6.70    -4.46-226.227370             -0.0000
iter:  58  18:07:36 -12.54  -6.92    -5.26-226.227370             -0.0000
iter:  59  18:08:26 -11.16  -6.96    -4.53-226.227370             -0.0000
iter:  60  18:09:16 -12.66  -7.00    -5.14-226.227370             -0.0000
iter:  61  18:10:06 -11.44  -7.09    -4.62-226.227370             -0.0000
iter:  62  18:10:56 -12.36  -7.26    -5.05-226.227370             -0.0000
iter:  63  18:11:46 -13.20  -7.53    -5.59-226.227370             -0.0000
iter:  64  18:12:36 -13.87  -7.72    -5.77-226.227370             -0.0000
iter:  65  18:13:26 -13.21  -7.76    -5.64-226.227370             -0.0000
iter:  66  18:14:15 -13.65  -7.72    -5.51-226.227370             -0.0000
iter:  67  18:15:05 -14.33  -7.99    -6.25-226.227370             -0.0000

Converged after 67 iterations.

Dipole moment: (10.676185, 1.416049, -6.268613) |e|*Ang

Total magnetic moment: (0.000000, 0.000000, -0.000000)
Local magnetic moments:
   0 O  ( 0.000000,  0.000000, -0.000585)
   1 O  ( 0.000000,  0.000000,  0.000551)
   2 O  ( 0.000000,  0.000000,  0.000557)
   3 O  ( 0.000000,  0.000000, -0.000530)
   4 O  ( 0.000000,  0.000000,  0.000537)
   5 O  ( 0.000000,  0.000000, -0.000514)
   6 O  ( 0.000000,  0.000000, -0.000560)
   7 O  ( 0.000000,  0.000000,  0.000596)
   8 O  ( 0.000000,  0.000000,  0.028739)
   9 O  ( 0.000000,  0.000000, -0.028701)
  10 O  ( 0.000000,  0.000000, -0.028812)
  11 O  ( 0.000000,  0.000000,  0.028647)
  12 Mn ( 0.000000,  0.000000,  4.448891)
  13 Mn ( 0.000000,  0.000000, -4.448803)
  14 Mn ( 0.000000,  0.000000, -4.448178)
  15 Mn ( 0.000000,  0.000000,  4.448247)
  16 P  ( 0.000000,  0.000000,  0.001569)
  17 P  ( 0.000000,  0.000000, -0.001504)
  18 P  ( 0.000000,  0.000000, -0.001547)
  19 P  ( 0.000000,  0.000000,  0.001531)
  20 O  ( 0.000000,  0.000000,  0.025278)
  21 O  ( 0.000000,  0.000000, -0.025342)
  22 O  ( 0.000000,  0.000000, -0.025273)
  23 O  ( 0.000000,  0.000000,  0.025330)
  24 Li ( 0.000000,  0.000000, -0.000003)
  25 Li ( 0.000000,  0.000000,  0.000000)
  26 Li ( 0.000000,  0.000000,  0.000004)
  27 Li ( 0.000000,  0.000000, -0.000000)

Energy contributions relative to reference atoms: (reference = -196157.275402)

Kinetic:       +217.621257
Potential:     -195.441676
External:        +0.000000
XC:            -250.447639
Entropy (-ST):   -0.000000
Local:           +2.040688
--------------------------
Free energy:   -226.227370
Extrapolated:  -226.227370

Spin contamination: 9.561188 electrons
Showing only first 2 kpts
                      Up                     Down
 Kpt  Band  Eigenvalues  Occupancy  Eigenvalues  Occupancy
  0    88      5.10600    0.00694      5.10636    0.00694
  0    89      5.13142    0.00694      5.13546    0.00694
  0    90      7.28514    0.00000      7.28487    0.00000
  0    91      7.30536    0.00000      7.30531    0.00000

  1    88      5.13184    0.00694      5.13201    0.00694
  1    89      5.16178    0.00694      5.16588    0.00694
  1    90      7.22562    0.00000      7.22730    0.00000
  1    91      7.24327    0.00000      7.24297    0.00000


Fermi level: 6.01531

Gap: 1.967 eV
Transition (v -> c):
  (s=1, k=74, n=89, [0.08, -0.42, 0.12]) -> (s=0, k=58, n=90, [-0.08, -0.08, 0.12])
Writing to born-0.01-7x-.gpw (mode='all')

Timing:                              incl.     excl.
-----------------------------------------------------------
Hamiltonian:                         0.437     0.003   0.0% |
 Atomic:                             0.093     0.093   0.0% |
  XC Correction:                     0.000     0.000   0.0% |
 Calculate atomic Hamiltonians:      0.172     0.172   0.0% |
 Communicate:                        0.002     0.002   0.0% |
 Initialize Hamiltonian:             0.000     0.000   0.0% |
 Poisson:                            0.002     0.002   0.0% |
 XC 3D grid:                         0.165     0.165   0.0% |
LCAO initialization:               134.412     0.678   0.0% |
 LCAO eigensolver:                  34.365     0.003   0.0% |
  Calculate projections:             0.057     0.057   0.0% |
  DenseAtomicCorrection:             0.083     0.083   0.0% |
  Distribute overlap matrix:         0.631     0.631   0.0% |
  Orbital Layouts:                   0.363     0.363   0.0% |
  Potential matrix:                 33.140    33.140   0.5% |
  Sum over cells:                    0.089     0.089   0.0% |
 LCAO to grid:                      97.107    97.107   1.5% ||
 Set positions (LCAO WFS):           2.261     0.345   0.0% |
  Basic WFS set positions:           0.001     0.001   0.0% |
  Basis functions set positions:     0.000     0.000   0.0% |
  P tci:                             1.053     1.053   0.0% |
  ST tci:                            0.655     0.655   0.0% |
  mktci:                             0.207     0.207   0.0% |
PWDescriptor:                        0.025     0.025   0.0% |
SCF-cycle:                        2996.052     6.879   0.1% |
 Davidson:                        2506.478   816.866  12.4% |----|
  Apply H:                         176.791   170.931   2.6% ||
   HMM T:                            5.859     5.859   0.1% |
  Subspace diag:                   370.363     0.219   0.0% |
   calc_h_matrix:                  240.114    66.243   1.0% |
    Apply H:                       173.871   168.304   2.6% ||
     HMM T:                          5.566     5.566   0.1% |
   diagonalize:                      8.207     8.207   0.1% |
   rotate_psi:                     121.823   121.823   1.8% ||
  calc. matrices:                  783.749   442.436   6.7% |--|
   Apply H:                        341.312   330.797   5.0% |-|
    HMM T:                          10.515    10.515   0.2% |
  diagonalize:                     111.478   111.478   1.7% ||
  rotate_psi:                      247.232   247.232   3.8% |-|
 Density:                          100.560     0.002   0.0% |
  Atomic density matrices:           1.816     1.816   0.0% |
  Mix:                              16.405    16.405   0.2% |
  Multipole moments:                 0.040     0.040   0.0% |
  Pseudo density:                   82.297    82.295   1.2% |
   Symmetrize density:               0.002     0.002   0.0% |
 Forces:                           349.926   349.926   5.3% |-|
 Hamiltonian:                       27.792     0.152   0.0% |
  Atomic:                            3.602     3.602   0.1% |
   XC Correction:                    0.000     0.000   0.0% |
  Calculate atomic Hamiltonians:    12.009    12.009   0.2% |
  Communicate:                       0.128     0.128   0.0% |
  Poisson:                           0.109     0.109   0.0% |
  XC 3D grid:                       11.792    11.792   0.2% |
 Orthonormalize:                     4.417     0.004   0.0% |
  calc_s_matrix:                     0.524     0.524   0.0% |
  inverse-cholesky:                  0.055     0.055   0.0% |
  projections:                       2.902     2.902   0.0% |
  rotate_psi_s:                      0.932     0.932   0.0% |
Set symmetry:                        0.000     0.000   0.0% |
Other:                            3455.589  3455.589  52.5% |--------------------|
-----------------------------------------------------------
Total:                                      6586.515 100.0%

Memory usage: 13.04 GiB
Date: Mon Mar 22 19:12:39 2021
