
  ___ ___ ___ _ _ _  
 |   |   |_  | | | | 
 | | | | | . | | | | 
 |__ |  _|___|_____|  20.10.1b1
 |___|_|             

User:   madkru@g064.nifl.fysik.dtu.dk
Date:   Mon Mar 22 16:32:46 2021
Arch:   x86_64
Pid:    60512
Python: 3.7.4
gpaw:   /home/niflheim/madkru/venv_folder/gpaw/gpaw (d0d1ca1c71)
_gpaw:  /home/niflheim/madkru/venv_folder/gpaw/build/lib.linux-x86_64-sandybridge-3.7/
        _gpaw.cpython-37m-x86_64-linux-gnu.so (4fd39e8b1e)
ase:    /home/niflheim/madkru/venv_folder/ase/ase (version 3.21.0b1-7e6c206a91)
numpy:  /home/niflheim/madkru/venv_folder/lib/python3.7/site-packages/numpy (version 1.19.4)
scipy:  /home/niflheim/madkru/venv_folder/lib/python3.7/site-packages/scipy (version 1.5.4)
libxc:  4.3.4
units:  Angstrom and eV
cores: 32
OMP_NUM_THREADS: 1

Input parameters:
  convergence: {bands: occupied,
                density: 0.0001,
                eigenstates: 4e-08,
                energy: 0.0005,
                forces: 1e-06}
  kpts: [6 6 4]
  mode: {ecut: 600.0,
         gammacentered: False,
         name: pw}
  occupations: {fixmagmom: False,
                name: fermi-dirac,
                width: 0.001}
  symmetry: {point_group: False,
             time_reversal: False}

System changes: positions, numbers, cell, pbc, initial_charges, initial_magmoms 

Initialize ...

O-setup:
  name: Oxygen
  id: 9b9d51c344dea68c822856295a461509
  Z: 8.0
  valence: 6
  core: 2
  charge: 0.0
  file: /home/modules/software/GPAW-setups/0.9.20000/O.LDA.gz
  compensation charges: gauss, rc=0.21, lmax=2
  cutoffs: 1.17(filt), 0.83(core),
  valence states:
                energy  radius
    2s(2.00)   -23.752   0.688
    2p(4.00)    -9.195   0.598
    *s           3.459   0.688
    *p          18.016   0.598
    *d           0.000   0.619

  Using partial waves for O as LCAO basis

Mn-setup:
  name: Manganese
  id: 0d715a8018be061a6e9ea6f2d364ac92
  Z: 25.0
  valence: 15
  core: 10
  charge: 0.0
  file: /home/modules/software/GPAW-setups/0.9.20000/Mn.LDA.gz
  compensation charges: gauss, rc=0.38, lmax=2
  cutoffs: 2.14(filt), 0.86(core),
  valence states:
                energy  radius
    3s(2.00)   -85.387   1.275
    4s(2.00)    -5.282   1.275
    3p(6.00)   -54.493   1.281
    4p(0.00)    -1.471   1.281
    3d(5.00)    -7.009   1.138
    *d          20.203   1.138

  Using partial waves for Mn as LCAO basis

P-setup:
  name: Phosphorus
  id: a5561c299094968922a179ab894d2e2d
  Z: 15.0
  valence: 5
  core: 10
  charge: 0.0
  file: /home/modules/software/GPAW-setups/0.9.20000/P.LDA.gz
  compensation charges: gauss, rc=0.30, lmax=2
  cutoffs: 1.69(filt), 1.81(core),
  valence states:
                energy  radius
    3s(2.00)   -14.015   0.953
    3p(3.00)    -5.596   0.953
    *s          13.197   0.953
    *p          21.615   0.953
    *d           0.000   0.953

  Using partial waves for P as LCAO basis

Li-setup:
  name: Lithium
  id: b73562207f97a71b6967473b66fe8b65
  Z: 3.0
  valence: 1
  core: 2
  charge: 0.0
  file: /home/modules/software/GPAW-setups/0.9.20000/Li.LDA.gz
  compensation charges: gauss, rc=0.33, lmax=2
  cutoffs: 1.91(filt), 2.55(core),
  valence states:
                energy  radius
    2s(1.00)    -2.874   1.058
    2p(0.00)    -1.126   1.058
    *s          24.338   1.058

  Using partial waves for Li as LCAO basis

Reference energy: -196157.275402

Spin-polarized calculation.
Magnetic moment: 0.000000

Convergence criteria:
  Maximum total energy change: 0.0005 eV / electron
  Maximum integral of absolute density change: 0.0001 electrons
  Maximum integral of absolute eigenstate change: 4e-08 eV^2
  Maximum change in atomic force: 1e-06 eV / Ang
  Maximum number of iterations: 333

Symmetries present (total): 1

  ( 1  0  0)
  ( 0  1  0)
  ( 0  0  1)

144 k-points: 6 x 6 x 4 Monkhorst-Pack grid
144 k-points in the irreducible part of the Brillouin zone
       k-points in crystal coordinates                weights
   0:    -0.41666667   -0.41666667   -0.37500000          1/144
   1:    -0.41666667   -0.41666667   -0.12500000          1/144
   2:    -0.41666667   -0.41666667    0.12500000          1/144
   3:    -0.41666667   -0.41666667    0.37500000          1/144
   4:    -0.41666667   -0.25000000   -0.37500000          1/144
   5:    -0.41666667   -0.25000000   -0.12500000          1/144
   6:    -0.41666667   -0.25000000    0.12500000          1/144
   7:    -0.41666667   -0.25000000    0.37500000          1/144
   8:    -0.41666667   -0.08333333   -0.37500000          1/144
   9:    -0.41666667   -0.08333333   -0.12500000          1/144
          ...
 143:     0.41666667    0.41666667    0.37500000          1/144

Wave functions: Plane wave expansion
  Cutoff energy: 600.000 eV
  Number of coefficients (min, max): 10068, 10125
  Pulay-stress correction: 0.000000 eV/Ang^3 (de/decut=0.000000)
  Using FFTW library
  ScaLapack parameters: grid=1x1, blocksize=None
  Wavefunction extrapolation:
    Improved wavefunction reuse through dual PAW basis 

  Fermi-Dirac: width=0.0010 eV

Eigensolver
   Davidson(niter=2, smin=None, normalize=True) 

Densities:
  Coarse grid: 60*35*27 grid
  Fine grid: 120*70*54 grid
  Total Charge: 0.000000 

Density mixing:
  Method: difference
  Backend: pulay
  Linear mixing parameter: 0.05
  Mixing with 5 old densities
  Damping of long wave oscillations: 50 

Hamiltonian:
  XC and Coulomb potentials evaluated on a 120*70*54 grid
  Using the LDA Exchange-Correlation functional
 

Memory estimate:
  Process memory now: 13351.39 MiB
  Calculator: 375.55 MiB
    Density: 20.02 MiB
      Arrays: 7.57 MiB
      Localized functions: 9.42 MiB
      Mixer: 3.03 MiB
    Hamiltonian: 5.90 MiB
      Arrays: 5.62 MiB
      XC: 0.00 MiB
      Poisson: 0.00 MiB
      vbar: 0.27 MiB
    Wavefunctions: 349.64 MiB
      Arrays psit_nG: 311.46 MiB
      Eigensolver: 19.99 MiB
      Projections: 5.41 MiB
      Projectors: 9.73 MiB
      PW-descriptor: 3.03 MiB

Total number of cores used: 32
Parallelization over k-points: 16
Domain decomposition: 2 x 1 x 1

Number of atoms: 28
Number of atomic orbitals: 148
Number of bands in calculation: 112
Number of valence electrons: 180
Bands to converge: occupied

... initialized

Initializing position-dependent things.

Density initialized from atomic densities
Creating initial wave functions:
  112 bands from LCAO basis set

     .-------------------------.  
    /|         OP              |  
   / |O            O        O  |  
  /  |       O            O  P |  
 *   |O    Mn      O           |  
 |   |          OLi          O |  
 |   .P-O--------------Mn------.  
 |  /          Li    O  Mn  O /   
 | /Li O           PO        /    
 |/       Mn                /     
 *Li-----------------------*      

Positions:
   0 O     -1.360678   -2.541161   -1.202221    ( 0.0000,  0.0000,  0.0000)
   1 O     -3.121941    2.976855    1.167242    ( 0.0000,  0.0000,  0.0000)
   2 O      2.107533    0.508090    1.540712    ( 0.0000,  0.0000,  0.0000)
   3 O      3.869373   -0.072395   -0.828750    ( 0.0000,  0.0000,  0.0000)
   4 O      2.107821    2.976875    1.540792    ( 0.0000,  0.0000,  0.0000)
   5 O      3.869084   -2.541141   -0.828671    ( 0.0000,  0.0000,  0.0000)
   6 O     -1.360390   -0.072375   -1.192141    ( 0.0000,  0.0000,  0.0000)
   7 O     -3.122230    0.508109    1.167321    ( 0.0000,  0.0000,  0.0000)
   8 O     -4.413461   -1.306992   -0.794251    ( 0.0000,  0.0000,  0.0000)
   9 O     -0.069585    1.742707    1.575662    ( 0.0000,  0.0000,  0.0000)
  10 O      5.160604    1.742707    1.132822    ( 0.0000,  0.0000,  0.0000)
  11 O      0.816728   -1.306992   -1.237091    ( 0.0000,  0.0000,  0.0000)
  12 Mn    -2.570809   -1.307302    0.247161    ( 0.0000,  0.0000,  1.0000)
  13 Mn    -1.912021    1.743016   -2.122906    ( 0.0000,  0.0000, -1.0000)
  14 Mn     3.317952    1.743017    0.091411    ( 0.0000,  0.0000, -1.0000)
  15 Mn     2.659164   -1.307302    2.461478    ( 0.0000,  0.0000,  1.0000)
  16 P     -0.620664   -1.306816   -1.828465    ( 0.0000,  0.0000,  0.0000)
  17 P     -3.862097    1.742530    0.541238    ( 0.0000,  0.0000,  0.0000)
  18 P      1.367807    1.742530    2.167036    ( 0.0000,  0.0000,  0.0000)
  19 P      4.609240   -1.306816   -0.202666    ( 0.0000,  0.0000,  0.0000)
  20 O     -0.646437   -1.306845    1.374751    ( 0.0000,  0.0000,  0.0000)
  21 O     -3.836504    1.742559   -0.995565    ( 0.0000,  0.0000,  0.0000)
  22 O      1.393580    1.742559   -1.036179    ( 0.0000,  0.0000,  0.0000)
  23 O      4.583647   -1.306845    1.334136    ( 0.0000,  0.0000,  0.0000)
  24 Li    -4.856429   -2.832143   -2.200714    ( 0.0000,  0.0000,  0.0000)
  25 Li     0.373571   -2.832143    0.169286    ( 0.0000,  0.0000,  0.0000)
  26 Li    -4.856429    0.217857   -2.200714    ( 0.0000,  0.0000,  0.0000)
  27 Li     0.373571    0.217857    0.169286    ( 0.0000,  0.0000,  0.0000)

Unit cell:
           periodic     x           y           z      points  spacing
  1. axis:    yes   10.460000    0.000000    0.000000    60     0.1743
  2. axis:    yes    0.000000    6.100000    0.000000    35     0.1743
  3. axis:    yes    0.000000    0.000000    4.740000    27     0.1756

  Lengths:  10.460000   6.100000   4.740000
  Angles:   90.000000  90.000000  90.000000

Effective grid spacing dv^(1/3) = 0.1747

                     log10-error:           total        iterations:
           time      wfs    density  force  energy       poisson  magmom
iter:   1  16:35:45                       -231.921507             +0.0000
iter:   2  16:36:25  -0.55  -0.94         -231.723467             +0.0053
iter:   3  16:37:04  -0.72  -0.98         -220.583970             +0.0067
iter:   4  16:37:43  -0.95  -1.20         -218.866958             +0.0030
iter:   5  16:38:23  -1.93  -1.36         -222.382822             +0.0018
iter:   6  16:39:02  -2.00  -1.41         -221.612859             +0.0079
iter:   7  16:39:41  -1.80  -1.57         -224.984392             -0.0561
iter:   8  16:40:21  -2.31  -1.60         -224.700266             -1.5037
iter:   9  16:41:00  -2.64  -1.82         -226.091096             -1.5025
iter:  10  16:41:39  -2.28  -1.82         -226.845542             -0.4504
iter:  11  16:42:19  -1.78  -1.84         -226.734409             -0.1157
iter:  12  16:42:58  -2.32  -2.04         -226.539600             -0.0961
iter:  13  16:43:37  -2.16  -2.19         -226.305067             -0.0259
iter:  14  16:44:16  -2.96  -2.47         -226.309161             -0.0199
iter:  15  16:44:56  -2.82  -2.55         -226.224443             +0.0009
iter:  16  16:45:35  -3.69  -2.82         -226.232758             -0.0024
iter:  17  16:46:14  -3.77  -2.90         -226.229830             -0.0011
iter:  18  16:46:54  -3.78  -3.05         -226.232596             -0.0004
iter:  19  16:47:33  -4.48  -3.37         -226.228535             -0.0002
iter:  20  16:48:12  -4.65  -3.45         -226.227546             -0.0001
iter:  21  16:48:52  -5.59  -3.72         -226.227695             -0.0000
iter:  22  16:49:31  -6.38  -3.80         -226.227603             -0.0000
iter:  23  16:50:10  -5.34  -3.85         -226.227472             -0.0000
iter:  24  16:50:50  -6.32  -4.00         -226.227487             -0.0000
iter:  25  16:51:29  -6.91  -4.03         -226.227489             -0.0000
iter:  26  16:52:08  -5.86  -4.09         -226.227463             -0.0000
iter:  27  16:52:48  -6.93  -4.35         -226.227457             -0.0000
iter:  28  16:53:27  -6.17  -4.39         -226.227466             -0.0000
iter:  29  16:54:06  -7.00  -4.53         -226.227451             -0.0000
iter:  30  16:54:56  -7.56  -4.88         -226.227450             -0.0000
iter:  31  16:55:46  -8.14  -5.03    -3.11-226.227450             -0.0000
iter:  32  16:56:36  -8.17  -5.14    -2.97-226.227450             -0.0000
iter:  33  16:57:26  -9.16  -5.24    -3.53-226.227450             -0.0000
iter:  34  16:58:16  -8.51  -5.25    -2.94-226.227450             -0.0000
iter:  35  16:59:06  -9.06  -5.43    -3.47-226.227450             -0.0000
iter:  36  16:59:56  -9.74  -5.48    -3.83-226.227450             -0.0000
iter:  37  17:00:46  -9.21  -5.51    -3.51-226.227450             +0.0000
iter:  38  17:01:36  -9.37  -5.59    -3.49-226.227450             -0.0000
iter:  39  17:02:26 -10.06  -5.72    -4.02-226.227450             +0.0000
iter:  40  17:03:16  -9.40  -5.78    -3.43-226.227450             -0.0000
iter:  41  17:04:06 -10.57  -6.13    -4.11-226.227450             -0.0000
iter:  42  17:04:56 -10.40  -6.25    -4.00-226.227450             +0.0000
iter:  43  17:05:45 -10.71  -6.51    -4.34-226.227450             +0.0000
iter:  44  17:06:36 -11.90  -6.77    -4.98-226.227450             +0.0000
iter:  45  17:07:26 -12.20  -6.81    -5.06-226.227450             +0.0000
iter:  46  17:08:15 -11.49  -6.84    -4.63-226.227450             +0.0000
iter:  47  17:09:05 -12.10  -6.97    -5.16-226.227450             +0.0000
iter:  48  17:09:55 -12.58  -7.02    -5.56-226.227450             -0.0000
iter:  49  17:10:45 -12.20  -7.03    -4.92-226.227450             -0.0000
iter:  50  17:11:35 -12.39  -7.37    -5.15-226.227450             -0.0000
iter:  51  17:12:25 -13.69  -7.86    -5.96-226.227450             -0.0000
iter:  52  17:13:15 -14.39  -7.91    -6.22-226.227450             -0.0000

Converged after 52 iterations.

Dipole moment: (10.671071, 1.414911, -6.269082) |e|*Ang

Total magnetic moment: (0.000000, 0.000000, -0.000000)
Local magnetic moments:
   0 O  ( 0.000000,  0.000000, -0.000512)
   1 O  ( 0.000000,  0.000000,  0.000401)
   2 O  ( 0.000000,  0.000000,  0.000548)
   3 O  ( 0.000000,  0.000000, -0.000550)
   4 O  ( 0.000000,  0.000000,  0.000531)
   5 O  ( 0.000000,  0.000000, -0.000526)
   6 O  ( 0.000000,  0.000000, -0.000256)
   7 O  ( 0.000000,  0.000000,  0.000598)
   8 O  ( 0.000000,  0.000000,  0.028703)
   9 O  ( 0.000000,  0.000000, -0.028649)
  10 O  ( 0.000000,  0.000000, -0.028700)
  11 O  ( 0.000000,  0.000000,  0.028780)
  12 Mn ( 0.000000,  0.000000,  4.447721)
  13 Mn ( 0.000000,  0.000000, -4.448573)
  14 Mn ( 0.000000,  0.000000, -4.448152)
  15 Mn ( 0.000000,  0.000000,  4.448250)
  16 P  ( 0.000000,  0.000000,  0.001727)
  17 P  ( 0.000000,  0.000000, -0.001537)
  18 P  ( 0.000000,  0.000000, -0.001550)
  19 P  ( 0.000000,  0.000000,  0.001555)
  20 O  ( 0.000000,  0.000000,  0.025293)
  21 O  ( 0.000000,  0.000000, -0.025291)
  22 O  ( 0.000000,  0.000000, -0.025307)
  23 O  ( 0.000000,  0.000000,  0.025309)
  24 Li ( 0.000000,  0.000000,  0.000001)
  25 Li ( 0.000000,  0.000000,  0.000000)
  26 Li ( 0.000000,  0.000000, -0.000001)
  27 Li ( 0.000000,  0.000000,  0.000007)

Energy contributions relative to reference atoms: (reference = -196157.275402)

Kinetic:       +217.106569
Potential:     -195.049608
External:        +0.000000
XC:            -250.326383
Entropy (-ST):   -0.000000
Local:           +2.041972
--------------------------
Free energy:   -226.227450
Extrapolated:  -226.227450

Spin contamination: 9.560276 electrons
Showing only first 2 kpts
                      Up                     Down
 Kpt  Band  Eigenvalues  Occupancy  Eigenvalues  Occupancy
  0    88      5.11167    0.00694      5.10807    0.00694
  0    89      5.13701    0.00694      5.13311    0.00694
  0    90      7.28887    0.00000      7.29094    0.00000
  0    91      7.30649    0.00000      7.30905    0.00000

  1    88      5.13734    0.00694      5.13408    0.00694
  1    89      5.16785    0.00694      5.16368    0.00694
  1    90      7.23157    0.00000      7.23318    0.00000
  1    91      7.24381    0.00000      7.24613    0.00000


Fermi level: 5.65695

Gap: 1.970 eV
Transition (v -> c):
  (s=0, k=69, n=89, [-0.08, 0.42, -0.12]) -> (s=0, k=86, n=90, [0.08, 0.08, 0.12])
Writing to born-0.01-6z+.gpw (mode='all')

Timing:                              incl.     excl.
-----------------------------------------------------------
Hamiltonian:                         0.410     0.002   0.0% |
 Atomic:                             0.054     0.054   0.0% |
  XC Correction:                     0.000     0.000   0.0% |
 Calculate atomic Hamiltonians:      0.179     0.179   0.0% |
 Communicate:                        0.002     0.002   0.0% |
 Initialize Hamiltonian:             0.000     0.000   0.0% |
 Poisson:                            0.002     0.002   0.0% |
 XC 3D grid:                         0.170     0.170   0.0% |
LCAO initialization:               132.577     0.678   0.0% |
 LCAO eigensolver:                  33.903     0.002   0.0% |
  Calculate projections:             0.056     0.056   0.0% |
  DenseAtomicCorrection:             0.083     0.083   0.0% |
  Distribute overlap matrix:         0.228     0.228   0.0% |
  Orbital Layouts:                   0.365     0.365   0.0% |
  Potential matrix:                 33.081    33.081   0.5% |
  Sum over cells:                    0.088     0.088   0.0% |
 LCAO to grid:                      95.721    95.721   1.5% ||
 Set positions (LCAO WFS):           2.275     0.347   0.0% |
  Basic WFS set positions:           0.001     0.001   0.0% |
  Basis functions set positions:     0.000     0.000   0.0% |
  P tci:                             1.061     1.061   0.0% |
  ST tci:                            0.659     0.659   0.0% |
  mktci:                             0.206     0.206   0.0% |
PWDescriptor:                        0.025     0.025   0.0% |
SCF-cycle:                        2293.809     8.463   0.1% |
 Davidson:                        1937.212   633.469  10.2% |---|
  Apply H:                         134.456   130.246   2.1% ||
   HMM T:                            4.211     4.211   0.1% |
  Subspace diag:                   284.881     0.165   0.0% |
   calc_h_matrix:                  183.874    51.329   0.8% |
    Apply H:                       132.546   128.499   2.1% ||
     HMM T:                          4.047     4.047   0.1% |
   diagonalize:                      6.328     6.328   0.1% |
   rotate_psi:                      94.514    94.514   1.5% ||
  calc. matrices:                  605.919   343.409   5.5% |-|
   Apply H:                        262.510   254.801   4.1% |-|
    HMM T:                           7.710     7.710   0.1% |
  diagonalize:                      86.515    86.515   1.4% ||
  rotate_psi:                      191.972   191.972   3.1% ||
 Density:                           77.359     0.001   0.0% |
  Atomic density matrices:           1.419     1.419   0.0% |
  Mix:                              12.575    12.575   0.2% |
  Multipole moments:                 0.030     0.030   0.0% |
  Pseudo density:                   63.333    63.331   1.0% |
   Symmetrize density:               0.002     0.002   0.0% |
 Forces:                           244.879   244.879   3.9% |-|
 Hamiltonian:                       21.487     0.118   0.0% |
  Atomic:                            2.791     2.791   0.0% |
   XC Correction:                    0.000     0.000   0.0% |
  Calculate atomic Hamiltonians:     9.305     9.305   0.1% |
  Communicate:                       0.089     0.089   0.0% |
  Poisson:                           0.084     0.084   0.0% |
  XC 3D grid:                        9.099     9.099   0.1% |
 Orthonormalize:                     4.410     0.004   0.0% |
  calc_s_matrix:                     0.524     0.524   0.0% |
  inverse-cholesky:                  0.055     0.055   0.0% |
  projections:                       2.893     2.893   0.0% |
  rotate_psi_s:                      0.934     0.934   0.0% |
Set symmetry:                        0.000     0.000   0.0% |
Other:                            3798.293  3798.293  61.0% |-----------------------|
-----------------------------------------------------------
Total:                                      6225.114 100.0%

Memory usage: 13.04 GiB
Date: Mon Mar 22 18:16:31 2021
