
  ___ ___ ___ _ _ _  
 |   |   |_  | | | | 
 | | | | | . | | | | 
 |__ |  _|___|_____|  21.1.1b1
 |___|_|             

User:   madkru@a023.nifl.fysik.dtu.dk
Date:   Wed May  5 15:05:16 2021
Arch:   x86_64
Pid:    104119
Python: 3.8.6
gpaw:   /home/niflheim2/cmr/WIP/stacking/venv/gpaw/gpaw (393e8a163a)
_gpaw:  /home/niflheim2/cmr/WIP/stacking/venv/gpaw/build/lib.linux-x86_64-skylake-3.8/
        _gpaw.cpython-38-x86_64-linux-gnu.so (393e8a163a)
ase:    /home/niflheim2/cmr/WIP/stacking/venv/ase/ase (version 3.22.0b1-5e85d35a81)
numpy:  /home/modules/software/SciPy-bundle/2020.11-intel-2020b/lib/python3.8/site-packages/numpy (version 1.19.4)
scipy:  /home/modules/software/SciPy-bundle/2020.11-intel-2020b/lib/python3.8/site-packages/scipy (version 1.5.4)
libxc:  4.3.4
units:  Angstrom and eV
cores: 40
OpenMP: False
OMP_NUM_THREADS: 1

Input parameters:
  convergence: {density: 1e-09}
  experimental: {magmoms: [[0. 0. 0.]
 [0. 0. 0.]
 [0. 0. 0.]
 ...
 [0. 0. 0.]
 [0. 0. 0.]
 [0. 0. 0.]],
                 soc: True}
  kpts: [4 4 6]
  maxiter: 5000
  mixer: {backend: pulay,
          beta: 0.05,
          method: difference,
          nmaxold: 3,
          weight: 100}
  mode: {ecut: 600.0,
         gammacentered: False,
         name: pw}
  occupations: {fixmagmom: False,
                name: fermi-dirac,
                width: 0.001}
  symmetry: off

System changes: positions, numbers, cell, pbc, initial_charges, initial_magmoms 

Initialize ...

O-setup:
  name: Oxygen
  id: 9b9d51c344dea68c822856295a461509
  Z: 8.0
  valence: 6
  core: 2
  charge: 0.0
  file: /home/modules/software/GPAW-setups/0.9.20000/O.LDA.gz
  compensation charges: gauss, rc=0.21, lmax=2
  cutoffs: 1.17(filt), 0.83(core),
  valence states:
                energy  radius
    2s(2.00)   -23.752   0.688
    2p(4.00)    -9.195   0.598
    *s           3.459   0.688
    *p          18.016   0.598
    *d           0.000   0.619

  Using partial waves for O as LCAO basis

Mn-setup:
  name: Manganese
  id: 0d715a8018be061a6e9ea6f2d364ac92
  Z: 25.0
  valence: 15
  core: 10
  charge: 0.0
  file: /home/modules/software/GPAW-setups/0.9.20000/Mn.LDA.gz
  compensation charges: gauss, rc=0.38, lmax=2
  cutoffs: 2.14(filt), 0.86(core),
  valence states:
                energy  radius
    3s(2.00)   -85.387   1.275
    4s(2.00)    -5.282   1.275
    3p(6.00)   -54.493   1.281
    4p(0.00)    -1.471   1.281
    3d(5.00)    -7.009   1.138
    *d          20.203   1.138

  Using partial waves for Mn as LCAO basis

P-setup:
  name: Phosphorus
  id: a5561c299094968922a179ab894d2e2d
  Z: 15.0
  valence: 5
  core: 10
  charge: 0.0
  file: /home/modules/software/GPAW-setups/0.9.20000/P.LDA.gz
  compensation charges: gauss, rc=0.30, lmax=2
  cutoffs: 1.69(filt), 1.81(core),
  valence states:
                energy  radius
    3s(2.00)   -14.015   0.953
    3p(3.00)    -5.596   0.953
    *s          13.197   0.953
    *p          21.615   0.953
    *d           0.000   0.953

  Using partial waves for P as LCAO basis

Li-setup:
  name: Lithium
  id: b73562207f97a71b6967473b66fe8b65
  Z: 3.0
  valence: 1
  core: 2
  charge: 0.0
  file: /home/modules/software/GPAW-setups/0.9.20000/Li.LDA.gz
  compensation charges: gauss, rc=0.33, lmax=2
  cutoffs: 1.91(filt), 2.55(core),
  valence states:
                energy  radius
    2s(1.00)    -2.874   1.058
    2p(0.00)    -1.126   1.058
    *s          24.338   1.058

  Using partial waves for Li as LCAO basis

Reference energy: -196157.275402

Non-collinear calculation.
Magnetic moment: (0.000000, 0.000000, 0.000000)

Convergence criteria:
  Maximum total energy change: 0.0005 eV / electron
  Maximum integral of absolute density change: 1e-09 electrons
  Maximum integral of absolute eigenstate change: 4e-08 eV^2
  Maximum number of iterations: 5000

Symmetries present (total): 1

  ( 1  0  0)
  ( 0  1  0)
  ( 0  0  1)

96 k-points: 4 x 4 x 6 Monkhorst-Pack grid
96 k-points in the irreducible part of the Brillouin zone
       k-points in crystal coordinates                weights
   0:    -0.37500000   -0.37500000   -0.41666667          1/96
   1:    -0.37500000   -0.37500000   -0.25000000          1/96
   2:    -0.37500000   -0.37500000   -0.08333333          1/96
   3:    -0.37500000   -0.37500000    0.08333333          1/96
   4:    -0.37500000   -0.37500000    0.25000000          1/96
   5:    -0.37500000   -0.37500000    0.41666667          1/96
   6:    -0.37500000   -0.12500000   -0.41666667          1/96
   7:    -0.37500000   -0.12500000   -0.25000000          1/96
   8:    -0.37500000   -0.12500000   -0.08333333          1/96
   9:    -0.37500000   -0.12500000    0.08333333          1/96
          ...
  95:     0.37500000    0.37500000    0.41666667          1/96

Wave functions: Plane wave expansion
  Cutoff energy: 600.000 eV
  Number of coefficients (min, max): 10065, 10119
  Pulay-stress correction: 0.000000 eV/Ang^3 (de/decut=0.000000)
  Using FFTW library
  ScaLapack parameters: grid=1x1, blocksize=None
  Wavefunction extrapolation:
    Improved wavefunction reuse through dual PAW basis 

  Fermi-Dirac: width=0.0010 eV

Eigensolver
   Davidson(niter=2) 

Densities:
  Coarse grid: 60*35*27 grid
  Fine grid: 120*70*54 grid
  Total Charge: 0.000000 

Density mixing:
  Method: difference
  Backend: pulay
  Linear mixing parameter: 0.05
  Mixing with 3 old densities
  Damping of long wave oscillations: 100 

Hamiltonian:
  XC and Coulomb potentials evaluated on a 120*70*54 grid
  Using the LDA Exchange-Correlation functional
 

Memory estimate:
  Process memory now: 216.02 MiB
  Calculator: 167.16 MiB
    Density: 37.88 MiB
      Arrays: 11.25 MiB
      Localized functions: 18.84 MiB
      Mixer: 7.79 MiB
    Hamiltonian: 7.90 MiB
      Arrays: 7.35 MiB
      XC: 0.00 MiB
      Poisson: 0.00 MiB
      vbar: 0.54 MiB
    Wavefunctions: 121.39 MiB
      Arrays psit_nG: 69.17 MiB
      Eigensolver: 43.02 MiB
      Projections: 2.41 MiB
      Projectors: 4.31 MiB
      PW-descriptor: 2.47 MiB

Total number of cores used: 40
Parallelization over k-points: 40

Number of atoms: 28
Number of atomic orbitals: 148
Number of bands in calculation: 224
Number of valence electrons: 180
Bands to converge: occupied

... initialized

Initializing position-dependent things.

Density initialized from atomic densities
Creating initial wave functions:
  148 bands from LCAO basis set
  76 bands from random numbers

     .-------------------------.  
    /|   P  O                  |  
   / O            Li     O     |  
  /  |    Mn      O            |  
 *O  |        MOLi    PO       |  
 |   Li  O            O        |  
 |   .--------OP-------Mn------.  
 | Li              O       On /   
 | /  O     O                /    
 |/                      O  /     
 *-------------------------*      

Positions:
   0 O   163755563599.898285    0.289788    1.008742    ( 0.0000,  0.0000,  0.0000)
   1 O   163755563598.127167    5.795130    3.355277    ( 0.0000,  0.0000,  0.0000)
   2 O   163755563603.351746    3.354228    3.780177    ( 0.0000,  0.0000,  0.0000)
   3 O   163755563605.120758    2.768411    1.394341    ( 0.0000,  0.0000,  0.0000)
   4 O   163755563603.346863    5.813982    3.779265    ( 0.0000,  0.0000,  0.0000)
   5 O   163755563605.132874    0.291392    1.391038    ( 0.0000,  0.0000,  0.0000)
   6 O   163755563599.888824    2.768308    1.006549    ( 0.0000,  0.0000,  0.0000)
   7 O   163755563598.107880    3.337067    3.359409    ( 0.0000,  0.0000,  0.0000)
   8 O   163755563596.825043    1.533050    1.417917    ( 0.0000,  0.0000,  0.0000)
   9 O   163755563601.154480    4.577865    3.801256    ( 0.0000,  0.0000,  0.0000)
  10 O   163755563606.385162    4.582209    3.332934    ( 0.0000,  0.0000,  0.0000)
  11 O   163755563602.056519    1.535871    0.985643    ( 0.0000,  0.0000,  0.0000)
  12 Mn  163755563598.610168    1.522229    2.434620    ( 0.0000,  0.0000,  0.0000)
  13 Mn  163755563599.229797    4.578317    0.072914    ( 5.0000,  0.0000,  0.0000)
  14 Mn  163755563604.461090    4.582157    2.322499    (-5.0000,  0.0000,  0.0000)
  15 Mn  163755563603.831299    1.532750    4.711621    (-5.0000,  0.0000,  0.0000)
  16 P   163755563600.613983    1.531119    0.383414    ( 5.0000,  0.0000,  0.0000)
  17 P   163755563597.353790    4.570923    2.736610    ( 0.0000,  0.0000,  0.0000)
  18 P   163755563602.587036    4.582195    4.397541    ( 0.0000,  0.0000,  0.0000)
  19 P   163755563605.849060    1.531592    2.019026    ( 0.0000,  0.0000,  0.0000)
  20 O   163755563600.600403    1.528941    3.585766    ( 0.0000,  0.0000,  0.0000)
  21 O   163755563597.395508    4.573509    1.199950    ( 0.0000,  0.0000,  0.0000)
  22 O   163755563602.618683    4.582724    1.194773    ( 0.0000,  0.0000,  0.0000)
  23 O   163755563605.838287    1.530168    3.556865    ( 0.0000,  0.0000,  0.0000)
  24 Li  163755563596.238922    0.007917   -0.013365    ( 0.0000,  0.0000,  0.0000)
  25 Li  163755563601.471344    0.011860    2.413954    ( 0.0000,  0.0000,  0.0000)
  26 Li  163755563596.251343    3.045501   -0.015319    ( 0.0000,  0.0000,  0.0000)
  27 Li  163755563601.469727    3.050747    2.413260    ( 0.0000,  0.0000,  0.0000)

Unit cell:
           periodic     x           y           z      points  spacing
  1. axis:    yes   10.460000    0.000000    0.000000    60     0.1743
  2. axis:    yes    0.000000    6.100000    0.000000    35     0.1743
  3. axis:    yes    0.000000    0.000000    4.740000    27     0.1756

  Lengths:  10.460000   6.100000   4.740000
  Angles:   90.000000  90.000000  90.000000

Effective grid spacing dv^(1/3) = 0.1747

                     log10-error:    total        iterations:
           time      wfs    density  energy       poisson
iter:   1  15:07:30                -248.805523            -1.0,+0.0,+0.0
iter:   2  15:08:00  -0.44  -0.91  -253.909977            +0.4,+0.0,-0.0
iter:   3  15:08:30  -1.02  -0.96  -242.628008            +0.0,+0.0,-0.0
iter:   4  15:09:00  -1.06  -1.00  -234.276586            -0.0,+0.0,-0.0
iter:   5  15:09:30  -0.72  -1.09  -233.014119            -0.0,+0.0,-0.0
iter:   6  15:10:00  -1.67  -1.28  -222.030147            -0.0,+0.0,-0.0
iter:   7  15:10:30  -2.23  -1.40  -222.353594            +0.1,+0.0,-0.0
iter:   8  15:10:59  -3.48  -1.38  -222.092410            +0.0,+0.0,+0.0
iter:   9  15:11:29  -2.28  -1.40  -224.327833            +0.0,-0.0,+0.0
iter:  10  15:11:58  -2.19  -1.37  -222.256288            +0.0,+0.0,+0.0
iter:  11  15:12:28  -2.43  -1.46  -221.161331            -0.0,-0.0,+0.0
iter:  12  15:12:58  -3.37  -1.66  -221.310273            -0.0,-0.0,+0.1
iter:  13  15:13:27  -2.65  -1.70  -221.330868            +0.0,-0.0,-0.0
iter:  14  15:13:57  -3.09  -1.88  -221.301624            +0.0,-0.0,-0.0
iter:  15  15:14:27  -3.17  -1.98  -221.014649            +0.0,-0.0,+0.0
iter:  16  15:14:56  -3.42  -2.12  -221.150838            +0.2,-0.0,+0.1
iter:  17  15:15:26  -3.65  -2.05  -221.001626            +0.2,-0.0,+0.0
iter:  18  15:15:56  -3.38  -2.23  -221.171377            +0.4,-0.1,-0.0
iter:  19  15:16:25  -3.52  -2.29  -221.188411            +0.6,-0.3,+0.1
iter:  20  15:16:55  -3.53  -2.38  -221.404137            +0.8,-0.3,+0.0
iter:  21  15:17:25  -3.50  -2.36  -221.359794            +0.9,-0.5,+0.4
iter:  22  15:17:54  -3.28  -2.37  -221.517862            +1.0,-0.6,+0.9
iter:  23  15:18:24  -3.53  -2.36  -221.546889            +1.1,-0.5,+0.9
iter:  24  15:18:53  -3.50  -2.39  -221.828251            +1.4,-0.5,+1.6
iter:  25  15:19:23  -3.20  -2.34  -221.724452            +1.2,-0.7,+0.5
iter:  26  15:19:53  -3.38  -2.37  -222.257950            +1.3,-0.6,+1.3
iter:  27  15:20:22  -2.93  -2.26  -222.036419            +1.6,-1.3,-0.2
iter:  28  15:20:52  -2.93  -2.30  -223.015320            +1.9,-0.4,-0.4
iter:  29  15:21:21  -2.64  -2.16  -222.341171            +3.0,-0.6,-0.6
iter:  30  15:21:51  -2.80  -2.23  -221.628047            +1.7,-0.9,-0.9
iter:  31  15:22:20  -2.95  -2.46  -221.975361            +1.9,-0.9,-1.3
iter:  32  15:22:50  -3.02  -2.36  -222.194656            +1.9,-1.3,-1.4
iter:  33  15:23:19  -2.96  -2.24  -223.431872            +3.5,-1.6,-2.3
iter:  34  15:23:49  -2.90  -2.15  -223.831294            +3.5,-2.3,-1.8
iter:  35  15:24:18  -2.36  -2.13  -225.070362            +5.4,-0.4,-3.6
iter:  36  15:24:48  -2.13  -2.09  -225.926520            +6.7,-0.3,-2.9
iter:  37  15:25:17  -2.21  -2.08  -226.401261            +8.4,-0.3,-2.0
iter:  38  15:25:47  -2.50  -2.08  -226.532415            +7.8,-0.3,-2.1
iter:  39  15:26:16  -3.19  -2.10  -226.545242            +7.4,-0.3,-2.2
iter:  40  15:26:46  -3.02  -2.11  -226.496025            +7.5,-0.3,-2.3
iter:  41  15:27:15  -1.47  -2.14  -230.204242            +7.5,-0.3,-2.3
iter:  42  15:27:45  -2.71  -1.83  -226.988702            +7.5,-0.3,-2.3
iter:  43  15:28:14  -2.03  -2.11  -226.184304            +7.0,-0.3,-2.2
iter:  44  15:28:44  -3.04  -2.23  -226.262315            +6.9,-0.3,-2.2
iter:  45  15:29:13  -2.66  -2.28  -226.166783            +7.2,-0.3,-2.2
iter:  46  15:29:43  -3.67  -2.50  -226.147053            +7.3,-0.4,-2.3
iter:  47  15:30:12  -2.85  -2.56  -226.123864            +7.3,-0.4,-2.3
iter:  48  15:30:42  -4.33  -3.00  -226.115557            +7.3,-0.4,-2.3
iter:  49  15:31:11  -3.45  -3.04  -226.110187            +7.3,-0.4,-2.3
iter:  50  15:31:41  -3.73  -3.00  -226.109449            +7.3,-0.4,-2.3
iter:  51  15:32:10  -4.77  -3.19  -226.106649            +7.3,-0.4,-2.3
iter:  52  15:32:40  -4.57  -3.24  -226.106087            +7.3,-0.4,-2.3
iter:  53  15:33:09  -5.26  -3.26  -226.106112            +7.3,-0.4,-2.3
iter:  54  15:33:39  -5.70  -3.31  -226.106356            +7.2,-0.4,-2.3
iter:  55  15:34:08  -4.47  -3.34  -226.106400            +7.2,-0.4,-2.3
iter:  56  15:34:37  -5.25  -3.51  -226.106963            +7.2,-0.4,-2.3
iter:  57  15:35:07  -4.67  -3.55  -226.107902            +7.2,-0.4,-2.3
iter:  58  15:35:36  -5.27  -3.64  -226.108289            +7.2,-0.4,-2.3
iter:  59  15:36:06  -5.95  -3.67  -226.108339            +7.2,-0.4,-2.2
iter:  60  15:36:35  -5.29  -3.70  -226.108643            +7.2,-0.4,-2.2
iter:  61  15:37:05  -5.73  -3.72  -226.108701            +7.1,-0.4,-2.2
iter:  62  15:37:34  -6.06  -3.76  -226.108940            +7.1,-0.4,-2.2
iter:  63  15:38:03  -5.19  -3.79  -226.108427            +7.1,-0.4,-2.3
iter:  64  15:38:33  -5.49  -4.07  -226.108105            +7.1,-0.4,-2.3
iter:  65  15:39:02  -6.63  -4.13  -226.108285            +7.1,-0.4,-2.3
iter:  66  15:39:32  -5.09  -4.17  -226.109404            +7.1,-0.4,-2.3
iter:  67  15:40:01  -5.01  -4.52  -226.110582            +7.1,-0.4,-2.2
iter:  68  15:40:30  -6.06  -4.50  -226.110354            +7.1,-0.4,-2.3
iter:  69  15:41:00  -6.07  -4.52  -226.110899            +7.1,-0.4,-2.2
iter:  70  15:41:29  -5.65  -4.53  -226.111320            +7.0,-0.4,-2.2
iter:  71  15:41:58  -6.00  -4.51  -226.111709            +7.0,-0.4,-2.2
iter:  72  15:42:28  -4.26  -4.47  -226.107824            +6.9,-0.4,-2.4
iter:  73  15:42:57  -3.18  -4.36  -226.112837            +7.0,-0.3,-1.7
iter:  74  15:43:26  -4.29  -4.19  -226.115588            +6.9,-0.4,-2.0
iter:  75  15:43:56  -5.86  -4.49  -226.115989            +6.9,-0.4,-2.0
iter:  76  15:44:25  -4.33  -4.54  -226.116501            +6.5,-0.4,-2.0
iter:  77  15:44:54  -5.62  -4.07  -226.117561            +6.6,-0.4,-2.0
iter:  78  15:45:24  -5.25  -4.14  -226.118633            +6.7,-0.3,-2.0
iter:  79  15:45:53  -5.61  -4.27  -226.119315            +6.7,-0.3,-2.0
iter:  80  15:46:22  -4.08  -4.31  -226.121223            +6.7,-0.2,-2.0
iter:  81  15:46:52  -5.44  -4.47  -226.121452            +6.7,-0.2,-2.0
iter:  82  15:47:21  -5.57  -4.52  -226.123092            +6.6,-0.3,-2.0
iter:  83  15:47:50  -5.93  -4.60  -226.123568            +6.6,-0.2,-2.0
iter:  84  15:48:20  -5.92  -4.42  -226.123704            +6.5,-0.3,-2.0
iter:  85  15:48:49  -5.00  -4.34  -226.124126            +6.5,-0.2,-2.0
iter:  86  15:49:18  -6.02  -4.38  -226.124330            +6.5,-0.2,-2.0
iter:  87  15:49:48  -6.59  -4.47  -226.124517            +6.5,-0.2,-2.0
iter:  88  15:50:17  -6.34  -4.44  -226.124651            +6.5,-0.2,-2.0
iter:  89  15:50:46  -5.98  -4.47  -226.125210            +6.5,-0.2,-1.9
iter:  90  15:51:16  -5.23  -4.45  -226.124060            +6.4,-0.2,-2.0
iter:  91  15:51:45  -4.98  -4.26  -226.125952            +6.4,-0.2,-1.9
iter:  92  15:52:14  -5.05  -4.43  -226.126786            +6.4,-0.2,-1.9
iter:  93  15:52:43  -5.61  -4.53  -226.126233            +6.5,-0.2,-1.8
iter:  94  15:53:13  -5.65  -4.58  -226.127793            +6.4,-0.2,-1.8
iter:  95  15:53:42  -5.58  -4.45  -226.128817            +6.3,-0.2,-1.8
iter:  96  15:54:11  -5.61  -4.25  -226.128472            +6.2,-0.2,-1.9
iter:  97  15:54:41  -5.35  -4.16  -226.129690            +6.2,-0.2,-1.8
iter:  98  15:55:10  -4.95  -4.32  -226.130722            +6.2,-0.2,-1.8
iter:  99  15:55:39  -5.52  -4.58  -226.130002            +6.2,-0.2,-1.7
iter: 100  15:56:09  -5.52  -4.74  -226.131909            +6.1,-0.2,-1.8
iter: 101  15:56:38  -5.33  -4.54  -226.133241            +6.0,-0.2,-1.8
iter: 102  15:57:07  -5.61  -4.32  -226.132956            +5.9,-0.2,-1.8
iter: 103  15:57:37  -5.48  -4.12  -226.134185            +5.9,-0.2,-1.7
iter: 104  15:58:06  -5.15  -4.29  -226.135170            +5.9,-0.3,-1.7
iter: 105  15:58:35  -5.80  -4.57  -226.134576            +6.0,-0.3,-1.7
iter: 106  15:59:05  -5.40  -4.78  -226.136391            +5.8,-0.3,-1.7
iter: 107  15:59:34  -5.30  -4.38  -226.137512            +5.7,-0.3,-1.7
iter: 108  16:00:04  -5.68  -4.24  -226.137273            +5.6,-0.3,-1.7
iter: 109  16:00:33  -5.52  -4.11  -226.138464            +5.7,-0.3,-1.7
iter: 110  16:01:02  -5.30  -4.28  -226.139277            +5.6,-0.3,-1.7
iter: 111  16:01:32  -5.98  -4.53  -226.138746            +5.7,-0.3,-1.7
iter: 112  16:02:01  -5.22  -4.87  -226.140633            +5.5,-0.3,-1.7
iter: 113  16:02:30  -5.20  -4.39  -226.141733            +5.4,-0.3,-1.7
iter: 114  16:03:00  -5.66  -4.19  -226.141595            +5.3,-0.3,-1.7
iter: 115  16:03:29  -5.56  -4.10  -226.142729            +5.3,-0.3,-1.7
iter: 116  16:03:59  -5.39  -4.27  -226.143450            +5.3,-0.3,-1.7
iter: 117  16:04:28  -6.06  -4.51  -226.142943            +5.4,-0.4,-1.7
iter: 118  16:04:57  -5.00  -4.82  -226.145093            +5.2,-0.4,-1.7
iter: 119  16:05:27  -5.04  -4.35  -226.146322            +5.0,-0.4,-1.7
iter: 120  16:05:56  -5.57  -4.16  -226.146311            +5.0,-0.3,-1.7
iter: 121  16:06:25  -5.55  -4.09  -226.147354            +5.0,-0.4,-1.7
iter: 122  16:06:55  -5.51  -4.27  -226.147948            +4.9,-0.4,-1.7
iter: 123  16:07:24  -6.03  -4.49  -226.147392            +5.0,-0.4,-1.7
iter: 124  16:07:53  -4.65  -4.61  -226.150227            +4.7,-0.4,-1.7
iter: 125  16:08:23  -4.80  -4.23  -226.151803            +4.5,-0.4,-1.7
iter: 126  16:08:52  -5.54  -4.14  -226.151903            +4.5,-0.4,-1.7
iter: 127  16:09:22  -5.36  -4.03  -226.152755            +4.5,-0.4,-1.7
iter: 128  16:09:51  -5.69  -4.18  -226.153162            +4.5,-0.4,-1.7
iter: 129  16:10:20  -5.34  -4.44  -226.151972            +4.6,-0.4,-1.7
iter: 130  16:10:49  -3.65  -4.64  -226.159609            +3.7,-0.4,-1.7
iter: 131  16:11:19  -4.35  -4.18  -226.161579            +3.5,-0.4,-1.7
iter: 132  16:11:48  -4.80  -4.23  -226.162652            +3.4,-0.4,-1.7
iter: 133  16:12:17  -3.95  -4.20  -226.163684            +2.8,-0.4,-1.7
iter: 134  16:12:46  -4.63  -4.27  -226.163632            +3.1,-0.4,-1.7
iter: 135  16:13:16  -5.71  -4.44  -226.162860            +3.0,-0.4,-1.7
iter: 136  16:13:45  -5.51  -4.37  -226.164712            +3.1,-0.4,-1.7
iter: 137  16:14:14  -5.99  -4.46  -226.165224            +3.1,-0.4,-1.7
iter: 138  16:14:44  -5.48  -4.50  -226.164595            +3.2,-0.4,-1.6
iter: 139  16:15:13  -5.43  -4.55  -226.165512            +3.0,-0.4,-1.6
iter: 140  16:15:42  -4.72  -4.50  -226.166687            +2.8,-0.4,-1.6
iter: 141  16:16:11  -5.53  -4.65  -226.166657            +2.8,-0.4,-1.6
iter: 142  16:16:41  -6.38  -4.58  -226.167172            +2.8,-0.4,-1.6
iter: 143  16:17:10  -5.85  -4.70  -226.167863            +2.8,-0.4,-1.5
iter: 144  16:17:39  -6.68  -4.61  -226.167795            +2.8,-0.4,-1.5
iter: 145  16:18:08  -5.89  -4.70  -226.168273            +2.7,-0.4,-1.5
iter: 146  16:18:38  -5.09  -4.88  -226.168920            +2.5,-0.4,-1.5
iter: 147  16:19:07  -6.12  -4.73  -226.168890            +2.5,-0.4,-1.5
iter: 148  16:19:36  -6.46  -4.61  -226.169290            +2.5,-0.4,-1.5
iter: 149  16:20:05  -5.84  -4.79  -226.169707            +2.5,-0.4,-1.4
iter: 150  16:20:35  -6.88  -4.74  -226.169696            +2.5,-0.4,-1.4
iter: 151  16:21:04  -6.50  -5.03  -226.169914            +2.5,-0.4,-1.4
iter: 152  16:21:33  -5.91  -5.03  -226.170262            +2.4,-0.4,-1.4
iter: 153  16:22:02  -6.32  -4.79  -226.170306            +2.4,-0.4,-1.4
iter: 154  16:22:32  -5.43  -4.74  -226.170508            +2.4,-0.4,-1.4
iter: 155  16:23:01  -4.77  -4.80  -226.170573            +2.4,-0.3,-1.3
iter: 156  16:23:30  -5.55  -4.77  -226.170615            +2.4,-0.2,-1.3
iter: 157  16:23:59  -5.17  -4.77  -226.170732            +2.4,-0.2,-1.4
iter: 158  16:24:29  -5.90  -4.87  -226.170904            +2.4,-0.2,-1.5
iter: 159  16:24:58  -5.48  -4.85  -226.170415            +2.4,-0.2,-1.4
iter: 160  16:25:27  -6.44  -4.86  -226.170498            +2.4,-0.2,-1.4
iter: 161  16:25:57  -5.65  -4.87  -226.170149            +2.4,-0.2,-1.4
iter: 162  16:26:26  -5.66  -4.49  -226.170730            +2.4,-0.2,-1.4
iter: 163  16:26:55  -6.00  -4.92  -226.170899            +2.4,-0.2,-1.4
iter: 164  16:27:24  -5.71  -4.97  -226.170668            +2.4,-0.2,-1.5
iter: 165  16:27:54  -6.05  -4.83  -226.171079            +2.4,-0.2,-1.4
iter: 166  16:28:23  -6.15  -5.03  -226.171377            +2.3,-0.2,-1.5
iter: 167  16:28:52  -5.48  -4.98  -226.171424            +2.3,-0.2,-1.4
iter: 168  16:29:21  -5.93  -4.50  -226.171663            +2.3,-0.2,-1.5
iter: 169  16:29:51  -5.97  -4.78  -226.171914            +2.3,-0.2,-1.5
iter: 170  16:30:20  -5.29  -4.95  -226.171492            +2.3,-0.2,-1.5
iter: 171  16:30:49  -5.73  -4.74  -226.172106            +2.3,-0.2,-1.5
iter: 172  16:31:18  -6.01  -5.33  -226.172436            +2.2,-0.2,-1.5
iter: 173  16:31:48  -5.05  -5.14  -226.172204            +2.1,-0.2,-1.5
iter: 174  16:32:17  -5.71  -4.41  -226.172775            +2.1,-0.2,-1.5
iter: 175  16:32:46  -6.25  -4.69  -226.173047            +2.1,-0.2,-1.4
iter: 176  16:33:15  -5.32  -4.79  -226.172813            +2.1,-0.2,-1.4
iter: 177  16:33:45  -5.90  -4.74  -226.173329            +2.1,-0.2,-1.4
iter: 178  16:34:14  -6.18  -5.11  -226.173591            +2.1,-0.2,-1.4
iter: 179  16:34:43  -5.33  -5.05  -226.173534            +2.0,-0.2,-1.4
iter: 180  16:35:12  -6.11  -4.49  -226.173864            +2.0,-0.2,-1.4
iter: 181  16:35:42  -6.40  -4.70  -226.174102            +2.0,-0.2,-1.4
iter: 182  16:36:11  -5.74  -4.78  -226.174044            +2.0,-0.2,-1.4
iter: 183  16:36:40  -6.33  -4.93  -226.174311            +2.0,-0.2,-1.4
iter: 184  16:37:09  -6.22  -5.21  -226.174542            +1.9,-0.2,-1.4
iter: 185  16:37:39  -5.60  -5.04  -226.174505            +1.8,-0.2,-1.4
iter: 186  16:38:08  -6.38  -4.56  -226.174729            +1.9,-0.2,-1.4
iter: 187  16:38:37  -6.47  -4.75  -226.174940            +1.9,-0.2,-1.3
iter: 188  16:39:06  -5.94  -4.89  -226.174889            +1.9,-0.2,-1.3
iter: 189  16:39:35  -6.48  -4.97  -226.175105            +1.9,-0.2,-1.3
iter: 190  16:40:05  -6.28  -5.27  -226.175308            +1.8,-0.2,-1.3
iter: 191  16:40:34  -5.75  -5.05  -226.175265            +1.7,-0.2,-1.3
iter: 192  16:41:03  -6.52  -4.61  -226.175460            +1.8,-0.2,-1.3
iter: 193  16:41:32  -6.53  -4.80  -226.175646            +1.8,-0.2,-1.3
iter: 194  16:42:02  -6.08  -4.98  -226.175606            +1.8,-0.2,-1.2
iter: 195  16:42:31  -6.61  -5.08  -226.175786            +1.8,-0.2,-1.2
iter: 196  16:43:00  -6.34  -5.44  -226.175964            +1.7,-0.2,-1.2
iter: 197  16:43:29  -5.90  -5.11  -226.175925            +1.6,-0.2,-1.2
iter: 198  16:43:59  -6.66  -4.66  -226.176090            +1.7,-0.2,-1.2
iter: 199  16:44:28  -6.57  -4.86  -226.176256            +1.7,-0.2,-1.2
iter: 200  16:44:57  -6.20  -5.04  -226.176217            +1.7,-0.2,-1.2
iter: 201  16:45:26  -6.70  -5.15  -226.176372            +1.7,-0.2,-1.2
iter: 202  16:45:56  -6.39  -5.56  -226.176531            +1.6,-0.2,-1.2
iter: 203  16:46:25  -6.05  -5.17  -226.176495            +1.6,-0.2,-1.2
iter: 204  16:46:54  -6.79  -4.71  -226.176637            +1.6,-0.2,-1.2
iter: 205  16:47:23  -6.59  -4.94  -226.176785            +1.6,-0.2,-1.1
iter: 206  16:47:53  -6.32  -5.18  -226.176749            +1.6,-0.2,-1.1
iter: 207  16:48:22  -6.76  -5.16  -226.176883            +1.6,-0.2,-1.1
iter: 208  16:48:51  -6.44  -5.66  -226.177025            +1.5,-0.2,-1.1
iter: 209  16:49:21  -6.18  -5.25  -226.176988            +1.5,-0.2,-1.1
iter: 210  16:49:50  -6.85  -4.77  -226.177116            +1.5,-0.2,-1.1
iter: 211  16:50:19  -6.61  -5.01  -226.177249            +1.5,-0.2,-1.1
iter: 212  16:50:48  -6.41  -5.28  -226.177212            +1.5,-0.2,-1.0
iter: 213  16:51:18  -6.83  -5.16  -226.177334            +1.5,-0.2,-1.1
iter: 214  16:51:47  -6.48  -5.66  -226.177461            +1.4,-0.2,-1.0
iter: 215  16:52:16  -6.31  -5.25  -226.177424            +1.4,-0.2,-1.1
iter: 216  16:52:45  -6.91  -4.81  -226.177540            +1.4,-0.2,-1.0
iter: 217  16:53:15  -6.61  -5.01  -226.177659            +1.4,-0.2,-1.0
iter: 218  16:53:44  -6.48  -5.32  -226.177622            +1.4,-0.2,-1.0
iter: 219  16:54:13  -6.87  -5.14  -226.177733            +1.4,-0.2,-1.0
iter: 220  16:54:43  -6.52  -5.56  -226.177846            +1.4,-0.2,-1.0
iter: 221  16:55:12  -6.42  -5.25  -226.177810            +1.3,-0.2,-1.0
iter: 222  16:55:41  -6.94  -4.85  -226.177916            +1.3,-0.2,-1.0
iter: 223  16:56:11  -6.61  -5.10  -226.178022            +1.3,-0.2,-1.0
iter: 224  16:56:40  -6.54  -5.40  -226.177987            +1.3,-0.2,-0.9
iter: 225  16:57:09  -6.90  -5.17  -226.178089            +1.3,-0.2,-0.9
iter: 226  16:57:39  -6.56  -5.67  -226.178190            +1.3,-0.2,-0.9
iter: 227  16:58:08  -6.53  -5.30  -226.178154            +1.3,-0.2,-0.9
iter: 228  16:58:37  -6.95  -4.90  -226.178252            +1.3,-0.2,-0.9
iter: 229  16:59:07  -6.59  -5.14  -226.178347            +1.3,-0.2,-0.9
iter: 230  16:59:36  -6.58  -5.50  -226.178312            +1.3,-0.3,-0.9
iter: 231  17:00:05  -6.92  -5.21  -226.178407            +1.3,-0.2,-0.9
iter: 232  17:00:35  -6.60  -5.85  -226.178497            +1.2,-0.3,-0.9
iter: 233  17:01:04  -6.64  -5.33  -226.178463            +1.2,-0.2,-0.9
iter: 234  17:01:33  -6.92  -4.93  -226.178553            +1.2,-0.3,-0.9
iter: 235  17:02:03  -6.54  -5.20  -226.178637            +1.2,-0.3,-0.9
iter: 236  17:02:32  -6.59  -5.68  -226.178603            +1.2,-0.3,-0.8
iter: 237  17:03:01  -6.92  -5.27  -226.178692            +1.2,-0.3,-0.8
iter: 238  17:03:30  -6.63  -6.10  -226.178771            +1.2,-0.3,-0.8
iter: 239  17:04:00  -6.73  -5.36  -226.178739            +1.1,-0.3,-0.8
iter: 240  17:04:29  -6.86  -4.96  -226.178823            +1.1,-0.3,-0.8
iter: 241  17:04:58  -6.47  -5.27  -226.178897            +1.1,-0.3,-0.8
iter: 242  17:05:28  -6.57  -5.85  -226.178864            +1.2,-0.3,-0.8
iter: 243  17:05:57  -6.93  -5.26  -226.178947            +1.1,-0.3,-0.8
iter: 244  17:06:26  -6.67  -5.92  -226.179017            +1.1,-0.3,-0.8
iter: 245  17:06:56  -6.81  -5.35  -226.178987            +1.1,-0.3,-0.8
iter: 246  17:07:25  -6.75  -4.99  -226.179065            +1.1,-0.3,-0.8
iter: 247  17:07:54  -6.39  -5.30  -226.179129            +1.1,-0.3,-0.8
iter: 248  17:08:23  -6.55  -5.75  -226.179096            +1.1,-0.3,-0.7
iter: 249  17:08:53  -6.92  -5.26  -226.179175            +1.1,-0.3,-0.8
iter: 250  17:09:22  -6.70  -5.71  -226.179237            +1.1,-0.3,-0.7
iter: 251  17:09:51  -6.87  -5.34  -226.179209            +1.0,-0.3,-0.8
iter: 252  17:10:21  -6.64  -5.02  -226.179281            +1.0,-0.3,-0.7
iter: 253  17:10:50  -6.32  -5.33  -226.179335            +1.0,-0.3,-0.7
iter: 254  17:11:19  -6.53  -5.62  -226.179303            +1.0,-0.3,-0.7
iter: 255  17:11:48  -6.90  -5.31  -226.179377            +1.0,-0.3,-0.7
iter: 256  17:12:18  -6.73  -5.77  -226.179433            +1.0,-0.3,-0.7
iter: 257  17:12:47  -6.92  -5.32  -226.179407            +1.0,-0.3,-0.7
iter: 258  17:13:16  -6.56  -5.03  -226.179473            +1.0,-0.3,-0.7
iter: 259  17:13:45  -6.28  -5.35  -226.179519            +1.0,-0.4,-0.7
iter: 260  17:14:15  -6.59  -5.76  -226.179489            +1.0,-0.4,-0.7
iter: 261  17:14:44  -6.89  -5.30  -226.179559            +1.0,-0.4,-0.7
iter: 262  17:15:13  -6.77  -5.71  -226.179608            +1.0,-0.4,-0.7
iter: 263  17:15:43  -6.94  -5.34  -226.179583            +0.9,-0.4,-0.7
iter: 264  17:16:12  -6.55  -5.09  -226.179645            +0.9,-0.4,-0.7
iter: 265  17:16:41  -6.31  -5.45  -226.179685            +0.9,-0.4,-0.6
iter: 266  17:17:11  -6.72  -5.73  -226.179656            +0.9,-0.4,-0.6
iter: 267  17:17:40  -6.95  -5.26  -226.179723            +0.9,-0.4,-0.6
iter: 268  17:18:09  -6.83  -5.77  -226.179766            +0.9,-0.4,-0.6
iter: 269  17:18:39  -7.10  -5.37  -226.179744            +0.9,-0.4,-0.6
iter: 270  17:19:08  -6.59  -5.09  -226.179802            +0.9,-0.4,-0.6
iter: 271  17:19:37  -6.43  -5.44  -226.179836            +0.9,-0.4,-0.6
iter: 272  17:20:07  -6.87  -5.59  -226.179809            +0.9,-0.4,-0.6
iter: 273  17:20:36  -6.97  -5.27  -226.179873            +0.9,-0.4,-0.6
iter: 274  17:21:05  -6.86  -5.68  -226.179912            +0.9,-0.4,-0.6
iter: 275  17:21:35  -7.20  -5.36  -226.179890            +0.9,-0.4,-0.6
iter: 276  17:22:04  -6.66  -5.10  -226.179947            +0.9,-0.4,-0.6
iter: 277  17:22:33  -6.54  -5.44  -226.179978            +0.9,-0.4,-0.6
iter: 278  17:23:03  -6.99  -5.49  -226.179953            +0.9,-0.4,-0.6
iter: 279  17:23:32  -7.00  -5.25  -226.180014            +0.8,-0.4,-0.6
iter: 280  17:24:01  -6.91  -5.65  -226.180049            +0.8,-0.3,-0.6
iter: 281  17:24:31  -7.27  -5.37  -226.180027            +0.8,-0.4,-0.6
iter: 282  17:25:00  -6.74  -5.13  -226.180083            +0.8,-0.3,-0.6
iter: 283  17:25:29  -6.65  -5.52  -226.180113            +0.8,-0.3,-0.6
iter: 284  17:25:59  -7.16  -5.55  -226.180090            +0.8,-0.3,-0.6
iter: 285  17:26:28  -7.03  -5.28  -226.180147            +0.8,-0.3,-0.6
iter: 286  17:26:58  -6.98  -5.59  -226.180178            +0.8,-0.3,-0.6
iter: 287  17:27:27  -7.37  -5.41  -226.180157            +0.8,-0.3,-0.6
iter: 288  17:27:56  -6.80  -5.15  -226.180211            +0.8,-0.3,-0.6
iter: 289  17:28:26  -6.75  -5.49  -226.180238            +0.8,-0.3,-0.5
iter: 290  17:28:55  -7.31  -5.60  -226.180218            +0.8,-0.3,-0.5
iter: 291  17:29:25  -7.04  -5.27  -226.180272            +0.8,-0.3,-0.5
iter: 292  17:29:54  -7.04  -5.65  -226.180298            +0.7,-0.3,-0.5
iter: 293  17:30:23  -7.48  -5.46  -226.180279            +0.7,-0.3,-0.5
iter: 294  17:30:53  -6.83  -5.14  -226.180331            +0.7,-0.3,-0.5
iter: 295  17:31:22  -6.82  -5.54  -226.180356            +0.7,-0.3,-0.5
iter: 296  17:31:52  -7.38  -5.74  -226.180337            +0.7,-0.3,-0.5
iter: 297  17:32:21  -7.06  -5.43  -226.180388            +0.7,-0.3,-0.5
iter: 298  17:32:50  -7.09  -5.64  -226.180411            +0.7,-0.3,-0.5
iter: 299  17:33:19  -7.54  -5.31  -226.180393            +0.7,-0.3,-0.5
iter: 300  17:33:49  -6.83  -5.07  -226.180443            +0.7,-0.3,-0.5
iter: 301  17:34:18  -6.86  -5.45  -226.180466            +0.7,-0.3,-0.5
iter: 302  17:34:47  -7.43  -5.73  -226.180448            +0.7,-0.2,-0.5
iter: 303  17:35:17  -7.07  -5.59  -226.180496            +0.7,-0.2,-0.5
iter: 304  17:35:46  -7.14  -5.48  -226.180517            +0.7,-0.2,-0.5
iter: 305  17:36:15  -7.58  -5.21  -226.180500            +0.7,-0.3,-0.5
iter: 306  17:36:45  -6.80  -5.02  -226.180548            +0.7,-0.2,-0.5
iter: 307  17:37:14  -6.87  -5.41  -226.180568            +0.7,-0.2,-0.5
iter: 308  17:37:43  -7.46  -5.62  -226.180551            +0.7,-0.2,-0.5
iter: 309  17:38:13  -7.08  -5.71  -226.180597            +0.7,-0.2,-0.5
iter: 310  17:38:42  -7.19  -5.39  -226.180615            +0.6,-0.2,-0.5
iter: 311  17:39:12  -7.61  -5.17  -226.180599            +0.6,-0.2,-0.5
iter: 312  17:39:41  -6.77  -4.99  -226.180644            +0.6,-0.2,-0.5
iter: 313  17:40:10  -6.87  -5.37  -226.180662            +0.6,-0.2,-0.5
iter: 314  17:40:40  -7.51  -5.42  -226.180646            +0.6,-0.2,-0.5
iter: 315  17:41:09  -7.10  -5.80  -226.180689            +0.6,-0.2,-0.5
iter: 316  17:41:38  -7.25  -5.33  -226.180705            +0.6,-0.2,-0.5
iter: 317  17:42:08  -7.65  -5.14  -226.180690            +0.6,-0.2,-0.5
iter: 318  17:42:37  -6.76  -4.98  -226.180732            +0.6,-0.2,-0.5
iter: 319  17:43:07  -6.92  -5.38  -226.180747            +0.6,-0.2,-0.5
iter: 320  17:43:36  -7.49  -5.76  -226.180732            +0.6,-0.1,-0.5
iter: 321  17:44:06  -7.12  -5.78  -226.180773            +0.6,-0.1,-0.5
iter: 322  17:44:35  -7.26  -5.35  -226.180788            +0.6,-0.1,-0.5
iter: 323  17:45:04  -7.65  -5.16  -226.180774            +0.6,-0.2,-0.5
iter: 324  17:45:34  -6.79  -5.09  -226.180813            +0.6,-0.1,-0.4
iter: 325  17:46:03  -6.95  -5.49  -226.180826            +0.6,-0.1,-0.4
iter: 326  17:46:33  -7.66  -5.81  -226.180813            +0.6,-0.1,-0.4
iter: 327  17:47:02  -7.13  -5.78  -226.180851            +0.6,-0.1,-0.4
iter: 328  17:47:32  -7.34  -5.47  -226.180863            +0.6,-0.1,-0.4
iter: 329  17:48:01  -7.80  -5.27  -226.180851            +0.6,-0.1,-0.4
iter: 330  17:48:31  -6.84  -5.09  -226.180887            +0.6,-0.1,-0.4
iter: 331  17:49:00  -7.05  -5.60  -226.180898            +0.6,-0.1,-0.4
iter: 332  17:49:29  -7.73  -5.83  -226.180885            +0.6,-0.1,-0.4
iter: 333  17:49:59  -7.18  -5.67  -226.180921            +0.5,-0.1,-0.4
iter: 334  17:50:28  -7.38  -5.50  -226.180932            +0.5,-0.1,-0.4
iter: 335  17:50:58  -7.84  -5.24  -226.180921            +0.5,-0.1,-0.4
iter: 336  17:51:27  -6.86  -5.15  -226.180954            +0.5,-0.1,-0.4
iter: 337  17:51:56  -7.12  -5.49  -226.180964            +0.5,-0.1,-0.4
iter: 338  17:52:26  -7.85  -5.73  -226.180953            +0.5,-0.1,-0.4
iter: 339  17:52:55  -7.17  -5.78  -226.180986            +0.5,-0.1,-0.4
iter: 340  17:53:24  -7.46  -5.43  -226.180996            +0.5,-0.1,-0.4
iter: 341  17:53:54  -7.87  -5.19  -226.180985            +0.5,-0.1,-0.4
iter: 342  17:54:23  -6.91  -5.12  -226.181016            +0.5,-0.1,-0.4
iter: 343  17:54:53  -7.14  -5.51  -226.181025            +0.5,-0.1,-0.4
iter: 344  17:55:22  -7.86  -5.87  -226.181014            +0.5,-0.1,-0.4
iter: 345  17:55:52  -7.18  -6.00  -226.181046            +0.5,-0.1,-0.4
iter: 346  17:56:21  -7.50  -5.44  -226.181055            +0.5,-0.1,-0.4
iter: 347  17:56:50  -7.94  -5.22  -226.181045            +0.5,-0.1,-0.4
iter: 348  17:57:20  -6.87  -5.09  -226.181074            +0.5,-0.1,-0.4
iter: 349  17:57:49  -7.18  -5.59  -226.181082            +0.5,-0.1,-0.4
iter: 350  17:58:19  -7.83  -5.86  -226.181071            +0.5,-0.0,-0.4
iter: 351  17:58:48  -7.23  -5.79  -226.181102            +0.5,-0.1,-0.4
iter: 352  17:59:18  -7.52  -5.41  -226.181110            +0.5,-0.1,-0.4
iter: 353  17:59:47  -7.95  -5.24  -226.181101            +0.5,-0.1,-0.4
iter: 354  18:00:16  -6.79  -5.14  -226.181129            +0.5,-0.0,-0.4
iter: 355  18:00:46  -7.15  -5.50  -226.181135            +0.5,-0.0,-0.4
iter: 356  18:01:15  -7.79  -5.79  -226.181126            +0.5,-0.0,-0.4
iter: 357  18:01:45  -7.24  -6.32  -226.181154            +0.5,-0.0,-0.4
iter: 358  18:02:14  -7.57  -5.37  -226.181161            +0.4,-0.0,-0.4
iter: 359  18:02:44  -7.89  -5.21  -226.181153            +0.4,-0.0,-0.4
iter: 360  18:03:13  -6.68  -5.11  -226.181179            +0.4,-0.0,-0.3
iter: 361  18:03:43  -6.98  -5.49  -226.181185            +0.4,-0.0,-0.3
iter: 362  18:04:12  -7.63  -5.87  -226.181176            +0.4,-0.0,-0.3
iter: 363  18:04:42  -7.25  -6.45  -226.181203            +0.4,-0.0,-0.3
iter: 364  18:05:11  -7.60  -5.39  -226.181210            +0.4,-0.0,-0.3
iter: 365  18:05:41  -7.80  -5.22  -226.181202            +0.4,-0.0,-0.3
iter: 366  18:06:10  -6.52  -5.13  -226.181227            +0.4,-0.0,-0.3
iter: 367  18:06:40  -6.83  -5.53  -226.181232            +0.4,-0.0,-0.3
iter: 368  18:07:09  -7.47  -5.91  -226.181225            +0.4,-0.0,-0.3
iter: 369  18:07:38  -7.27  -6.18  -226.181250            +0.4,-0.0,-0.3
iter: 370  18:08:08  -7.62  -5.41  -226.181256            +0.4,-0.0,-0.3
iter: 371  18:08:37  -7.85  -5.24  -226.181250            +0.4,-0.0,-0.3
iter: 372  18:09:06  -6.45  -5.16  -226.181272            +0.4,-0.0,-0.3
iter: 373  18:09:36  -6.74  -5.52  -226.181277            +0.4,-0.0,-0.3
iter: 374  18:10:05  -7.40  -5.88  -226.181271            +0.4,-0.0,-0.3
iter: 375  18:10:35  -7.34  -6.42  -226.181294            +0.4,-0.0,-0.3
iter: 376  18:11:04  -7.64  -5.41  -226.181299            +0.4,-0.0,-0.3
iter: 377  18:11:33  -8.37  -5.22  -226.181296            +0.4,-0.0,-0.3
iter: 378  18:12:02  -6.85  -5.17  -226.181313            +0.4,-0.0,-0.3
iter: 379  18:12:32  -7.05  -5.47  -226.181317            +0.4,-0.0,-0.3
iter: 380  18:13:01  -7.69  -5.82  -226.181314            +0.4,-0.0,-0.3
iter: 381  18:13:31  -7.53  -6.10  -226.181332            +0.4,-0.0,-0.3
iter: 382  18:14:00  -7.58  -5.46  -226.181338            +0.4,-0.0,-0.3
iter: 383  18:14:30  -8.15  -5.23  -226.181337            +0.4,-0.0,-0.3
iter: 384  18:14:59  -6.21  -5.20  -226.181345            +0.4,-0.0,-0.3
iter: 385  18:15:29  -6.11  -5.30  -226.181344            +0.4,-0.0,-0.3
iter: 386  18:15:58  -7.05  -5.66  -226.181344            +0.4,-0.0,-0.3
iter: 387  18:16:27  -7.13  -5.85  -226.181353            +0.4,-0.0,-0.3
iter: 388  18:16:57  -7.25  -5.60  -226.181361            +0.4,-0.0,-0.3
iter: 389  18:17:26  -6.91  -5.37  -226.181358            +0.4,-0.0,-0.3
iter: 390  18:17:55  -5.73  -5.32  -226.181372            +0.4,+0.0,-0.3
iter: 391  18:18:25  -5.41  -5.43  -226.181382            +0.4,+0.0,-0.3
iter: 392  18:18:54  -6.50  -5.96  -226.181385            +0.4,+0.0,-0.3
iter: 393  18:19:23  -6.95  -5.98  -226.181386            +0.4,+0.0,-0.3
iter: 394  18:19:53  -7.53  -5.64  -226.181394            +0.3,+0.0,-0.3
iter: 395  18:20:22  -7.67  -5.87  -226.181401            +0.3,+0.0,-0.3
iter: 396  18:20:52  -7.49  -5.62  -226.181399            +0.3,+0.0,-0.3
iter: 397  18:21:21  -6.90  -5.34  -226.181409            +0.3,+0.0,-0.3
iter: 398  18:21:51  -6.22  -5.57  -226.181422            +0.3,-0.0,-0.3
iter: 399  18:22:20  -6.49  -5.82  -226.181420            +0.3,-0.0,-0.3
iter: 400  18:22:49  -7.67  -5.55  -226.181430            +0.3,-0.0,-0.3
iter: 401  18:23:19  -7.46  -5.98  -226.181442            +0.3,-0.0,-0.3
iter: 402  18:23:48  -7.75  -5.55  -226.181440            +0.3,-0.0,-0.3
iter: 403  18:24:18  -7.06  -5.34  -226.181448            +0.3,-0.0,-0.3
iter: 404  18:24:47  -6.35  -5.49  -226.181459            +0.3,-0.0,-0.3
iter: 405  18:25:17  -6.82  -5.98  -226.181458            +0.3,-0.0,-0.3
iter: 406  18:25:46  -7.89  -5.78  -226.181466            +0.3,-0.0,-0.3
iter: 407  18:26:16  -7.49  -6.10  -226.181477            +0.3,-0.0,-0.3
iter: 408  18:26:45  -8.33  -5.50  -226.181476            +0.3,-0.0,-0.3
iter: 409  18:27:14  -8.10  -5.40  -226.181482            +0.3,-0.0,-0.3
iter: 410  18:27:44  -7.23  -5.49  -226.181490            +0.3,-0.0,-0.2
iter: 411  18:28:13  -8.07  -6.02  -226.181490            +0.3,-0.0,-0.2
iter: 412  18:28:43  -8.19  -6.01  -226.181496            +0.3,-0.0,-0.2
iter: 413  18:29:12  -7.48  -6.15  -226.181505            +0.3,-0.0,-0.2
iter: 414  18:29:42  -8.10  -5.47  -226.181505            +0.3,-0.0,-0.2
iter: 415  18:30:11  -6.34  -5.44  -226.181504            +0.3,-0.0,-0.2
iter: 416  18:30:41  -6.19  -5.44  -226.181508            +0.3,+0.0,-0.2
iter: 417  18:31:10  -7.33  -5.52  -226.181509            +0.3,+0.0,-0.2
iter: 418  18:31:40  -8.01  -5.60  -226.181513            +0.3,+0.0,-0.2
iter: 419  18:32:09  -7.95  -5.85  -226.181517            +0.3,+0.0,-0.2
iter: 420  18:32:39  -7.72  -5.74  -226.181521            +0.3,+0.0,-0.2
iter: 421  18:33:08  -6.84  -5.65  -226.181515            +0.3,+0.0,-0.2
iter: 422  18:33:37  -5.78  -5.37  -226.181532            +0.3,-0.0,-0.2
iter: 423  18:34:07  -6.21  -5.72  -226.181537            +0.3,-0.0,-0.2
iter: 424  18:34:36  -6.81  -5.58  -226.181538            +0.3,-0.0,-0.2
iter: 425  18:35:06  -7.15  -5.50  -226.181547            +0.3,-0.0,-0.2
iter: 426  18:35:35  -7.56  -5.78  -226.181556            +0.3,-0.0,-0.2
iter: 427  18:36:05  -7.75  -5.71  -226.181557            +0.3,-0.0,-0.2
iter: 428  18:36:34  -6.53  -5.63  -226.181555            +0.3,-0.0,-0.2
iter: 429  18:37:04  -5.93  -5.50  -226.181565            +0.3,-0.0,-0.2
iter: 430  18:37:33  -6.25  -5.76  -226.181569            +0.3,-0.0,-0.2
iter: 431  18:38:03  -6.57  -5.91  -226.181564            +0.3,-0.0,-0.2
iter: 432  18:38:32  -7.43  -5.70  -226.181574            +0.3,-0.0,-0.2
iter: 433  18:39:02  -7.75  -5.80  -226.181577            +0.3,-0.0,-0.2
iter: 434  18:39:31  -8.31  -5.47  -226.181577            +0.3,-0.0,-0.2
iter: 435  18:40:01  -7.77  -5.55  -226.181583            +0.3,-0.0,-0.2
iter: 436  18:40:30  -7.61  -5.69  -226.181585            +0.3,-0.0,-0.2
iter: 437  18:41:00  -8.69  -5.86  -226.181587            +0.3,-0.0,-0.2
iter: 438  18:41:29  -7.91  -5.94  -226.181594            +0.3,-0.0,-0.2
iter: 439  18:41:59  -8.15  -5.62  -226.181595            +0.3,-0.0,-0.2
iter: 440  18:42:28  -8.87  -5.46  -226.181597            +0.3,-0.0,-0.2
iter: 441  18:42:58  -7.45  -5.53  -226.181606            +0.3,-0.0,-0.2
iter: 442  18:43:27  -8.14  -5.93  -226.181606            +0.3,-0.0,-0.2
iter: 443  18:43:57  -8.81  -5.93  -226.181608            +0.2,-0.0,-0.2
iter: 444  18:44:26  -7.60  -5.97  -226.181617            +0.2,-0.0,-0.2
iter: 445  18:44:55  -8.61  -5.48  -226.181617            +0.2,-0.0,-0.2
iter: 446  18:45:25  -8.45  -5.44  -226.181619            +0.2,-0.0,-0.2
iter: 447  18:45:54  -7.22  -5.48  -226.181624            +0.2,-0.0,-0.2
iter: 448  18:46:24  -8.28  -5.63  -226.181624            +0.2,-0.0,-0.2
iter: 449  18:46:53  -8.29  -5.70  -226.181627            +0.2,-0.0,-0.2
iter: 450  18:47:23  -8.40  -5.78  -226.181631            +0.2,-0.0,-0.2
iter: 451  18:47:52  -8.12  -5.56  -226.181634            +0.2,-0.0,-0.2
iter: 452  18:48:22  -8.08  -5.43  -226.181635            +0.2,-0.0,-0.2
iter: 453  18:48:51  -6.62  -5.45  -226.181628            +0.2,-0.0,-0.2
iter: 454  18:49:21  -5.87  -5.43  -226.181639            +0.2,-0.0,-0.2
iter: 455  18:49:50  -7.12  -5.54  -226.181641            +0.2,-0.0,-0.2
iter: 456  18:50:20  -7.69  -5.59  -226.181645            +0.2,-0.0,-0.2
iter: 457  18:50:49  -8.11  -5.74  -226.181648            +0.2,-0.0,-0.2
iter: 458  18:51:18  -7.36  -6.02  -226.181652            +0.2,-0.0,-0.2
iter: 459  18:51:48  -8.10  -5.32  -226.181655            +0.2,-0.0,-0.2
iter: 460  18:52:17  -8.71  -5.58  -226.181656            +0.2,-0.0,-0.2
iter: 461  18:52:47  -7.69  -5.63  -226.181651            +0.2,-0.0,-0.2
iter: 462  18:53:16  -7.23  -5.46  -226.181661            +0.2,-0.0,-0.2
iter: 463  18:53:45  -7.12  -5.97  -226.181663            +0.2,-0.0,-0.2
iter: 464  18:54:15  -8.55  -5.63  -226.181664            +0.2,-0.0,-0.2
iter: 465  18:54:44  -8.08  -5.61  -226.181672            +0.2,-0.0,-0.2
iter: 466  18:55:14  -8.12  -6.14  -226.181676            +0.2,-0.0,-0.2
iter: 467  18:55:43  -8.48  -5.78  -226.181676            +0.2,-0.0,-0.2
iter: 468  18:56:12  -8.06  -5.56  -226.181679            +0.2,-0.0,-0.2
iter: 469  18:56:42  -7.38  -5.75  -226.181685            +0.2,-0.0,-0.2
iter: 470  18:57:11  -7.67  -5.86  -226.181683            +0.2,-0.0,-0.2
iter: 471  18:57:40  -8.57  -5.58  -226.181688            +0.2,-0.0,-0.2
iter: 472  18:58:10  -7.90  -5.86  -226.181696            +0.2,-0.0,-0.2
iter: 473  18:58:39  -8.35  -5.84  -226.181697            +0.2,-0.0,-0.2
iter: 474  18:59:09  -8.98  -5.58  -226.181698            +0.2,-0.0,-0.2
iter: 475  18:59:38  -7.25  -5.61  -226.181705            +0.2,-0.0,-0.1
iter: 476  19:00:07  -8.86  -5.83  -226.181705            +0.2,-0.0,-0.1
iter: 477  19:00:37  -9.34  -5.97  -226.181705            +0.2,-0.0,-0.1
iter: 478  19:01:06  -8.09  -6.10  -226.181710            +0.2,-0.0,-0.1
iter: 479  19:01:36  -8.30  -6.03  -226.181712            +0.2,-0.0,-0.1
iter: 480  19:02:05  -8.44  -5.73  -226.181713            +0.2,-0.0,-0.1
iter: 481  19:02:35  -8.28  -5.56  -226.181716            +0.2,-0.0,-0.1
iter: 482  19:03:04  -7.30  -5.71  -226.181721            +0.2,-0.0,-0.1
iter: 483  19:03:34  -8.47  -5.81  -226.181721            +0.2,-0.0,-0.1
iter: 484  19:04:03  -8.17  -5.78  -226.181727            +0.2,-0.0,-0.1
iter: 485  19:04:33  -8.22  -6.27  -226.181730            +0.2,-0.0,-0.1
iter: 486  19:05:02  -8.69  -5.78  -226.181731            +0.2,-0.0,-0.1
iter: 487  19:05:32  -8.69  -5.65  -226.181732            +0.2,-0.0,-0.1
iter: 488  19:06:01  -8.22  -5.59  -226.181733            +0.2,-0.0,-0.1
iter: 489  19:06:31  -8.08  -5.66  -226.181736            +0.2,-0.0,-0.1
iter: 490  19:07:00  -7.80  -5.84  -226.181738            +0.2,-0.0,-0.1
iter: 491  19:07:30  -8.74  -5.97  -226.181740            +0.2,-0.0,-0.1
iter: 492  19:07:59  -8.05  -6.28  -226.181745            +0.2,-0.0,-0.1
iter: 493  19:08:29  -8.45  -5.81  -226.181745            +0.2,-0.0,-0.1
iter: 494  19:08:59  -8.93  -5.59  -226.181747            +0.2,-0.0,-0.1
iter: 495  19:09:28  -7.64  -5.71  -226.181753            +0.2,-0.0,-0.1
iter: 496  19:09:58  -8.32  -6.20  -226.181753            +0.2,-0.0,-0.1
iter: 497  19:10:27  -8.96  -5.93  -226.181755            +0.2,-0.0,-0.1
iter: 498  19:10:57  -7.81  -6.13  -226.181760            +0.2,-0.0,-0.1
iter: 499  19:11:26  -8.84  -5.73  -226.181760            +0.2,-0.0,-0.1
iter: 500  19:11:56  -8.88  -5.63  -226.181762            +0.2,-0.0,-0.1
iter: 501  19:12:26  -7.90  -5.75  -226.181767            +0.2,-0.0,-0.1
iter: 502  19:12:55  -8.64  -5.91  -226.181767            +0.2,-0.0,-0.1
iter: 503  19:13:25  -8.66  -6.25  -226.181769            +0.2,-0.0,-0.1
iter: 504  19:13:54  -8.37  -6.15  -226.181772            +0.2,-0.0,-0.1
iter: 505  19:14:24  -8.44  -5.99  -226.181774            +0.2,-0.0,-0.1
iter: 506  19:14:54  -9.25  -5.64  -226.181774            +0.2,-0.0,-0.1
iter: 507  19:15:23  -7.81  -5.66  -226.181777            +0.2,-0.0,-0.1
iter: 508  19:15:53  -8.65  -5.67  -226.181778            +0.2,-0.0,-0.1
iter: 509  19:16:22  -8.70  -5.78  -226.181780            +0.2,-0.0,-0.1
iter: 510  19:16:52  -8.06  -5.68  -226.181781            +0.2,-0.0,-0.1
iter: 511  19:17:21  -8.43  -5.37  -226.181783            +0.2,-0.0,-0.1
iter: 512  19:17:51  -7.92  -5.56  -226.181787            +0.2,-0.0,-0.1
iter: 513  19:18:21  -7.25  -5.48  -226.181788            +0.2,-0.0,-0.1
iter: 514  19:18:50  -8.51  -5.70  -226.181789            +0.2,-0.0,-0.1
iter: 515  19:19:20  -8.36  -5.89  -226.181794            +0.1,-0.0,-0.1
iter: 516  19:19:49  -7.68  -5.92  -226.181796            +0.1,-0.0,-0.1
iter: 517  19:20:19  -8.71  -5.45  -226.181798            +0.1,-0.0,-0.1
iter: 518  19:20:48  -8.24  -5.53  -226.181802            +0.1,-0.0,-0.1
iter: 519  19:21:18  -7.70  -5.69  -226.181806            +0.1,-0.0,-0.1
iter: 520  19:21:48  -8.37  -6.16  -226.181805            +0.1,-0.0,-0.1
iter: 521  19:22:17  -8.61  -6.16  -226.181808            +0.1,-0.0,-0.1
iter: 522  19:22:47  -7.96  -6.23  -226.181813            +0.1,-0.0,-0.1
iter: 523  19:23:16  -8.64  -5.67  -226.181812            +0.1,-0.0,-0.1
iter: 524  19:23:46  -8.29  -5.50  -226.181816            +0.1,-0.0,-0.1
iter: 525  19:24:15  -7.77  -5.69  -226.181820            +0.1,-0.0,-0.1
iter: 526  19:24:45  -8.38  -5.90  -226.181819            +0.1,-0.0,-0.1
iter: 527  19:25:15  -8.61  -5.94  -226.181822            +0.1,-0.0,-0.1
iter: 528  19:25:44  -8.04  -6.25  -226.181826            +0.1,-0.0,-0.1
iter: 529  19:26:14  -8.84  -5.70  -226.181825            +0.1,-0.0,-0.1
iter: 530  19:26:43  -8.38  -5.56  -226.181829            +0.1,-0.0,-0.1
iter: 531  19:27:13  -7.80  -5.83  -226.181832            +0.1,-0.0,-0.1
iter: 532  19:27:43  -8.45  -6.11  -226.181832            +0.1,-0.0,-0.1
iter: 533  19:28:12  -8.70  -6.11  -226.181835            +0.1,-0.0,-0.1
iter: 534  19:28:42  -8.03  -6.14  -226.181838            +0.1,-0.0,-0.1
iter: 535  19:29:12  -8.94  -5.61  -226.181838            +0.1,-0.0,-0.1
iter: 536  19:29:41  -8.40  -5.53  -226.181841            +0.1,-0.0,-0.1
iter: 537  19:30:11  -7.89  -5.76  -226.181844            +0.1,-0.0,-0.1
iter: 538  19:30:41  -8.60  -6.18  -226.181844            +0.1,-0.0,-0.1
iter: 539  19:31:10  -8.70  -6.21  -226.181847            +0.1,-0.0,-0.1
iter: 540  19:31:40  -8.03  -6.52  -226.181850            +0.1,-0.0,-0.1
iter: 541  19:32:10  -9.08  -5.70  -226.181850            +0.1,-0.0,-0.1
iter: 542  19:32:39  -8.53  -5.62  -226.181853            +0.1,-0.0,-0.1
iter: 543  19:33:09  -8.11  -5.81  -226.181855            +0.1,-0.0,-0.1
iter: 544  19:33:39  -8.83  -6.10  -226.181855            +0.1,-0.0,-0.1
iter: 545  19:34:08  -8.69  -6.16  -226.181858            +0.1,-0.0,-0.1
iter: 546  19:34:38  -8.13  -6.61  -226.181860            +0.1,-0.0,-0.1
iter: 547  19:35:08  -9.09  -5.79  -226.181860            +0.1,-0.0,-0.1
iter: 548  19:35:37  -8.48  -5.73  -226.181861            +0.1,-0.0,-0.1
iter: 549  19:36:07  -8.32  -5.72  -226.181861            +0.1,-0.0,-0.1
iter: 550  19:36:37  -8.90  -5.79  -226.181862            +0.1,-0.0,-0.1
iter: 551  19:37:06  -8.41  -5.78  -226.181865            +0.1,-0.0,-0.1
iter: 552  19:37:36  -8.41  -6.10  -226.181867            +0.1,-0.0,-0.1
iter: 553  19:38:05  -7.91  -6.21  -226.181866            +0.1,-0.0,-0.1
iter: 554  19:38:35  -8.26  -5.50  -226.181870            +0.1,-0.0,-0.1
iter: 555  19:39:05  -8.07  -5.91  -226.181873            +0.1,-0.0,-0.1
iter: 556  19:39:34  -7.23  -6.25  -226.181870            +0.1,-0.0,-0.1
iter: 557  19:40:04  -7.86  -5.48  -226.181875            +0.1,-0.0,-0.1
iter: 558  19:40:34  -8.53  -5.90  -226.181878            +0.1,-0.0,-0.1
iter: 559  19:41:03  -7.61  -6.14  -226.181877            +0.1,-0.0,-0.1
iter: 560  19:41:33  -8.19  -5.43  -226.181882            +0.1,-0.0,-0.1
iter: 561  19:42:03  -8.27  -5.83  -226.181884            +0.1,-0.0,-0.1
iter: 562  19:42:32  -7.26  -6.04  -226.181884            +0.1,-0.0,-0.1
iter: 563  19:43:02  -8.07  -5.55  -226.181888            +0.1,-0.0,-0.1
iter: 564  19:43:32  -8.58  -5.98  -226.181890            +0.1,-0.0,-0.1
iter: 565  19:44:01  -7.81  -6.39  -226.181891            +0.1,-0.0,-0.1
iter: 566  19:44:31  -8.49  -5.53  -226.181894            +0.1,-0.0,-0.1
iter: 567  19:45:00  -8.22  -5.85  -226.181896            +0.1,-0.0,-0.1
iter: 568  19:45:30  -7.36  -6.13  -226.181896            +0.1,-0.0,-0.1
iter: 569  19:45:59  -8.21  -5.60  -226.181899            +0.1,-0.0,-0.1
iter: 570  19:46:29  -8.56  -6.01  -226.181902            +0.1,-0.0,-0.1
iter: 571  19:46:59  -7.83  -6.47  -226.181902            +0.1,-0.0,-0.1
iter: 572  19:47:28  -8.48  -5.53  -226.181905            +0.1,-0.0,-0.1
iter: 573  19:47:58  -8.22  -5.85  -226.181907            +0.1,-0.0,-0.1
iter: 574  19:48:28  -7.35  -6.12  -226.181907            +0.1,-0.0,-0.1
iter: 575  19:48:57  -8.20  -5.59  -226.181910            +0.1,-0.0,-0.1
iter: 576  19:49:27  -8.58  -5.99  -226.181913            +0.1,-0.0,-0.1
iter: 577  19:49:56  -7.84  -6.44  -226.181913            +0.1,-0.0,-0.1
iter: 578  19:50:26  -8.52  -5.54  -226.181916            +0.1,-0.0,-0.1
iter: 579  19:50:55  -8.24  -5.85  -226.181918            +0.1,-0.0,-0.1
iter: 580  19:51:25  -7.38  -6.12  -226.181918            +0.1,-0.0,-0.1
iter: 581  19:51:55  -8.25  -5.61  -226.181921            +0.1,-0.0,-0.1
iter: 582  19:52:24  -8.59  -5.99  -226.181924            +0.1,-0.0,-0.1
iter: 583  19:52:54  -7.86  -6.44  -226.181924            +0.1,-0.0,-0.1
iter: 584  19:53:23  -8.56  -5.55  -226.181926            +0.1,-0.0,-0.1
iter: 585  19:53:53  -8.25  -5.85  -226.181929            +0.1,-0.0,-0.1
iter: 586  19:54:23  -7.39  -6.13  -226.181929            +0.1,-0.0,-0.1
iter: 587  19:54:52  -8.29  -5.62  -226.181932            +0.1,-0.0,-0.1
iter: 588  19:55:22  -8.60  -5.99  -226.181934            +0.1,-0.0,-0.1
iter: 589  19:55:51  -7.88  -6.44  -226.181935            +0.1,-0.0,-0.1
iter: 590  19:56:21  -8.59  -5.55  -226.181937            +0.1,-0.0,-0.1
iter: 591  19:56:51  -8.26  -5.85  -226.181939            +0.1,-0.0,-0.1
iter: 592  19:57:20  -7.41  -6.12  -226.181940            +0.1,-0.0,-0.1
iter: 593  19:57:50  -8.32  -5.63  -226.181942            +0.1,-0.0,-0.1
iter: 594  19:58:19  -8.62  -5.99  -226.181944            +0.1,-0.0,-0.1
iter: 595  19:58:49  -7.90  -6.43  -226.181945            +0.1,-0.0,-0.1
iter: 596  19:59:19  -8.63  -5.56  -226.181947            +0.1,-0.0,-0.1
iter: 597  19:59:48  -8.27  -5.85  -226.181949            +0.1,-0.0,-0.1
iter: 598  20:00:18  -7.43  -6.12  -226.181950            +0.1,-0.0,-0.1
iter: 599  20:00:48  -8.36  -5.64  -226.181952            +0.1,-0.0,-0.1
iter: 600  20:01:17  -8.63  -5.99  -226.181954            +0.1,-0.0,-0.1
iter: 601  20:01:47  -7.91  -6.42  -226.181955            +0.1,-0.0,-0.1
iter: 602  20:02:17  -8.66  -5.57  -226.181957            +0.1,-0.0,-0.1
iter: 603  20:02:46  -8.29  -5.84  -226.181959            +0.1,-0.0,-0.1
iter: 604  20:03:16  -7.44  -6.12  -226.181960            +0.1,-0.0,-0.1
iter: 605  20:03:46  -8.39  -5.64  -226.181962            +0.1,-0.0,-0.1
iter: 606  20:04:15  -8.65  -5.99  -226.181964            +0.1,-0.0,-0.1
iter: 607  20:04:45  -7.92  -6.41  -226.181965            +0.1,-0.0,-0.1
iter: 608  20:05:15  -8.69  -5.58  -226.181966            +0.1,-0.0,-0.1
iter: 609  20:05:44  -8.30  -5.84  -226.181969            +0.1,-0.0,-0.1
iter: 610  20:06:14  -7.45  -6.11  -226.181969            +0.1,-0.0,-0.1
iter: 611  20:06:43  -8.42  -5.65  -226.181971            +0.1,-0.0,-0.1
iter: 612  20:07:13  -8.66  -5.99  -226.181973            +0.1,-0.0,-0.1
iter: 613  20:07:43  -7.94  -6.40  -226.181974            +0.1,-0.0,-0.1
iter: 614  20:08:12  -8.73  -5.58  -226.181976            +0.1,-0.0,-0.1
iter: 615  20:08:42  -8.32  -5.84  -226.181978            +0.1,-0.0,-0.1
iter: 616  20:09:12  -7.46  -6.11  -226.181979            +0.1,-0.0,-0.1
iter: 617  20:09:41  -8.45  -5.66  -226.181980            +0.1,-0.0,-0.1
iter: 618  20:10:11  -8.68  -5.99  -226.181983            +0.1,-0.0,-0.1
iter: 619  20:10:40  -7.94  -6.40  -226.181983            +0.1,-0.0,-0.1
iter: 620  20:11:10  -8.76  -5.59  -226.181985            +0.1,-0.0,-0.1
iter: 621  20:11:40  -8.34  -5.84  -226.181987            +0.1,-0.0,-0.1
iter: 622  20:12:09  -7.47  -6.10  -226.181988            +0.1,-0.0,-0.1
iter: 623  20:12:39  -8.48  -5.67  -226.181989            +0.1,-0.0,-0.1
iter: 624  20:13:08  -8.70  -5.99  -226.181992            +0.1,-0.0,-0.1
iter: 625  20:13:38  -7.95  -6.39  -226.181992            +0.1,-0.0,-0.1
iter: 626  20:14:08  -8.79  -5.59  -226.181994            +0.1,-0.0,-0.1
iter: 627  20:14:37  -8.36  -5.84  -226.181996            +0.1,-0.0,-0.1
iter: 628  20:15:07  -7.48  -6.09  -226.181997            +0.1,-0.0,-0.1
iter: 629  20:15:36  -8.50  -5.68  -226.181998            +0.1,-0.0,-0.1
iter: 630  20:16:06  -8.72  -5.99  -226.182000            +0.1,-0.0,-0.1
iter: 631  20:16:35  -7.96  -6.38  -226.182001            +0.1,-0.0,-0.1
iter: 632  20:17:05  -8.82  -5.60  -226.182003            +0.1,-0.0,-0.1
iter: 633  20:17:34  -8.38  -5.84  -226.182005            +0.1,-0.0,-0.0
iter: 634  20:18:04  -7.49  -6.09  -226.182005            +0.1,-0.0,-0.0
iter: 635  20:18:33  -8.53  -5.68  -226.182007            +0.1,-0.0,-0.0
iter: 636  20:19:03  -8.74  -5.99  -226.182009            +0.1,-0.0,-0.0
iter: 637  20:19:32  -7.96  -6.37  -226.182010            +0.1,-0.0,-0.0
iter: 638  20:20:02  -8.85  -5.60  -226.182011            +0.1,-0.0,-0.0
iter: 639  20:20:32  -8.40  -5.84  -226.182013            +0.1,-0.0,-0.0
iter: 640  20:21:01  -7.49  -6.08  -226.182014            +0.1,-0.0,-0.0
iter: 641  20:21:31  -8.55  -5.69  -226.182015            +0.1,-0.0,-0.0
iter: 642  20:22:00  -8.77  -5.99  -226.182017            +0.1,-0.0,-0.0
iter: 643  20:22:30  -7.96  -6.35  -226.182019            +0.1,-0.0,-0.0
iter: 644  20:22:59  -8.88  -5.61  -226.182020            +0.1,-0.0,-0.0
iter: 645  20:23:29  -8.43  -5.84  -226.182022            +0.1,-0.0,-0.0
iter: 646  20:23:58  -7.49  -6.07  -226.182022            +0.1,-0.0,-0.0
iter: 647  20:24:28  -8.57  -5.70  -226.182024            +0.1,-0.0,-0.0
iter: 648  20:24:58  -8.80  -5.99  -226.182026            +0.1,-0.0,-0.0
iter: 649  20:25:27  -7.96  -6.34  -226.182027            +0.1,-0.0,-0.0
iter: 650  20:25:57  -8.91  -5.61  -226.182028            +0.1,-0.0,-0.0
iter: 651  20:26:26  -8.47  -5.83  -226.182030            +0.1,-0.0,-0.0
iter: 652  20:26:56  -7.49  -6.05  -226.182031            +0.1,-0.0,-0.0
iter: 653  20:27:25  -8.58  -5.70  -226.182032            +0.1,-0.0,-0.0
iter: 654  20:27:55  -8.83  -5.98  -226.182034            +0.0,-0.0,-0.0
iter: 655  20:28:24  -7.96  -6.32  -226.182035            +0.0,-0.0,-0.0
iter: 656  20:28:54  -8.94  -5.62  -226.182036            +0.0,-0.0,-0.0
iter: 657  20:29:23  -8.51  -5.83  -226.182038            +0.0,-0.0,-0.0
iter: 658  20:29:53  -7.49  -6.04  -226.182039            +0.0,-0.0,-0.0
iter: 659  20:30:22  -8.60  -5.71  -226.182040            +0.0,-0.0,-0.0
iter: 660  20:30:52  -8.87  -5.98  -226.182042            +0.0,-0.0,-0.0
iter: 661  20:31:21  -7.96  -6.30  -226.182043            +0.0,-0.0,-0.0
iter: 662  20:31:51  -8.96  -5.62  -226.182044            +0.0,-0.0,-0.0
iter: 663  20:32:20  -8.55  -5.83  -226.182046            +0.0,-0.0,-0.0
iter: 664  20:32:50  -7.48  -6.03  -226.182047            +0.0,-0.0,-0.0
iter: 665  20:33:20  -8.61  -5.71  -226.182048            +0.0,-0.0,-0.0
iter: 666  20:33:49  -8.91  -5.98  -226.182049            +0.0,-0.0,-0.0
iter: 667  20:34:19  -7.95  -6.28  -226.182051            +0.0,-0.0,-0.0
iter: 668  20:34:48  -8.99  -5.62  -226.182052            +0.0,-0.0,-0.0
iter: 669  20:35:18  -8.60  -5.83  -226.182053            +0.0,-0.0,-0.0
iter: 670  20:35:47  -7.47  -6.01  -226.182054            +0.0,-0.0,-0.0
iter: 671  20:36:17  -8.62  -5.72  -226.182055            +0.0,-0.0,-0.0
iter: 672  20:36:47  -8.97  -5.98  -226.182057            +0.0,-0.0,-0.0
iter: 673  20:37:16  -7.94  -6.25  -226.182059            +0.0,-0.0,-0.0
iter: 674  20:37:46  -9.03  -5.63  -226.182059            +0.0,-0.0,-0.0
iter: 675  20:38:15  -8.66  -5.82  -226.182061            +0.0,-0.0,-0.0
iter: 676  20:38:45  -7.46  -5.99  -226.182062            +0.0,-0.0,-0.0
iter: 677  20:39:15  -8.64  -5.72  -226.182063            +0.0,-0.0,-0.0
iter: 678  20:39:44  -9.03  -5.98  -226.182064            +0.0,-0.0,-0.0
iter: 679  20:40:14  -7.93  -6.22  -226.182066            +0.0,-0.0,-0.0
iter: 680  20:40:43  -9.06  -5.63  -226.182067            +0.0,-0.0,-0.0
iter: 681  20:41:13  -8.74  -5.82  -226.182068            +0.0,-0.0,-0.0
iter: 682  20:41:42  -7.45  -5.97  -226.182070            +0.0,-0.0,-0.0
iter: 683  20:42:12  -8.65  -5.73  -226.182070            +0.0,-0.0,-0.0
iter: 684  20:42:41  -9.10  -5.97  -226.182072            +0.0,-0.0,-0.0
iter: 685  20:43:11  -7.92  -6.19  -226.182074            +0.0,-0.0,-0.0
iter: 686  20:43:41  -9.10  -5.64  -226.182074            +0.0,-0.0,-0.0
iter: 687  20:44:10  -8.83  -5.82  -226.182075            +0.0,-0.0,-0.0
iter: 688  20:44:40  -7.44  -5.95  -226.182077            +0.0,-0.0,-0.0
iter: 689  20:45:09  -8.68  -5.74  -226.182078            +0.0,-0.0,-0.0
iter: 690  20:45:39  -9.19  -5.97  -226.182079            +0.0,-0.0,-0.0
iter: 691  20:46:08  -7.90  -6.16  -226.182081            +0.0,-0.0,-0.0
iter: 692  20:46:38  -9.15  -5.65  -226.182081            +0.0,-0.0,-0.0
iter: 693  20:47:08  -8.95  -5.81  -226.182082            +0.0,-0.0,-0.0
iter: 694  20:47:37  -7.43  -5.93  -226.182084            +0.0,-0.0,-0.0
iter: 695  20:48:07  -8.73  -5.75  -226.182085            +0.0,-0.0,-0.0
iter: 696  20:48:36  -9.29  -5.96  -226.182086            +0.0,-0.0,-0.0
iter: 697  20:49:06  -7.90  -6.12  -226.182088            +0.0,-0.0,-0.0
iter: 698  20:49:36  -9.24  -5.67  -226.182089            +0.0,-0.0,-0.0
iter: 699  20:50:05  -9.09  -5.81  -226.182089            +0.0,-0.0,-0.0
iter: 700  20:50:35  -7.44  -5.91  -226.182092            +0.0,-0.0,-0.0
iter: 701  20:51:04  -8.88  -5.78  -226.182092            +0.0,-0.0,-0.0
iter: 702  20:51:34  -9.42  -5.96  -226.182093            +0.0,-0.0,-0.0
iter: 703  20:52:04  -7.93  -6.11  -226.182095            +0.0,-0.0,-0.0
iter: 704  20:52:33  -9.45  -5.70  -226.182096            +0.0,-0.0,-0.0
iter: 705  20:53:03  -9.25  -5.81  -226.182096            +0.0,-0.0,-0.0
iter: 706  20:53:33  -7.45  -5.90  -226.182099            +0.0,-0.0,-0.0
iter: 707  20:54:02  -9.02  -5.81  -226.182099            +0.0,-0.0,-0.0
iter: 708  20:54:32  -9.67  -5.96  -226.182100            +0.0,-0.0,-0.0
iter: 709  20:55:01  -7.96  -6.06  -226.182102            +0.0,-0.0,-0.0
iter: 710  20:55:31  -9.62  -5.75  -226.182102            +0.0,-0.0,-0.0
iter: 711  20:56:00  -9.61  -5.80  -226.182103            +0.0,-0.0,-0.0
iter: 712  20:56:30  -7.54  -5.87  -226.182106            +0.0,-0.0,-0.0
iter: 713  20:57:00  -9.08  -5.90  -226.182106            +0.0,-0.0,-0.0
iter: 714  20:57:29  -8.94  -5.97  -226.182107            +0.0,-0.0,-0.0
iter: 715  20:57:59  -8.48  -6.35  -226.182108            +0.0,-0.0,-0.0
iter: 716  20:58:29  -9.17  -5.90  -226.182109            +0.0,-0.0,-0.0
iter: 717  20:58:58  -8.78  -5.88  -226.182110            +0.0,-0.0,-0.0
iter: 718  20:59:28  -8.03  -6.04  -226.182111            +0.0,-0.0,-0.0
iter: 719  20:59:58  -9.23  -6.12  -226.182111            +0.0,-0.0,-0.0
iter: 720  21:00:27  -8.79  -6.17  -226.182113            +0.0,-0.0,-0.0
iter: 721  21:00:57  -8.51  -6.32  -226.182114            +0.0,-0.0,-0.0
iter: 722  21:01:27  -9.41  -5.82  -226.182114            +0.0,-0.0,-0.0
iter: 723  21:01:56  -8.39  -5.88  -226.182116            +0.0,-0.0,-0.0
iter: 724  21:02:26  -7.81  -6.22  -226.182117            +0.0,-0.0,-0.0
iter: 725  21:02:56  -9.29  -5.89  -226.182117            +0.0,-0.0,-0.0
iter: 726  21:03:25  -8.79  -6.01  -226.182119            +0.0,-0.0,-0.0
iter: 727  21:03:55  -8.20  -6.61  -226.182120            +0.0,-0.0,-0.0
iter: 728  21:04:25  -9.42  -5.73  -226.182121            +0.0,-0.0,-0.0
iter: 729  21:04:55  -8.58  -5.81  -226.182122            +0.0,-0.0,-0.0
iter: 730  21:05:24  -7.75  -6.06  -226.182123            +0.0,-0.0,-0.0
iter: 731  21:05:54  -9.36  -5.91  -226.182124            +0.0,-0.0,-0.0
iter: 732  21:06:24  -8.96  -6.01  -226.182125            +0.0,-0.0,-0.0
iter: 733  21:06:54  -8.35  -6.53  -226.182127            +0.0,-0.0,-0.0
iter: 734  21:07:23  -9.56  -5.82  -226.182127            +0.0,-0.0,-0.0
iter: 735  21:07:53  -8.50  -5.85  -226.182129            +0.0,-0.0,-0.0
iter: 736  21:08:22  -8.15  -6.21  -226.182129            +0.0,-0.0,-0.0
iter: 737  21:08:52  -9.35  -6.11  -226.182130            +0.0,-0.0,-0.0
iter: 738  21:09:22  -8.46  -6.17  -226.182132            +0.0,-0.0,-0.0
iter: 739  21:09:51  -8.77  -6.18  -226.182132            +0.0,-0.0,-0.0
iter: 740  21:10:21  -9.58  -5.81  -226.182133            +0.0,-0.0,-0.0
iter: 741  21:10:50  -7.77  -5.86  -226.182135            +0.0,-0.0,-0.0
iter: 742  21:11:20  -8.47  -6.29  -226.182135            +0.0,-0.0,-0.0
iter: 743  21:11:50  -9.55  -5.94  -226.182136            +0.0,-0.0,-0.0
iter: 744  21:12:19  -8.39  -6.06  -226.182138            +0.0,-0.0,-0.0
iter: 745  21:12:49  -8.88  -6.15  -226.182138            +0.0,-0.0,-0.0
iter: 746  21:13:19  -9.51  -5.84  -226.182139            +0.0,-0.0,-0.0
iter: 747  21:13:48  -8.73  -5.87  -226.182140            +0.0,-0.0,-0.0
iter: 748  21:14:18  -8.12  -6.05  -226.182141            +0.0,-0.0,-0.0
iter: 749  21:14:47  -9.20  -5.94  -226.182141            +0.0,-0.0,-0.0
iter: 750  21:15:17  -8.36  -6.21  -226.182144            +0.0,-0.0,-0.0
iter: 751  21:15:46  -9.02  -6.04  -226.182144            +0.0,-0.0,-0.0
iter: 752  21:16:16  -9.34  -5.83  -226.182144            +0.0,-0.0,-0.0
iter: 753  21:16:46  -7.72  -5.89  -226.182147            +0.0,-0.0,-0.0
iter: 754  21:17:15  -8.90  -6.11  -226.182147            +0.0,-0.0,-0.0
iter: 755  21:17:45  -9.18  -6.02  -226.182148            +0.0,-0.0,-0.0
iter: 756  21:18:14  -8.48  -6.24  -226.182149            +0.0,-0.0,-0.0
iter: 757  21:18:44  -9.32  -5.94  -226.182149            +0.0,-0.0,-0.0
iter: 758  21:19:13  -9.05  -5.91  -226.182150            +0.0,-0.0,-0.0
iter: 759  21:19:43  -9.59  -5.85  -226.182150            +0.0,-0.0,-0.0
iter: 760  21:20:13  -8.18  -5.85  -226.182151            +0.0,-0.0,-0.0
iter: 761  21:20:42  -8.12  -6.02  -226.182152            +0.0,-0.0,-0.0
iter: 762  21:21:12  -8.49  -6.21  -226.182153            +0.0,-0.0,-0.0
iter: 763  21:21:41  -9.17  -6.02  -226.182153            +0.0,-0.0,-0.0
iter: 764  21:22:11  -8.04  -6.01  -226.182156            +0.0,-0.0,-0.0
iter: 765  21:22:40  -9.49  -5.92  -226.182156            +0.0,-0.0,-0.0
iter: 766  21:23:10  -7.97  -5.90  -226.182158            +0.0,-0.0,-0.0
iter: 767  21:23:40  -8.67  -6.28  -226.182159            +0.0,-0.0,-0.0
iter: 768  21:24:09  -8.93  -6.06  -226.182157            +0.0,-0.0,-0.0
iter: 769  21:24:39  -8.43  -5.75  -226.182160            +0.0,-0.0,-0.0
iter: 770  21:25:08  -8.65  -6.65  -226.182161            +0.0,-0.0,-0.0
iter: 771  21:25:38  -9.02  -6.10  -226.182160            +0.0,-0.0,-0.0
iter: 772  21:26:07  -8.24  -5.79  -226.182163            +0.0,-0.0,-0.0
iter: 773  21:26:37  -8.12  -6.57  -226.182164            +0.0,-0.0,-0.0
iter: 774  21:27:07  -8.75  -6.11  -226.182163            +0.0,-0.0,-0.0
iter: 775  21:27:36  -8.66  -5.80  -226.182166            +0.0,-0.0,-0.0
iter: 776  21:28:06  -8.47  -6.53  -226.182167            +0.0,-0.0,-0.0
iter: 777  21:28:35  -9.05  -6.08  -226.182166            +0.0,-0.0,-0.0
iter: 778  21:29:05  -8.26  -5.78  -226.182168            +0.0,-0.0,-0.0
iter: 779  21:29:35  -8.09  -6.52  -226.182170            +0.0,-0.0,-0.0
iter: 780  21:30:04  -8.75  -6.10  -226.182169            +0.0,-0.0,-0.0
iter: 781  21:30:34  -8.66  -5.80  -226.182171            +0.0,-0.0,-0.0
iter: 782  21:31:03  -8.48  -6.56  -226.182173            +0.0,-0.0,-0.0
iter: 783  21:31:33  -9.07  -6.08  -226.182172            +0.0,-0.0,-0.0
iter: 784  21:32:03  -8.27  -5.79  -226.182174            +0.0,-0.0,-0.0
iter: 785  21:32:32  -8.10  -6.50  -226.182175            +0.0,-0.0,-0.0
iter: 786  21:33:02  -8.78  -6.10  -226.182175            +0.0,-0.0,-0.0
iter: 787  21:33:31  -8.67  -5.81  -226.182177            +0.0,-0.0,-0.0
iter: 788  21:34:01  -8.48  -6.57  -226.182178            +0.0,-0.0,-0.0
iter: 789  21:34:30  -9.09  -6.08  -226.182178            +0.0,-0.0,-0.0
iter: 790  21:35:00  -8.28  -5.80  -226.182180            +0.0,-0.0,-0.0
iter: 791  21:35:30  -8.10  -6.51  -226.182181            +0.0,-0.0,-0.0
iter: 792  21:35:59  -8.79  -6.10  -226.182180            +0.0,-0.0,-0.0
iter: 793  21:36:29  -8.69  -5.82  -226.182182            +0.0,-0.0,-0.0
iter: 794  21:36:59  -8.48  -6.61  -226.182184            +0.0,-0.0,-0.0
iter: 795  21:37:28  -9.12  -6.07  -226.182183            +0.0,-0.0,-0.0
iter: 796  21:37:58  -8.29  -5.80  -226.182185            +0.0,-0.0,-0.0
iter: 797  21:38:27  -8.10  -6.50  -226.182186            +0.0,-0.0,-0.0
iter: 798  21:38:57  -8.81  -6.11  -226.182186            +0.0,-0.0,-0.0
iter: 799  21:39:27  -8.70  -5.82  -226.182188            +0.0,-0.0,-0.0
iter: 800  21:39:56  -8.49  -6.60  -226.182189            +0.0,-0.0,-0.0
iter: 801  21:40:26  -9.14  -6.07  -226.182189            +0.0,-0.0,-0.0
iter: 802  21:40:56  -8.31  -5.81  -226.182191            +0.0,-0.0,-0.0
iter: 803  21:41:25  -8.10  -6.49  -226.182192            +0.0,-0.0,-0.0
iter: 804  21:41:55  -8.83  -6.11  -226.182191            +0.0,-0.0,-0.0
iter: 805  21:42:25  -8.72  -5.83  -226.182193            +0.0,-0.0,-0.0
iter: 806  21:42:54  -8.49  -6.59  -226.182195            +0.0,-0.0,-0.0
iter: 807  21:43:24  -9.16  -6.07  -226.182194            +0.0,-0.0,-0.0
iter: 808  21:43:54  -8.32  -5.82  -226.182196            +0.0,-0.0,-0.0
iter: 809  21:44:23  -8.10  -6.48  -226.182197            +0.0,-0.0,-0.0
iter: 810  21:44:53  -8.84  -6.11  -226.182197            +0.0,-0.0,-0.0
iter: 811  21:45:22  -8.73  -5.84  -226.182199            +0.0,-0.0,-0.0
iter: 812  21:45:52  -8.49  -6.58  -226.182200            +0.0,-0.0,-0.0
iter: 813  21:46:21  -9.18  -6.07  -226.182199            +0.0,-0.0,-0.0
iter: 814  21:46:51  -8.34  -5.82  -226.182201            +0.0,-0.0,-0.0
iter: 815  21:47:21  -8.10  -6.48  -226.182202            +0.0,-0.0,-0.0
iter: 816  21:47:50  -8.85  -6.11  -226.182202            +0.0,-0.0,-0.0
iter: 817  21:48:20  -8.75  -5.85  -226.182204            +0.0,-0.0,-0.0
iter: 818  21:48:49  -8.50  -6.59  -226.182205            +0.0,-0.0,-0.0
iter: 819  21:49:19  -9.21  -6.07  -226.182205            +0.0,-0.0,-0.0
iter: 820  21:49:49  -8.36  -5.83  -226.182206            +0.0,-0.0,-0.0
iter: 821  21:50:18  -8.11  -6.46  -226.182208            +0.0,-0.0,-0.0
iter: 822  21:50:48  -8.87  -6.11  -226.182207            +0.0,-0.0,-0.0
iter: 823  21:51:18  -8.77  -5.85  -226.182209            +0.0,-0.0,-0.0
iter: 824  21:51:47  -8.50  -6.57  -226.182210            +0.0,-0.0,-0.0
iter: 825  21:52:17  -9.23  -6.07  -226.182210            +0.0,-0.0,-0.0
iter: 826  21:52:46  -8.38  -5.83  -226.182212            +0.0,-0.0,-0.0
iter: 827  21:53:16  -8.11  -6.46  -226.182213            +0.0,-0.0,-0.0
iter: 828  21:53:46  -8.88  -6.11  -226.182212            +0.0,-0.0,-0.0
iter: 829  21:54:15  -8.79  -5.86  -226.182214            +0.0,-0.0,-0.0
iter: 830  21:54:45  -8.50  -6.56  -226.182215            +0.0,-0.0,-0.0
iter: 831  21:55:14  -9.25  -6.06  -226.182215            +0.0,-0.0,-0.0
iter: 832  21:55:44  -8.40  -5.84  -226.182217            +0.0,-0.0,-0.0
iter: 833  21:56:14  -8.11  -6.45  -226.182218            +0.0,-0.0,-0.0
iter: 834  21:56:43  -8.90  -6.11  -226.182217            +0.0,-0.0,-0.0
iter: 835  21:57:13  -8.81  -5.87  -226.182219            +0.0,-0.0,-0.0
iter: 836  21:57:42  -8.50  -6.57  -226.182220            +0.0,-0.0,-0.0
iter: 837  21:58:12  -9.27  -6.06  -226.182220            +0.0,-0.0,-0.0
iter: 838  21:58:41  -8.42  -5.84  -226.182222            +0.0,-0.0,-0.0
iter: 839  21:59:11  -8.11  -6.43  -226.182223            +0.0,-0.0,-0.0
iter: 840  21:59:40  -8.92  -6.11  -226.182222            +0.0,-0.0,-0.0
iter: 841  22:00:10  -8.83  -5.87  -226.182224            +0.0,-0.0,-0.0
iter: 842  22:00:39  -8.50  -6.54  -226.182225            +0.0,-0.0,-0.0
iter: 843  22:01:09  -9.29  -6.07  -226.182225            +0.0,-0.0,-0.0
iter: 844  22:01:38  -8.45  -5.85  -226.182227            +0.0,-0.0,-0.0
iter: 845  22:02:08  -8.11  -6.42  -226.182228            +0.0,-0.0,-0.0
iter: 846  22:02:37  -8.93  -6.11  -226.182227            +0.0,-0.0,-0.0
iter: 847  22:03:07  -8.86  -5.88  -226.182229            +0.0,-0.0,-0.0
iter: 848  22:03:36  -8.50  -6.53  -226.182230            +0.0,-0.0,-0.0
iter: 849  22:04:06  -9.31  -6.06  -226.182230            +0.0,-0.0,-0.0
iter: 850  22:04:35  -8.47  -5.85  -226.182231            +0.0,-0.0,-0.0
iter: 851  22:05:05  -8.11  -6.40  -226.182233            +0.0,-0.0,-0.0
iter: 852  22:05:34  -8.94  -6.12  -226.182232            +0.0,-0.0,-0.0
iter: 853  22:06:04  -8.88  -5.89  -226.182234            +0.0,-0.0,-0.0
iter: 854  22:06:33  -8.50  -6.52  -226.182235            +0.0,-0.0,-0.0
iter: 855  22:07:03  -9.33  -6.06  -226.182235            +0.0,-0.0,-0.0
iter: 856  22:07:32  -8.50  -5.86  -226.182236            +0.0,-0.0,-0.0
iter: 857  22:08:02  -8.11  -6.38  -226.182237            +0.0,-0.0,-0.0
iter: 858  22:08:32  -8.95  -6.12  -226.182237            +0.0,-0.0,-0.0
iter: 859  22:09:01  -8.90  -5.90  -226.182239            +0.0,-0.0,-0.0
iter: 860  22:09:31  -8.50  -6.50  -226.182240            +0.0,-0.0,-0.0
iter: 861  22:10:00  -9.35  -6.06  -226.182239            +0.0,-0.0,-0.0
iter: 862  22:10:30  -8.53  -5.87  -226.182241            +0.0,-0.0,-0.0
iter: 863  22:11:00  -8.11  -6.36  -226.182242            +0.0,-0.0,-0.0
iter: 864  22:11:29  -8.96  -6.12  -226.182242            +0.0,-0.0,-0.0
iter: 865  22:11:59  -8.93  -5.91  -226.182243            +0.0,-0.0,-0.0
iter: 866  22:12:28  -8.50  -6.47  -226.182244            +0.0,-0.0,-0.0
iter: 867  22:12:58  -9.36  -6.06  -226.182244            +0.0,-0.0,-0.0
iter: 868  22:13:27  -8.56  -5.87  -226.182246            +0.0,-0.0,-0.0
iter: 869  22:13:57  -8.11  -6.35  -226.182247            +0.0,-0.0,-0.0
iter: 870  22:14:26  -8.97  -6.12  -226.182246            +0.0,-0.0,-0.0
iter: 871  22:14:56  -8.97  -5.92  -226.182248            +0.0,-0.0,-0.0
iter: 872  22:15:26  -8.49  -6.46  -226.182249            +0.0,-0.0,-0.0
iter: 873  22:15:55  -9.38  -6.05  -226.182249            +0.0,-0.0,-0.0
iter: 874  22:16:25  -8.59  -5.88  -226.182250            +0.0,-0.0,-0.0
iter: 875  22:16:54  -8.11  -6.32  -226.182251            +0.0,-0.0,-0.0
iter: 876  22:17:24  -8.99  -6.13  -226.182251            +0.0,-0.0,-0.0
iter: 877  22:17:53  -9.00  -5.92  -226.182252            +0.0,-0.0,-0.0
iter: 878  22:18:23  -8.49  -6.43  -226.182254            +0.0,-0.0,-0.0
iter: 879  22:18:53  -9.40  -6.06  -226.182253            +0.0,-0.0,-0.0
iter: 880  22:19:22  -8.64  -5.89  -226.182255            +0.0,-0.0,-0.0
iter: 881  22:19:52  -8.10  -6.31  -226.182256            +0.0,-0.0,-0.0
iter: 882  22:20:21  -8.99  -6.13  -226.182256            +0.0,-0.0,-0.0
iter: 883  22:20:51  -9.04  -5.93  -226.182257            +0.0,-0.0,-0.0
iter: 884  22:21:20  -8.48  -6.41  -226.182258            +0.0,-0.0,-0.0
iter: 885  22:21:49  -9.42  -6.05  -226.182258            +0.0,-0.0,-0.0
iter: 886  22:22:19  -8.69  -5.89  -226.182259            +0.0,-0.0,-0.0
iter: 887  22:22:48  -8.10  -6.28  -226.182260            +0.0,-0.0,-0.0
iter: 888  22:23:18  -9.01  -6.13  -226.182260            +0.0,-0.0,-0.0
iter: 889  22:23:47  -9.09  -5.95  -226.182261            +0.0,-0.0,-0.0
iter: 890  22:24:17  -8.47  -6.39  -226.182263            +0.0,-0.0,-0.0
iter: 891  22:24:46  -9.44  -6.05  -226.182262            +0.0,-0.0,-0.0
iter: 892  22:25:16  -8.74  -5.90  -226.182264            +0.0,-0.0,-0.0
iter: 893  22:25:46  -8.10  -6.26  -226.182265            +0.0,-0.0,-0.0
iter: 894  22:26:15  -9.02  -6.14  -226.182265            +0.0,-0.0,-0.0
iter: 895  22:26:45  -9.14  -5.96  -226.182266            +0.0,-0.0,-0.0
iter: 896  22:27:14  -8.46  -6.36  -226.182267            +0.0,-0.0,-0.0
iter: 897  22:27:44  -9.46  -6.04  -226.182267            +0.0,-0.0,-0.0
iter: 898  22:28:14  -8.80  -5.90  -226.182268            +0.0,-0.0,-0.0
iter: 899  22:28:43  -8.10  -6.23  -226.182269            +0.0,-0.0,-0.0
iter: 900  22:29:13  -9.04  -6.15  -226.182269            +0.0,-0.0,-0.0
iter: 901  22:29:42  -9.21  -5.98  -226.182270            +0.0,-0.0,-0.0
iter: 902  22:30:12  -8.43  -6.33  -226.182271            +0.0,-0.0,-0.0
iter: 903  22:30:42  -9.50  -6.03  -226.182271            +0.0,-0.0,-0.0
iter: 904  22:31:11  -8.89  -5.91  -226.182272            +0.0,-0.0,-0.0
iter: 905  22:31:41  -8.15  -6.20  -226.182273            +0.0,-0.0,-0.0
iter: 906  22:32:10  -9.07  -6.20  -226.182273            +0.0,-0.0,-0.0
iter: 907  22:32:40  -9.31  -6.02  -226.182274            +0.0,-0.0,-0.0
iter: 908  22:33:09  -8.37  -6.27  -226.182275            +0.0,-0.0,-0.0
iter: 909  22:33:39  -9.59  -5.99  -226.182275            +0.0,-0.0,-0.0
iter: 910  22:34:09  -9.10  -5.94  -226.182276            +0.0,-0.0,-0.0
iter: 911  22:34:38  -8.89  -6.08  -226.182276            +0.0,-0.0,-0.0
iter: 912  22:35:08  -8.80  -6.16  -226.182277            +0.0,-0.0,-0.0
iter: 913  22:35:37  -9.20  -6.16  -226.182277            +0.0,-0.0,-0.0
iter: 914  22:36:07  -8.87  -6.20  -226.182278            +0.0,-0.0,-0.0
iter: 915  22:36:37  -8.24  -6.25  -226.182279            +0.0,-0.0,-0.0
iter: 916  22:37:06  -9.49  -5.84  -226.182280            +0.0,-0.0,-0.0
iter: 917  22:37:36  -9.34  -6.00  -226.182280            +0.0,-0.0,-0.0
iter: 918  22:38:06  -7.62  -6.13  -226.182281            +0.0,-0.0,-0.0
iter: 919  22:38:35  -8.67  -5.74  -226.182282            +0.0,-0.0,-0.0
iter: 920  22:39:05  -9.87  -5.98  -226.182282            +0.0,-0.0,-0.0
iter: 921  22:39:35  -8.34  -6.03  -226.182283            +0.0,-0.0,-0.0
iter: 922  22:40:04  -9.08  -6.08  -226.182284            +0.0,-0.0,-0.0
iter: 923  22:40:34  -9.57  -5.93  -226.182284            +0.0,-0.0,-0.0
iter: 924  22:41:03  -9.03  -5.92  -226.182285            +0.0,-0.0,-0.0
iter: 925  22:41:33  -8.39  -6.13  -226.182286            +0.0,-0.0,-0.0
iter: 926  22:42:03  -9.13  -6.44  -226.182286            +0.0,-0.0,-0.0
iter: 927  22:42:32  -9.02  -6.16  -226.182286            +0.0,-0.0,-0.0
iter: 928  22:43:02  -8.74  -6.22  -226.182287            -0.0,-0.0,-0.0
iter: 929  22:43:31  -9.06  -6.24  -226.182288            -0.0,-0.0,-0.0
iter: 930  22:44:01  -9.88  -5.95  -226.182288            -0.0,-0.0,-0.0
iter: 931  22:44:30  -8.21  -6.00  -226.182289            -0.0,-0.0,-0.0
iter: 932  22:45:00  -9.43  -6.09  -226.182289            -0.0,-0.0,-0.0
iter: 933  22:45:29  -8.97  -6.30  -226.182290            -0.0,-0.0,-0.0
iter: 934  22:45:59  -8.67  -6.55  -226.182290            -0.0,-0.0,-0.0
iter: 935  22:46:29  -9.06  -5.88  -226.182291            -0.0,-0.0,-0.0
iter: 936  22:46:58  -8.87  -6.06  -226.182291            -0.0,-0.0,-0.0
iter: 937  22:47:28  -7.78  -6.25  -226.182292            -0.0,-0.0,-0.0
iter: 938  22:47:58  -8.86  -5.82  -226.182293            -0.0,-0.0,-0.0
iter: 939  22:48:27  -8.96  -6.03  -226.182294            -0.0,-0.0,-0.0
iter: 940  22:48:57  -8.31  -5.92  -226.182294            -0.0,-0.0,-0.0
iter: 941  22:49:26  -9.30  -5.81  -226.182295            -0.0,-0.0,-0.0
iter: 942  22:49:56  -8.84  -5.89  -226.182296            -0.0,-0.0,-0.0
iter: 943  22:50:26  -8.07  -6.18  -226.182297            -0.0,-0.0,-0.0
iter: 944  22:50:55  -9.65  -5.96  -226.182297            -0.0,-0.0,-0.0
iter: 945  22:51:25  -9.01  -6.12  -226.182298            -0.0,-0.0,-0.0
iter: 946  22:51:54  -8.65  -6.71  -226.182298            -0.0,-0.0,-0.0
iter: 947  22:52:24  -9.61  -6.00  -226.182299            -0.0,-0.0,-0.0
iter: 948  22:52:54  -8.48  -6.02  -226.182300            -0.0,-0.0,-0.0
iter: 949  22:53:23  -8.29  -6.80  -226.182300            -0.0,-0.0,-0.0
iter: 950  22:53:53  -9.67  -6.00  -226.182301            -0.0,-0.0,-0.0
iter: 951  22:54:23  -8.70  -6.10  -226.182302            -0.0,-0.0,-0.0
iter: 952  22:54:52  -8.71  -6.55  -226.182302            -0.0,-0.0,-0.0
iter: 953  22:55:22  -9.75  -5.89  -226.182303            -0.0,-0.0,-0.0
iter: 954  22:55:52  -8.47  -5.97  -226.182304            -0.0,-0.0,-0.0
iter: 955  22:56:21  -8.26  -6.65  -226.182304            -0.0,-0.0,-0.0
iter: 956  22:56:51  -9.70  -6.00  -226.182304            -0.0,-0.0,-0.0
iter: 957  22:57:21  -8.77  -6.11  -226.182306            -0.0,-0.0,-0.0
iter: 958  22:57:50  -8.69  -6.76  -226.182306            -0.0,-0.0,-0.0
iter: 959  22:58:20  -9.80  -5.89  -226.182306            -0.0,-0.0,-0.0
iter: 960  22:58:49  -8.37  -5.97  -226.182308            -0.0,-0.0,-0.0
iter: 961  22:59:19  -8.31  -6.85  -226.182308            -0.0,-0.0,-0.0
iter: 962  22:59:49  -9.72  -6.00  -226.182308            -0.0,-0.0,-0.0
[...]
iter: 2825  14:17:07 -10.00  -6.95  -226.182658            -0.0,-0.0,+0.0
iter: 2826  14:17:37 -11.09  -6.82  -226.182658            -0.0,-0.0,+0.0
iter: 2827  14:18:07  -9.90  -7.06  -226.182658            -0.0,-0.0,+0.0
iter: 2828  14:18:37  -9.67  -7.07  -226.182658            -0.0,-0.0,+0.0
iter: 2829  14:19:06 -11.07  -6.46  -226.182658            -0.0,-0.0,+0.0
iter: 2830  14:19:36 -10.21  -6.55  -226.182658            -0.0,-0.0,+0.0
iter: 2831  14:20:06 -10.01  -6.96  -226.182658            -0.0,-0.0,+0.0
iter: 2832  14:20:36 -11.10  -6.82  -226.182658            -0.0,-0.0,+0.0
iter: 2833  14:21:05  -9.90  -7.07  -226.182658            -0.0,-0.0,+0.0
iter: 2834  14:21:35  -9.68  -7.07  -226.182658            -0.0,-0.0,+0.0
iter: 2835  14:22:05 -11.07  -6.46  -226.182658            -0.0,-0.0,+0.0
iter: 2836  14:22:34 -10.20  -6.55  -226.182658            -0.0,-0.0,+0.0
iter: 2837  14:23:04 -10.02  -6.96  -226.182658            -0.0,-0.0,+0.0
iter: 2838  14:23:34 -11.10  -6.83  -226.182658            -0.0,-0.0,+0.0
iter: 2839  14:24:03  -9.90  -7.07  -226.182658            -0.0,-0.0,+0.0
iter: 2840  14:24:33  -9.69  -7.06  -226.182658            -0.0,-0.0,+0.0
iter: 2841  14:25:03 -11.08  -6.47  -226.182658            -0.0,-0.0,+0.0
iter: 2842  14:25:32 -10.20  -6.55  -226.182658            -0.0,-0.0,+0.0
iter: 2843  14:26:02 -10.03  -6.97  -226.182658            -0.0,-0.0,+0.0
iter: 2844  14:26:32 -11.11  -6.83  -226.182658            -0.0,-0.0,+0.0
iter: 2845  14:27:01  -9.90  -7.07  -226.182658            -0.0,-0.0,+0.0
iter: 2846  14:27:31  -9.70  -7.05  -226.182658            -0.0,-0.0,+0.0
iter: 2847  14:28:00 -11.09  -6.47  -226.182658            -0.0,-0.0,+0.0
iter: 2848  14:28:30 -10.20  -6.56  -226.182658            -0.0,-0.0,+0.0
iter: 2849  14:29:00 -10.04  -6.98  -226.182658            -0.0,-0.0,+0.0
iter: 2850  14:29:29 -11.11  -6.84  -226.182658            -0.0,-0.0,+0.0
iter: 2851  14:29:59  -9.89  -7.08  -226.182658            -0.0,-0.0,+0.0
iter: 2852  14:30:29  -9.71  -7.04  -226.182658            -0.0,-0.0,+0.0
iter: 2853  14:30:58 -11.10  -6.47  -226.182658            -0.0,-0.0,+0.0
iter: 2854  14:31:28 -10.19  -6.56  -226.182658            -0.0,-0.0,+0.0
iter: 2855  14:31:57 -10.05  -6.99  -226.182658            -0.0,-0.0,+0.0
iter: 2856  14:32:27 -11.12  -6.84  -226.182658            -0.0,-0.0,+0.0
iter: 2857  14:32:56  -9.89  -7.08  -226.182658            -0.0,-0.0,+0.0
iter: 2858  14:33:26  -9.72  -7.03  -226.182658            -0.0,-0.0,+0.0
iter: 2859  14:33:55 -11.10  -6.47  -226.182658            -0.0,-0.0,+0.0
iter: 2860  14:34:25 -10.19  -6.56  -226.182658            -0.0,-0.0,+0.0
iter: 2861  14:34:55 -10.07  -7.01  -226.182659            -0.0,-0.0,+0.0
iter: 2862  14:35:24 -11.12  -6.85  -226.182659            -0.0,-0.0,+0.0
iter: 2863  14:35:54  -9.88  -7.09  -226.182659            -0.0,-0.0,+0.0
iter: 2864  14:36:23  -9.74  -7.02  -226.182659            -0.0,-0.0,+0.0
iter: 2865  14:36:53 -11.11  -6.48  -226.182659            -0.0,-0.0,+0.0
iter: 2866  14:37:22 -10.18  -6.56  -226.182659            -0.0,-0.0,+0.0
iter: 2867  14:37:52 -10.09  -7.02  -226.182659            -0.0,-0.0,+0.0
iter: 2868  14:38:21 -11.13  -6.85  -226.182659            -0.0,-0.0,+0.0
iter: 2869  14:38:51  -9.87  -7.09  -226.182659            -0.0,-0.0,+0.0
iter: 2870  14:39:20  -9.76  -7.00  -226.182659            -0.0,-0.0,+0.0
iter: 2871  14:39:50 -11.12  -6.48  -226.182659            -0.0,-0.0,+0.0
iter: 2872  14:40:19 -10.17  -6.57  -226.182659            -0.0,-0.0,+0.0
iter: 2873  14:40:49 -10.11  -7.04  -226.182659            -0.0,-0.0,+0.0
iter: 2874  14:41:19 -11.13  -6.86  -226.182659            -0.0,-0.0,+0.0
iter: 2875  14:41:48  -9.86  -7.10  -226.182659            -0.0,-0.0,+0.0
iter: 2876  14:42:18  -9.78  -6.99  -226.182659            -0.0,-0.0,+0.0
iter: 2877  14:42:47 -11.13  -6.48  -226.182659            -0.0,-0.0,+0.0
iter: 2878  14:43:17 -10.16  -6.57  -226.182659            -0.0,-0.0,+0.0
iter: 2879  14:43:46 -10.13  -7.06  -226.182659            -0.0,-0.0,+0.0
iter: 2880  14:44:16 -11.13  -6.86  -226.182659            -0.0,-0.0,+0.0
iter: 2881  14:44:45  -9.85  -7.10  -226.182659            -0.0,-0.0,+0.0
iter: 2882  14:45:15  -9.80  -6.97  -226.182659            -0.0,-0.0,+0.0
iter: 2883  14:45:44 -11.13  -6.49  -226.182659            -0.0,-0.0,+0.0
iter: 2884  14:46:14 -10.15  -6.57  -226.182659            -0.0,-0.0,+0.0
iter: 2885  14:46:43 -10.15  -7.09  -226.182659            -0.0,-0.0,+0.0
iter: 2886  14:47:13 -11.13  -6.87  -226.182659            -0.0,-0.0,+0.0
iter: 2887  14:47:42  -9.83  -7.11  -226.182659            -0.0,-0.0,+0.0
iter: 2888  14:48:12  -9.82  -6.95  -226.182659            -0.0,-0.0,+0.0
iter: 2889  14:48:41 -11.14  -6.49  -226.182659            -0.0,-0.0,+0.0
iter: 2890  14:49:11 -10.13  -6.57  -226.182659            -0.0,-0.0,+0.0
iter: 2891  14:49:40 -10.18  -7.12  -226.182659            -0.0,-0.0,+0.0
iter: 2892  14:50:10 -11.13  -6.88  -226.182659            -0.0,-0.0,+0.0
iter: 2893  14:50:39  -9.81  -7.12  -226.182659            -0.0,-0.0,+0.0
iter: 2894  14:51:09  -9.85  -6.93  -226.182659            -0.0,-0.0,+0.0
iter: 2895  14:51:38 -11.15  -6.49  -226.182659            -0.0,-0.0,+0.0
iter: 2896  14:52:08 -10.12  -6.58  -226.182659            -0.0,-0.0,+0.0
iter: 2897  14:52:37 -10.21  -7.16  -226.182659            -0.0,-0.0,+0.0
iter: 2898  14:53:06 -11.13  -6.88  -226.182659            -0.0,-0.0,+0.0
iter: 2899  14:53:36  -9.80  -7.12  -226.182659            -0.0,-0.0,+0.0
iter: 2900  14:54:05  -9.89  -6.91  -226.182659            -0.0,-0.0,+0.0
iter: 2901  14:54:35 -11.15  -6.50  -226.182659            -0.0,-0.0,+0.0
iter: 2902  14:55:04 -10.10  -6.58  -226.182660            -0.0,-0.0,+0.0
iter: 2903  14:55:34 -10.25  -7.22  -226.182660            -0.0,-0.0,+0.0
iter: 2904  14:56:03 -11.13  -6.89  -226.182660            -0.0,-0.0,+0.0
iter: 2905  14:56:33  -9.77  -7.13  -226.182660            -0.0,-0.0,+0.0
iter: 2906  14:57:02  -9.93  -6.88  -226.182660            -0.0,-0.0,+0.0
iter: 2907  14:57:32 -11.16  -6.50  -226.182660            -0.0,-0.0,+0.0
iter: 2908  14:58:01 -10.07  -6.58  -226.182660            -0.0,-0.0,+0.0
iter: 2909  14:58:31 -10.29  -7.29  -226.182660            -0.0,-0.0,+0.0
iter: 2910  14:59:00 -11.12  -6.90  -226.182660            -0.0,-0.0,+0.0
iter: 2911  14:59:30  -9.75  -7.14  -226.182660            -0.0,-0.0,+0.0
iter: 2912  14:59:59  -9.97  -6.85  -226.182660            -0.0,-0.0,+0.0
iter: 2913  15:00:29 -11.17  -6.51  -226.182660            -0.0,-0.0,+0.0
iter: 2914  15:00:58 -10.05  -6.59  -226.182660            -0.0,-0.0,+0.0
iter: 2915  15:01:28 -10.34  -7.38  -226.182660            -0.0,-0.0,+0.0
iter: 2916  15:01:57 -11.11  -6.91  -226.182660            -0.0,-0.0,+0.0
iter: 2917  15:02:27  -9.72  -7.16  -226.182660            -0.0,-0.0,+0.0
iter: 2918  15:02:56 -10.03  -6.82  -226.182660            -0.0,-0.0,+0.0
iter: 2919  15:03:26 -11.17  -6.51  -226.182660            -0.0,-0.0,+0.0
iter: 2920  15:03:55 -10.02  -6.59  -226.182660            -0.0,-0.0,+0.0
iter: 2921  15:04:25 -10.41  -7.53  -226.182660            -0.0,-0.0,+0.0
iter: 2922  15:04:54 -11.10  -6.92  -226.182660            -0.0,-0.0,+0.0
iter: 2923  15:05:24  -9.69  -7.17  -226.182660            -0.0,-0.0,+0.0
iter: 2924  15:05:53 -10.09  -6.79  -226.182660            -0.0,-0.0,+0.0
iter: 2925  15:06:23 -11.17  -6.52  -226.182660            -0.0,-0.0,+0.0
iter: 2926  15:06:52  -9.98  -6.60  -226.182660            -0.0,-0.0,+0.0
iter: 2927  15:07:22 -10.48  -7.78  -226.182660            -0.0,-0.0,+0.0
iter: 2928  15:07:52 -11.09  -6.94  -226.182660            -0.0,-0.0,+0.0
iter: 2929  15:08:21  -9.66  -7.19  -226.182660            -0.0,-0.0,+0.0
iter: 2930  15:08:51 -10.18  -6.76  -226.182660            -0.0,-0.0,+0.0
iter: 2931  15:09:20 -11.17  -6.52  -226.182660            -0.0,-0.0,+0.0
iter: 2932  15:09:50  -9.95  -6.60  -226.182660            -0.0,-0.0,+0.0
iter: 2933  15:10:19 -10.58  -8.05  -226.182660            -0.0,-0.0,+0.0
iter: 2934  15:10:49 -11.08  -6.95  -226.182660            -0.0,-0.0,+0.0
iter: 2935  15:11:19  -9.63  -7.21  -226.182660            -0.0,-0.0,+0.0
iter: 2936  15:11:48 -10.28  -6.72  -226.182660            -0.0,-0.0,+0.0
iter: 2937  15:12:18 -11.17  -6.53  -226.182660            -0.0,-0.0,+0.0
iter: 2938  15:12:47  -9.90  -6.61  -226.182660            -0.0,-0.0,+0.0
iter: 2939  15:13:17 -10.70  -7.61  -226.182660            -0.0,-0.0,+0.0
iter: 2940  15:13:46 -11.06  -6.97  -226.182660            -0.0,-0.0,+0.0
iter: 2941  15:14:16  -9.59  -7.23  -226.182660            -0.0,-0.0,+0.0
iter: 2942  15:14:45 -10.41  -6.68  -226.182660            -0.0,-0.0,+0.0
iter: 2943  15:15:15 -11.17  -6.55  -226.182660            -0.0,-0.0,+0.0
iter: 2944  15:15:45  -9.84  -6.62  -226.182661            -0.0,-0.0,+0.0
iter: 2945  15:16:14 -10.90  -7.26  -226.182661            -0.0,-0.0,+0.0
iter: 2946  15:16:43 -11.04  -7.00  -226.182661            -0.0,-0.0,+0.0
iter: 2947  15:17:13  -9.61  -7.24  -226.182661            -0.0,-0.0,+0.0
iter: 2948  15:17:42 -10.56  -6.68  -226.182661            -0.0,-0.0,+0.0
iter: 2949  15:18:12 -11.01  -6.58  -226.182661            -0.0,-0.0,+0.0
iter: 2950  15:18:41 -10.26  -6.59  -226.182661            -0.0,-0.0,+0.0
iter: 2951  15:19:11 -10.33  -7.12  -226.182661            -0.0,-0.0,+0.0
iter: 2952  15:19:40 -11.43  -7.10  -226.182661            -0.0,-0.0,+0.0
iter: 2953  15:20:10 -10.45  -7.00  -226.182661            -0.0,-0.0,+0.0
iter: 2954  15:20:39  -9.60  -7.59  -226.182661            -0.0,-0.0,+0.0
iter: 2955  15:21:08 -10.85  -6.58  -226.182661            -0.0,-0.0,+0.0
iter: 2956  15:21:38 -10.30  -6.56  -226.182661            -0.0,-0.0,+0.0
iter: 2957  15:22:08 -10.18  -6.83  -226.182661            -0.0,-0.0,+0.0
iter: 2958  15:22:37 -10.94  -7.34  -226.182661            -0.0,-0.0,+0.0
iter: 2959  15:23:07 -10.21  -7.10  -226.182661            -0.0,-0.0,+0.0
iter: 2960  15:23:36 -10.17  -6.93  -226.182661            -0.0,-0.0,+0.0
iter: 2961  15:24:06 -10.02  -7.84  -226.182661            -0.0,-0.0,+0.0
iter: 2962  15:24:35 -10.53  -6.93  -226.182661            -0.0,-0.0,+0.0
iter: 2963  15:25:05 -10.51  -6.67  -226.182661            -0.0,-0.0,+0.0
iter: 2964  15:25:34 -10.23  -6.68  -226.182661            -0.0,-0.0,+0.0
iter: 2965  15:26:04 -10.27  -7.12  -226.182661            -0.0,-0.0,+0.0
iter: 2966  15:26:33 -10.60  -6.82  -226.182661            -0.0,-0.0,+0.0
iter: 2967  15:27:03  -9.87  -7.57  -226.182661            -0.0,-0.0,+0.0
iter: 2968  15:27:32  -9.97  -6.86  -226.182661            -0.0,-0.0,+0.0
iter: 2969  15:28:02 -10.73  -6.47  -226.182661            -0.0,-0.0,+0.0
iter: 2970  15:28:31 -10.15  -6.67  -226.182661            -0.0,-0.0,+0.0
iter: 2971  15:29:01 -10.31  -7.29  -226.182661            -0.0,-0.0,+0.0
iter: 2972  15:29:30 -10.60  -6.81  -226.182661            -0.0,-0.0,+0.0
iter: 2973  15:30:00  -9.86  -7.55  -226.182661            -0.0,-0.0,+0.0
iter: 2974  15:30:29 -10.00  -6.86  -226.182661            -0.0,-0.0,+0.0
iter: 2975  15:30:58 -10.73  -6.47  -226.182661            -0.0,-0.0,+0.0
iter: 2976  15:31:28 -10.14  -6.67  -226.182661            -0.0,-0.0,+0.0
iter: 2977  15:31:57 -10.33  -7.31  -226.182661            -0.0,-0.0,+0.0
iter: 2978  15:32:27 -10.60  -6.82  -226.182661            -0.0,-0.0,+0.0
iter: 2979  15:32:56  -9.86  -7.57  -226.182661            -0.0,-0.0,+0.0
iter: 2980  15:33:26 -10.02  -6.85  -226.182661            -0.0,-0.0,+0.0
iter: 2981  15:33:55 -10.75  -6.47  -226.182661            -0.0,-0.0,+0.0
iter: 2982  15:34:24 -10.14  -6.67  -226.182661            -0.0,-0.0,+0.0
iter: 2983  15:34:54 -10.35  -7.35  -226.182661            -0.0,-0.0,+0.0
iter: 2984  15:35:23 -10.61  -6.83  -226.182661            -0.0,-0.0,+0.0
iter: 2985  15:35:53  -9.86  -7.58  -226.182661            -0.0,-0.0,+0.0
iter: 2986  15:36:22 -10.04  -6.85  -226.182661            -0.0,-0.0,+0.0
iter: 2987  15:36:52 -10.76  -6.48  -226.182661            -0.0,-0.0,+0.0
iter: 2988  15:37:21 -10.14  -6.68  -226.182661            -0.0,-0.0,+0.0
iter: 2989  15:37:51 -10.37  -7.38  -226.182661            -0.0,-0.0,+0.0
iter: 2990  15:38:20 -10.61  -6.84  -226.182661            -0.0,-0.0,+0.0
iter: 2991  15:38:50  -9.85  -7.60  -226.182661            -0.0,-0.0,+0.0
iter: 2992  15:39:19 -10.06  -6.84  -226.182661            -0.0,-0.0,+0.0
iter: 2993  15:39:49 -10.77  -6.48  -226.182662            -0.0,-0.0,+0.0
iter: 2994  15:40:18 -10.13  -6.68  -226.182662            -0.0,-0.0,+0.0
iter: 2995  15:40:48 -10.40  -7.42  -226.182662            -0.0,-0.0,+0.0
iter: 2996  15:41:17 -10.62  -6.85  -226.182662            -0.0,-0.0,+0.0
iter: 2997  15:41:47  -9.85  -7.61  -226.182662            -0.0,-0.0,+0.0
iter: 2998  15:42:16 -10.09  -6.83  -226.182662            -0.0,-0.0,+0.0
iter: 2999  15:42:46 -10.78  -6.49  -226.182662            -0.0,-0.0,+0.0
iter: 3000  15:43:15 -10.13  -6.68  -226.182662            -0.0,-0.0,+0.0
iter: 3001  15:43:45 -10.42  -7.46  -226.182662            -0.0,-0.0,+0.0
iter: 3002  15:44:14 -10.62  -6.85  -226.182662            -0.0,-0.0,+0.0
iter: 3003  15:44:43  -9.84  -7.63  -226.182662            -0.0,-0.0,+0.0
iter: 3004  15:45:13 -10.11  -6.82  -226.182662            -0.0,-0.0,+0.0
iter: 3005  15:45:42 -10.79  -6.49  -226.182662            -0.0,-0.0,+0.0
iter: 3006  15:46:12 -10.13  -6.69  -226.182662            -0.0,-0.0,+0.0
iter: 3007  15:46:41 -10.45  -7.51  -226.182662            -0.0,-0.0,+0.0
iter: 3008  15:47:11 -10.62  -6.86  -226.182662            -0.0,-0.0,+0.0
iter: 3009  15:47:40  -9.84  -7.65  -226.182662            -0.0,-0.0,+0.0
iter: 3010  15:48:10 -10.14  -6.81  -226.182662            -0.0,-0.0,+0.0
iter: 3011  15:48:39 -10.80  -6.50  -226.182662            -0.0,-0.0,+0.0
iter: 3012  15:49:09 -10.12  -6.69  -226.182662            -0.0,-0.0,+0.0
iter: 3013  15:49:38 -10.48  -7.56  -226.182662            -0.0,-0.0,+0.0
iter: 3014  15:50:08 -10.62  -6.87  -226.182662            -0.0,-0.0,+0.0
iter: 3015  15:50:37  -9.83  -7.67  -226.182662            -0.0,-0.0,+0.0
iter: 3016  15:51:07 -10.16  -6.81  -226.182662            -0.0,-0.0,+0.0
iter: 3017  15:51:36 -10.81  -6.50  -226.182662            -0.0,-0.0,+0.0
iter: 3018  15:52:06 -10.12  -6.69  -226.182662            -0.0,-0.0,+0.0
iter: 3019  15:52:35 -10.50  -7.62  -226.182662            -0.0,-0.0,+0.0
iter: 3020  15:53:05 -10.63  -6.88  -226.182662            -0.0,-0.0,+0.0
iter: 3021  15:53:34  -9.83  -7.69  -226.182662            -0.0,-0.0,+0.0
iter: 3022  15:54:04 -10.19  -6.80  -226.182662            -0.0,-0.0,+0.0
iter: 3023  15:54:33 -10.82  -6.51  -226.182662            -0.0,-0.0,+0.0
iter: 3024  15:55:03 -10.12  -6.70  -226.182662            -0.0,-0.0,+0.0
iter: 3025  15:55:32 -10.53  -7.68  -226.182662            -0.0,-0.0,+0.0
iter: 3026  15:56:02 -10.63  -6.89  -226.182662            -0.0,-0.0,+0.0
iter: 3027  15:56:31  -9.82  -7.71  -226.182662            -0.0,-0.0,+0.0
iter: 3028  15:57:00 -10.22  -6.79  -226.182662            -0.0,-0.0,+0.0
iter: 3029  15:57:30 -10.82  -6.51  -226.182662            -0.0,-0.0,+0.0
iter: 3030  15:57:59 -10.11  -6.70  -226.182662            -0.0,-0.0,+0.0
iter: 3031  15:58:29 -10.56  -7.76  -226.182662            -0.0,-0.0,+0.0
iter: 3032  15:58:58 -10.63  -6.90  -226.182662            -0.0,-0.0,+0.0
iter: 3033  15:59:28  -9.82  -7.73  -226.182662            -0.0,-0.0,+0.0
iter: 3034  15:59:57 -10.25  -6.78  -226.182662            -0.0,-0.0,+0.0
iter: 3035  16:00:27 -10.83  -6.51  -226.182662            -0.0,-0.0,+0.0
iter: 3036  16:00:56 -10.11  -6.70  -226.182662            -0.0,-0.0,+0.0
iter: 3037  16:01:26 -10.59  -7.86  -226.182662            -0.0,-0.0,+0.0
iter: 3038  16:01:55 -10.63  -6.91  -226.182662            -0.0,-0.0,+0.0
iter: 3039  16:02:25  -9.82  -7.75  -226.182662            -0.0,-0.0,+0.0
iter: 3040  16:02:54 -10.28  -6.77  -226.182662            -0.0,-0.0,+0.0
iter: 3041  16:03:24 -10.84  -6.52  -226.182662            -0.0,-0.0,+0.0
iter: 3042  16:03:53 -10.11  -6.71  -226.182663            -0.0,-0.0,+0.0
iter: 3043  16:04:23 -10.62  -7.97  -226.182663            -0.0,-0.0,+0.0
iter: 3044  16:04:52 -10.63  -6.92  -226.182663            -0.0,-0.0,+0.0
iter: 3045  16:05:21  -9.81  -7.78  -226.182663            -0.0,-0.0,+0.0
iter: 3046  16:05:51 -10.31  -6.77  -226.182663            -0.0,-0.0,+0.0
iter: 3047  16:06:20 -10.85  -6.52  -226.182663            -0.0,-0.0,+0.0
iter: 3048  16:06:50 -10.10  -6.71  -226.182663            -0.0,-0.0,+0.0
iter: 3049  16:07:19 -10.65  -8.12  -226.182663            -0.0,-0.0,+0.0
iter: 3050  16:07:48 -10.64  -6.93  -226.182663            -0.0,-0.0,+0.0
iter: 3051  16:08:18  -9.81  -7.80  -226.182663            -0.0,-0.0,+0.0
iter: 3052  16:08:47 -10.34  -6.76  -226.182663            -0.0,-0.0,+0.0
iter: 3053  16:09:17 -10.86  -6.53  -226.182663            -0.0,-0.0,+0.0
iter: 3054  16:09:46 -10.10  -6.71  -226.182663            -0.0,-0.0,+0.0
iter: 3055  16:10:16 -10.68  -8.25  -226.182663            -0.0,-0.0,+0.0
iter: 3056  16:10:45 -10.64  -6.94  -226.182663            -0.0,-0.0,+0.0
iter: 3057  16:11:15  -9.80  -7.82  -226.182663            -0.0,-0.0,+0.0
iter: 3058  16:11:44 -10.37  -6.75  -226.182663            -0.0,-0.0,+0.0
iter: 3059  16:12:13 -10.87  -6.53  -226.182663            -0.0,-0.0,+0.0
iter: 3060  16:12:43 -10.10  -6.72  -226.182663            -0.0,-0.0,+0.0
iter: 3061  16:13:12 -10.71  -8.27  -226.182663            -0.0,-0.0,+0.0
iter: 3062  16:13:42 -10.65  -6.95  -226.182663            -0.0,-0.0,+0.0
iter: 3063  16:14:11  -9.80  -7.84  -226.182663            -0.0,-0.0,+0.0
iter: 3064  16:14:41 -10.40  -6.74  -226.182663            -0.0,-0.0,+0.0
iter: 3065  16:15:10 -10.87  -6.54  -226.182663            -0.0,-0.0,+0.0
iter: 3066  16:15:40 -10.09  -6.72  -226.182663            -0.0,-0.0,+0.0
iter: 3067  16:16:09 -10.75  -8.14  -226.182663            -0.0,-0.0,+0.0
iter: 3068  16:16:39 -10.65  -6.96  -226.182663            -0.0,-0.0,+0.0
iter: 3069  16:17:08  -9.79  -7.86  -226.182663            -0.0,-0.0,+0.0
iter: 3070  16:17:37 -10.43  -6.74  -226.182663            -0.0,-0.0,+0.0
iter: 3071  16:18:07 -10.88  -6.54  -226.182663            -0.0,-0.0,+0.0
iter: 3072  16:18:36 -10.09  -6.72  -226.182663            -0.0,-0.0,+0.0
iter: 3073  16:19:06 -10.78  -7.99  -226.182663            -0.0,-0.0,+0.0
iter: 3074  16:19:35 -10.66  -6.97  -226.182663            -0.0,-0.0,+0.0
iter: 3075  16:20:04  -9.79  -7.88  -226.182663            -0.0,-0.0,+0.0
iter: 3076  16:20:34 -10.46  -6.73  -226.182663            -0.0,-0.0,+0.0
iter: 3077  16:21:03 -10.90  -6.55  -226.182663            -0.0,-0.0,+0.0
iter: 3078  16:21:33 -10.09  -6.72  -226.182663            -0.0,-0.0,+0.0
iter: 3079  16:22:02 -10.82  -7.86  -226.182663            -0.0,-0.0,+0.0
iter: 3080  16:22:32 -10.67  -6.98  -226.182663            -0.0,-0.0,+0.0
iter: 3081  16:23:01  -9.78  -7.89  -226.182663            -0.0,-0.0,+0.0
iter: 3082  16:23:30 -10.50  -6.72  -226.182663            -0.0,-0.0,+0.0
iter: 3083  16:24:00 -10.91  -6.55  -226.182663            -0.0,-0.0,+0.0
iter: 3084  16:24:29 -10.08  -6.72  -226.182663            -0.0,-0.0,+0.0
iter: 3085  16:24:59 -10.85  -7.76  -226.182663            -0.0,-0.0,+0.0
iter: 3086  16:25:29 -10.68  -6.99  -226.182663            -0.0,-0.0,+0.0
iter: 3087  16:25:58  -9.78  -7.89  -226.182663            -0.0,-0.0,+0.0
iter: 3088  16:26:27 -10.53  -6.71  -226.182663            -0.0,-0.0,+0.0
iter: 3089  16:26:57 -10.93  -6.56  -226.182663            -0.0,-0.0,+0.0
iter: 3090  16:27:27 -10.07  -6.72  -226.182663            -0.0,-0.0,+0.0
iter: 3091  16:27:56 -10.89  -7.67  -226.182663            -0.0,-0.0,+0.0
iter: 3092  16:28:26 -10.70  -7.01  -226.182663            -0.0,-0.0,+0.0
iter: 3093  16:28:55  -9.77  -7.88  -226.182663            -0.0,-0.0,+0.0
iter: 3094  16:29:25 -10.57  -6.71  -226.182663            -0.0,-0.0,+0.0
