
  ___ ___ ___ _ _ _  
 |   |   |_  | | | | 
 | | | | | . | | | | 
 |__ |  _|___|_____|  21.1.1b1
 |___|_|             

User:   madkru@c176.nifl.fysik.dtu.dk
Date:   Thu May  6 12:55:02 2021
Arch:   x86_64
Pid:    155892
Python: 3.8.6
gpaw:   /home/niflheim2/cmr/WIP/stacking/venv/gpaw/gpaw (393e8a163a)
_gpaw:  /home/niflheim2/cmr/WIP/stacking/venv/gpaw/build/lib.linux-x86_64-skylake-3.8/
        _gpaw.cpython-38-x86_64-linux-gnu.so (393e8a163a)
ase:    /home/niflheim2/cmr/WIP/stacking/venv/ase/ase (version 3.22.0b1-5e85d35a81)
numpy:  /home/modules/software/SciPy-bundle/2020.11-intel-2020b/lib/python3.8/site-packages/numpy (version 1.19.4)
scipy:  /home/modules/software/SciPy-bundle/2020.11-intel-2020b/lib/python3.8/site-packages/scipy (version 1.5.4)
libxc:  4.3.4
units:  Angstrom and eV
cores: 40
OpenMP: False
OMP_NUM_THREADS: 1

Input parameters:
  convergence: {density: 1e-09}
  experimental: {magmoms: [[0. 0. 0.]
 [0. 0. 0.]
 [0. 0. 0.]
 ...
 [0. 0. 0.]
 [0. 0. 0.]
 [0. 0. 0.]],
                 soc: True}
  kpts: [4 4 6]
  maxiter: 5000
  mixer: {backend: pulay,
          beta: 0.05,
          method: difference,
          nmaxold: 3,
          weight: 100}
  mode: {ecut: 600.0,
         gammacentered: False,
         name: pw}
  occupations: {fixmagmom: False,
                name: fermi-dirac,
                width: 0.001}
  symmetry: off

System changes: positions, numbers, cell, pbc, initial_charges, initial_magmoms 

Initialize ...

O-setup:
  name: Oxygen
  id: 9b9d51c344dea68c822856295a461509
  Z: 8.0
  valence: 6
  core: 2
  charge: 0.0
  file: /home/modules/software/GPAW-setups/0.9.20000/O.LDA.gz
  compensation charges: gauss, rc=0.21, lmax=2
  cutoffs: 1.17(filt), 0.83(core),
  valence states:
                energy  radius
    2s(2.00)   -23.752   0.688
    2p(4.00)    -9.195   0.598
    *s           3.459   0.688
    *p          18.016   0.598
    *d           0.000   0.619

  Using partial waves for O as LCAO basis

Mn-setup:
  name: Manganese
  id: 0d715a8018be061a6e9ea6f2d364ac92
  Z: 25.0
  valence: 15
  core: 10
  charge: 0.0
  file: /home/modules/software/GPAW-setups/0.9.20000/Mn.LDA.gz
  compensation charges: gauss, rc=0.38, lmax=2
  cutoffs: 2.14(filt), 0.86(core),
  valence states:
                energy  radius
    3s(2.00)   -85.387   1.275
    4s(2.00)    -5.282   1.275
    3p(6.00)   -54.493   1.281
    4p(0.00)    -1.471   1.281
    3d(5.00)    -7.009   1.138
    *d          20.203   1.138

  Using partial waves for Mn as LCAO basis

P-setup:
  name: Phosphorus
  id: a5561c299094968922a179ab894d2e2d
  Z: 15.0
  valence: 5
  core: 10
  charge: 0.0
  file: /home/modules/software/GPAW-setups/0.9.20000/P.LDA.gz
  compensation charges: gauss, rc=0.30, lmax=2
  cutoffs: 1.69(filt), 1.81(core),
  valence states:
                energy  radius
    3s(2.00)   -14.015   0.953
    3p(3.00)    -5.596   0.953
    *s          13.197   0.953
    *p          21.615   0.953
    *d           0.000   0.953

  Using partial waves for P as LCAO basis

Li-setup:
  name: Lithium
  id: b73562207f97a71b6967473b66fe8b65
  Z: 3.0
  valence: 1
  core: 2
  charge: 0.0
  file: /home/modules/software/GPAW-setups/0.9.20000/Li.LDA.gz
  compensation charges: gauss, rc=0.33, lmax=2
  cutoffs: 1.91(filt), 2.55(core),
  valence states:
                energy  radius
    2s(1.00)    -2.874   1.058
    2p(0.00)    -1.126   1.058
    *s          24.338   1.058

  Using partial waves for Li as LCAO basis

Reference energy: -196157.275402

Non-collinear calculation.
Magnetic moment: (0.000000, 0.000000, 0.000000)

Convergence criteria:
  Maximum total energy change: 0.0005 eV / electron
  Maximum integral of absolute density change: 1e-09 electrons
  Maximum integral of absolute eigenstate change: 4e-08 eV^2
  Maximum number of iterations: 5000

Symmetries present (total): 1

  ( 1  0  0)
  ( 0  1  0)
  ( 0  0  1)

96 k-points: 4 x 4 x 6 Monkhorst-Pack grid
96 k-points in the irreducible part of the Brillouin zone
       k-points in crystal coordinates                weights
   0:    -0.37500000   -0.37500000   -0.41666667          1/96
   1:    -0.37500000   -0.37500000   -0.25000000          1/96
   2:    -0.37500000   -0.37500000   -0.08333333          1/96
   3:    -0.37500000   -0.37500000    0.08333333          1/96
   4:    -0.37500000   -0.37500000    0.25000000          1/96
   5:    -0.37500000   -0.37500000    0.41666667          1/96
   6:    -0.37500000   -0.12500000   -0.41666667          1/96
   7:    -0.37500000   -0.12500000   -0.25000000          1/96
   8:    -0.37500000   -0.12500000   -0.08333333          1/96
   9:    -0.37500000   -0.12500000    0.08333333          1/96
          ...
  95:     0.37500000    0.37500000    0.41666667          1/96

Wave functions: Plane wave expansion
  Cutoff energy: 600.000 eV
  Number of coefficients (min, max): 10065, 10119
  Pulay-stress correction: 0.000000 eV/Ang^3 (de/decut=0.000000)
  Using FFTW library
  ScaLapack parameters: grid=1x1, blocksize=None
  Wavefunction extrapolation:
    Improved wavefunction reuse through dual PAW basis 

  Fermi-Dirac: width=0.0010 eV

Eigensolver
   Davidson(niter=2) 

Densities:
  Coarse grid: 60*35*27 grid
  Fine grid: 120*70*54 grid
  Total Charge: 0.000000 

Density mixing:
  Method: difference
  Backend: pulay
  Linear mixing parameter: 0.05
  Mixing with 3 old densities
  Damping of long wave oscillations: 100 

Hamiltonian:
  XC and Coulomb potentials evaluated on a 120*70*54 grid
  Using the LDA Exchange-Correlation functional
 

Memory estimate:
  Process memory now: 198.97 MiB
  Calculator: 167.16 MiB
    Density: 37.88 MiB
      Arrays: 11.25 MiB
      Localized functions: 18.84 MiB
      Mixer: 7.79 MiB
    Hamiltonian: 7.90 MiB
      Arrays: 7.35 MiB
      XC: 0.00 MiB
      Poisson: 0.00 MiB
      vbar: 0.54 MiB
    Wavefunctions: 121.39 MiB
      Arrays psit_nG: 69.17 MiB
      Eigensolver: 43.02 MiB
      Projections: 2.41 MiB
      Projectors: 4.31 MiB
      PW-descriptor: 2.47 MiB

Total number of cores used: 40
Parallelization over k-points: 40

Number of atoms: 28
Number of atomic orbitals: 148
Number of bands in calculation: 224
Number of valence electrons: 180
Bands to converge: occupied

... initialized

Initializing position-dependent things.

Density initialized from atomic densities
Creating initial wave functions:
  148 bands from LCAO basis set
  76 bands from random numbers

     .-------------------------.  
    /|          P  O           |  
   / |O      O                 |  
  / O|            O       O  P |  
 *   |   O           MO        |  
 |   |       Li O            O |  
 |  Mn---------------OP-----Li-.  
 |  /   On Li             O   /   
 | /   O P   O      O     Li /    
 |/               Mn        /     
 *-------------------------*      

Positions:
   0 O   416155308248.509277    0.297175    1.113114    ( 0.0000,  0.0000,  0.0000)
   1 O   416155308246.775452    5.731074    3.475443    ( 0.0000,  0.0000,  0.0000)
   2 O   416155308252.064209    3.431114    3.893496    ( 0.0000,  0.0000,  0.0000)
   3 O   416155308253.781738    2.711330    1.497722    ( 0.0000,  0.0000,  0.0000)
   4 O   416155308251.920044    5.897271    3.870513    ( 0.0000,  0.0000, -3.0000)
   5 O   416155308253.662476    0.242266    1.517284    ( 0.0000,  0.0000,  3.0000)
   6 O   416155308248.448853    2.769608    1.112238    ( 0.0000,  0.0000,  3.0000)
   7 O   416155308246.748962    3.273427    3.472724    ( 0.0000,  0.0000, -3.0000)
   8 O   416155308245.443909    1.401107    1.523103    ( 0.0000,  0.0000,  0.0000)
   9 O   416155308249.808838    4.550625    3.895805    ( 0.0000,  0.0000,  0.0000)
  10 O   416155308255.038574    4.529414    3.451566    ( 0.0000,  0.0000,  0.0000)
  11 O   416155308250.654663    1.591233    1.089491    ( 0.0000,  0.0000,  0.0000)
  12 Mn  416155308247.295410    1.463613    2.514463    ( 0.0000,  0.0000,  0.0000)
  13 Mn  416155308247.951904    4.579206    0.132013    ( 5.0000,  0.0000,  0.0000)
  14 Mn  416155308253.181824    4.520768    2.377073    (-5.0000,  0.0000,  0.0000)
  15 Mn  416155308252.505981    1.567683    4.758019    (-5.0000,  0.0000,  0.0000)
  16 P   416155308249.220825    1.550817    0.476947    ( 5.0000,  0.0000,  0.0000)
  17 P   416155308246.010864    4.507207    2.836712    ( 0.0000,  0.0000,  0.0000)
  18 P   416155308251.242065    4.631071    4.485203    ( 0.0000,  0.0000,  0.0000)
  19 P   416155308254.470581    1.446517    2.112923    ( 0.0000,  0.0000,  0.0000)
  20 O   416155308249.200684    1.536036    3.691355    ( 0.0000,  0.0000,  0.0000)
  21 O   416155308246.021851    4.514596    1.310754    ( 0.0000,  0.0000,  0.0000)
  22 O   416155308251.256470    4.614440    1.292734    ( 0.0000,  0.0000,  0.0000)
  23 O   416155308254.465210    1.468453    3.660616    ( 0.0000,  0.0000,  0.0000)
  24 Li  416155308244.991516   -0.045835    0.025531    ( 0.0000,  0.0000,  0.0000)
  25 Li  416155308250.301819    0.028608    2.412386    ( 0.0000,  0.0000,  0.0000)
  26 Li  416155308245.021973    2.965227    0.045710    ( 0.0000,  0.0000,  0.0000)
  27 Li  416155308250.170959    3.117977    2.406061    ( 0.0000,  0.0000,  0.0000)

Unit cell:
           periodic     x           y           z      points  spacing
  1. axis:    yes   10.460000    0.000000    0.000000    60     0.1743
  2. axis:    yes    0.000000    6.100000    0.000000    35     0.1743
  3. axis:    yes    0.000000    0.000000    4.740000    27     0.1756

  Lengths:  10.460000   6.100000   4.740000
  Angles:   90.000000  90.000000  90.000000

Effective grid spacing dv^(1/3) = 0.1747

                     log10-error:    total        iterations:
           time      wfs    density  energy       poisson
iter:   1  12:57:41                -259.796401            -1.0,+0.0,+0.0
iter:   2  12:58:17  -0.40  -0.89  -266.628021            +1.0,-0.0,+0.2
iter:   3  12:58:53  -0.87  -0.94  -255.277900            +0.0,-0.0,-0.0
iter:   4  12:59:29  -0.63  -0.97  -236.053479            -0.0,+0.0,-0.0
iter:   5  13:00:05  -0.40  -1.08  -233.485494            -0.0,+0.0,-0.0
iter:   6  13:00:41  -1.57  -1.25  -222.098913            -0.0,+0.0,-0.0
iter:   7  13:01:17  -2.30  -1.35  -222.348351            -0.0,+0.0,-0.0
iter:   8  13:01:53  -3.32  -1.34  -221.958214            +0.0,-0.0,-0.0
iter:   9  13:02:29  -2.01  -1.37  -222.145142            -0.5,-0.0,-0.1
iter:  10  13:03:05  -2.16  -1.43  -221.886629            -0.5,-0.0,-0.1
iter:  11  13:03:41  -2.84  -1.57  -223.044703            -1.2,-0.0,-0.1
iter:  12  13:04:17  -2.49  -1.58  -223.286288            -1.1,-0.1,-0.2
iter:  13  13:04:53  -2.64  -1.64  -223.474240            -1.4,-0.1,-0.2
iter:  14  13:05:29  -2.60  -1.72  -224.979702            -1.0,-0.1,-0.3
iter:  15  13:06:04  -2.82  -1.71  -226.205042            -1.0,-0.2,-0.4
iter:  16  13:06:40  -2.08  -1.72  -226.549794            -0.3,-0.2,-0.5
iter:  17  13:07:16  -2.12  -1.87  -226.403045            -0.1,-0.2,-0.4
iter:  18  13:07:52  -3.24  -2.10  -226.316858            +0.0,-0.2,-0.4
iter:  19  13:08:28  -2.99  -2.22  -226.229991            +0.0,-0.2,-0.4
iter:  20  13:09:04  -3.74  -2.49  -226.219903            +0.0,-0.2,-0.4
iter:  21  13:09:40  -4.30  -2.49  -226.214816            -0.0,-0.2,-0.4
iter:  22  13:10:16  -3.68  -2.50  -226.196073            +0.0,-0.2,-0.4
iter:  23  13:10:52  -4.34  -2.63  -226.194416            +0.0,-0.2,-0.4
iter:  24  13:11:28  -4.48  -2.65  -226.194064            +0.0,-0.2,-0.4
iter:  25  13:12:04  -4.52  -2.69  -226.193977            +0.0,-0.2,-0.4
iter:  26  13:12:40  -4.76  -2.79  -226.194371            +0.0,-0.2,-0.4
iter:  27  13:13:16  -4.16  -2.86  -226.191684            +0.0,-0.2,-0.4
iter:  28  13:13:52  -5.50  -3.40  -226.191350            +0.0,-0.2,-0.4
iter:  29  13:14:27  -5.19  -3.45  -226.191014            +0.0,-0.2,-0.4
iter:  30  13:15:03  -5.36  -3.56  -226.191005            +0.0,-0.2,-0.4
iter:  31  13:15:39  -5.60  -3.59  -226.190810            +0.0,-0.2,-0.4
iter:  32  13:16:15  -6.27  -3.66  -226.190783            +0.0,-0.2,-0.4
iter:  33  13:16:51  -6.08  -3.69  -226.190725            +0.0,-0.2,-0.4
iter:  34  13:17:27  -6.54  -3.97  -226.190704            +0.0,-0.2,-0.4
iter:  35  13:18:03  -6.01  -4.02  -226.190732            +0.0,-0.2,-0.4
iter:  36  13:18:38  -6.03  -4.06  -226.190749            +0.0,-0.2,-0.3
iter:  37  13:19:14  -5.33  -4.19  -226.190798            +0.0,-0.2,-0.2
iter:  38  13:19:50  -5.58  -4.25  -226.190803            +0.0,-0.2,-0.1
iter:  39  13:20:26  -6.37  -4.30  -226.190818            +0.0,-0.2,-0.1
iter:  40  13:21:02  -7.33  -4.39  -226.190821            -0.0,-0.2,-0.1
iter:  41  13:21:38  -7.32  -4.46  -226.190822            -0.0,-0.1,-0.1
iter:  42  13:22:14  -7.41  -4.54  -226.190822            -0.0,-0.2,-0.1
iter:  43  13:22:49  -6.58  -4.59  -226.190826            -0.0,-0.1,-0.1
iter:  44  13:23:25  -7.62  -4.72  -226.190826            -0.0,-0.1,-0.1
iter:  45  13:24:01  -7.79  -4.75  -226.190826            -0.0,-0.1,-0.1
iter:  46  13:24:37  -8.82  -4.95  -226.190826            -0.0,-0.1,-0.1
iter:  47  13:25:13  -8.98  -5.04  -226.190826            -0.0,-0.1,-0.1
iter:  48  13:25:48  -8.96  -5.11  -226.190826            -0.0,-0.1,-0.1
iter:  49  13:26:24  -8.19  -5.18  -226.190826            -0.0,-0.1,-0.1
iter:  50  13:27:00  -6.64  -5.24  -226.190829            -0.0,-0.1,-0.1
iter:  51  13:27:36  -6.66  -5.32  -226.190830            -0.0,-0.0,-0.1
iter:  52  13:28:12  -7.11  -5.36  -226.190831            -0.0,-0.0,-0.1
iter:  53  13:28:47  -7.33  -5.55  -226.190832            -0.0,-0.0,-0.1
iter:  54  13:29:23  -7.59  -5.67  -226.190832            -0.0,-0.0,-0.1
iter:  55  13:29:59  -7.07  -5.75  -226.190832            -0.0,-0.0,-0.0
iter:  56  13:30:34  -6.85  -5.80  -226.190832            -0.0,-0.0,-0.0
iter:  57  13:31:10  -7.86  -5.88  -226.190832            -0.0,-0.0,-0.0
iter:  58  13:31:46  -8.64  -5.94  -226.190832            -0.0,-0.0,-0.0
iter:  59  13:32:22  -9.39  -6.00  -226.190832            -0.0,-0.0,-0.0
iter:  60  13:32:57  -8.95  -6.05  -226.190832            -0.0,-0.0,-0.0
iter:  61  13:33:33  -9.54  -6.11  -226.190832            -0.0,-0.0,-0.0
iter:  62  13:34:09  -7.87  -6.21  -226.190832            -0.0,+0.0,-0.0
iter:  63  13:34:44  -8.18  -6.26  -226.190832            -0.0,+0.0,-0.0
iter:  64  13:35:20  -7.63  -6.35  -226.190832            -0.0,+0.0,-0.0
iter:  65  13:35:56  -7.47  -6.40  -226.190832            -0.0,+0.0,-0.0
iter:  66  13:36:31  -8.28  -6.52  -226.190832            -0.0,+0.0,+0.0
iter:  67  13:37:07  -9.01  -6.72  -226.190832            -0.0,+0.0,-0.0
iter:  68  13:37:43  -8.33  -6.60  -226.190832            -0.0,+0.0,+0.0
iter:  69  13:38:18  -8.90  -6.64  -226.190832            -0.0,+0.0,+0.0
iter:  70  13:38:54  -9.55  -6.61  -226.190832            -0.0,+0.0,+0.0
iter:  71  13:39:30 -10.56  -6.66  -226.190832            -0.0,+0.0,+0.0
iter:  72  13:40:05 -10.13  -6.95  -226.190832            -0.0,+0.0,+0.0
iter:  73  13:40:41 -10.36  -6.97  -226.190832            -0.0,+0.0,+0.0
iter:  74  13:41:17  -9.20  -7.10  -226.190832            -0.0,+0.0,+0.0
iter:  75  13:41:52  -8.61  -7.23  -226.190832            -0.0,+0.0,+0.0
iter:  76  13:42:28  -8.28  -7.26  -226.190832            -0.0,+0.0,+0.0
iter:  77  13:43:03  -8.33  -7.26  -226.190832            -0.0,+0.0,+0.0
iter:  78  13:43:39  -8.60  -7.18  -226.190832            -0.0,+0.0,+0.0
iter:  79  13:44:15  -8.74  -7.16  -226.190832            -0.0,+0.0,+0.0
iter:  80  13:44:50  -8.96  -7.26  -226.190832            +0.0,+0.0,+0.0
iter:  81  13:45:26  -8.29  -7.29  -226.190832            -0.0,+0.0,+0.0
iter:  82  13:46:02  -9.20  -7.39  -226.190832            +0.0,+0.0,+0.0
iter:  83  13:46:37  -7.76  -7.51  -226.190832            +0.0,+0.0,+0.0
iter:  84  13:47:13  -7.95  -7.59  -226.190832            +0.0,+0.0,+0.0
iter:  85  13:47:48  -8.95  -7.34  -226.190832            +0.0,+0.0,+0.0
iter:  86  13:48:24  -8.42  -7.46  -226.190832            +0.0,+0.0,+0.0
iter:  87  13:48:59  -8.88  -7.49  -226.190832            +0.0,+0.0,+0.0
iter:  88  13:49:35  -8.77  -7.17  -226.190832            +0.0,+0.0,+0.0
iter:  89  13:50:11  -8.77  -7.64  -226.190832            +0.0,+0.0,+0.0
iter:  90  13:50:46  -7.78  -7.66  -226.190832            +0.0,+0.0,+0.0
iter:  91  13:51:22  -7.97  -7.25  -226.190832            +0.0,+0.0,+0.0
iter:  92  13:51:58  -8.62  -7.62  -226.190832            +0.0,+0.0,+0.0
iter:  93  13:52:33  -7.88  -7.44  -226.190832            +0.0,+0.0,+0.0
iter:  94  13:53:09  -8.51  -7.88  -226.190832            +0.0,+0.0,+0.0
iter:  95  13:53:44  -9.52  -7.74  -226.190832            +0.0,+0.0,+0.0
iter:  96  13:54:20  -8.58  -7.73  -226.190832            +0.0,+0.0,+0.0
iter:  97  13:54:56  -8.97  -7.59  -226.190832            +0.0,+0.0,+0.0
iter:  98  13:55:31  -9.41  -7.89  -226.190832            +0.0,+0.0,+0.0
iter:  99  13:56:07  -8.76  -7.70  -226.190832            +0.0,+0.0,+0.0
iter: 100  13:56:43  -8.60  -7.85  -226.190832            +0.0,+0.0,+0.0
iter: 101  13:57:19  -8.04  -8.21  -226.190832            +0.0,+0.0,+0.0
iter: 102  13:57:54  -8.73  -7.65  -226.190832            +0.0,+0.0,+0.0
iter: 103  13:58:30  -7.78  -7.60  -226.190832            +0.0,+0.0,+0.0
iter: 104  13:59:06  -8.05  -8.05  -226.190832            +0.0,+0.0,+0.0
iter: 105  13:59:41  -8.83  -7.79  -226.190832            +0.0,+0.0,+0.0
iter: 106  14:00:17  -8.44  -8.07  -226.190832            +0.0,+0.0,+0.0
iter: 107  14:00:53  -7.70  -7.64  -226.190832            +0.0,+0.0,+0.0
iter: 108  14:01:29  -9.32  -7.36  -226.190832            +0.0,+0.0,+0.0
iter: 109  14:02:04  -9.08  -7.19  -226.190832            +0.0,+0.0,+0.0
iter: 110  14:02:40  -8.31  -7.61  -226.190832            +0.0,+0.0,+0.0
iter: 111  14:03:16  -8.47  -7.89  -226.190833            +0.0,+0.0,+0.0
iter: 112  14:03:51  -7.92  -7.90  -226.190833            +0.0,+0.0,+0.0
iter: 113  14:04:27  -8.15  -7.39  -226.190833            +0.0,+0.0,+0.0
iter: 114  14:05:03  -8.08  -7.58  -226.190833            +0.0,+0.0,+0.0
iter: 115  14:05:38  -8.54  -7.87  -226.190833            +0.0,+0.0,+0.0
iter: 116  14:06:14  -8.25  -7.93  -226.190833            +0.0,+0.0,+0.0
iter: 117  14:06:50  -8.47  -7.87  -226.190833            +0.0,+0.0,+0.0
iter: 118  14:07:25  -8.55  -7.75  -226.190833            +0.0,+0.0,+0.0
iter: 119  14:08:01  -9.00  -7.58  -226.190833            +0.0,+0.0,+0.0
iter: 120  14:08:37  -9.03  -7.83  -226.190833            +0.0,+0.0,+0.0
iter: 121  14:09:12  -7.32  -7.86  -226.190834            +0.0,+0.0,+0.0
iter: 122  14:09:48  -7.85  -7.37  -226.190834            +0.0,+0.0,+0.0
iter: 123  14:10:24  -9.34  -7.23  -226.190834            +0.0,+0.0,+0.0
iter: 124  14:10:59  -9.23  -7.31  -226.190834            +0.0,+0.0,+0.0
iter: 125  14:11:35  -9.66  -7.64  -226.190834            +0.0,+0.0,+0.0
iter: 126  14:12:11  -9.24  -7.64  -226.190834            +0.0,+0.0,+0.0
iter: 127  14:12:47  -8.01  -7.87  -226.190834            +0.0,+0.0,+0.0
iter: 128  14:13:22  -9.02  -7.88  -226.190834            +0.0,+0.0,+0.0
iter: 129  14:13:58  -9.77  -7.80  -226.190834            +0.0,+0.0,+0.0
iter: 130  14:14:34  -8.63  -8.00  -226.190834            +0.0,+0.0,+0.0
iter: 131  14:15:09  -8.06  -8.02  -226.190834            +0.0,+0.0,+0.0
iter: 132  14:15:45  -7.49  -7.02  -226.190835            +0.0,+0.0,-0.0
iter: 133  14:16:21  -8.13  -7.42  -226.190835            +0.0,+0.0,+0.0
iter: 134  14:16:56  -8.25  -7.35  -226.190835            +0.0,+0.0,-0.0
iter: 135  14:17:32  -9.25  -7.84  -226.190835            +0.0,+0.0,-0.0
iter: 136  14:18:08 -10.50  -7.85  -226.190835            +0.0,+0.0,-0.0
iter: 137  14:18:44  -9.82  -7.82  -226.190835            +0.0,+0.0,-0.0
iter: 138  14:19:19  -9.42  -7.82  -226.190835            +0.0,+0.0,-0.0
iter: 139  14:19:55  -9.16  -7.86  -226.190835            +0.0,+0.0,-0.0
iter: 140  14:20:31  -8.26  -7.77  -226.190835            +0.0,+0.0,-0.0
iter: 141  14:21:07  -7.78  -8.23  -226.190835            +0.0,+0.0,-0.0
iter: 142  14:21:42  -8.54  -7.76  -226.190835            +0.0,+0.0,-0.0
iter: 143  14:22:18  -8.94  -7.75  -226.190835            +0.0,+0.0,-0.0
iter: 144  14:22:54  -9.27  -8.19  -226.190835            +0.0,+0.0,-0.0
iter: 145  14:23:30  -8.79  -7.84  -226.190835            +0.0,+0.0,-0.0
iter: 146  14:24:06  -8.67  -7.99  -226.190835            +0.0,+0.0,-0.0
iter: 147  14:24:41  -8.94  -8.00  -226.190835            +0.0,+0.0,-0.0
iter: 148  14:25:17  -9.39  -8.01  -226.190835            +0.0,+0.0,-0.0
iter: 149  14:25:53  -9.89  -7.80  -226.190835            +0.0,+0.0,-0.0
iter: 150  14:26:29  -9.61  -7.85  -226.190835            +0.0,+0.0,-0.0
iter: 151  14:27:05  -9.66  -7.78  -226.190835            +0.0,+0.0,-0.0
iter: 152  14:27:40  -8.28  -7.71  -226.190835            +0.0,+0.0,-0.0
iter: 153  14:28:16  -8.49  -7.96  -226.190835            +0.0,+0.0,-0.0
iter: 154  14:28:52  -8.67  -7.98  -226.190835            +0.0,+0.0,-0.0
iter: 155  14:29:28  -9.03  -8.04  -226.190835            +0.0,+0.0,-0.0
iter: 156  14:30:04  -9.15  -8.30  -226.190835            +0.0,+0.0,-0.0
iter: 157  14:30:39 -10.63  -8.08  -226.190835            +0.0,+0.0,-0.0
iter: 158  14:31:15  -9.54  -7.96  -226.190836            +0.0,+0.0,-0.0
iter: 159  14:31:51 -10.63  -7.84  -226.190836            +0.0,+0.0,-0.0
iter: 160  14:32:27 -11.19  -7.82  -226.190836            +0.0,+0.0,-0.0
iter: 161  14:33:03 -10.40  -7.95  -226.190835            +0.0,+0.0,-0.0
iter: 162  14:33:38 -10.40  -8.11  -226.190836            +0.0,+0.0,-0.0
iter: 163  14:34:14  -9.06  -8.41  -226.190836            +0.0,+0.0,-0.0
iter: 164  14:34:50  -8.44  -8.41  -226.190836            +0.0,+0.0,-0.0
iter: 165  14:35:26  -8.32  -7.94  -226.190836            +0.0,+0.0,-0.0
iter: 166  14:36:02  -8.80  -7.68  -226.190836            +0.0,+0.0,-0.0
iter: 167  14:36:37  -8.85  -7.69  -226.190836            +0.0,+0.0,-0.0
iter: 168  14:37:13 -10.29  -7.98  -226.190836            +0.0,+0.0,-0.0
iter: 169  14:37:49 -10.21  -8.26  -226.190836            +0.0,+0.0,-0.0
iter: 170  14:38:25  -8.51  -8.26  -226.190836            +0.0,+0.0,-0.0
iter: 171  14:39:00  -9.02  -8.14  -226.190836            +0.0,+0.0,-0.0
iter: 172  14:39:36  -9.01  -8.06  -226.190836            +0.0,+0.0,-0.0
iter: 173  14:40:12  -9.64  -7.94  -226.190836            +0.0,+0.0,-0.0
iter: 174  14:40:48  -9.00  -7.96  -226.190836            +0.0,+0.0,-0.0
iter: 175  14:41:23  -8.98  -8.21  -226.190836            +0.0,+0.0,-0.0
iter: 176  14:41:59  -9.67  -7.85  -226.190836            +0.0,+0.0,-0.0
iter: 177  14:42:35  -9.56  -8.24  -226.190836            +0.0,+0.0,-0.0
iter: 178  14:43:11  -9.42  -8.05  -226.190836            +0.0,+0.0,-0.0
iter: 179  14:43:47  -8.18  -8.25  -226.190836            +0.0,+0.0,-0.0
iter: 180  14:44:22  -8.93  -7.86  -226.190836            +0.0,+0.0,-0.0
iter: 181  14:44:58  -9.38  -7.97  -226.190836            +0.0,+0.0,-0.0
iter: 182  14:45:34 -10.53  -7.92  -226.190836            +0.0,+0.0,-0.0
iter: 183  14:46:10 -10.60  -8.04  -226.190836            +0.0,+0.0,-0.0
iter: 184  14:46:46  -9.20  -8.22  -226.190836            +0.0,+0.0,-0.0
iter: 185  14:47:21  -8.82  -8.19  -226.190836            +0.0,+0.0,+0.0
iter: 186  14:47:57  -8.60  -8.03  -226.190835            +0.0,+0.0,+0.0
iter: 187  14:48:33  -8.57  -7.83  -226.190835            +0.0,+0.0,+0.0
iter: 188  14:49:09  -9.76  -7.66  -226.190835            +0.0,+0.0,+0.0
iter: 189  14:49:44 -10.51  -7.76  -226.190835            +0.0,+0.0,+0.0
iter: 190  14:50:20 -10.78  -8.05  -226.190835            +0.0,+0.0,+0.0
iter: 191  14:50:56 -11.45  -8.10  -226.190835            +0.0,+0.0,+0.0
iter: 192  14:51:32  -9.02  -8.11  -226.190835            +0.0,+0.0,+0.0
iter: 193  14:52:07 -10.09  -8.30  -226.190835            +0.0,+0.0,+0.0
iter: 194  14:52:43 -10.95  -8.31  -226.190835            +0.0,+0.0,+0.0
iter: 195  14:53:19  -9.96  -8.39  -226.190835            +0.0,+0.0,+0.0
iter: 196  14:53:55  -9.83  -8.11  -226.190835            +0.0,+0.0,+0.0
iter: 197  14:54:30  -8.89  -8.08  -226.190835            +0.0,+0.0,+0.0
iter: 198  14:55:06  -9.42  -8.21  -226.190835            +0.0,+0.0,+0.0
iter: 199  14:55:42  -7.89  -8.22  -226.190835            +0.0,+0.0,+0.0
iter: 200  14:56:18  -8.05  -7.73  -226.190835            +0.0,+0.0,+0.0
iter: 201  14:56:53  -9.09  -8.41  -226.190835            +0.0,+0.0,+0.0
iter: 202  14:57:29  -9.82  -8.14  -226.190835            +0.0,+0.0,+0.0
iter: 203  14:58:05  -9.85  -8.33  -226.190835            +0.0,+0.0,+0.0
iter: 204  14:58:41  -8.47  -8.22  -226.190835            +0.0,+0.0,+0.0
iter: 205  14:59:17  -9.71  -8.49  -226.190835            +0.0,+0.0,+0.0
iter: 206  14:59:52 -10.56  -8.48  -226.190835            +0.0,+0.0,+0.0
iter: 207  15:00:28 -10.70  -8.66  -226.190835            +0.0,+0.0,+0.0
iter: 208  15:01:04 -10.24  -8.83  -226.190835            +0.0,+0.0,+0.0
iter: 209  15:01:40  -9.46  -8.36  -226.190835            +0.0,+0.0,+0.0
iter: 210  15:02:15 -10.00  -8.68  -226.190835            +0.0,+0.0,+0.0
iter: 211  15:02:51  -9.73  -8.74  -226.190835            +0.0,+0.0,+0.0
iter: 212  15:03:27  -9.47  -8.97  -226.190835            +0.0,+0.0,+0.0
iter: 213  15:04:02  -9.17  -8.25  -226.190835            +0.0,+0.0,+0.0
iter: 214  15:04:38  -8.34  -8.26  -226.190835            +0.0,+0.0,+0.0
iter: 215  15:05:14  -9.58  -8.42  -226.190835            +0.0,+0.0,+0.0
iter: 216  15:05:49 -10.25  -8.36  -226.190835            +0.0,+0.0,+0.0
iter: 217  15:06:25 -10.59  -8.56  -226.190835            +0.0,+0.0,+0.0
iter: 218  15:07:01 -11.26  -8.45  -226.190835            +0.0,+0.0,+0.0
iter: 219  15:07:36  -9.59  -8.33  -226.190835            +0.0,+0.0,+0.0
iter: 220  15:08:12  -9.93  -8.54  -226.190835            +0.0,+0.0,+0.0
iter: 221  15:08:48  -9.68  -8.58  -226.190835            +0.0,+0.0,+0.0
iter: 222  15:09:23  -8.63  -8.52  -226.190835            +0.0,+0.0,+0.0
iter: 223  15:09:59  -9.03  -8.07  -226.190835            +0.0,+0.0,+0.0
iter: 224  15:10:35  -8.86  -8.19  -226.190835            +0.0,+0.0,+0.0
iter: 225  15:11:11  -8.54  -7.81  -226.190835            +0.0,+0.0,+0.0
iter: 226  15:11:46  -9.36  -8.40  -226.190835            +0.0,+0.0,+0.0
iter: 227  15:12:22  -8.95  -8.43  -226.190835            +0.0,+0.0,+0.0
iter: 228  15:12:58  -8.83  -7.99  -226.190835            +0.0,+0.0,+0.0
iter: 229  15:13:33 -10.24  -8.40  -226.190835            +0.0,+0.0,+0.0
iter: 230  15:14:09  -9.35  -8.13  -226.190835            +0.0,+0.0,+0.0
iter: 231  15:14:45 -10.41  -8.42  -226.190835            +0.0,+0.0,+0.0
iter: 232  15:15:21 -10.38  -8.41  -226.190835            +0.0,+0.0,+0.0
iter: 233  15:15:56  -9.35  -8.35  -226.190835            +0.0,+0.0,+0.0
iter: 234  15:16:32  -9.62  -8.37  -226.190835            +0.0,+0.0,+0.0
iter: 235  15:17:07  -9.58  -8.38  -226.190835            +0.0,+0.0,+0.0
iter: 236  15:17:43  -9.01  -8.32  -226.190835            +0.0,+0.0,+0.0
iter: 237  15:18:19  -9.20  -8.26  -226.190835            +0.0,+0.0,+0.0
iter: 238  15:18:55  -8.84  -8.36  -226.190835            +0.0,+0.0,+0.0
iter: 239  15:19:30  -9.31  -8.23  -226.190835            +0.0,+0.0,+0.0
iter: 240  15:20:06  -8.37  -8.22  -226.190835            +0.0,+0.0,+0.0
iter: 241  15:20:42  -9.79  -8.12  -226.190835            +0.0,+0.0,+0.0
iter: 242  15:21:17  -9.81  -8.28  -226.190835            +0.0,+0.0,+0.0
iter: 243  15:21:53  -9.54  -8.40  -226.190835            +0.0,+0.0,+0.0
iter: 244  15:22:29 -10.59  -8.36  -226.190835            +0.0,+0.0,+0.0
iter: 245  15:23:04 -10.41  -8.29  -226.190835            +0.0,+0.0,+0.0
iter: 246  15:23:40  -9.58  -8.34  -226.190835            +0.0,+0.0,+0.0
iter: 247  15:24:16  -9.58  -8.39  -226.190835            +0.0,+0.0,+0.0
iter: 248  15:24:52  -9.33  -8.38  -226.190835            +0.0,+0.0,+0.0
iter: 249  15:25:27  -9.55  -8.34  -226.190835            +0.0,+0.0,+0.0
iter: 250  15:26:03  -9.54  -8.38  -226.190835            +0.0,+0.0,+0.0
iter: 251  15:26:39  -9.53  -8.09  -226.190835            +0.0,+0.0,+0.0
iter: 252  15:27:14  -9.00  -8.31  -226.190836            +0.0,+0.0,+0.0
iter: 253  15:27:50  -9.65  -8.18  -226.190836            +0.0,+0.0,+0.0
iter: 254  15:28:26  -9.42  -8.24  -226.190836            +0.0,+0.0,+0.0
iter: 255  15:29:01 -10.15  -8.42  -226.190836            +0.0,+0.0,+0.0
iter: 256  15:29:37 -10.69  -8.60  -226.190836            +0.0,+0.0,+0.0
iter: 257  15:30:13  -9.68  -8.51  -226.190836            +0.0,+0.0,+0.0
iter: 258  15:30:49  -9.50  -8.50  -226.190836            +0.0,+0.0,+0.0
iter: 259  15:31:24 -10.76  -8.55  -226.190836            +0.0,+0.0,+0.0
iter: 260  15:32:00 -10.95  -8.54  -226.190836            +0.0,+0.0,+0.0
iter: 261  15:32:35 -10.95  -8.56  -226.190836            +0.0,+0.0,+0.0
iter: 262  15:33:11 -10.34  -8.55  -226.190836            +0.0,+0.0,+0.0
iter: 263  15:33:47  -9.86  -8.47  -226.190836            +0.0,+0.0,+0.0
iter: 264  15:34:22 -10.02  -8.55  -226.190836            +0.0,+0.0,+0.0
iter: 265  15:34:58  -9.40  -8.57  -226.190836            +0.0,+0.0,+0.0
iter: 266  15:35:33  -9.22  -8.57  -226.190836            +0.0,+0.0,+0.0
iter: 267  15:36:09 -10.66  -8.63  -226.190836            +0.0,+0.0,+0.0
iter: 268  15:36:44 -11.44  -8.70  -226.190836            +0.0,+0.0,+0.0
iter: 269  15:37:20 -11.35  -8.80  -226.190836            +0.0,+0.0,+0.0
iter: 270  15:37:56 -11.31  -8.71  -226.190836            +0.0,+0.0,+0.0
iter: 271  15:38:31 -10.25  -8.78  -226.190836            +0.0,+0.0,+0.0
iter: 272  15:39:07 -10.34  -8.89  -226.190836            +0.0,+0.0,+0.0
iter: 273  15:39:43  -9.72  -8.91  -226.190836            +0.0,+0.0,+0.0
iter: 274  15:40:18 -10.02  -8.71  -226.190836            +0.0,+0.0,+0.0
iter: 275  15:40:54 -10.95  -8.60  -226.190836            +0.0,+0.0,+0.0
iter: 276  15:41:30 -10.99  -8.70  -226.190836            +0.0,+0.0,+0.0
iter: 277  15:42:05 -11.32  -8.79  -226.190836            +0.0,+0.0,+0.0
iter: 278  15:42:41 -11.57  -8.84  -226.190836            +0.0,+0.0,+0.0
iter: 279  15:43:16  -9.31  -9.01  -226.190836            +0.0,+0.0,+0.0

Converged after 279 iterations.

Dipole moment: (12.299341, -1.263992, -2.211469) |e|*Ang

Total magnetic moment: (0.000348, 0.006163, 0.004559)
Local magnetic moments:
   0 O  (-0.003464, -0.000096,  0.000228)
   1 O  ( 0.004371,  0.000065,  0.000232)
   2 O  ( 0.001727, -0.000064, -0.000157)
   3 O  ( 0.002808,  0.000161, -0.000187)
   4 O  (-0.006730,  0.000132, -0.000158)
   5 O  ( 0.002621, -0.000045, -0.000180)
   6 O  (-0.002409,  0.000047,  0.000234)
   7 O  ( 0.000890, -0.000058,  0.000223)
   8 O  (-0.028736,  0.000094,  0.000042)
   9 O  ( 0.028805, -0.000113,  0.000227)
  10 O  ( 0.028745, -0.000060, -0.000139)
  11 O  (-0.029124,  0.000128, -0.000063)
  12 Mn (-4.437877,  0.013354,  0.000002)
  13 Mn ( 4.438068, -0.015282,  0.031198)
  14 Mn ( 4.441968, -0.013285, -0.020026)
  15 Mn (-4.445304,  0.020792, -0.007152)
  16 P  (-0.002360,  0.000008,  0.000159)
  17 P  ( 0.002268, -0.000007,  0.000124)
  18 P  ( 0.001441,  0.000012, -0.000117)
  19 P  (-0.000273,  0.000023, -0.000168)
  20 O  (-0.025177,  0.000076, -0.000181)
  21 O  ( 0.024905, -0.000078, -0.000006)
  22 O  ( 0.026231, -0.000090,  0.000026)
  23 O  (-0.025334,  0.000124,  0.000097)
  24 Li (-0.000070, -0.000001,  0.000000)
  25 Li (-0.000161,  0.000004,  0.000001)
  26 Li ( 0.000204,  0.000002, -0.000001)
  27 Li (-0.000007, -0.000002,  0.000002)

Energy contributions relative to reference atoms: (reference = -196157.275402)

Kinetic:       +217.625317
Potential:     -195.481305
External:        +0.000000
XC:            -250.374264
Entropy (-ST):   -0.000000
Local:           +2.039416
--------------------------
Free energy:   -226.190836
Extrapolated:  -226.190836

Showing only first 2 kpts
 Kpt  Band  Eigenvalues  Occupancy
  0    88     -2.02612    1.00000
  0    89     -2.02330    1.00000
  0    90     -1.94276    1.00000
  0    91     -1.93324    1.00000

  1    88     -2.17094    1.00000
  1    89     -2.15867    1.00000
  1    90     -2.11617    1.00000
  1    91     -2.08142    1.00000


Fermi level: 6.32499

Gap: 1.894 eV
Transition (v -> c):
  (s=0, k=69, n=179, [0.12, 0.38, 0.08]) -> (s=0, k=56, n=180, [0.12, -0.12, -0.08])

Forces in eV/Ang:
  0 O     0.08984    0.00126   -0.16173
  1 O    -0.11502    0.10715   -0.17315
  2 O    -0.07284   -0.07531   -0.07123
  3 O    -0.24505    0.04588   -0.14755
  4 O    -0.07130   -0.13725   -0.05670
  5 O     0.19830    0.22717   -0.06561
  6 O     0.23355   -0.13556   -0.18631
  7 O    -0.16661   -0.00393   -0.13892
  8 O    -0.02356   -0.02668   -0.11242
  9 O     0.08847   -0.01323   -0.08962
 10 O     0.03369    0.00254   -0.15497
 11 O     0.01467   -0.00479   -0.16204
 12 Mn   -0.10033    0.02614    0.24027
 13 Mn   -0.00616   -0.03551    0.26975
 14 Mn    0.15414   -0.02515    0.12777
 15 Mn    0.10058    0.03246    0.18204
 16 P    -0.03149    0.02816    0.37306
 17 P    -0.01171   -0.00793    0.34542
 18 P     0.03131   -0.05091    0.25308
 19 P    -0.01399   -0.00462    0.28753
 20 O     0.02484    0.00449   -0.27118
 21 O     0.05643    0.00623   -0.25300
 22 O    -0.08013   -0.00035   -0.26643
 23 O    -0.05144   -0.00565   -0.26899
 24 Li    0.01095    0.00765    0.14075
 25 Li   -0.01753    0.01903    0.12302
 26 Li   -0.00499    0.01820    0.12570
 27 Li   -0.02676    0.00440    0.11095

Timing:                              incl.     excl.
-----------------------------------------------------------
Forces:                              5.352     5.352   0.1% |
Hamiltonian:                         0.681     0.004   0.0% |
 Atomic:                             0.189     0.189   0.0% |
  XC Correction:                     0.000     0.000   0.0% |
 Calculate atomic Hamiltonians:      0.242     0.242   0.0% |
 Communicate:                        0.001     0.001   0.0% |
 Initialize Hamiltonian:             0.001     0.001   0.0% |
 Poisson:                            0.003     0.003   0.0% |
 XC 3D grid:                         0.243     0.243   0.0% |
LCAO initialization:                85.593     0.530   0.0% |
 LCAO eigensolver:                  12.647     0.003   0.0% |
  DenseAtomicCorrection:             0.017     0.017   0.0% |
  Distribute overlap matrix:         0.002     0.002   0.0% |
  Orbital Layouts:                   0.059     0.059   0.0% |
  Potential matrix:                 12.498    12.498   0.1% |
  Sum over cells:                    0.067     0.067   0.0% |
 LCAO to grid:                      71.069    71.069   0.7% |
 Set positions (LCAO WFS):           1.346     0.257   0.0% |
  Basic WFS set positions:           0.001     0.001   0.0% |
  Basis functions set positions:     0.000     0.000   0.0% |
  P tci:                             0.553     0.553   0.0% |
  ST tci:                            0.412     0.412   0.0% |
  mktci:                             0.122     0.122   0.0% |
PWDescriptor:                        0.046     0.046   0.0% |
SCF-cycle:                       10005.349  2914.351  28.9% |-----------|
 Davidson:                        5824.805   656.099   6.5% |--|
  Apply H:                         930.944   930.944   9.2% |---|
  Subspace diag:                  1238.939     0.148   0.0% |
   calc_h_matrix:                 1054.550   108.838   1.1% |
    Apply H:                       945.711   945.711   9.4% |---|
   diagonalize:                      8.685     8.685   0.1% |
   rotate_psi:                     175.556   175.556   1.7% ||
  calc. matrices:                 2535.047   681.151   6.7% |--|
   Apply H:                       1853.897  1853.897  18.4% |------|
  diagonalize:                      96.156    96.156   1.0% |
  rotate_psi:                      367.622   367.622   3.6% ||
 Density:                         1095.356     0.010   0.0% |
  Atomic density matrices:          31.731    31.731   0.3% |
  Mix:                             104.725   104.725   1.0% |
  Multipole moments:                 0.199     0.199   0.0% |
  Pseudo density:                  958.691   958.672   9.5% |---|
   Symmetrize density:               0.019     0.019   0.0% |
 Hamiltonian:                      169.684     0.988   0.0% |
  Atomic:                           20.586    20.585   0.2% |
   XC Correction:                    0.001     0.001   0.0% |
  Calculate atomic Hamiltonians:    78.106    78.106   0.8% |
  Communicate:                       0.060     0.060   0.0% |
  Poisson:                           1.138     1.138   0.0% |
  XC 3D grid:                       68.806    68.806   0.7% |
 Orthonormalize:                     1.152     0.001   0.0% |
  calc_s_matrix:                     0.250     0.250   0.0% |
  inverse-cholesky:                  0.010     0.010   0.0% |
  projections:                       0.524     0.524   0.0% |
  rotate_psi_s:                      0.367     0.367   0.0% |
Set symmetry:                        0.000     0.000   0.0% |
Other:                               2.592     2.592   0.0% |
-----------------------------------------------------------
Total:                                     10099.613 100.0%

Memory usage: 914.54 MiB
Date: Thu May  6 15:43:22 2021
