
  ___ ___ ___ _ _ _  
 |   |   |_  | | | | 
 | | | | | . | | | | 
 |__ |  _|___|_____|  20.10.1b1
 |___|_|             

User:   madkru@i008.nifl.fysik.dtu.dk
Date:   Thu Mar 25 13:00:34 2021
Arch:   x86_64
Pid:    26969
Python: 3.7.4
gpaw:   /home/niflheim/madkru/venv_folder/gpaw/gpaw (d224efde0f)
_gpaw:  /home/niflheim/madkru/venv_folder/gpaw/build/lib.linux-x86_64-ivybridge-3.7/
        _gpaw.cpython-37m-x86_64-linux-gnu.so (4fd39e8b1e)
ase:    /home/niflheim/madkru/venv_folder/ase/ase (version 3.21.0b1-4d5a73cb29)
numpy:  /home/niflheim/madkru/venv_folder/lib/python3.7/site-packages/numpy (version 1.19.4)
scipy:  /home/niflheim/madkru/venv_folder/lib/python3.7/site-packages/scipy (version 1.5.4)
libxc:  4.3.4
units:  Angstrom and eV
cores: 64
OMP_NUM_THREADS: 1

Input parameters:
  convergence: {bands: occupied,
                density: 0.0001,
                eigenstates: 4e-08,
                energy: 0.0005,
                forces: 1e-06}
  kpts: [6 6 4]
  mode: {ecut: 600.0,
         gammacentered: False,
         name: pw}
  occupations: {fixmagmom: False,
                name: fermi-dirac,
                width: 0.001}
  symmetry: {point_group: False,
             time_reversal: False}

System changes: positions, numbers, cell, pbc, initial_charges, initial_magmoms 

Initialize ...

O-setup:
  name: Oxygen
  id: 9b9d51c344dea68c822856295a461509
  Z: 8.0
  valence: 6
  core: 2
  charge: 0.0
  file: /home/modules/software/GPAW-setups/0.9.20000/O.LDA.gz
  compensation charges: gauss, rc=0.21, lmax=2
  cutoffs: 1.17(filt), 0.83(core),
  valence states:
                energy  radius
    2s(2.00)   -23.752   0.688
    2p(4.00)    -9.195   0.598
    *s           3.459   0.688
    *p          18.016   0.598
    *d           0.000   0.619

  Using partial waves for O as LCAO basis

Mn-setup:
  name: Manganese
  id: 0d715a8018be061a6e9ea6f2d364ac92
  Z: 25.0
  valence: 15
  core: 10
  charge: 0.0
  file: /home/modules/software/GPAW-setups/0.9.20000/Mn.LDA.gz
  compensation charges: gauss, rc=0.38, lmax=2
  cutoffs: 2.14(filt), 0.86(core),
  valence states:
                energy  radius
    3s(2.00)   -85.387   1.275
    4s(2.00)    -5.282   1.275
    3p(6.00)   -54.493   1.281
    4p(0.00)    -1.471   1.281
    3d(5.00)    -7.009   1.138
    *d          20.203   1.138

  Using partial waves for Mn as LCAO basis

P-setup:
  name: Phosphorus
  id: a5561c299094968922a179ab894d2e2d
  Z: 15.0
  valence: 5
  core: 10
  charge: 0.0
  file: /home/modules/software/GPAW-setups/0.9.20000/P.LDA.gz
  compensation charges: gauss, rc=0.30, lmax=2
  cutoffs: 1.69(filt), 1.81(core),
  valence states:
                energy  radius
    3s(2.00)   -14.015   0.953
    3p(3.00)    -5.596   0.953
    *s          13.197   0.953
    *p          21.615   0.953
    *d           0.000   0.953

  Using partial waves for P as LCAO basis

Li-setup:
  name: Lithium
  id: b73562207f97a71b6967473b66fe8b65
  Z: 3.0
  valence: 1
  core: 2
  charge: 0.0
  file: /home/modules/software/GPAW-setups/0.9.20000/Li.LDA.gz
  compensation charges: gauss, rc=0.33, lmax=2
  cutoffs: 1.91(filt), 2.55(core),
  valence states:
                energy  radius
    2s(1.00)    -2.874   1.058
    2p(0.00)    -1.126   1.058
    *s          24.338   1.058

  Using partial waves for Li as LCAO basis

Reference energy: -196157.275402

Spin-polarized calculation.
Magnetic moment: 0.000000

Convergence criteria:
  Maximum total energy change: 0.0005 eV / electron
  Maximum integral of absolute density change: 0.0001 electrons
  Maximum integral of absolute eigenstate change: 4e-08 eV^2
  Maximum change in atomic force: 1e-06 eV / Ang
  Maximum number of iterations: 333

Symmetries present (total): 1

  ( 1  0  0)
  ( 0  1  0)
  ( 0  0  1)

144 k-points: 6 x 6 x 4 Monkhorst-Pack grid
144 k-points in the irreducible part of the Brillouin zone
       k-points in crystal coordinates                weights
   0:    -0.41666667   -0.41666667   -0.37500000          1/144
   1:    -0.41666667   -0.41666667   -0.12500000          1/144
   2:    -0.41666667   -0.41666667    0.12500000          1/144
   3:    -0.41666667   -0.41666667    0.37500000          1/144
   4:    -0.41666667   -0.25000000   -0.37500000          1/144
   5:    -0.41666667   -0.25000000   -0.12500000          1/144
   6:    -0.41666667   -0.25000000    0.12500000          1/144
   7:    -0.41666667   -0.25000000    0.37500000          1/144
   8:    -0.41666667   -0.08333333   -0.37500000          1/144
   9:    -0.41666667   -0.08333333   -0.12500000          1/144
          ...
 143:     0.41666667    0.41666667    0.37500000          1/144

Wave functions: Plane wave expansion
  Cutoff energy: 600.000 eV
  Number of coefficients (min, max): 9132, 9161
  Pulay-stress correction: 0.000000 eV/Ang^3 (de/decut=0.000000)
  Using FFTW library
  ScaLapack parameters: grid=1x1, blocksize=None
  Wavefunction extrapolation:
    Improved wavefunction reuse through dual PAW basis 

  Fermi-Dirac: width=0.0010 eV

Eigensolver
   Davidson(niter=2, smin=None, normalize=True) 

Densities:
  Coarse grid: 60*35*27 grid
  Fine grid: 120*70*54 grid
  Total Charge: 0.000000 

Density mixing:
  Method: difference
  Backend: pulay
  Linear mixing parameter: 0.05
  Mixing with 5 old densities
  Damping of long wave oscillations: 50 

Hamiltonian:
  XC and Coulomb potentials evaluated on a 120*70*54 grid
  Using the LDA Exchange-Correlation functional
 

Memory estimate:
  Process memory now: 13410.68 MiB
  Calculator: 322.47 MiB
    Density: 9.62 MiB
      Arrays: 3.79 MiB
      Localized functions: 4.27 MiB
      Mixer: 1.56 MiB
    Hamiltonian: 2.94 MiB
      Arrays: 2.82 MiB
      XC: 0.00 MiB
      Poisson: 0.00 MiB
      vbar: 0.12 MiB
    Wavefunctions: 309.91 MiB
      Arrays psit_nG: 281.81 MiB
      Eigensolver: 18.27 MiB
      Projections: 2.71 MiB
      Projectors: 4.40 MiB
      PW-descriptor: 2.71 MiB

Total number of cores used: 64
Parallelization over k-points: 16
Domain decomposition: 2 x 2 x 1

Number of atoms: 28
Number of atomic orbitals: 148
Number of bands in calculation: 112
Number of valence electrons: 180
Bands to converge: occupied

... initialized

Initializing position-dependent things.

Density initialized from atomic densities
Creating initial wave functions:
  112 bands from LCAO basis set

                                           
                                           
                                           
                                           
                                           
               O     O  P  O               
            PO           OMn     O         
                  O          MO            
            O        Li O                  
             Mn  Mn          OP            
         O       O Li O                    
         Li     O P         O              
       Li                                  
                                           
                                           
                                           
                                           

Positions:
   0 O     -1.280122   -2.495595   -1.112331    ( 0.0000,  0.0000,  0.0000)
   1 O     -3.023238    2.918858    1.191723    ( 0.0000,  0.0000,  0.0000)
   2 O      1.997451    0.467212    1.441442    ( 0.0000,  0.0000,  0.0000)
   3 O      3.740343   -0.043905   -0.862614    ( 0.0000,  0.0000,  0.0000)
   4 O      1.997419    2.918835    1.441465    ( 0.0000,  0.0000,  0.0000)
   5 O      3.740372   -2.495531   -0.862587    ( 0.0000,  0.0000,  0.0000)
   6 O     -1.280154   -0.043891   -1.112309    ( 0.0000,  0.0000,  0.0000)
   7 O     -3.023210    0.467136    1.191750    ( 0.0000,  0.0000,  0.0000)
   8 O     -4.147405   -1.269737   -0.856207    ( 0.0000,  0.0000,  0.0000)
   9 O     -0.155894    1.692986    1.447725    ( 0.0000,  0.0000,  0.0000)
  10 O      4.864578    1.693016    1.185324    ( 0.0000,  0.0000,  0.0000)
  11 O      0.873163   -1.269706   -1.118625    ( 0.0000,  0.0000,  0.0000)
  12 Mn    -2.437108   -1.269902    0.302197    ( 0.0000,  0.0000,  1.0000)
  13 Mn    -1.866187    1.693156   -2.001927    ( 0.0000,  0.0000, -1.0000)
  14 Mn     3.154299    1.693181    0.026917    ( 0.0000,  0.0000, -1.0000)
  15 Mn     2.583444   -1.269877    2.331074    ( 0.0000,  0.0000,  1.0000)
  16 P     -0.543052   -1.269720   -1.734187    ( 0.0000,  0.0000,  0.0000)
  17 P     -3.760282    1.692974    0.569859    ( 0.0000,  0.0000,  0.0000)
  18 P      1.260300    1.693000    2.063344    ( 0.0000,  0.0000,  0.0000)
  19 P      4.477470   -1.269695   -0.250696    ( 0.0000,  0.0000,  0.0000)
  20 O     -0.544413   -1.269738    1.348523    ( 0.0000,  0.0000,  0.0000)
  21 O     -3.758895    1.692992   -0.955558    ( 0.0000,  0.0000,  0.0000)
  22 O      1.261690    1.693018   -1.019367    ( 0.0000,  0.0000,  0.0000)
  23 O      4.476045   -1.269713    1.284716    ( 0.0000,  0.0000,  0.0000)
  24 Li    -4.662027   -2.751322   -2.139440    ( 0.0000,  0.0000,  0.0000)
  25 Li     0.358703   -2.751277    0.164614    ( 0.0000,  0.0000,  0.0000)
  26 Li    -4.662011    0.211617   -2.139439    ( 0.0000,  0.0000,  0.0000)
  27 Li     0.358720    0.211628    0.164615    ( 0.0000,  0.0000,  0.0000)

Unit cell:
           periodic     x           y           z      points  spacing
  1. axis:    yes   10.041096    0.000054   -0.000022    60     0.1674
  2. axis:    yes    0.000032    5.925857    0.000001    35     0.1693
  3. axis:    yes   -0.000010    0.000001    4.608134    27     0.1707

  Lengths:  10.041096   5.925857   4.608134
  Angles:   89.999974  90.000250  89.999381

Effective grid spacing dv^(1/3) = 0.1691

                     log10-error:           total        iterations:
           time      wfs    density  force  energy       poisson  magmom
iter:   1  13:02:08                       -233.716696             +0.0000
iter:   2  13:02:28  -0.47  -0.95         -231.543050             +0.0013
iter:   3  13:02:48  -0.61  -1.00         -220.798312             +0.0013
iter:   4  13:03:08  -1.18  -1.31         -220.933739             +0.3359
iter:   5  13:03:28  -2.10  -1.39         -222.744776             +0.1813
iter:   6  13:03:48  -2.15  -1.38         -224.002319             +0.2347
iter:   7  13:04:07  -2.13  -1.51         -224.057276             -0.4157
iter:   8  13:04:27  -2.53  -1.63         -225.551794             -0.7153
iter:   9  13:04:47  -2.50  -1.89         -226.393874             -0.2311
iter:  10  13:05:06  -2.23  -2.01         -226.306058             -0.0233
iter:  11  13:05:26  -2.73  -2.13         -226.278332             -0.0174
iter:  12  13:05:46  -2.65  -2.19         -226.222493             -0.0069
iter:  13  13:06:05  -3.11  -2.59         -226.200684             -0.0052
iter:  14  13:06:25  -3.17  -2.85         -226.174967             -0.0017
iter:  15  13:06:45  -3.80  -3.09         -226.177357             -0.0008
iter:  16  13:07:05  -4.77  -3.23         -226.175743             -0.0003
iter:  17  13:07:24  -3.95  -3.27         -226.172749             -0.0000
iter:  18  13:07:44  -5.33  -3.60         -226.172259             -0.0001
iter:  19  13:08:04  -4.74  -3.66         -226.172537             -0.0000
iter:  20  13:08:24  -5.01  -3.79         -226.172058             -0.0000
iter:  21  13:08:43  -6.31  -3.97         -226.172018             -0.0000
iter:  22  13:09:03  -6.71  -4.00         -226.172015             -0.0000
iter:  23  13:09:23  -6.39  -4.06         -226.172029             +0.0000
iter:  24  13:09:42  -6.85  -4.18         -226.172016             -0.0000
iter:  25  13:10:02  -7.06  -4.25         -226.172014             -0.0000
iter:  26  13:10:22  -6.98  -4.36         -226.172015             -0.0000
iter:  27  13:10:46  -7.91  -4.52         -226.172014             -0.0000
iter:  28  13:11:06  -7.17  -4.55         -226.172011             -0.0000
iter:  29  13:11:30  -8.30  -4.98    -2.16-226.172012             -0.0000
iter:  30  13:11:54  -8.81  -5.08    -3.21-226.172012             -0.0000
iter:  31  13:12:19  -8.24  -5.15    -3.07-226.172011             -0.0000
iter:  32  13:12:43  -8.94  -5.31    -3.18-226.172011             -0.0000
iter:  33  13:13:08  -8.91  -5.37    -3.28-226.172011             -0.0000
iter:  34  13:13:32  -8.92  -5.45    -3.55-226.172011             -0.0000
iter:  35  13:13:56  -9.16  -5.70    -3.48-226.172011             -0.0000
iter:  36  13:14:21 -10.12  -5.85    -4.08-226.172011             +0.0000
iter:  37  13:14:45  -9.23  -5.87    -3.60-226.172011             +0.0000
iter:  38  13:15:10  -9.95  -6.08    -3.70-226.172011             +0.0000
iter:  39  13:15:34 -11.21  -6.15    -4.24-226.172011             +0.0000
iter:  40  13:15:58  -9.86  -6.19    -3.82-226.172011             +0.0000
iter:  41  13:16:23  -9.87  -6.23    -3.99-226.172011             +0.0000
iter:  42  13:16:47 -10.58  -6.66    -4.77-226.172011             +0.0000
iter:  43  13:17:12 -11.86  -6.73    -4.66-226.172011             +0.0000
iter:  44  13:17:36 -11.40  -6.80    -4.46-226.172011             +0.0000
iter:  45  13:18:00 -12.03  -7.04    -5.12-226.172011             +0.0000
iter:  46  13:18:25 -12.16  -7.08    -5.11-226.172011             +0.0000
iter:  47  13:18:49 -13.00  -7.12    -5.29-226.172011             +0.0000
iter:  48  13:19:13 -12.91  -7.18    -5.64-226.172011             +0.0000
iter:  49  13:19:38 -12.39  -7.24    -4.93-226.172011             +0.0000
iter:  50  13:20:02 -13.07  -7.34    -5.59-226.172011             +0.0000
iter:  51  13:20:26 -12.86  -7.39    -5.60-226.172011             +0.0000
iter:  52  13:20:50 -13.63  -7.52    -6.02-226.172011             +0.0000

Converged after 52 iterations.

Dipole moment: (18.327338, -2.314417, -4.401481) |e|*Ang

Total magnetic moment: (0.000000, 0.000000, 0.000000)
Local magnetic moments:
   0 O  ( 0.000000,  0.000000, -0.001805)
   1 O  ( 0.000000,  0.000000,  0.001788)
   2 O  ( 0.000000,  0.000000,  0.001782)
   3 O  ( 0.000000,  0.000000, -0.001622)
   4 O  ( 0.000000,  0.000000,  0.001777)
   5 O  ( 0.000000,  0.000000, -0.001617)
   6 O  ( 0.000000,  0.000000, -0.001810)
   7 O  ( 0.000000,  0.000000,  0.001793)
   8 O  ( 0.000000,  0.000000,  0.030811)
   9 O  ( 0.000000,  0.000000, -0.031107)
  10 O  ( 0.000000,  0.000000, -0.031116)
  11 O  ( 0.000000,  0.000000,  0.030990)
  12 Mn ( 0.000000,  0.000000,  4.396032)
  13 Mn ( 0.000000,  0.000000, -4.395815)
  14 Mn ( 0.000000,  0.000000, -4.396096)
  15 Mn ( 0.000000,  0.000000,  4.395709)
  16 P  ( 0.000000,  0.000000,  0.000867)
  17 P  ( 0.000000,  0.000000, -0.000861)
  18 P  ( 0.000000,  0.000000, -0.000858)
  19 P  ( 0.000000,  0.000000,  0.000709)
  20 O  ( 0.000000,  0.000000,  0.028464)
  21 O  ( 0.000000,  0.000000, -0.028416)
  22 O  ( 0.000000,  0.000000, -0.028399)
  23 O  ( 0.000000,  0.000000,  0.028812)
  24 Li ( 0.000000,  0.000000,  0.000003)
  25 Li ( 0.000000,  0.000000,  0.000000)
  26 Li ( 0.000000,  0.000000,  0.000003)
  27 Li ( 0.000000,  0.000000,  0.000000)

Energy contributions relative to reference atoms: (reference = -196157.275402)

Kinetic:       +277.664475
Potential:     -240.983007
External:        +0.000000
XC:            -264.741695
Entropy (-ST):   -0.000000
Local:           +1.888217
--------------------------
Free energy:   -226.172011
Extrapolated:  -226.172011

Spin contamination: 9.455506 electrons
Showing only first 2 kpts
                      Up                     Down
 Kpt  Band  Eigenvalues  Occupancy  Eigenvalues  Occupancy
  0    88      6.52869    0.00694      6.52534    0.00694
  0    89      6.56702    0.00694      6.55913    0.00694
  0    90      8.42249    0.00000      8.42530    0.00000
  0    91      8.44485    0.00000      8.44957    0.00000

  1    88      6.56725    0.00694      6.56372    0.00694
  1    89      6.59860    0.00694      6.59111    0.00694
  1    90      8.37901    0.00000      8.38158    0.00000
  1    91      8.40179    0.00000      8.40556    0.00000


Fermi level: 7.63972

Gap: 1.695 eV
Transition (v -> c):
  (s=0, k=93, n=89, [0.08, 0.42, -0.12]) -> (s=0, k=82, n=90, [0.08, -0.08, 0.12])
Writing to born-0.01-19z-.gpw (mode='all')

Timing:                              incl.     excl.
-----------------------------------------------------------
Hamiltonian:                         0.229     0.002   0.0% |
 Atomic:                             0.069     0.069   0.0% |
  XC Correction:                     0.000     0.000   0.0% |
 Calculate atomic Hamiltonians:      0.073     0.073   0.0% |
 Communicate:                        0.002     0.002   0.0% |
 Initialize Hamiltonian:             0.000     0.000   0.0% |
 Poisson:                            0.001     0.001   0.0% |
 XC 3D grid:                         0.083     0.083   0.0% |
LCAO initialization:                69.271     0.645   0.0% |
 LCAO eigensolver:                  19.619     0.002   0.0% |
  Calculate projections:             0.029     0.029   0.0% |
  DenseAtomicCorrection:             0.045     0.045   0.0% |
  Distribute overlap matrix:         0.016     0.016   0.0% |
  Orbital Layouts:                   0.432     0.432   0.0% |
  Potential matrix:                 18.997    18.997   0.6% |
  Sum over cells:                    0.099     0.099   0.0% |
 LCAO to grid:                      47.689    47.689   1.5% ||
 Set positions (LCAO WFS):           1.317     0.193   0.0% |
  Basic WFS set positions:           0.001     0.001   0.0% |
  Basis functions set positions:     0.000     0.000   0.0% |
  P tci:                             0.525     0.525   0.0% |
  ST tci:                            0.382     0.382   0.0% |
  mktci:                             0.215     0.215   0.0% |
PWDescriptor:                        0.024     0.024   0.0% |
SCF-cycle:                        1145.466     5.508   0.2% |
 Davidson:                         970.980   297.350   9.4% |---|
  Apply H:                          67.050    65.156   2.1% ||
   HMM T:                            1.894     1.894   0.1% |
  Subspace diag:                   140.990     0.149   0.0% |
   calc_h_matrix:                   90.680    23.414   0.7% |
    Apply H:                        67.266    65.334   2.1% ||
     HMM T:                          1.932     1.932   0.1% |
   diagonalize:                      7.059     7.059   0.2% |
   rotate_psi:                      43.102    43.102   1.4% ||
  calc. matrices:                  290.829   159.021   5.0% |-|
   Apply H:                        131.809   128.185   4.1% |-|
    HMM T:                           3.624     3.624   0.1% |
  diagonalize:                      81.589    81.589   2.6% ||
  rotate_psi:                       93.172    93.172   3.0% ||
 Density:                           39.541     0.001   0.0% |
  Atomic density matrices:           0.803     0.803   0.0% |
  Mix:                               5.340     5.340   0.2% |
  Multipole moments:                 0.019     0.019   0.0% |
  Pseudo density:                   33.378    33.377   1.1% |
   Symmetrize density:               0.001     0.001   0.0% |
 Forces:                           116.271   116.271   3.7% ||
 Hamiltonian:                       11.103     0.110   0.0% |
  Atomic:                            2.664     2.664   0.1% |
   XC Correction:                    0.000     0.000   0.0% |
  Calculate atomic Hamiltonians:     3.846     3.846   0.1% |
  Communicate:                       0.089     0.089   0.0% |
  Poisson:                           0.030     0.030   0.0% |
  XC 3D grid:                        4.363     4.363   0.1% |
 Orthonormalize:                     2.062     0.003   0.0% |
  calc_s_matrix:                     0.242     0.242   0.0% |
  inverse-cholesky:                  0.073     0.073   0.0% |
  projections:                       1.314     1.314   0.0% |
  rotate_psi_s:                      0.429     0.429   0.0% |
Set symmetry:                        0.000     0.000   0.0% |
Other:                            1938.207  1938.207  61.5% |------------------------|
-----------------------------------------------------------
Total:                                      3153.197 100.0%

Memory usage: 13.10 GiB
Date: Thu Mar 25 13:53:08 2021
