
  ___ ___ ___ _ _ _  
 |   |   |_  | | | | 
 | | | | | . | | | | 
 |__ |  _|___|_____|  20.10.1b1
 |___|_|             

User:   madkru@i013.nifl.fysik.dtu.dk
Date:   Sun Mar 21 09:20:42 2021
Arch:   x86_64
Pid:    27943
Python: 3.7.4
gpaw:   /home/niflheim/madkru/venv_folder/gpaw/gpaw (d0d1ca1c71)
_gpaw:  /home/niflheim/madkru/venv_folder/gpaw/build/lib.linux-x86_64-ivybridge-3.7/
        _gpaw.cpython-37m-x86_64-linux-gnu.so (4fd39e8b1e)
ase:    /home/niflheim/madkru/venv_folder/ase/ase (version 3.21.0b1-7e6c206a91)
numpy:  /home/niflheim/madkru/venv_folder/lib/python3.7/site-packages/numpy (version 1.19.4)
scipy:  /home/niflheim/madkru/venv_folder/lib/python3.7/site-packages/scipy (version 1.5.4)
libxc:  4.3.4
units:  Angstrom and eV
cores: 32
OMP_NUM_THREADS: 1

Input parameters:
  convergence: {bands: occupied,
                density: 0.0001,
                eigenstates: 4e-08,
                energy: 0.0005,
                forces: 1e-06}
  kpts: [6 6 4]
  mode: {ecut: 600.0,
         gammacentered: False,
         name: pw}
  occupations: {fixmagmom: False,
                name: fermi-dirac,
                width: 0.001}
  symmetry: {point_group: False,
             time_reversal: False}

System changes: positions, numbers, cell, pbc, initial_charges, initial_magmoms 

Initialize ...

O-setup:
  name: Oxygen
  id: 9b9d51c344dea68c822856295a461509
  Z: 8.0
  valence: 6
  core: 2
  charge: 0.0
  file: /home/modules/software/GPAW-setups/0.9.20000/O.LDA.gz
  compensation charges: gauss, rc=0.21, lmax=2
  cutoffs: 1.17(filt), 0.83(core),
  valence states:
                energy  radius
    2s(2.00)   -23.752   0.688
    2p(4.00)    -9.195   0.598
    *s           3.459   0.688
    *p          18.016   0.598
    *d           0.000   0.619

  Using partial waves for O as LCAO basis

Mn-setup:
  name: Manganese
  id: 0d715a8018be061a6e9ea6f2d364ac92
  Z: 25.0
  valence: 15
  core: 10
  charge: 0.0
  file: /home/modules/software/GPAW-setups/0.9.20000/Mn.LDA.gz
  compensation charges: gauss, rc=0.38, lmax=2
  cutoffs: 2.14(filt), 0.86(core),
  valence states:
                energy  radius
    3s(2.00)   -85.387   1.275
    4s(2.00)    -5.282   1.275
    3p(6.00)   -54.493   1.281
    4p(0.00)    -1.471   1.281
    3d(5.00)    -7.009   1.138
    *d          20.203   1.138

  Using partial waves for Mn as LCAO basis

P-setup:
  name: Phosphorus
  id: a5561c299094968922a179ab894d2e2d
  Z: 15.0
  valence: 5
  core: 10
  charge: 0.0
  file: /home/modules/software/GPAW-setups/0.9.20000/P.LDA.gz
  compensation charges: gauss, rc=0.30, lmax=2
  cutoffs: 1.69(filt), 1.81(core),
  valence states:
                energy  radius
    3s(2.00)   -14.015   0.953
    3p(3.00)    -5.596   0.953
    *s          13.197   0.953
    *p          21.615   0.953
    *d           0.000   0.953

  Using partial waves for P as LCAO basis

Li-setup:
  name: Lithium
  id: b73562207f97a71b6967473b66fe8b65
  Z: 3.0
  valence: 1
  core: 2
  charge: 0.0
  file: /home/modules/software/GPAW-setups/0.9.20000/Li.LDA.gz
  compensation charges: gauss, rc=0.33, lmax=2
  cutoffs: 1.91(filt), 2.55(core),
  valence states:
                energy  radius
    2s(1.00)    -2.874   1.058
    2p(0.00)    -1.126   1.058
    *s          24.338   1.058

  Using partial waves for Li as LCAO basis

Reference energy: -196157.275402

Spin-polarized calculation.
Magnetic moment: 0.000000

Convergence criteria:
  Maximum total energy change: 0.0005 eV / electron
  Maximum integral of absolute density change: 0.0001 electrons
  Maximum integral of absolute eigenstate change: 4e-08 eV^2
  Maximum change in atomic force: 1e-06 eV / Ang
  Maximum number of iterations: 333

Symmetries present (total): 1

  ( 1  0  0)
  ( 0  1  0)
  ( 0  0  1)

144 k-points: 6 x 6 x 4 Monkhorst-Pack grid
144 k-points in the irreducible part of the Brillouin zone
       k-points in crystal coordinates                weights
   0:    -0.41666667   -0.41666667   -0.37500000          1/144
   1:    -0.41666667   -0.41666667   -0.12500000          1/144
   2:    -0.41666667   -0.41666667    0.12500000          1/144
   3:    -0.41666667   -0.41666667    0.37500000          1/144
   4:    -0.41666667   -0.25000000   -0.37500000          1/144
   5:    -0.41666667   -0.25000000   -0.12500000          1/144
   6:    -0.41666667   -0.25000000    0.12500000          1/144
   7:    -0.41666667   -0.25000000    0.37500000          1/144
   8:    -0.41666667   -0.08333333   -0.37500000          1/144
   9:    -0.41666667   -0.08333333   -0.12500000          1/144
          ...
 143:     0.41666667    0.41666667    0.37500000          1/144

Wave functions: Plane wave expansion
  Cutoff energy: 600.000 eV
  Number of coefficients (min, max): 9132, 9161
  Pulay-stress correction: 0.000000 eV/Ang^3 (de/decut=0.000000)
  Using FFTW library
  ScaLapack parameters: grid=1x1, blocksize=None
  Wavefunction extrapolation:
    Improved wavefunction reuse through dual PAW basis 

  Fermi-Dirac: width=0.0010 eV

Eigensolver
   Davidson(niter=2, smin=None, normalize=True) 

Densities:
  Coarse grid: 60*35*27 grid
  Fine grid: 120*70*54 grid
  Total Charge: 0.000000 

Density mixing:
  Method: difference
  Backend: pulay
  Linear mixing parameter: 0.05
  Mixing with 5 old densities
  Damping of long wave oscillations: 50 

Hamiltonian:
  XC and Coulomb potentials evaluated on a 120*70*54 grid
  Using the LDA Exchange-Correlation functional
 

Memory estimate:
  Process memory now: 12360.27 MiB
  Calculator: 342.26 MiB
    Density: 19.13 MiB
      Arrays: 7.57 MiB
      Localized functions: 8.54 MiB
      Mixer: 3.03 MiB
    Hamiltonian: 5.87 MiB
      Arrays: 5.62 MiB
      XC: 0.00 MiB
      Poisson: 0.00 MiB
      vbar: 0.25 MiB
    Wavefunctions: 317.25 MiB
      Arrays psit_nG: 281.81 MiB
      Eigensolver: 18.27 MiB
      Projections: 5.41 MiB
      Projectors: 8.81 MiB
      PW-descriptor: 2.95 MiB

Total number of cores used: 32
Parallelization over k-points: 16
Domain decomposition: 2 x 1 x 1

Number of atoms: 28
Number of atomic orbitals: 148
Number of bands in calculation: 112
Number of valence electrons: 180
Bands to converge: occupied

... initialized

Initializing position-dependent things.

Density initialized from atomic densities
Creating initial wave functions:
  112 bands from LCAO basis set

                                           
                                           
                                           
                                           
                                           
               O     O  P  O               
            PO           OMn     O         
                  O          MO            
            O        Li O                  
             Mn  Mn          OP            
         O       O Li O                    
         Li     O P         O              
       Li                                  
                                           
                                           
                                           
                                           

Positions:
   0 O     -1.280122   -2.495595   -1.112331    ( 0.0000,  0.0000,  0.0000)
   1 O     -3.023238    2.908858    1.191723    ( 0.0000,  0.0000,  0.0000)
   2 O      1.997451    0.467212    1.441442    ( 0.0000,  0.0000,  0.0000)
   3 O      3.740343   -0.043905   -0.862614    ( 0.0000,  0.0000,  0.0000)
   4 O      1.997419    2.918835    1.441465    ( 0.0000,  0.0000,  0.0000)
   5 O      3.740372   -2.495531   -0.862587    ( 0.0000,  0.0000,  0.0000)
   6 O     -1.280154   -0.043891   -1.112309    ( 0.0000,  0.0000,  0.0000)
   7 O     -3.023210    0.467136    1.191750    ( 0.0000,  0.0000,  0.0000)
   8 O     -4.147405   -1.269737   -0.856207    ( 0.0000,  0.0000,  0.0000)
   9 O     -0.155894    1.692986    1.447725    ( 0.0000,  0.0000,  0.0000)
  10 O      4.864578    1.693016    1.185324    ( 0.0000,  0.0000,  0.0000)
  11 O      0.873163   -1.269706   -1.118625    ( 0.0000,  0.0000,  0.0000)
  12 Mn    -2.437108   -1.269902    0.302197    ( 0.0000,  0.0000,  1.0000)
  13 Mn    -1.866187    1.693156   -2.001927    ( 0.0000,  0.0000, -1.0000)
  14 Mn     3.154299    1.693181    0.026917    ( 0.0000,  0.0000, -1.0000)
  15 Mn     2.583444   -1.269877    2.331074    ( 0.0000,  0.0000,  1.0000)
  16 P     -0.543052   -1.269720   -1.734187    ( 0.0000,  0.0000,  0.0000)
  17 P     -3.760282    1.692974    0.569859    ( 0.0000,  0.0000,  0.0000)
  18 P      1.260300    1.693000    2.063344    ( 0.0000,  0.0000,  0.0000)
  19 P      4.477470   -1.269695   -0.240696    ( 0.0000,  0.0000,  0.0000)
  20 O     -0.544413   -1.269738    1.348523    ( 0.0000,  0.0000,  0.0000)
  21 O     -3.758895    1.692992   -0.955558    ( 0.0000,  0.0000,  0.0000)
  22 O      1.261690    1.693018   -1.019367    ( 0.0000,  0.0000,  0.0000)
  23 O      4.476045   -1.269713    1.284716    ( 0.0000,  0.0000,  0.0000)
  24 Li    -4.662027   -2.751322   -2.139440    ( 0.0000,  0.0000,  0.0000)
  25 Li     0.358703   -2.751277    0.164614    ( 0.0000,  0.0000,  0.0000)
  26 Li    -4.662011    0.211617   -2.139439    ( 0.0000,  0.0000,  0.0000)
  27 Li     0.358720    0.211628    0.164615    ( 0.0000,  0.0000,  0.0000)

Unit cell:
           periodic     x           y           z      points  spacing
  1. axis:    yes   10.041096    0.000054   -0.000022    60     0.1674
  2. axis:    yes    0.000032    5.925857    0.000001    35     0.1693
  3. axis:    yes   -0.000010    0.000001    4.608134    27     0.1707

  Lengths:  10.041096   5.925857   4.608134
  Angles:   89.999974  90.000250  89.999381

Effective grid spacing dv^(1/3) = 0.1691

                     log10-error:           total        iterations:
           time      wfs    density  force  energy       poisson  magmom
iter:   1  09:23:43                       -233.723763             +0.0000
iter:   2  09:24:19  -0.47  -0.95         -231.548693             +0.0034
iter:   3  09:24:55  -0.60  -1.00         -220.818348             +0.0035
iter:   4  09:25:31  -1.22  -1.30         -221.602588             -0.2827
iter:   5  09:26:07  -2.15  -1.37         -222.370690             -0.1576
iter:   6  09:26:43  -2.26  -1.39         -224.276650             -0.0095
iter:   7  09:27:19  -2.15  -1.51         -224.530150             -0.0306
iter:   8  09:27:55  -2.56  -1.64         -225.845510             -0.0065
iter:   9  09:28:31  -2.37  -1.91         -226.408127             +0.0053
iter:  10  09:29:07  -2.19  -2.10         -226.251770             +0.0014
iter:  11  09:29:43  -2.68  -2.28         -226.300186             +0.0008
iter:  12  09:30:19  -2.34  -2.34         -226.231797             +0.0005
iter:  13  09:30:55  -3.45  -2.85         -226.188772             +0.0002
iter:  14  09:31:31  -3.28  -2.98         -226.186122             +0.0000
iter:  15  09:32:07  -3.63  -2.98         -226.175691             +0.0000
iter:  16  09:32:43  -4.66  -3.33         -226.175490             +0.0000
iter:  17  09:33:19  -4.83  -3.39         -226.174133             -0.0000
iter:  18  09:33:56  -5.22  -3.51         -226.174553             -0.0000
iter:  19  09:34:32  -5.00  -3.53         -226.174096             -0.0000
iter:  20  09:35:08  -5.78  -3.58         -226.174108             -0.0000
iter:  21  09:35:44  -5.91  -3.67         -226.174112             +0.0000
iter:  22  09:36:20  -5.71  -3.88         -226.173967             -0.0000
iter:  23  09:36:56  -5.37  -4.04         -226.173980             +0.0000
iter:  24  09:37:32  -5.93  -4.02         -226.173862             -0.0000
iter:  25  09:38:09  -6.56  -4.17         -226.173858             -0.0000
iter:  26  09:38:45  -7.06  -4.22         -226.173859             -0.0000
iter:  27  09:39:21  -6.89  -4.43         -226.173856             -0.0000
iter:  28  09:40:06  -7.64  -4.54         -226.173857             -0.0000
iter:  29  09:40:51  -7.99  -4.65    -2.83-226.173857             -0.0000
iter:  30  09:41:37  -7.51  -4.74    -2.36-226.173853             -0.0000
iter:  31  09:42:22  -8.16  -4.91    -3.36-226.173853             -0.0000
iter:  32  09:43:08  -8.55  -4.99    -3.24-226.173853             -0.0000
iter:  33  09:43:53  -8.04  -5.03    -2.79-226.173853             +0.0000
iter:  34  09:44:38  -8.43  -5.14    -2.83-226.173853             -0.0000
iter:  35  09:45:24  -8.98  -5.24    -3.22-226.173853             -0.0000
iter:  36  09:46:09  -9.30  -5.29    -3.73-226.173853             -0.0000
iter:  37  09:46:54  -9.03  -5.32    -3.56-226.173853             -0.0000
iter:  38  09:47:39  -9.96  -5.48    -3.67-226.173853             -0.0000
iter:  39  09:48:25  -8.72  -5.50    -3.23-226.173853             +0.0000
iter:  40  09:49:10 -10.23  -5.77    -3.91-226.173853             +0.0000
iter:  41  09:49:55  -8.93  -5.80    -3.28-226.173853             -0.0000
iter:  42  09:50:40  -9.83  -6.00    -3.70-226.173853             +0.0000
iter:  43  09:51:25 -10.05  -6.11    -3.89-226.173853             -0.0000
iter:  44  09:52:11 -10.23  -6.29    -3.98-226.173853             +0.0000
iter:  45  09:52:56 -11.30  -6.45    -4.57-226.173853             +0.0000
iter:  46  09:53:41 -11.89  -6.54    -4.68-226.173853             +0.0000
iter:  47  09:54:26 -11.13  -6.59    -4.38-226.173853             +0.0000
iter:  48  09:55:12 -11.67  -6.89    -4.61-226.173853             +0.0000
iter:  49  09:55:57 -12.50  -7.05    -5.46-226.173853             +0.0000
iter:  50  09:56:42 -12.14  -7.09    -4.80-226.173853             +0.0000
iter:  51  09:57:27 -12.44  -7.45    -5.09-226.173853             +0.0000
iter:  52  09:58:13 -13.42  -7.63    -5.83-226.173853             -0.0000
iter:  53  09:58:58 -12.76  -7.67    -5.20-226.173853             -0.0000
iter:  54  09:59:43 -13.40  -7.93    -5.58-226.173853             -0.0000
iter:  55  10:00:29 -13.98  -8.07    -5.80-226.173853             -0.0000
iter:  56  10:01:14 -13.87  -8.16    -5.72-226.173853             -0.0000
iter:  57  10:01:59 -14.68  -8.32    -6.16-226.173853             -0.0000

Converged after 57 iterations.

Dipole moment: (18.328289, -2.302686, -4.523058) |e|*Ang

Total magnetic moment: (0.000000, 0.000000, -0.000000)
Local magnetic moments:
   0 O  ( 0.000000,  0.000000, -0.001840)
   1 O  ( 0.000000,  0.000000,  0.001408)
   2 O  ( 0.000000,  0.000000,  0.001818)
   3 O  ( 0.000000,  0.000000, -0.001797)
   4 O  ( 0.000000,  0.000000,  0.001816)
   5 O  ( 0.000000,  0.000000, -0.001786)
   6 O  ( 0.000000,  0.000000, -0.001577)
   7 O  ( 0.000000,  0.000000,  0.001964)
   8 O  ( 0.000000,  0.000000,  0.031088)
   9 O  ( 0.000000,  0.000000, -0.031098)
  10 O  ( 0.000000,  0.000000, -0.031335)
  11 O  ( 0.000000,  0.000000,  0.031077)
  12 Mn ( 0.000000,  0.000000,  4.397537)
  13 Mn ( 0.000000,  0.000000, -4.396091)
  14 Mn ( 0.000000,  0.000000, -4.395865)
  15 Mn ( 0.000000,  0.000000,  4.395731)
  16 P  ( 0.000000,  0.000000,  0.000850)
  17 P  ( 0.000000,  0.000000, -0.001251)
  18 P  ( 0.000000,  0.000000, -0.000879)
  19 P  ( 0.000000,  0.000000,  0.000851)
  20 O  ( 0.000000,  0.000000,  0.028368)
  21 O  ( 0.000000,  0.000000, -0.028573)
  22 O  ( 0.000000,  0.000000, -0.028399)
  23 O  ( 0.000000,  0.000000,  0.028421)
  24 Li ( 0.000000,  0.000000, -0.000030)
  25 Li ( 0.000000,  0.000000, -0.000001)
  26 Li ( 0.000000,  0.000000, -0.000002)
  27 Li ( 0.000000,  0.000000, -0.000001)

Energy contributions relative to reference atoms: (reference = -196157.275402)

Kinetic:       +278.151456
Potential:     -241.374987
External:        +0.000000
XC:            -264.837750
Entropy (-ST):   -0.000000
Local:           +1.887427
--------------------------
Free energy:   -226.173853
Extrapolated:  -226.173853

Spin contamination: 9.456588 electrons
Showing only first 2 kpts
                      Up                     Down
 Kpt  Band  Eigenvalues  Occupancy  Eigenvalues  Occupancy
  0    88      6.52379    0.00694      6.53303    0.00694
  0    89      6.55867    0.00694      6.56661    0.00694
  0    90      8.42886    0.00000      8.42144    0.00000
  0    91      8.45069    0.00000      8.44522    0.00000

  1    88      6.56233    0.00694      6.57143    0.00694
  1    89      6.59059    0.00694      6.59873    0.00694
  1    90      8.38589    0.00000      8.37811    0.00000
  1    91      8.40868    0.00000      8.40209    0.00000


Fermi level: 7.64593

Gap: 1.693 eV
Transition (v -> c):
  (s=1, k=94, n=89, [0.08, 0.42, 0.12]) -> (s=1, k=82, n=90, [0.08, -0.08, 0.12])
Writing to born-0.01-1y-.gpw (mode='all')

Timing:                              incl.     excl.
-----------------------------------------------------------
Hamiltonian:                         0.354     0.002   0.0% |
 Atomic:                             0.050     0.050   0.0% |
  XC Correction:                     0.000     0.000   0.0% |
 Calculate atomic Hamiltonians:      0.143     0.143   0.0% |
 Communicate:                        0.002     0.002   0.0% |
 Initialize Hamiltonian:             0.000     0.000   0.0% |
 Poisson:                            0.001     0.001   0.0% |
 XC 3D grid:                         0.156     0.156   0.0% |
LCAO initialization:               136.630     0.646   0.0% |
 LCAO eigensolver:                  37.904     0.003   0.0% |
  Calculate projections:             0.057     0.057   0.0% |
  DenseAtomicCorrection:             0.089     0.089   0.0% |
  Distribute overlap matrix:         0.366     0.366   0.0% |
  Orbital Layouts:                   0.341     0.341   0.0% |
  Potential matrix:                 36.947    36.947   0.7% |
  Sum over cells:                    0.101     0.101   0.0% |
 LCAO to grid:                      95.716    95.716   1.8% ||
 Set positions (LCAO WFS):           2.363     0.375   0.0% |
  Basic WFS set positions:           0.001     0.001   0.0% |
  Basis functions set positions:     0.000     0.000   0.0% |
  P tci:                             1.061     1.061   0.0% |
  ST tci:                            0.706     0.706   0.0% |
  mktci:                             0.219     0.219   0.0% |
PWDescriptor:                        0.023     0.023   0.0% |
SCF-cycle:                        2338.614    11.950   0.2% |
 Davidson:                        1946.848   622.300  11.4% |----|
  Apply H:                         139.065   134.787   2.5% ||
   HMM T:                            4.278     4.278   0.1% |
  Subspace diag:                   289.142     0.178   0.0% |
   calc_h_matrix:                  187.931    50.879   0.9% |
    Apply H:                       137.052   132.894   2.4% ||
     HMM T:                          4.158     4.158   0.1% |
   diagonalize:                      6.701     6.701   0.1% |
   rotate_psi:                      94.332    94.332   1.7% ||
  calc. matrices:                  614.143   342.426   6.3% |--|
   Apply H:                        271.717   263.713   4.8% |-|
    HMM T:                           8.005     8.005   0.1% |
  diagonalize:                      89.773    89.773   1.6% ||
  rotate_psi:                      192.425   192.425   3.5% ||
 Density:                           78.688     0.001   0.0% |
  Atomic density matrices:           1.436     1.436   0.0% |
  Mix:                              11.040    11.040   0.2% |
  Multipole moments:                 0.033     0.033   0.0% |
  Pseudo density:                   66.178    66.177   1.2% |
   Symmetrize density:               0.002     0.002   0.0% |
 Forces:                           276.970   276.970   5.1% |-|
 Hamiltonian:                       20.171     0.127   0.0% |
  Atomic:                            2.816     2.815   0.1% |
   XC Correction:                    0.000     0.000   0.0% |
  Calculate atomic Hamiltonians:     8.117     8.117   0.1% |
  Communicate:                       0.107     0.107   0.0% |
  Poisson:                           0.067     0.067   0.0% |
  XC 3D grid:                        8.937     8.937   0.2% |
 Orthonormalize:                     3.986     0.003   0.0% |
  calc_s_matrix:                     0.477     0.477   0.0% |
  inverse-cholesky:                  0.054     0.054   0.0% |
  projections:                       2.600     2.600   0.0% |
  rotate_psi_s:                      0.852     0.852   0.0% |
Set symmetry:                        0.000     0.000   0.0% |
Other:                            2981.357  2981.357  54.6% |---------------------|
-----------------------------------------------------------
Total:                                      5456.978 100.0%

Memory usage: 12.11 GiB
Date: Sun Mar 21 10:51:39 2021
