
  ___ ___ ___ _ _ _  
 |   |   |_  | | | | 
 | | | | | . | | | | 
 |__ |  _|___|_____|  20.10.1b1
 |___|_|             

User:   madkru@i008.nifl.fysik.dtu.dk
Date:   Thu Mar 25 12:34:46 2021
Arch:   x86_64
Pid:    26969
Python: 3.7.4
gpaw:   /home/niflheim/madkru/venv_folder/gpaw/gpaw (d224efde0f)
_gpaw:  /home/niflheim/madkru/venv_folder/gpaw/build/lib.linux-x86_64-ivybridge-3.7/
        _gpaw.cpython-37m-x86_64-linux-gnu.so (4fd39e8b1e)
ase:    /home/niflheim/madkru/venv_folder/ase/ase (version 3.21.0b1-4d5a73cb29)
numpy:  /home/niflheim/madkru/venv_folder/lib/python3.7/site-packages/numpy (version 1.19.4)
scipy:  /home/niflheim/madkru/venv_folder/lib/python3.7/site-packages/scipy (version 1.5.4)
libxc:  4.3.4
units:  Angstrom and eV
cores: 64
OMP_NUM_THREADS: 1

Input parameters:
  convergence: {bands: occupied,
                density: 0.0001,
                eigenstates: 4e-08,
                energy: 0.0005,
                forces: 1e-06}
  kpts: [6 6 4]
  mode: {ecut: 600.0,
         gammacentered: False,
         name: pw}
  occupations: {fixmagmom: False,
                name: fermi-dirac,
                width: 0.001}
  symmetry: {point_group: False,
             time_reversal: False}

System changes: positions, numbers, cell, pbc, initial_charges, initial_magmoms 

Initialize ...

O-setup:
  name: Oxygen
  id: 9b9d51c344dea68c822856295a461509
  Z: 8.0
  valence: 6
  core: 2
  charge: 0.0
  file: /home/modules/software/GPAW-setups/0.9.20000/O.LDA.gz
  compensation charges: gauss, rc=0.21, lmax=2
  cutoffs: 1.17(filt), 0.83(core),
  valence states:
                energy  radius
    2s(2.00)   -23.752   0.688
    2p(4.00)    -9.195   0.598
    *s           3.459   0.688
    *p          18.016   0.598
    *d           0.000   0.619

  Using partial waves for O as LCAO basis

Mn-setup:
  name: Manganese
  id: 0d715a8018be061a6e9ea6f2d364ac92
  Z: 25.0
  valence: 15
  core: 10
  charge: 0.0
  file: /home/modules/software/GPAW-setups/0.9.20000/Mn.LDA.gz
  compensation charges: gauss, rc=0.38, lmax=2
  cutoffs: 2.14(filt), 0.86(core),
  valence states:
                energy  radius
    3s(2.00)   -85.387   1.275
    4s(2.00)    -5.282   1.275
    3p(6.00)   -54.493   1.281
    4p(0.00)    -1.471   1.281
    3d(5.00)    -7.009   1.138
    *d          20.203   1.138

  Using partial waves for Mn as LCAO basis

P-setup:
  name: Phosphorus
  id: a5561c299094968922a179ab894d2e2d
  Z: 15.0
  valence: 5
  core: 10
  charge: 0.0
  file: /home/modules/software/GPAW-setups/0.9.20000/P.LDA.gz
  compensation charges: gauss, rc=0.30, lmax=2
  cutoffs: 1.69(filt), 1.81(core),
  valence states:
                energy  radius
    3s(2.00)   -14.015   0.953
    3p(3.00)    -5.596   0.953
    *s          13.197   0.953
    *p          21.615   0.953
    *d           0.000   0.953

  Using partial waves for P as LCAO basis

Li-setup:
  name: Lithium
  id: b73562207f97a71b6967473b66fe8b65
  Z: 3.0
  valence: 1
  core: 2
  charge: 0.0
  file: /home/modules/software/GPAW-setups/0.9.20000/Li.LDA.gz
  compensation charges: gauss, rc=0.33, lmax=2
  cutoffs: 1.91(filt), 2.55(core),
  valence states:
                energy  radius
    2s(1.00)    -2.874   1.058
    2p(0.00)    -1.126   1.058
    *s          24.338   1.058

  Using partial waves for Li as LCAO basis

Reference energy: -196157.275402

Spin-polarized calculation.
Magnetic moment: 0.000000

Convergence criteria:
  Maximum total energy change: 0.0005 eV / electron
  Maximum integral of absolute density change: 0.0001 electrons
  Maximum integral of absolute eigenstate change: 4e-08 eV^2
  Maximum change in atomic force: 1e-06 eV / Ang
  Maximum number of iterations: 333

Symmetries present (total): 1

  ( 1  0  0)
  ( 0  1  0)
  ( 0  0  1)

144 k-points: 6 x 6 x 4 Monkhorst-Pack grid
144 k-points in the irreducible part of the Brillouin zone
       k-points in crystal coordinates                weights
   0:    -0.41666667   -0.41666667   -0.37500000          1/144
   1:    -0.41666667   -0.41666667   -0.12500000          1/144
   2:    -0.41666667   -0.41666667    0.12500000          1/144
   3:    -0.41666667   -0.41666667    0.37500000          1/144
   4:    -0.41666667   -0.25000000   -0.37500000          1/144
   5:    -0.41666667   -0.25000000   -0.12500000          1/144
   6:    -0.41666667   -0.25000000    0.12500000          1/144
   7:    -0.41666667   -0.25000000    0.37500000          1/144
   8:    -0.41666667   -0.08333333   -0.37500000          1/144
   9:    -0.41666667   -0.08333333   -0.12500000          1/144
          ...
 143:     0.41666667    0.41666667    0.37500000          1/144

Wave functions: Plane wave expansion
  Cutoff energy: 600.000 eV
  Number of coefficients (min, max): 9132, 9161
  Pulay-stress correction: 0.000000 eV/Ang^3 (de/decut=0.000000)
  Using FFTW library
  ScaLapack parameters: grid=1x1, blocksize=None
  Wavefunction extrapolation:
    Improved wavefunction reuse through dual PAW basis 

  Fermi-Dirac: width=0.0010 eV

Eigensolver
   Davidson(niter=2, smin=None, normalize=True) 

Densities:
  Coarse grid: 60*35*27 grid
  Fine grid: 120*70*54 grid
  Total Charge: 0.000000 

Density mixing:
  Method: difference
  Backend: pulay
  Linear mixing parameter: 0.05
  Mixing with 5 old densities
  Damping of long wave oscillations: 50 

Hamiltonian:
  XC and Coulomb potentials evaluated on a 120*70*54 grid
  Using the LDA Exchange-Correlation functional
 

Memory estimate:
  Process memory now: 13380.82 MiB
  Calculator: 322.47 MiB
    Density: 9.62 MiB
      Arrays: 3.79 MiB
      Localized functions: 4.27 MiB
      Mixer: 1.56 MiB
    Hamiltonian: 2.94 MiB
      Arrays: 2.82 MiB
      XC: 0.00 MiB
      Poisson: 0.00 MiB
      vbar: 0.12 MiB
    Wavefunctions: 309.91 MiB
      Arrays psit_nG: 281.81 MiB
      Eigensolver: 18.27 MiB
      Projections: 2.71 MiB
      Projectors: 4.40 MiB
      PW-descriptor: 2.71 MiB

Total number of cores used: 64
Parallelization over k-points: 16
Domain decomposition: 2 x 2 x 1

Number of atoms: 28
Number of atomic orbitals: 148
Number of bands in calculation: 112
Number of valence electrons: 180
Bands to converge: occupied

... initialized

Initializing position-dependent things.

Density initialized from atomic densities
Creating initial wave functions:
  112 bands from LCAO basis set

                                           
                                           
                                           
                                           
                                           
               O     O  P  O               
            PO           OMn     O         
                  O          MO            
            O        Li O                  
             Mn  Mn          OP            
         O       O Li O                    
         Li     O P         O              
       Li                                  
                                           
                                           
                                           
                                           

Positions:
   0 O     -1.280122   -2.495595   -1.112331    ( 0.0000,  0.0000,  0.0000)
   1 O     -3.023238    2.918858    1.191723    ( 0.0000,  0.0000,  0.0000)
   2 O      1.997451    0.467212    1.441442    ( 0.0000,  0.0000,  0.0000)
   3 O      3.740343   -0.043905   -0.862614    ( 0.0000,  0.0000,  0.0000)
   4 O      1.997419    2.918835    1.441465    ( 0.0000,  0.0000,  0.0000)
   5 O      3.740372   -2.495531   -0.862587    ( 0.0000,  0.0000,  0.0000)
   6 O     -1.280154   -0.043891   -1.112309    ( 0.0000,  0.0000,  0.0000)
   7 O     -3.023210    0.467136    1.191750    ( 0.0000,  0.0000,  0.0000)
   8 O     -4.147405   -1.269737   -0.856207    ( 0.0000,  0.0000,  0.0000)
   9 O     -0.155894    1.692986    1.447725    ( 0.0000,  0.0000,  0.0000)
  10 O      4.864578    1.693016    1.185324    ( 0.0000,  0.0000,  0.0000)
  11 O      0.873163   -1.269706   -1.118625    ( 0.0000,  0.0000,  0.0000)
  12 Mn    -2.437108   -1.269902    0.302197    ( 0.0000,  0.0000,  1.0000)
  13 Mn    -1.866187    1.693156   -2.001927    ( 0.0000,  0.0000, -1.0000)
  14 Mn     3.154299    1.693181    0.026917    ( 0.0000,  0.0000, -1.0000)
  15 Mn     2.583444   -1.269877    2.331074    ( 0.0000,  0.0000,  1.0000)
  16 P     -0.543052   -1.269720   -1.734187    ( 0.0000,  0.0000,  0.0000)
  17 P     -3.760282    1.692974    0.569859    ( 0.0000,  0.0000,  0.0000)
  18 P      1.260300    1.693000    2.063344    ( 0.0000,  0.0000,  0.0000)
  19 P      4.477470   -1.259695   -0.240696    ( 0.0000,  0.0000,  0.0000)
  20 O     -0.544413   -1.269738    1.348523    ( 0.0000,  0.0000,  0.0000)
  21 O     -3.758895    1.692992   -0.955558    ( 0.0000,  0.0000,  0.0000)
  22 O      1.261690    1.693018   -1.019367    ( 0.0000,  0.0000,  0.0000)
  23 O      4.476045   -1.269713    1.284716    ( 0.0000,  0.0000,  0.0000)
  24 Li    -4.662027   -2.751322   -2.139440    ( 0.0000,  0.0000,  0.0000)
  25 Li     0.358703   -2.751277    0.164614    ( 0.0000,  0.0000,  0.0000)
  26 Li    -4.662011    0.211617   -2.139439    ( 0.0000,  0.0000,  0.0000)
  27 Li     0.358720    0.211628    0.164615    ( 0.0000,  0.0000,  0.0000)

Unit cell:
           periodic     x           y           z      points  spacing
  1. axis:    yes   10.041096    0.000054   -0.000022    60     0.1674
  2. axis:    yes    0.000032    5.925857    0.000001    35     0.1693
  3. axis:    yes   -0.000010    0.000001    4.608134    27     0.1707

  Lengths:  10.041096   5.925857   4.608134
  Angles:   89.999974  90.000250  89.999381

Effective grid spacing dv^(1/3) = 0.1691

                     log10-error:           total        iterations:
           time      wfs    density  force  energy       poisson  magmom
iter:   1  12:36:23                       -233.728162             +0.0000
iter:   2  12:36:43  -0.47  -0.95         -231.547883             +0.0027
iter:   3  12:37:03  -0.61  -1.00         -220.802657             +0.0027
iter:   4  12:37:22  -1.19  -1.31         -220.926111             +0.3149
iter:   5  12:37:42  -2.13  -1.39         -222.845044             +0.1698
iter:   6  12:38:02  -2.20  -1.38         -223.643453             +0.1997
iter:   7  12:38:21  -2.17  -1.53         -223.884535             -0.2229
iter:   8  12:38:41  -2.46  -1.67         -225.582744             -0.5238
iter:   9  12:39:01  -2.42  -1.90         -226.429876             -0.1879
iter:  10  12:39:20  -2.24  -2.00         -226.320257             -0.0401
iter:  11  12:39:40  -2.76  -2.13         -226.300674             -0.0227
iter:  12  12:40:00  -2.60  -2.19         -226.244589             -0.0103
iter:  13  12:40:19  -2.84  -2.49         -226.210708             -0.0061
iter:  14  12:40:39  -2.98  -2.79         -226.186138             -0.0025
iter:  15  12:40:59  -3.42  -2.91         -226.177631             -0.0009
iter:  16  12:41:18  -4.24  -3.22         -226.177861             -0.0004
iter:  17  12:41:38  -4.00  -3.29         -226.173235             -0.0000
iter:  18  12:41:58  -5.20  -3.43         -226.172901             -0.0001
iter:  19  12:42:17  -4.61  -3.51         -226.174185             -0.0000
iter:  20  12:42:37  -5.06  -3.71         -226.172990             -0.0000
iter:  21  12:42:57  -5.60  -3.87         -226.172825             -0.0000
iter:  22  12:43:16  -6.52  -3.97         -226.172818             -0.0000
iter:  23  12:43:36  -6.66  -4.00         -226.172807             +0.0000
iter:  24  12:43:56  -5.88  -4.13         -226.172795             +0.0000
iter:  25  12:44:15  -6.45  -4.14         -226.172799             +0.0000
iter:  26  12:44:35  -6.63  -4.29         -226.172784             +0.0000
iter:  27  12:44:55  -6.35  -4.33         -226.172777             +0.0000
iter:  28  12:45:19  -7.76  -4.84         -226.172776             +0.0000
iter:  29  12:45:43  -7.44  -4.87    -2.64-226.172774             +0.0000
iter:  30  12:46:08  -7.75  -5.00    -2.52-226.172773             +0.0000
iter:  31  12:46:32  -9.14  -5.76    -3.71-226.172773             +0.0000
iter:  32  12:46:56  -9.50  -5.81    -3.69-226.172773             -0.0000
iter:  33  12:47:21  -9.53  -5.89    -3.76-226.172773             +0.0000
iter:  34  12:47:45 -10.16  -5.95    -4.18-226.172773             -0.0000
iter:  35  12:48:09 -10.15  -5.99    -3.87-226.172773             +0.0000
iter:  36  12:48:34 -10.08  -6.16    -3.78-226.172773             -0.0000
iter:  37  12:48:58 -11.03  -6.43    -4.25-226.172773             +0.0000
iter:  38  12:49:22 -11.03  -6.54    -4.42-226.172773             +0.0000
iter:  39  12:49:46 -11.65  -6.84    -4.60-226.172773             +0.0000
iter:  40  12:50:11 -12.18  -6.89    -4.78-226.172773             -0.0000
iter:  41  12:50:35 -12.23  -7.04    -4.77-226.172773             -0.0000
iter:  42  12:50:59 -12.48  -7.21    -5.22-226.172773             -0.0000
iter:  43  12:51:24 -13.06  -7.41    -5.21-226.172773             -0.0000
iter:  44  12:51:48 -13.83  -7.76    -6.08-226.172773             -0.0000

Converged after 44 iterations.

Dipole moment: (18.327110, -2.280296, -4.524304) |e|*Ang

Total magnetic moment: (0.000000, 0.000000, -0.000000)
Local magnetic moments:
   0 O  ( 0.000000,  0.000000, -0.001802)
   1 O  ( 0.000000,  0.000000,  0.001789)
   2 O  ( 0.000000,  0.000000,  0.001789)
   3 O  ( 0.000000,  0.000000, -0.001917)
   4 O  ( 0.000000,  0.000000,  0.001824)
   5 O  ( 0.000000,  0.000000, -0.001705)
   6 O  ( 0.000000,  0.000000, -0.001820)
   7 O  ( 0.000000,  0.000000,  0.001833)
   8 O  ( 0.000000,  0.000000,  0.031099)
   9 O  ( 0.000000,  0.000000, -0.031097)
  10 O  ( 0.000000,  0.000000, -0.031095)
  11 O  ( 0.000000,  0.000000,  0.031095)
  12 Mn ( 0.000000,  0.000000,  4.395764)
  13 Mn ( 0.000000,  0.000000, -4.395782)
  14 Mn ( 0.000000,  0.000000, -4.395717)
  15 Mn ( 0.000000,  0.000000,  4.395734)
  16 P  ( 0.000000,  0.000000,  0.000866)
  17 P  ( 0.000000,  0.000000, -0.000864)
  18 P  ( 0.000000,  0.000000, -0.000871)
  19 P  ( 0.000000,  0.000000,  0.000873)
  20 O  ( 0.000000,  0.000000,  0.028417)
  21 O  ( 0.000000,  0.000000, -0.028416)
  22 O  ( 0.000000,  0.000000, -0.028420)
  23 O  ( 0.000000,  0.000000,  0.028420)
  24 Li ( 0.000000,  0.000000, -0.000008)
  25 Li ( 0.000000,  0.000000, -0.000001)
  26 Li ( 0.000000,  0.000000,  0.000009)
  27 Li ( 0.000000,  0.000000,  0.000001)

Energy contributions relative to reference atoms: (reference = -196157.275402)

Kinetic:       +277.636608
Potential:     -240.975903
External:        +0.000000
XC:            -264.721891
Entropy (-ST):   -0.000000
Local:           +1.888413
--------------------------
Free energy:   -226.172773
Extrapolated:  -226.172773

Spin contamination: 9.455296 electrons
Showing only first 2 kpts
                      Up                     Down
 Kpt  Band  Eigenvalues  Occupancy  Eigenvalues  Occupancy
  0    88      6.53035    0.00694      6.53047    0.00694
  0    89      6.56419    0.00694      6.56401    0.00694
  0    90      8.42670    0.00000      8.42674    0.00000
  0    91      8.44837    0.00000      8.44838    0.00000

  1    88      6.56898    0.00694      6.56886    0.00694
  1    89      6.59596    0.00694      6.59600    0.00694
  1    90      8.38307    0.00000      8.38308    0.00000
  1    91      8.40522    0.00000      8.40526    0.00000


Fermi level: 7.58760

Gap: 1.699 eV
Transition (v -> c):
  (s=0, k=93, n=89, [0.08, 0.42, -0.12]) -> (s=1, k=62, n=90, [-0.08, 0.08, 0.12])
Writing to born-0.01-19y+.gpw (mode='all')

Timing:                              incl.     excl.
-----------------------------------------------------------
Hamiltonian:                         0.220     0.002   0.0% |
 Atomic:                             0.058     0.058   0.0% |
  XC Correction:                     0.000     0.000   0.0% |
 Calculate atomic Hamiltonians:      0.074     0.074   0.0% |
 Communicate:                        0.002     0.002   0.0% |
 Initialize Hamiltonian:             0.000     0.000   0.0% |
 Poisson:                            0.001     0.001   0.0% |
 XC 3D grid:                         0.084     0.084   0.0% |
LCAO initialization:                74.741     0.648   0.0% |
 LCAO eigensolver:                  19.851     0.002   0.0% |
  Calculate projections:             0.029     0.029   0.0% |
  DenseAtomicCorrection:             0.045     0.045   0.0% |
  Distribute overlap matrix:         0.008     0.008   0.0% |
  Orbital Layouts:                   0.430     0.430   0.0% |
  Potential matrix:                 19.250    19.250   0.7% |
  Sum over cells:                    0.087     0.087   0.0% |
 LCAO to grid:                      52.914    52.914   1.9% ||
 Set positions (LCAO WFS):           1.328     0.194   0.0% |
  Basic WFS set positions:           0.001     0.001   0.0% |
  Basis functions set positions:     0.000     0.000   0.0% |
  P tci:                             0.527     0.527   0.0% |
  ST tci:                            0.384     0.384   0.0% |
  mktci:                             0.221     0.221   0.0% |
PWDescriptor:                        0.023     0.023   0.0% |
SCF-cycle:                         945.748     0.787   0.0% |
 Davidson:                         821.316   251.789   8.9% |---|
  Apply H:                          56.922    55.299   1.9% ||
   HMM T:                            1.623     1.623   0.1% |
  Subspace diag:                   119.018     0.124   0.0% |
   calc_h_matrix:                   76.521    19.829   0.7% |
    Apply H:                        56.692    55.031   1.9% ||
     HMM T:                          1.661     1.661   0.1% |
   diagonalize:                      5.983     5.983   0.2% |
   rotate_psi:                      36.390    36.390   1.3% ||
  calc. matrices:                  245.477   134.377   4.7% |-|
   Apply H:                        111.100   108.058   3.8% |-|
    HMM T:                           3.042     3.042   0.1% |
  diagonalize:                      69.378    69.378   2.4% ||
  rotate_psi:                       78.732    78.732   2.8% ||
 Density:                           33.103     0.001   0.0% |
  Atomic density matrices:           0.727     0.727   0.0% |
  Mix:                               4.558     4.558   0.2% |
  Multipole moments:                 0.015     0.015   0.0% |
  Pseudo density:                   27.801    27.800   1.0% |
   Symmetrize density:               0.001     0.001   0.0% |
 Forces:                            79.179    79.179   2.8% ||
 Hamiltonian:                        9.304     0.092   0.0% |
  Atomic:                            2.169     2.168   0.1% |
   XC Correction:                    0.000     0.000   0.0% |
  Calculate atomic Hamiltonians:     3.252     3.252   0.1% |
  Communicate:                       0.071     0.071   0.0% |
  Poisson:                           0.025     0.025   0.0% |
  XC 3D grid:                        3.694     3.694   0.1% |
 Orthonormalize:                     2.060     0.003   0.0% |
  calc_s_matrix:                     0.241     0.241   0.0% |
  inverse-cholesky:                  0.072     0.072   0.0% |
  projections:                       1.316     1.316   0.0% |
  rotate_psi_s:                      0.427     0.427   0.0% |
Set symmetry:                        0.000     0.000   0.0% |
Other:                            1824.271  1824.271  64.1% |-------------------------|
-----------------------------------------------------------
Total:                                      2845.004 100.0%

Memory usage: 13.10 GiB
Date: Thu Mar 25 13:22:11 2021
