
  ___ ___ ___ _ _ _  
 |   |   |_  | | | | 
 | | | | | . | | | | 
 |__ |  _|___|_____|  20.10.1b1
 |___|_|             

User:   madkru@i013.nifl.fysik.dtu.dk
Date:   Sun Mar 21 21:03:41 2021
Arch:   x86_64
Pid:    27943
Python: 3.7.4
gpaw:   /home/niflheim/madkru/venv_folder/gpaw/gpaw (d0d1ca1c71)
_gpaw:  /home/niflheim/madkru/venv_folder/gpaw/build/lib.linux-x86_64-ivybridge-3.7/
        _gpaw.cpython-37m-x86_64-linux-gnu.so (4fd39e8b1e)
ase:    /home/niflheim/madkru/venv_folder/ase/ase (version 3.21.0b1-7e6c206a91)
numpy:  /home/niflheim/madkru/venv_folder/lib/python3.7/site-packages/numpy (version 1.19.4)
scipy:  /home/niflheim/madkru/venv_folder/lib/python3.7/site-packages/scipy (version 1.5.4)
libxc:  4.3.4
units:  Angstrom and eV
cores: 32
OMP_NUM_THREADS: 1

Input parameters:
  convergence: {bands: occupied,
                density: 0.0001,
                eigenstates: 4e-08,
                energy: 0.0005,
                forces: 1e-06}
  kpts: [6 6 4]
  mode: {ecut: 600.0,
         gammacentered: False,
         name: pw}
  occupations: {fixmagmom: False,
                name: fermi-dirac,
                width: 0.001}
  symmetry: {point_group: False,
             time_reversal: False}

System changes: positions, numbers, cell, pbc, initial_charges, initial_magmoms 

Initialize ...

O-setup:
  name: Oxygen
  id: 9b9d51c344dea68c822856295a461509
  Z: 8.0
  valence: 6
  core: 2
  charge: 0.0
  file: /home/modules/software/GPAW-setups/0.9.20000/O.LDA.gz
  compensation charges: gauss, rc=0.21, lmax=2
  cutoffs: 1.17(filt), 0.83(core),
  valence states:
                energy  radius
    2s(2.00)   -23.752   0.688
    2p(4.00)    -9.195   0.598
    *s           3.459   0.688
    *p          18.016   0.598
    *d           0.000   0.619

  Using partial waves for O as LCAO basis

Mn-setup:
  name: Manganese
  id: 0d715a8018be061a6e9ea6f2d364ac92
  Z: 25.0
  valence: 15
  core: 10
  charge: 0.0
  file: /home/modules/software/GPAW-setups/0.9.20000/Mn.LDA.gz
  compensation charges: gauss, rc=0.38, lmax=2
  cutoffs: 2.14(filt), 0.86(core),
  valence states:
                energy  radius
    3s(2.00)   -85.387   1.275
    4s(2.00)    -5.282   1.275
    3p(6.00)   -54.493   1.281
    4p(0.00)    -1.471   1.281
    3d(5.00)    -7.009   1.138
    *d          20.203   1.138

  Using partial waves for Mn as LCAO basis

P-setup:
  name: Phosphorus
  id: a5561c299094968922a179ab894d2e2d
  Z: 15.0
  valence: 5
  core: 10
  charge: 0.0
  file: /home/modules/software/GPAW-setups/0.9.20000/P.LDA.gz
  compensation charges: gauss, rc=0.30, lmax=2
  cutoffs: 1.69(filt), 1.81(core),
  valence states:
                energy  radius
    3s(2.00)   -14.015   0.953
    3p(3.00)    -5.596   0.953
    *s          13.197   0.953
    *p          21.615   0.953
    *d           0.000   0.953

  Using partial waves for P as LCAO basis

Li-setup:
  name: Lithium
  id: b73562207f97a71b6967473b66fe8b65
  Z: 3.0
  valence: 1
  core: 2
  charge: 0.0
  file: /home/modules/software/GPAW-setups/0.9.20000/Li.LDA.gz
  compensation charges: gauss, rc=0.33, lmax=2
  cutoffs: 1.91(filt), 2.55(core),
  valence states:
                energy  radius
    2s(1.00)    -2.874   1.058
    2p(0.00)    -1.126   1.058
    *s          24.338   1.058

  Using partial waves for Li as LCAO basis

Reference energy: -196157.275402

Spin-polarized calculation.
Magnetic moment: 0.000000

Convergence criteria:
  Maximum total energy change: 0.0005 eV / electron
  Maximum integral of absolute density change: 0.0001 electrons
  Maximum integral of absolute eigenstate change: 4e-08 eV^2
  Maximum change in atomic force: 1e-06 eV / Ang
  Maximum number of iterations: 333

Symmetries present (total): 1

  ( 1  0  0)
  ( 0  1  0)
  ( 0  0  1)

144 k-points: 6 x 6 x 4 Monkhorst-Pack grid
144 k-points in the irreducible part of the Brillouin zone
       k-points in crystal coordinates                weights
   0:    -0.41666667   -0.41666667   -0.37500000          1/144
   1:    -0.41666667   -0.41666667   -0.12500000          1/144
   2:    -0.41666667   -0.41666667    0.12500000          1/144
   3:    -0.41666667   -0.41666667    0.37500000          1/144
   4:    -0.41666667   -0.25000000   -0.37500000          1/144
   5:    -0.41666667   -0.25000000   -0.12500000          1/144
   6:    -0.41666667   -0.25000000    0.12500000          1/144
   7:    -0.41666667   -0.25000000    0.37500000          1/144
   8:    -0.41666667   -0.08333333   -0.37500000          1/144
   9:    -0.41666667   -0.08333333   -0.12500000          1/144
          ...
 143:     0.41666667    0.41666667    0.37500000          1/144

Wave functions: Plane wave expansion
  Cutoff energy: 600.000 eV
  Number of coefficients (min, max): 9132, 9161
  Pulay-stress correction: 0.000000 eV/Ang^3 (de/decut=0.000000)
  Using FFTW library
  ScaLapack parameters: grid=1x1, blocksize=None
  Wavefunction extrapolation:
    Improved wavefunction reuse through dual PAW basis 

  Fermi-Dirac: width=0.0010 eV

Eigensolver
   Davidson(niter=2, smin=None, normalize=True) 

Densities:
  Coarse grid: 60*35*27 grid
  Fine grid: 120*70*54 grid
  Total Charge: 0.000000 

Density mixing:
  Method: difference
  Backend: pulay
  Linear mixing parameter: 0.05
  Mixing with 5 old densities
  Damping of long wave oscillations: 50 

Hamiltonian:
  XC and Coulomb potentials evaluated on a 120*70*54 grid
  Using the LDA Exchange-Correlation functional
 

Memory estimate:
  Process memory now: 12728.07 MiB
  Calculator: 342.26 MiB
    Density: 19.13 MiB
      Arrays: 7.57 MiB
      Localized functions: 8.54 MiB
      Mixer: 3.03 MiB
    Hamiltonian: 5.87 MiB
      Arrays: 5.62 MiB
      XC: 0.00 MiB
      Poisson: 0.00 MiB
      vbar: 0.25 MiB
    Wavefunctions: 317.25 MiB
      Arrays psit_nG: 281.81 MiB
      Eigensolver: 18.27 MiB
      Projections: 5.41 MiB
      Projectors: 8.81 MiB
      PW-descriptor: 2.95 MiB

Total number of cores used: 32
Parallelization over k-points: 16
Domain decomposition: 2 x 1 x 1

Number of atoms: 28
Number of atomic orbitals: 148
Number of bands in calculation: 112
Number of valence electrons: 180
Bands to converge: occupied

... initialized

Initializing position-dependent things.

Density initialized from atomic densities
Creating initial wave functions:
  112 bands from LCAO basis set

                                           
                                           
                                           
                                           
                                           
               O     O  P  O               
            PO           OMn     O         
                  O          MO            
            O        Li O                  
             Mn  Mn          OP            
         O       O Li O                    
         Li     O P         O              
       Li                                  
                                           
                                           
                                           
                                           

Positions:
   0 O     -1.280122   -2.495595   -1.112331    ( 0.0000,  0.0000,  0.0000)
   1 O     -3.023238    2.918858    1.191723    ( 0.0000,  0.0000,  0.0000)
   2 O      1.997451    0.467212    1.441442    ( 0.0000,  0.0000,  0.0000)
   3 O      3.740343   -0.043905   -0.872614    ( 0.0000,  0.0000,  0.0000)
   4 O      1.997419    2.918835    1.441465    ( 0.0000,  0.0000,  0.0000)
   5 O      3.740372   -2.495531   -0.862587    ( 0.0000,  0.0000,  0.0000)
   6 O     -1.280154   -0.043891   -1.112309    ( 0.0000,  0.0000,  0.0000)
   7 O     -3.023210    0.467136    1.191750    ( 0.0000,  0.0000,  0.0000)
   8 O     -4.147405   -1.269737   -0.856207    ( 0.0000,  0.0000,  0.0000)
   9 O     -0.155894    1.692986    1.447725    ( 0.0000,  0.0000,  0.0000)
  10 O      4.864578    1.693016    1.185324    ( 0.0000,  0.0000,  0.0000)
  11 O      0.873163   -1.269706   -1.118625    ( 0.0000,  0.0000,  0.0000)
  12 Mn    -2.437108   -1.269902    0.302197    ( 0.0000,  0.0000,  1.0000)
  13 Mn    -1.866187    1.693156   -2.001927    ( 0.0000,  0.0000, -1.0000)
  14 Mn     3.154299    1.693181    0.026917    ( 0.0000,  0.0000, -1.0000)
  15 Mn     2.583444   -1.269877    2.331074    ( 0.0000,  0.0000,  1.0000)
  16 P     -0.543052   -1.269720   -1.734187    ( 0.0000,  0.0000,  0.0000)
  17 P     -3.760282    1.692974    0.569859    ( 0.0000,  0.0000,  0.0000)
  18 P      1.260300    1.693000    2.063344    ( 0.0000,  0.0000,  0.0000)
  19 P      4.477470   -1.269695   -0.240696    ( 0.0000,  0.0000,  0.0000)
  20 O     -0.544413   -1.269738    1.348523    ( 0.0000,  0.0000,  0.0000)
  21 O     -3.758895    1.692992   -0.955558    ( 0.0000,  0.0000,  0.0000)
  22 O      1.261690    1.693018   -1.019367    ( 0.0000,  0.0000,  0.0000)
  23 O      4.476045   -1.269713    1.284716    ( 0.0000,  0.0000,  0.0000)
  24 Li    -4.662027   -2.751322   -2.139440    ( 0.0000,  0.0000,  0.0000)
  25 Li     0.358703   -2.751277    0.164614    ( 0.0000,  0.0000,  0.0000)
  26 Li    -4.662011    0.211617   -2.139439    ( 0.0000,  0.0000,  0.0000)
  27 Li     0.358720    0.211628    0.164615    ( 0.0000,  0.0000,  0.0000)

Unit cell:
           periodic     x           y           z      points  spacing
  1. axis:    yes   10.041096    0.000054   -0.000022    60     0.1674
  2. axis:    yes    0.000032    5.925857    0.000001    35     0.1693
  3. axis:    yes   -0.000010    0.000001    4.608134    27     0.1707

  Lengths:  10.041096   5.925857   4.608134
  Angles:   89.999974  90.000250  89.999381

Effective grid spacing dv^(1/3) = 0.1691

                     log10-error:           total        iterations:
           time      wfs    density  force  energy       poisson  magmom
iter:   1  21:06:46                       -233.734948             +0.0000
iter:   2  21:07:22  -0.47  -0.95         -231.547716             +0.0013
iter:   3  21:07:58  -0.60  -1.00         -220.837808             +0.0014
iter:   4  21:08:34  -1.21  -1.30         -221.688329             +0.3770
iter:   5  21:09:11  -2.07  -1.37         -222.256037             +0.1862
iter:   6  21:09:47  -2.29  -1.40         -224.284075             -0.1284
iter:   7  21:10:23  -2.02  -1.49         -225.213212             -0.9452
iter:   8  21:10:59  -2.26  -1.61         -226.312370             -0.7407
iter:   9  21:11:35  -2.52  -1.90         -226.137495             -0.4039
iter:  10  21:12:12  -2.77  -2.08         -226.267431             -0.2433
iter:  11  21:12:48  -2.32  -2.14         -226.446339             +0.0008
iter:  12  21:13:24  -2.57  -2.20         -226.442618             -0.0081
iter:  13  21:14:00  -2.58  -2.41         -226.205469             +0.0009
iter:  14  21:14:36  -3.13  -2.65         -226.198362             -0.0009
iter:  15  21:15:12  -3.18  -2.71         -226.193827             -0.0001
iter:  16  21:15:49  -3.95  -3.06         -226.183420             -0.0001
iter:  17  21:16:25  -4.05  -3.06         -226.176271             -0.0000
iter:  18  21:17:01  -4.17  -3.15         -226.182709             -0.0000
iter:  19  21:17:37  -4.00  -3.30         -226.175230             -0.0000
iter:  20  21:18:13  -5.36  -3.55         -226.175241             -0.0000
iter:  21  21:18:49  -4.91  -3.59         -226.175248             +0.0000
iter:  22  21:19:25  -5.08  -3.86         -226.174810             +0.0000
iter:  23  21:20:01  -6.11  -3.91         -226.174861             +0.0000
iter:  24  21:20:37  -6.10  -4.00         -226.174799             +0.0000
iter:  25  21:21:13  -5.98  -4.24         -226.174811             +0.0000
iter:  26  21:21:49  -6.10  -4.34         -226.174810             +0.0000
iter:  27  21:22:25  -6.81  -4.37         -226.174807             +0.0000
iter:  28  21:23:02  -7.01  -4.48         -226.174804             +0.0000
iter:  29  21:23:47  -7.88  -4.53         -226.174804             +0.0000
iter:  30  21:24:32  -7.70  -4.59    -2.59-226.174805             +0.0000
iter:  31  21:25:08  -7.03  -4.64         -226.174803             +0.0000
iter:  32  21:25:54  -7.88  -4.85    -2.22-226.174802             +0.0000
iter:  33  21:26:39  -8.99  -5.03    -3.29-226.174802             +0.0000
iter:  34  21:27:24  -8.14  -5.09    -2.63-226.174803             -0.0000
iter:  35  21:28:10  -8.81  -5.32    -3.28-226.174802             +0.0000
iter:  36  21:28:55  -9.28  -5.44    -3.47-226.174802             +0.0000
iter:  37  21:29:40  -8.81  -5.53    -3.32-226.174802             +0.0000
iter:  38  21:30:26  -9.07  -5.61    -3.57-226.174802             +0.0000
iter:  39  21:31:11  -9.51  -5.70    -3.43-226.174802             +0.0000
iter:  40  21:31:56  -9.76  -5.85    -3.71-226.174802             +0.0000
iter:  41  21:32:42 -10.00  -5.94    -3.73-226.174802             -0.0000
iter:  42  21:33:27 -10.53  -6.11    -4.11-226.174802             -0.0000
iter:  43  21:34:12 -10.03  -6.24    -3.80-226.174802             +0.0000
iter:  44  21:34:58 -10.80  -6.43    -4.29-226.174802             -0.0000
iter:  45  21:35:43 -11.52  -6.48    -4.44-226.174802             +0.0000
iter:  46  21:36:28 -10.99  -6.55    -4.03-226.174802             +0.0000
iter:  47  21:37:14 -11.55  -6.96    -4.67-226.174802             +0.0000
iter:  48  21:37:59 -12.26  -7.14    -4.78-226.174802             -0.0000
iter:  49  21:38:44 -12.33  -7.21    -4.72-226.174802             -0.0000
iter:  50  21:39:30 -13.33  -7.52    -5.47-226.174802             +0.0000
iter:  51  21:40:15 -13.39  -7.58    -5.90-226.174802             -0.0000
iter:  52  21:41:00 -13.61  -7.62    -5.61-226.174802             +0.0000
iter:  53  21:41:46 -13.73  -7.89    -5.42-226.174802             +0.0000
iter:  54  21:42:31 -15.14  -8.02    -6.32-226.174802             +0.0000

Converged after 54 iterations.

Dipole moment: (18.327782, -2.304339, -4.546864) |e|*Ang

Total magnetic moment: (0.000000, 0.000000, 0.000000)
Local magnetic moments:
   0 O  ( 0.000000,  0.000000, -0.001800)
   1 O  ( 0.000000,  0.000000,  0.001822)
   2 O  ( 0.000000,  0.000000,  0.001858)
   3 O  ( 0.000000,  0.000000, -0.001528)
   4 O  ( 0.000000,  0.000000,  0.001662)
   5 O  ( 0.000000,  0.000000, -0.001787)
   6 O  ( 0.000000,  0.000000, -0.001809)
   7 O  ( 0.000000,  0.000000,  0.001825)
   8 O  ( 0.000000,  0.000000,  0.031191)
   9 O  ( 0.000000,  0.000000, -0.031104)
  10 O  ( 0.000000,  0.000000, -0.031040)
  11 O  ( 0.000000,  0.000000,  0.031115)
  12 Mn ( 0.000000,  0.000000,  4.395783)
  13 Mn ( 0.000000,  0.000000, -4.395761)
  14 Mn ( 0.000000,  0.000000, -4.396174)
  15 Mn ( 0.000000,  0.000000,  4.395194)
  16 P  ( 0.000000,  0.000000,  0.000878)
  17 P  ( 0.000000,  0.000000, -0.000857)
  18 P  ( 0.000000,  0.000000, -0.000864)
  19 P  ( 0.000000,  0.000000,  0.001083)
  20 O  ( 0.000000,  0.000000,  0.028421)
  21 O  ( 0.000000,  0.000000, -0.028403)
  22 O  ( 0.000000,  0.000000, -0.028398)
  23 O  ( 0.000000,  0.000000,  0.028417)
  24 Li ( 0.000000,  0.000000,  0.000001)
  25 Li ( 0.000000,  0.000000,  0.000001)
  26 Li ( 0.000000,  0.000000,  0.000008)
  27 Li ( 0.000000,  0.000000, -0.000001)

Energy contributions relative to reference atoms: (reference = -196157.275402)

Kinetic:       +277.375429
Potential:     -240.774797
External:        +0.000000
XC:            -264.664690
Entropy (-ST):   -0.000000
Local:           +1.889256
--------------------------
Free energy:   -226.174802
Extrapolated:  -226.174802

Spin contamination: 9.455141 electrons
Showing only first 2 kpts
                      Up                     Down
 Kpt  Band  Eigenvalues  Occupancy  Eigenvalues  Occupancy
  0    88      6.53318    0.00694      6.52897    0.00694
  0    89      6.56618    0.00694      6.56266    0.00694
  0    90      8.42734    0.00000      8.42863    0.00000
  0    91      8.44880    0.00000      8.45094    0.00000

  1    88      6.57174    0.00694      6.56766    0.00694
  1    89      6.59847    0.00694      6.59481    0.00694
  1    90      8.38343    0.00000      8.38464    0.00000
  1    91      8.40558    0.00000      8.40731    0.00000


Fermi level: 7.53262

Gap: 1.697 eV
Transition (v -> c):
  (s=0, k=70, n=89, [-0.08, 0.42, 0.12]) -> (s=0, k=81, n=90, [0.08, -0.08, -0.12])
Writing to born-0.01-3z-.gpw (mode='all')

Timing:                              incl.     excl.
-----------------------------------------------------------
Hamiltonian:                         0.354     0.002   0.0% |
 Atomic:                             0.050     0.050   0.0% |
  XC Correction:                     0.000     0.000   0.0% |
 Calculate atomic Hamiltonians:      0.143     0.143   0.0% |
 Communicate:                        0.002     0.002   0.0% |
 Initialize Hamiltonian:             0.000     0.000   0.0% |
 Poisson:                            0.001     0.001   0.0% |
 XC 3D grid:                         0.155     0.155   0.0% |
LCAO initialization:               144.844     0.646   0.0% |
 LCAO eigensolver:                  38.270     0.002   0.0% |
  Calculate projections:             0.057     0.057   0.0% |
  DenseAtomicCorrection:             0.088     0.088   0.0% |
  Distribute overlap matrix:         0.006     0.006   0.0% |
  Orbital Layouts:                   0.340     0.340   0.0% |
  Potential matrix:                 37.689    37.689   0.7% |
  Sum over cells:                    0.087     0.087   0.0% |
 LCAO to grid:                     103.581   103.581   1.9% ||
 Set positions (LCAO WFS):           2.347     0.372   0.0% |
  Basic WFS set positions:           0.001     0.001   0.0% |
  Basis functions set positions:     0.000     0.000   0.0% |
  P tci:                             1.055     1.055   0.0% |
  ST tci:                            0.701     0.701   0.0% |
  mktci:                             0.218     0.218   0.0% |
PWDescriptor:                        0.024     0.024   0.0% |
SCF-cycle:                        2183.572     7.990   0.1% |
 Davidson:                        1846.639   589.136  10.8% |---|
  Apply H:                         132.487   128.311   2.4% ||
   HMM T:                            4.176     4.176   0.1% |
  Subspace diag:                   274.902     0.165   0.0% |
   calc_h_matrix:                  179.235    48.223   0.9% |
    Apply H:                       131.013   126.950   2.3% ||
     HMM T:                          4.062     4.062   0.1% |
   diagonalize:                      6.330     6.330   0.1% |
   rotate_psi:                      89.172    89.172   1.6% ||
  calc. matrices:                  582.756   324.447   6.0% |-|
   Apply H:                        258.309   250.651   4.6% |-|
    HMM T:                           7.658     7.658   0.1% |
  diagonalize:                      85.025    85.025   1.6% ||
  rotate_psi:                      182.333   182.333   3.4% ||
 Density:                           74.748     0.001   0.0% |
  Atomic density matrices:           1.364     1.364   0.0% |
  Mix:                              10.196    10.196   0.2% |
  Multipole moments:                 0.031     0.031   0.0% |
  Pseudo density:                   63.156    63.155   1.2% |
   Symmetrize density:               0.001     0.001   0.0% |
 Forces:                           231.053   231.053   4.2% |-|
 Hamiltonian:                       19.163     0.128   0.0% |
  Atomic:                            2.707     2.707   0.0% |
   XC Correction:                    0.000     0.000   0.0% |
  Calculate atomic Hamiltonians:     7.737     7.737   0.1% |
  Communicate:                       0.082     0.082   0.0% |
  Poisson:                           0.063     0.063   0.0% |
  XC 3D grid:                        8.446     8.446   0.2% |
 Orthonormalize:                     3.980     0.004   0.0% |
  calc_s_matrix:                     0.479     0.479   0.0% |
  inverse-cholesky:                  0.054     0.054   0.0% |
  projections:                       2.591     2.591   0.0% |
  rotate_psi_s:                      0.853     0.853   0.0% |
Set symmetry:                        0.000     0.000   0.0% |
Other:                            3113.613  3113.613  57.2% |----------------------|
-----------------------------------------------------------
Total:                                      5442.407 100.0%

Memory usage: 12.46 GiB
Date: Sun Mar 21 22:34:23 2021
