
  ___ ___ ___ _ _ _  
 |   |   |_  | | | | 
 | | | | | . | | | | 
 |__ |  _|___|_____|  20.10.1b1
 |___|_|             

User:   madkru@i013.nifl.fysik.dtu.dk
Date:   Sun Mar 21 12:34:00 2021
Arch:   x86_64
Pid:    27943
Python: 3.7.4
gpaw:   /home/niflheim/madkru/venv_folder/gpaw/gpaw (d0d1ca1c71)
_gpaw:  /home/niflheim/madkru/venv_folder/gpaw/build/lib.linux-x86_64-ivybridge-3.7/
        _gpaw.cpython-37m-x86_64-linux-gnu.so (4fd39e8b1e)
ase:    /home/niflheim/madkru/venv_folder/ase/ase (version 3.21.0b1-7e6c206a91)
numpy:  /home/niflheim/madkru/venv_folder/lib/python3.7/site-packages/numpy (version 1.19.4)
scipy:  /home/niflheim/madkru/venv_folder/lib/python3.7/site-packages/scipy (version 1.5.4)
libxc:  4.3.4
units:  Angstrom and eV
cores: 32
OMP_NUM_THREADS: 1

Input parameters:
  convergence: {bands: occupied,
                density: 0.0001,
                eigenstates: 4e-08,
                energy: 0.0005,
                forces: 1e-06}
  kpts: [6 6 4]
  mode: {ecut: 600.0,
         gammacentered: False,
         name: pw}
  occupations: {fixmagmom: False,
                name: fermi-dirac,
                width: 0.001}
  symmetry: {point_group: False,
             time_reversal: False}

System changes: positions, numbers, cell, pbc, initial_charges, initial_magmoms 

Initialize ...

O-setup:
  name: Oxygen
  id: 9b9d51c344dea68c822856295a461509
  Z: 8.0
  valence: 6
  core: 2
  charge: 0.0
  file: /home/modules/software/GPAW-setups/0.9.20000/O.LDA.gz
  compensation charges: gauss, rc=0.21, lmax=2
  cutoffs: 1.17(filt), 0.83(core),
  valence states:
                energy  radius
    2s(2.00)   -23.752   0.688
    2p(4.00)    -9.195   0.598
    *s           3.459   0.688
    *p          18.016   0.598
    *d           0.000   0.619

  Using partial waves for O as LCAO basis

Mn-setup:
  name: Manganese
  id: 0d715a8018be061a6e9ea6f2d364ac92
  Z: 25.0
  valence: 15
  core: 10
  charge: 0.0
  file: /home/modules/software/GPAW-setups/0.9.20000/Mn.LDA.gz
  compensation charges: gauss, rc=0.38, lmax=2
  cutoffs: 2.14(filt), 0.86(core),
  valence states:
                energy  radius
    3s(2.00)   -85.387   1.275
    4s(2.00)    -5.282   1.275
    3p(6.00)   -54.493   1.281
    4p(0.00)    -1.471   1.281
    3d(5.00)    -7.009   1.138
    *d          20.203   1.138

  Using partial waves for Mn as LCAO basis

P-setup:
  name: Phosphorus
  id: a5561c299094968922a179ab894d2e2d
  Z: 15.0
  valence: 5
  core: 10
  charge: 0.0
  file: /home/modules/software/GPAW-setups/0.9.20000/P.LDA.gz
  compensation charges: gauss, rc=0.30, lmax=2
  cutoffs: 1.69(filt), 1.81(core),
  valence states:
                energy  radius
    3s(2.00)   -14.015   0.953
    3p(3.00)    -5.596   0.953
    *s          13.197   0.953
    *p          21.615   0.953
    *d           0.000   0.953

  Using partial waves for P as LCAO basis

Li-setup:
  name: Lithium
  id: b73562207f97a71b6967473b66fe8b65
  Z: 3.0
  valence: 1
  core: 2
  charge: 0.0
  file: /home/modules/software/GPAW-setups/0.9.20000/Li.LDA.gz
  compensation charges: gauss, rc=0.33, lmax=2
  cutoffs: 1.91(filt), 2.55(core),
  valence states:
                energy  radius
    2s(1.00)    -2.874   1.058
    2p(0.00)    -1.126   1.058
    *s          24.338   1.058

  Using partial waves for Li as LCAO basis

Reference energy: -196157.275402

Spin-polarized calculation.
Magnetic moment: 0.000000

Convergence criteria:
  Maximum total energy change: 0.0005 eV / electron
  Maximum integral of absolute density change: 0.0001 electrons
  Maximum integral of absolute eigenstate change: 4e-08 eV^2
  Maximum change in atomic force: 1e-06 eV / Ang
  Maximum number of iterations: 333

Symmetries present (total): 1

  ( 1  0  0)
  ( 0  1  0)
  ( 0  0  1)

144 k-points: 6 x 6 x 4 Monkhorst-Pack grid
144 k-points in the irreducible part of the Brillouin zone
       k-points in crystal coordinates                weights
   0:    -0.41666667   -0.41666667   -0.37500000          1/144
   1:    -0.41666667   -0.41666667   -0.12500000          1/144
   2:    -0.41666667   -0.41666667    0.12500000          1/144
   3:    -0.41666667   -0.41666667    0.37500000          1/144
   4:    -0.41666667   -0.25000000   -0.37500000          1/144
   5:    -0.41666667   -0.25000000   -0.12500000          1/144
   6:    -0.41666667   -0.25000000    0.12500000          1/144
   7:    -0.41666667   -0.25000000    0.37500000          1/144
   8:    -0.41666667   -0.08333333   -0.37500000          1/144
   9:    -0.41666667   -0.08333333   -0.12500000          1/144
          ...
 143:     0.41666667    0.41666667    0.37500000          1/144

Wave functions: Plane wave expansion
  Cutoff energy: 600.000 eV
  Number of coefficients (min, max): 9132, 9161
  Pulay-stress correction: 0.000000 eV/Ang^3 (de/decut=0.000000)
  Using FFTW library
  ScaLapack parameters: grid=1x1, blocksize=None
  Wavefunction extrapolation:
    Improved wavefunction reuse through dual PAW basis 

  Fermi-Dirac: width=0.0010 eV

Eigensolver
   Davidson(niter=2, smin=None, normalize=True) 

Densities:
  Coarse grid: 60*35*27 grid
  Fine grid: 120*70*54 grid
  Total Charge: 0.000000 

Density mixing:
  Method: difference
  Backend: pulay
  Linear mixing parameter: 0.05
  Mixing with 5 old densities
  Damping of long wave oscillations: 50 

Hamiltonian:
  XC and Coulomb potentials evaluated on a 120*70*54 grid
  Using the LDA Exchange-Correlation functional
 

Memory estimate:
  Process memory now: 12472.19 MiB
  Calculator: 342.26 MiB
    Density: 19.13 MiB
      Arrays: 7.57 MiB
      Localized functions: 8.54 MiB
      Mixer: 3.03 MiB
    Hamiltonian: 5.87 MiB
      Arrays: 5.62 MiB
      XC: 0.00 MiB
      Poisson: 0.00 MiB
      vbar: 0.25 MiB
    Wavefunctions: 317.25 MiB
      Arrays psit_nG: 281.81 MiB
      Eigensolver: 18.27 MiB
      Projections: 5.41 MiB
      Projectors: 8.81 MiB
      PW-descriptor: 2.95 MiB

Total number of cores used: 32
Parallelization over k-points: 16
Domain decomposition: 2 x 1 x 1

Number of atoms: 28
Number of atomic orbitals: 148
Number of bands in calculation: 112
Number of valence electrons: 180
Bands to converge: occupied

... initialized

Initializing position-dependent things.

Density initialized from atomic densities
Creating initial wave functions:
  112 bands from LCAO basis set

                                           
                                           
                                           
                                           
                                           
               O     O  P  O               
            PO           OMn     O         
                  O          MO            
            O        Li O                  
             Mn  Mn          OP            
         O       O Li O                    
         Li     O P         O              
       Li                                  
                                           
                                           
                                           
                                           

Positions:
   0 O     -1.280122   -2.495595   -1.112331    ( 0.0000,  0.0000,  0.0000)
   1 O     -3.023238    2.918858    1.191723    ( 0.0000,  0.0000,  0.0000)
   2 O      1.987451    0.467212    1.441442    ( 0.0000,  0.0000,  0.0000)
   3 O      3.740343   -0.043905   -0.862614    ( 0.0000,  0.0000,  0.0000)
   4 O      1.997419    2.918835    1.441465    ( 0.0000,  0.0000,  0.0000)
   5 O      3.740372   -2.495531   -0.862587    ( 0.0000,  0.0000,  0.0000)
   6 O     -1.280154   -0.043891   -1.112309    ( 0.0000,  0.0000,  0.0000)
   7 O     -3.023210    0.467136    1.191750    ( 0.0000,  0.0000,  0.0000)
   8 O     -4.147405   -1.269737   -0.856207    ( 0.0000,  0.0000,  0.0000)
   9 O     -0.155894    1.692986    1.447725    ( 0.0000,  0.0000,  0.0000)
  10 O      4.864578    1.693016    1.185324    ( 0.0000,  0.0000,  0.0000)
  11 O      0.873163   -1.269706   -1.118625    ( 0.0000,  0.0000,  0.0000)
  12 Mn    -2.437108   -1.269902    0.302197    ( 0.0000,  0.0000,  1.0000)
  13 Mn    -1.866187    1.693156   -2.001927    ( 0.0000,  0.0000, -1.0000)
  14 Mn     3.154299    1.693181    0.026917    ( 0.0000,  0.0000, -1.0000)
  15 Mn     2.583444   -1.269877    2.331074    ( 0.0000,  0.0000,  1.0000)
  16 P     -0.543052   -1.269720   -1.734187    ( 0.0000,  0.0000,  0.0000)
  17 P     -3.760282    1.692974    0.569859    ( 0.0000,  0.0000,  0.0000)
  18 P      1.260300    1.693000    2.063344    ( 0.0000,  0.0000,  0.0000)
  19 P      4.477470   -1.269695   -0.240696    ( 0.0000,  0.0000,  0.0000)
  20 O     -0.544413   -1.269738    1.348523    ( 0.0000,  0.0000,  0.0000)
  21 O     -3.758895    1.692992   -0.955558    ( 0.0000,  0.0000,  0.0000)
  22 O      1.261690    1.693018   -1.019367    ( 0.0000,  0.0000,  0.0000)
  23 O      4.476045   -1.269713    1.284716    ( 0.0000,  0.0000,  0.0000)
  24 Li    -4.662027   -2.751322   -2.139440    ( 0.0000,  0.0000,  0.0000)
  25 Li     0.358703   -2.751277    0.164614    ( 0.0000,  0.0000,  0.0000)
  26 Li    -4.662011    0.211617   -2.139439    ( 0.0000,  0.0000,  0.0000)
  27 Li     0.358720    0.211628    0.164615    ( 0.0000,  0.0000,  0.0000)

Unit cell:
           periodic     x           y           z      points  spacing
  1. axis:    yes   10.041096    0.000054   -0.000022    60     0.1674
  2. axis:    yes    0.000032    5.925857    0.000001    35     0.1693
  3. axis:    yes   -0.000010    0.000001    4.608134    27     0.1707

  Lengths:  10.041096   5.925857   4.608134
  Angles:   89.999974  90.000250  89.999381

Effective grid spacing dv^(1/3) = 0.1691

                     log10-error:           total        iterations:
           time      wfs    density  force  energy       poisson  magmom
iter:   1  12:37:02                       -233.728703             +0.0000
iter:   2  12:37:38  -0.47  -0.95         -231.554481             +0.0026
iter:   3  12:38:14  -0.60  -1.00         -220.827802             +0.0028
iter:   4  12:38:50  -1.21  -1.30         -221.582588             +0.3836
iter:   5  12:39:26  -2.07  -1.37         -222.264029             +0.1865
iter:   6  12:40:03  -2.28  -1.40         -224.467695             -0.1277
iter:   7  12:40:39  -2.05  -1.48         -224.854965             -0.9476
iter:   8  12:41:15  -2.26  -1.58         -226.171330             -0.9260
iter:   9  12:41:51  -2.54  -1.84         -225.953654             -0.2787
iter:  10  12:42:27  -2.81  -2.05         -226.194491             -0.1693
iter:  11  12:43:03  -2.06  -2.11         -226.619047             +0.0090
iter:  12  12:43:39  -3.11  -2.23         -226.433208             -0.0105
iter:  13  12:44:15  -2.67  -2.30         -226.422527             -0.0033
iter:  14  12:44:51  -2.65  -2.52         -226.217278             -0.0028
iter:  15  12:45:27  -3.08  -2.70         -226.202838             -0.0009
iter:  16  12:46:03  -3.10  -2.78         -226.183857             -0.0006
iter:  17  12:46:40  -4.25  -2.93         -226.182118             -0.0002
iter:  18  12:47:16  -3.66  -2.96         -226.177658             +0.0000
iter:  19  12:47:52  -4.61  -3.03         -226.176345             -0.0000
iter:  20  12:48:28  -3.99  -3.07         -226.180508             -0.0000
iter:  21  12:49:04  -5.04  -3.22         -226.179999             -0.0000
iter:  22  12:49:40  -3.86  -3.28         -226.175297             -0.0000
iter:  23  12:50:16  -4.96  -3.61         -226.174846             -0.0000
iter:  24  12:50:52  -5.34  -3.78         -226.174723             -0.0000
iter:  25  12:51:28  -6.20  -3.98         -226.174743             -0.0000
iter:  26  12:52:04  -5.84  -4.09         -226.174744             -0.0000
iter:  27  12:52:40  -6.43  -4.17         -226.174703             -0.0000
iter:  28  12:53:26  -7.44  -4.37         -226.174700             -0.0000
iter:  29  12:54:02  -6.75  -4.41         -226.174698             -0.0000
iter:  30  12:54:38  -7.03  -4.70         -226.174695             -0.0000
iter:  31  12:55:23  -8.17  -4.88    -2.21-226.174694             -0.0000
iter:  32  12:56:08  -7.74  -4.97    -2.58-226.174695             -0.0000
iter:  33  12:56:54  -7.64  -5.03    -2.74-226.174694             -0.0000
iter:  34  12:57:39  -8.88  -5.23    -3.14-226.174694             -0.0000
iter:  35  12:58:25  -8.48  -5.33    -2.82-226.174694             +0.0000
iter:  36  12:59:10  -8.86  -5.40    -3.35-226.174694             +0.0000
iter:  37  12:59:55  -9.05  -5.44    -3.27-226.174694             -0.0000
iter:  38  13:00:40 -10.08  -5.52    -4.01-226.174694             +0.0000
iter:  39  13:01:26  -8.79  -5.55    -3.33-226.174694             +0.0000
iter:  40  13:02:11  -9.84  -5.86    -3.82-226.174694             +0.0000
iter:  41  13:02:56 -10.66  -6.01    -4.18-226.174694             -0.0000
iter:  42  13:03:42 -10.43  -6.07    -3.84-226.174694             -0.0000
iter:  43  13:04:27 -10.16  -6.18    -3.93-226.174694             -0.0000
iter:  44  13:05:13 -10.83  -6.30    -4.63-226.174694             -0.0000
iter:  45  13:05:58 -11.08  -6.37    -4.60-226.174694             -0.0000
iter:  46  13:06:43 -11.02  -6.43    -4.47-226.174694             -0.0000
iter:  47  13:07:28 -11.10  -6.50    -4.18-226.174694             +0.0000
iter:  48  13:08:14 -11.57  -6.73    -4.97-226.174694             +0.0000
iter:  49  13:08:59 -11.91  -6.92    -4.68-226.174694             +0.0000
iter:  50  13:09:44 -11.62  -7.06    -4.69-226.174694             +0.0000
iter:  51  13:10:30 -12.72  -7.33    -5.29-226.174694             +0.0000
iter:  52  13:11:15 -12.28  -7.37    -5.28-226.174694             +0.0000
iter:  53  13:12:00 -13.26  -7.62    -5.30-226.174694             +0.0000
iter:  54  13:12:46 -14.14  -7.69    -5.92-226.174694             +0.0000
iter:  55  13:13:31 -13.65  -7.73    -5.97-226.174694             +0.0000
iter:  56  13:14:16 -14.30  -7.83    -6.21-226.174694             +0.0000

Converged after 56 iterations.

Dipole moment: (18.327961, -2.302942, -4.523762) |e|*Ang

Total magnetic moment: (0.000000, 0.000000, 0.000000)
Local magnetic moments:
   0 O  ( 0.000000,  0.000000, -0.001787)
   1 O  ( 0.000000,  0.000000,  0.001826)
   2 O  ( 0.000000,  0.000000,  0.001829)
   3 O  ( 0.000000,  0.000000, -0.001826)
   4 O  ( 0.000000,  0.000000,  0.001819)
   5 O  ( 0.000000,  0.000000, -0.001866)
   6 O  ( 0.000000,  0.000000, -0.001790)
   7 O  ( 0.000000,  0.000000,  0.001831)
   8 O  ( 0.000000,  0.000000,  0.031038)
   9 O  ( 0.000000,  0.000000, -0.031228)
  10 O  ( 0.000000,  0.000000, -0.031098)
  11 O  ( 0.000000,  0.000000,  0.031148)
  12 Mn ( 0.000000,  0.000000,  4.395784)
  13 Mn ( 0.000000,  0.000000, -4.395801)
  14 Mn ( 0.000000,  0.000000, -4.396557)
  15 Mn ( 0.000000,  0.000000,  4.396793)
  16 P  ( 0.000000,  0.000000,  0.000851)
  17 P  ( 0.000000,  0.000000, -0.000854)
  18 P  ( 0.000000,  0.000000, -0.000844)
  19 P  ( 0.000000,  0.000000,  0.000886)
  20 O  ( 0.000000,  0.000000,  0.028442)
  21 O  ( 0.000000,  0.000000, -0.028372)
  22 O  ( 0.000000,  0.000000, -0.028462)
  23 O  ( 0.000000,  0.000000,  0.028382)
  24 Li ( 0.000000,  0.000000,  0.000001)
  25 Li ( 0.000000,  0.000000, -0.000005)
  26 Li ( 0.000000,  0.000000, -0.000000)
  27 Li ( 0.000000,  0.000000,  0.000007)

Energy contributions relative to reference atoms: (reference = -196157.275402)

Kinetic:       +277.895042
Potential:     -241.171910
External:        +0.000000
XC:            -264.785915
Entropy (-ST):   -0.000000
Local:           +1.888089
--------------------------
Free energy:   -226.174694
Extrapolated:  -226.174694

Spin contamination: 9.456417 electrons
Showing only first 2 kpts
                      Up                     Down
 Kpt  Band  Eigenvalues  Occupancy  Eigenvalues  Occupancy
  0    88      6.52586    0.00694      6.52807    0.00694
  0    89      6.56150    0.00694      6.56380    0.00694
  0    90      8.42250    0.00000      8.42400    0.00000
  0    91      8.44887    0.00000      8.44590    0.00000

  1    88      6.56391    0.00694      6.56656    0.00694
  1    89      6.59384    0.00694      6.59562    0.00694
  1    90      8.37731    0.00000      8.38048    0.00000
  1    91      8.40520    0.00000      8.40298    0.00000


Fermi level: 7.24797

Gap: 1.695 eV
Transition (v -> c):
  (s=1, k=70, n=89, [-0.08, 0.42, 0.12]) -> (s=0, k=61, n=90, [-0.08, 0.08, -0.12])
Writing to born-0.01-2x-.gpw (mode='all')

Timing:                              incl.     excl.
-----------------------------------------------------------
Hamiltonian:                         0.352     0.002   0.0% |
 Atomic:                             0.050     0.050   0.0% |
  XC Correction:                     0.000     0.000   0.0% |
 Calculate atomic Hamiltonians:      0.140     0.140   0.0% |
 Communicate:                        0.002     0.002   0.0% |
 Initialize Hamiltonian:             0.000     0.000   0.0% |
 Poisson:                            0.001     0.001   0.0% |
 XC 3D grid:                         0.156     0.156   0.0% |
LCAO initialization:               141.234     0.677   0.0% |
 LCAO eigensolver:                  38.011     0.002   0.0% |
  Calculate projections:             0.057     0.057   0.0% |
  DenseAtomicCorrection:             0.087     0.087   0.0% |
  Distribute overlap matrix:         0.062     0.062   0.0% |
  Orbital Layouts:                   0.341     0.341   0.0% |
  Potential matrix:                 37.364    37.364   0.7% |
  Sum over cells:                    0.097     0.097   0.0% |
 LCAO to grid:                     100.205   100.205   1.8% ||
 Set positions (LCAO WFS):           2.341     0.373   0.0% |
  Basic WFS set positions:           0.001     0.001   0.0% |
  Basis functions set positions:     0.000     0.000   0.0% |
  P tci:                             1.049     1.049   0.0% |
  ST tci:                            0.701     0.701   0.0% |
  mktci:                             0.216     0.216   0.0% |
PWDescriptor:                        0.023     0.023   0.0% |
SCF-cycle:                        2272.699    11.738   0.2% |
 Davidson:                        1909.750   612.434  10.9% |---|
  Apply H:                         134.863   130.447   2.3% ||
   HMM T:                            4.417     4.417   0.1% |
  Subspace diag:                   282.607     0.168   0.0% |
   calc_h_matrix:                  183.434    50.002   0.9% |
    Apply H:                       133.432   129.171   2.3% ||
     HMM T:                          4.261     4.261   0.1% |
   diagonalize:                      6.528     6.528   0.1% |
   rotate_psi:                      92.476    92.476   1.7% ||
  calc. matrices:                  602.544   336.747   6.0% |-|
   Apply H:                        265.797   257.486   4.6% |-|
    HMM T:                           8.310     8.310   0.1% |
  diagonalize:                      88.341    88.341   1.6% ||
  rotate_psi:                      188.962   188.962   3.4% ||
 Density:                           77.925     0.001   0.0% |
  Atomic density matrices:           1.444     1.444   0.0% |
  Mix:                              10.631    10.631   0.2% |
  Multipole moments:                 0.033     0.033   0.0% |
  Pseudo density:                   65.816    65.814   1.2% |
   Symmetrize density:               0.002     0.002   0.0% |
 Forces:                           249.424   249.424   4.5% |-|
 Hamiltonian:                       19.874     0.132   0.0% |
  Atomic:                            2.775     2.775   0.0% |
   XC Correction:                    0.000     0.000   0.0% |
  Calculate atomic Hamiltonians:     8.031     8.031   0.1% |
  Communicate:                       0.096     0.096   0.0% |
  Poisson:                           0.065     0.065   0.0% |
  XC 3D grid:                        8.775     8.775   0.2% |
 Orthonormalize:                     3.988     0.004   0.0% |
  calc_s_matrix:                     0.478     0.478   0.0% |
  inverse-cholesky:                  0.054     0.054   0.0% |
  projections:                       2.601     2.601   0.0% |
  rotate_psi_s:                      0.851     0.851   0.0% |
Set symmetry:                        0.000     0.000   0.0% |
Other:                            3179.175  3179.175  56.8% |----------------------|
-----------------------------------------------------------
Total:                                      5593.483 100.0%

Memory usage: 12.20 GiB
Date: Sun Mar 21 14:07:14 2021
