
  ___ ___ ___ _ _ _  
 |   |   |_  | | | | 
 | | | | | . | | | | 
 |__ |  _|___|_____|  21.1.1b1
 |___|_|             

User:   madkru@g043.nifl.fysik.dtu.dk
Date:   Mon Mar 29 17:12:18 2021
Arch:   x86_64
Pid:    9629
Python: 3.8.6
gpaw:   /home/niflheim/madkru/venv_madkru/gpaw/gpaw (e6f0d78a31)
_gpaw:  /home/niflheim/madkru/venv_madkru/gpaw/build/lib.linux-x86_64-sandybridge-3.8/
        _gpaw.cpython-38-x86_64-linux-gnu.so (e6f0d78a31)
ase:    /home/niflheim/madkru/venv_madkru/ase/ase (version 3.22.0b1-4d5a73cb29)
numpy:  /home/modules/software/SciPy-bundle/2020.11-foss-2020b/lib/python3.8/site-packages/numpy (version 1.19.4)
scipy:  /home/modules/software/SciPy-bundle/2020.11-foss-2020b/lib/python3.8/site-packages/scipy (version 1.5.4)
libxc:  4.3.4
units:  Angstrom and eV
cores: 64
OpenMP: False
OMP_NUM_THREADS: 1

Input parameters:
  convergence: {bands: occupied,
                density: 0.0001,
                eigenstates: 4e-08,
                energy: 0.0005,
                forces: 1e-06}
  kpts: [6 6 4]
  mode: {ecut: 600.0,
         gammacentered: False,
         name: pw}
  occupations: {fixmagmom: False,
                name: fermi-dirac,
                width: 0.001}
  symmetry: {point_group: False,
             time_reversal: False}

System changes: positions, numbers, cell, pbc, initial_charges, initial_magmoms 

Initialize ...

O-setup:
  name: Oxygen
  id: 9b9d51c344dea68c822856295a461509
  Z: 8.0
  valence: 6
  core: 2
  charge: 0.0
  file: /home/modules/software/GPAW-setups/0.9.20000/O.LDA.gz
  compensation charges: gauss, rc=0.21, lmax=2
  cutoffs: 1.17(filt), 0.83(core),
  valence states:
                energy  radius
    2s(2.00)   -23.752   0.688
    2p(4.00)    -9.195   0.598
    *s           3.459   0.688
    *p          18.016   0.598
    *d           0.000   0.619

  Using partial waves for O as LCAO basis

Mn-setup:
  name: Manganese
  id: 0d715a8018be061a6e9ea6f2d364ac92
  Z: 25.0
  valence: 15
  core: 10
  charge: 0.0
  file: /home/modules/software/GPAW-setups/0.9.20000/Mn.LDA.gz
  compensation charges: gauss, rc=0.38, lmax=2
  cutoffs: 2.14(filt), 0.86(core),
  valence states:
                energy  radius
    3s(2.00)   -85.387   1.275
    4s(2.00)    -5.282   1.275
    3p(6.00)   -54.493   1.281
    4p(0.00)    -1.471   1.281
    3d(5.00)    -7.009   1.138
    *d          20.203   1.138

  Using partial waves for Mn as LCAO basis

P-setup:
  name: Phosphorus
  id: a5561c299094968922a179ab894d2e2d
  Z: 15.0
  valence: 5
  core: 10
  charge: 0.0
  file: /home/modules/software/GPAW-setups/0.9.20000/P.LDA.gz
  compensation charges: gauss, rc=0.30, lmax=2
  cutoffs: 1.69(filt), 1.81(core),
  valence states:
                energy  radius
    3s(2.00)   -14.015   0.953
    3p(3.00)    -5.596   0.953
    *s          13.197   0.953
    *p          21.615   0.953
    *d           0.000   0.953

  Using partial waves for P as LCAO basis

Li-setup:
  name: Lithium
  id: b73562207f97a71b6967473b66fe8b65
  Z: 3.0
  valence: 1
  core: 2
  charge: 0.0
  file: /home/modules/software/GPAW-setups/0.9.20000/Li.LDA.gz
  compensation charges: gauss, rc=0.33, lmax=2
  cutoffs: 1.91(filt), 2.55(core),
  valence states:
                energy  radius
    2s(1.00)    -2.874   1.058
    2p(0.00)    -1.126   1.058
    *s          24.338   1.058

  Using partial waves for Li as LCAO basis

Reference energy: -196157.275402

Spin-polarized calculation.
Magnetic moment: 0.000000

Convergence criteria:
  Maximum total energy change: 0.0005 eV / electron
  Maximum integral of absolute density change: 0.0001 electrons
  Maximum integral of absolute eigenstate change: 4e-08 eV^2
  Maximum change in atomic force: 1e-06 eV / Ang
  Maximum number of iterations: 333

Symmetries present (total): 1

  ( 1  0  0)
  ( 0  1  0)
  ( 0  0  1)

144 k-points: 6 x 6 x 4 Monkhorst-Pack grid
144 k-points in the irreducible part of the Brillouin zone
       k-points in crystal coordinates                weights
   0:    -0.41666667   -0.41666667   -0.37500000          1/144
   1:    -0.41666667   -0.41666667   -0.12500000          1/144
   2:    -0.41666667   -0.41666667    0.12500000          1/144
   3:    -0.41666667   -0.41666667    0.37500000          1/144
   4:    -0.41666667   -0.25000000   -0.37500000          1/144
   5:    -0.41666667   -0.25000000   -0.12500000          1/144
   6:    -0.41666667   -0.25000000    0.12500000          1/144
   7:    -0.41666667   -0.25000000    0.37500000          1/144
   8:    -0.41666667   -0.08333333   -0.37500000          1/144
   9:    -0.41666667   -0.08333333   -0.12500000          1/144
          ...
 143:     0.41666667    0.41666667    0.37500000          1/144

Wave functions: Plane wave expansion
  Cutoff energy: 600.000 eV
  Number of coefficients (min, max): 9132, 9161
  Pulay-stress correction: 0.000000 eV/Ang^3 (de/decut=0.000000)
  Using FFTW library
  ScaLapack parameters: grid=1x1, blocksize=None
  Wavefunction extrapolation:
    Improved wavefunction reuse through dual PAW basis 

  Fermi-Dirac: width=0.0010 eV

Eigensolver
   Davidson(niter=2) 

Densities:
  Coarse grid: 60*35*27 grid
  Fine grid: 120*70*54 grid
  Total Charge: 0.000000 

Density mixing:
  Method: difference
  Backend: pulay
  Linear mixing parameter: 0.05
  Mixing with 5 old densities
  Damping of long wave oscillations: 50 

Hamiltonian:
  XC and Coulomb potentials evaluated on a 120*70*54 grid
  Using the LDA Exchange-Correlation functional
 

Memory estimate:
  Process memory now: 12035.48 MiB
  Calculator: 322.47 MiB
    Density: 9.62 MiB
      Arrays: 3.79 MiB
      Localized functions: 4.27 MiB
      Mixer: 1.56 MiB
    Hamiltonian: 2.94 MiB
      Arrays: 2.82 MiB
      XC: 0.00 MiB
      Poisson: 0.00 MiB
      vbar: 0.12 MiB
    Wavefunctions: 309.91 MiB
      Arrays psit_nG: 281.81 MiB
      Eigensolver: 18.27 MiB
      Projections: 2.71 MiB
      Projectors: 4.40 MiB
      PW-descriptor: 2.71 MiB

Total number of cores used: 64
Parallelization over k-points: 16
Domain decomposition: 2 x 2 x 1

Number of atoms: 28
Number of atomic orbitals: 148
Number of bands in calculation: 112
Number of valence electrons: 180
Bands to converge: occupied

... initialized

Initializing position-dependent things.

Density initialized from atomic densities
Creating initial wave functions:
  112 bands from LCAO basis set

                                           
                                           
                                           
                                           
                                           
               O     O  P  O               
            PO           OMn     O         
                  O          MO            
            O        Li O                  
             Mn  Mn          OP            
         O       O Li O                    
         Li     O P         O              
       Li                                  
                                           
                                           
                                           
                                           

Positions:
   0 O     -1.280122   -2.495595   -1.112331    ( 0.0000,  0.0000,  0.0000)
   1 O     -3.023238    2.918858    1.191723    ( 0.0000,  0.0000,  0.0000)
   2 O      1.997451    0.467212    1.441442    ( 0.0000,  0.0000,  0.0000)
   3 O      3.740343   -0.043905   -0.862614    ( 0.0000,  0.0000,  0.0000)
   4 O      1.997419    2.918835    1.441465    ( 0.0000,  0.0000,  0.0000)
   5 O      3.740372   -2.495531   -0.862587    ( 0.0000,  0.0000,  0.0000)
   6 O     -1.280154   -0.043891   -1.112309    ( 0.0000,  0.0000,  0.0000)
   7 O     -3.023210    0.467136    1.191750    ( 0.0000,  0.0000,  0.0000)
   8 O     -4.147405   -1.269737   -0.856207    ( 0.0000,  0.0000,  0.0000)
   9 O     -0.155894    1.692986    1.447725    ( 0.0000,  0.0000,  0.0000)
  10 O      4.864578    1.693016    1.185324    ( 0.0000,  0.0000,  0.0000)
  11 O      0.873163   -1.269706   -1.118625    ( 0.0000,  0.0000,  0.0000)
  12 Mn    -2.437108   -1.269902    0.302197    ( 0.0000,  0.0000,  1.0000)
  13 Mn    -1.866187    1.693156   -2.001927    ( 0.0000,  0.0000, -1.0000)
  14 Mn     3.154299    1.693181    0.026917    ( 0.0000,  0.0000, -1.0000)
  15 Mn     2.583444   -1.269877    2.331074    ( 0.0000,  0.0000,  1.0000)
  16 P     -0.543052   -1.269720   -1.734187    ( 0.0000,  0.0000,  0.0000)
  17 P     -3.760282    1.692974    0.569859    ( 0.0000,  0.0000,  0.0000)
  18 P      1.260300    1.693000    2.063344    ( 0.0000,  0.0000,  0.0000)
  19 P      4.477470   -1.269695   -0.240696    ( 0.0000,  0.0000,  0.0000)
  20 O     -0.544413   -1.269738    1.348523    ( 0.0000,  0.0000,  0.0000)
  21 O     -3.758895    1.692992   -0.955558    ( 0.0000,  0.0000,  0.0000)
  22 O      1.261690    1.693018   -1.019367    ( 0.0000,  0.0000,  0.0000)
  23 O      4.476045   -1.269713    1.284716    ( 0.0000,  0.0000,  0.0000)
  24 Li    -4.662027   -2.751322   -2.139440    ( 0.0000,  0.0000,  0.0000)
  25 Li     0.358703   -2.741277    0.164614    ( 0.0000,  0.0000,  0.0000)
  26 Li    -4.662011    0.211617   -2.139439    ( 0.0000,  0.0000,  0.0000)
  27 Li     0.358720    0.211628    0.164615    ( 0.0000,  0.0000,  0.0000)

Unit cell:
           periodic     x           y           z      points  spacing
  1. axis:    yes   10.041096    0.000054   -0.000022    60     0.1674
  2. axis:    yes    0.000032    5.925857    0.000001    35     0.1693
  3. axis:    yes   -0.000010    0.000001    4.608134    27     0.1707

  Lengths:  10.041096   5.925857   4.608134
  Angles:   89.999974  90.000250  89.999381

Effective grid spacing dv^(1/3) = 0.1691

                     log10-error:           total        iterations:
           time      wfs    density  force  energy       poisson  magmom
iter:   1  17:14:02                       -233.730268             +0.0000
iter:   2  17:14:22  -0.47  -0.95         -231.550003             -0.0053
iter:   3  17:14:42  -0.60  -1.00         -220.821222             -0.0055
iter:   4  17:15:02  -1.21  -1.31         -221.323959             -0.4206
iter:   5  17:15:22  -2.15  -1.38         -222.513791             -0.2412
iter:   6  17:15:42  -2.30  -1.38         -223.802047             -0.0536
iter:   7  17:16:02  -2.16  -1.53         -224.284313             +0.3046
iter:   8  17:16:21  -2.52  -1.68         -225.701794             +1.0728
iter:   9  17:16:41  -2.57  -1.92         -226.369468             +0.2296
iter:  10  17:17:01  -2.17  -2.04         -226.294952             -0.0187
iter:  11  17:17:21  -2.83  -2.21         -226.294368             +0.0126
iter:  12  17:17:41  -2.14  -2.25         -226.371713             +0.0147
iter:  13  17:18:01  -3.11  -2.60         -226.225809             +0.0039
iter:  14  17:18:21  -2.88  -2.74         -226.194956             -0.0011
iter:  15  17:18:41  -3.55  -2.94         -226.179308             -0.0000
iter:  16  17:19:01  -4.20  -3.18         -226.176641             -0.0002
iter:  17  17:19:21  -4.61  -3.23         -226.176040             -0.0001
iter:  18  17:19:41  -4.50  -3.34         -226.175595             -0.0000
iter:  19  17:20:01  -5.19  -3.36         -226.175542             -0.0000
iter:  20  17:20:21  -4.27  -3.42         -226.176663             -0.0000
iter:  21  17:20:41  -4.49  -3.42         -226.175542             -0.0000
iter:  22  17:21:00  -5.89  -3.60         -226.175492             -0.0000
iter:  23  17:21:20  -5.06  -3.65         -226.175350             +0.0000
iter:  24  17:21:40  -5.89  -3.74         -226.175281             -0.0000
iter:  25  17:22:00  -5.91  -3.80         -226.175313             -0.0000
iter:  26  17:22:20  -5.54  -3.83         -226.175260             -0.0000
iter:  27  17:22:40  -6.35  -4.03         -226.175253             -0.0000
iter:  28  17:23:00  -7.08  -4.15         -226.175253             -0.0000
iter:  29  17:23:20  -5.85  -4.21         -226.175233             +0.0000
iter:  30  17:23:40  -6.44  -4.34         -226.175226             -0.0000
iter:  31  17:24:00  -7.28  -4.47         -226.175219             -0.0000
iter:  32  17:24:25  -7.40  -4.56         -226.175217             -0.0000
iter:  33  17:24:44  -7.21  -4.67         -226.175221             -0.0000
iter:  34  17:25:09  -8.06  -4.81    -2.54-226.175219             -0.0000
iter:  35  17:25:29  -7.33  -4.94         -226.175216             -0.0000
iter:  36  17:25:54  -8.20  -5.16    -2.69-226.175216             -0.0000
iter:  37  17:26:19  -8.67  -5.19    -2.99-226.175216             +0.0000
iter:  38  17:26:44  -8.17  -5.23    -3.10-226.175216             -0.0000
iter:  39  17:27:09  -8.35  -5.32    -3.08-226.175216             -0.0000
iter:  40  17:27:34  -9.50  -5.47    -3.62-226.175216             -0.0000
iter:  41  17:27:59  -8.99  -5.54    -3.35-226.175216             -0.0000
iter:  42  17:28:24  -9.35  -5.79    -3.57-226.175216             -0.0000
iter:  43  17:28:49  -9.34  -5.89    -3.58-226.175216             -0.0000
iter:  44  17:29:14  -9.54  -5.97    -3.65-226.175216             -0.0000
iter:  45  17:29:39  -9.97  -6.11    -3.86-226.175216             -0.0000
iter:  46  17:30:03 -11.19  -6.39    -4.49-226.175216             -0.0000
iter:  47  17:30:28 -11.15  -6.48    -4.56-226.175216             +0.0000
iter:  48  17:30:53 -11.08  -6.56    -4.17-226.175216             -0.0000
iter:  49  17:31:18 -10.95  -6.68    -4.46-226.175216             -0.0000
iter:  50  17:31:43 -11.77  -6.70    -4.92-226.175216             -0.0000
iter:  51  17:32:08 -11.06  -6.74    -4.42-226.175216             -0.0000
iter:  52  17:32:33 -12.55  -7.21    -5.10-226.175216             -0.0000
iter:  53  17:32:58 -12.97  -7.23    -5.41-226.175216             -0.0000
iter:  54  17:33:23 -12.73  -7.26    -5.24-226.175216             -0.0000
iter:  55  17:33:48 -12.30  -7.33    -4.91-226.175216             -0.0000
iter:  56  17:34:13 -13.29  -7.57    -5.48-226.175216             -0.0000
iter:  57  17:34:38 -13.01  -7.68    -5.47-226.175216             +0.0000
iter:  58  17:35:03 -13.80  -7.84    -5.89-226.175216             +0.0000
iter:  59  17:35:28 -14.52  -7.89    -6.27-226.175216             +0.0000

Converged after 59 iterations.

Dipole moment: (18.326852, -2.302797, -4.524372) |e|*Ang

Total magnetic moment: (0.000000, 0.000000, 0.000000)
Local magnetic moments:
   0 O  ( 0.000000,  0.000000, -0.001747)
   1 O  ( 0.000000,  0.000000,  0.001828)
   2 O  ( 0.000000,  0.000000,  0.001842)
   3 O  ( 0.000000,  0.000000, -0.001791)
   4 O  ( 0.000000,  0.000000,  0.001866)
   5 O  ( 0.000000,  0.000000, -0.001784)
   6 O  ( 0.000000,  0.000000, -0.001781)
   7 O  ( 0.000000,  0.000000,  0.001832)
   8 O  ( 0.000000,  0.000000,  0.031121)
   9 O  ( 0.000000,  0.000000, -0.031158)
  10 O  ( 0.000000,  0.000000, -0.031073)
  11 O  ( 0.000000,  0.000000,  0.031034)
  12 Mn ( 0.000000,  0.000000,  4.395744)
  13 Mn ( 0.000000,  0.000000, -4.395858)
  14 Mn ( 0.000000,  0.000000, -4.395757)
  15 Mn ( 0.000000,  0.000000,  4.395676)
  16 P  ( 0.000000,  0.000000,  0.000864)
  17 P  ( 0.000000,  0.000000, -0.000869)
  18 P  ( 0.000000,  0.000000, -0.000872)
  19 P  ( 0.000000,  0.000000,  0.000866)
  20 O  ( 0.000000,  0.000000,  0.028394)
  21 O  ( 0.000000,  0.000000, -0.028403)
  22 O  ( 0.000000,  0.000000, -0.028444)
  23 O  ( 0.000000,  0.000000,  0.028432)
  24 Li ( 0.000000,  0.000000,  0.000000)
  25 Li ( 0.000000,  0.000000,  0.000013)
  26 Li ( 0.000000,  0.000000, -0.000000)
  27 Li ( 0.000000,  0.000000, -0.000002)

Energy contributions relative to reference atoms: (reference = -196157.275402)

Kinetic:       +277.625176
Potential:     -240.967391
External:        +0.000000
XC:            -264.721433
Entropy (-ST):   -0.000000
Local:           +1.888433
--------------------------
Free energy:   -226.175216
Extrapolated:  -226.175216

Spin contamination: 9.455313 electrons
Showing only first 2 kpts
                      Up                     Down
 Kpt  Band  Eigenvalues  Occupancy  Eigenvalues  Occupancy
  0    88      6.52909    1.00000      6.53187    1.00000
  0    89      6.56252    1.00000      6.56569    1.00000
  0    90      8.42819    0.00000      8.42528    0.00000
  0    91      8.44966    0.00000      8.44708    0.00000

  1    88      6.56746    1.00000      6.57039    1.00000
  1    89      6.59444    1.00000      6.59768    1.00000
  1    90      8.38448    0.00000      8.38166    0.00000
  1    91      8.40654    0.00000      8.40395    0.00000


Fermi level: 7.58706

Gap: 1.697 eV
Transition (v -> c):
  (s=1, k=49, n=89, [-0.08, -0.42, -0.12]) -> (s=1, k=57, n=90, [-0.08, -0.08, -0.12])
Writing to born-0.01-25y+.gpw (mode='all')

Timing:                              incl.     excl.
-----------------------------------------------------------
Hamiltonian:                         0.254     0.003   0.0% |
 Atomic:                             0.072     0.072   0.0% |
  XC Correction:                     0.000     0.000   0.0% |
 Calculate atomic Hamiltonians:      0.085     0.085   0.0% |
 Communicate:                        0.000     0.000   0.0% |
 Initialize Hamiltonian:             0.000     0.000   0.0% |
 Poisson:                            0.001     0.001   0.0% |
 XC 3D grid:                         0.093     0.093   0.0% |
LCAO initialization:                79.683     0.677   0.0% |
 LCAO eigensolver:                  21.766     0.002   0.0% |
  Calculate projections:             0.029     0.029   0.0% |
  DenseAtomicCorrection:             0.042     0.042   0.0% |
  Distribute overlap matrix:         0.112     0.112   0.0% |
  Orbital Layouts:                   0.277     0.277   0.0% |
  Potential matrix:                 21.209    21.209   0.6% |
  Sum over cells:                    0.096     0.096   0.0% |
 LCAO to grid:                      55.883    55.883   1.7% ||
 Set positions (LCAO WFS):           1.357     0.196   0.0% |
  Basic WFS set positions:           0.001     0.001   0.0% |
  Basis functions set positions:     0.000     0.000   0.0% |
  P tci:                             0.535     0.535   0.0% |
  ST tci:                            0.399     0.399   0.0% |
  mktci:                             0.226     0.226   0.0% |
PWDescriptor:                        0.024     0.024   0.0% |
SCF-cycle:                        1308.656     2.767   0.1% |
 Davidson:                        1113.659   345.216  10.4% |---|
  Apply H:                          79.324    77.106   2.3% ||
   HMM T:                            2.218     2.218   0.1% |
  Subspace diag:                   162.244     0.167   0.0% |
   calc_h_matrix:                  105.415    27.181   0.8% |
    Apply H:                        78.234    76.121   2.3% ||
     HMM T:                          2.113     2.113   0.1% |
   diagonalize:                      6.109     6.109   0.2% |
   rotate_psi:                      50.553    50.553   1.5% ||
  calc. matrices:                  334.291   179.963   5.4% |-|
   Apply H:                        154.328   150.285   4.5% |-|
    HMM T:                           4.043     4.043   0.1% |
  diagonalize:                      91.786    91.786   2.8% ||
  rotate_psi:                      100.799   100.799   3.0% ||
 Density:                           46.255     0.001   0.0% |
  Atomic density matrices:           0.781     0.781   0.0% |
  Mix:                               7.476     7.476   0.2% |
  Multipole moments:                 0.021     0.021   0.0% |
  Pseudo density:                   37.975    37.973   1.1% |
   Symmetrize density:               0.002     0.002   0.0% |
 Forces:                           130.030   130.030   3.9% |-|
 Hamiltonian:                       13.865     0.122   0.0% |
  Atomic:                            3.326     3.326   0.1% |
   XC Correction:                    0.000     0.000   0.0% |
  Calculate atomic Hamiltonians:     4.945     4.945   0.1% |
  Communicate:                       0.062     0.062   0.0% |
  Poisson:                           0.049     0.049   0.0% |
  XC 3D grid:                        5.361     5.361   0.2% |
 Orthonormalize:                     2.080     0.003   0.0% |
  calc_s_matrix:                     0.243     0.243   0.0% |
  inverse-cholesky:                  0.040     0.040   0.0% |
  projections:                       1.351     1.351   0.0% |
  rotate_psi_s:                      0.443     0.443   0.0% |
Set symmetry:                        0.000     0.000   0.0% |
Other:                            1924.114  1924.114  58.1% |----------------------|
-----------------------------------------------------------
Total:                                      3312.732 100.0%

Memory usage: 11.80 GiB
Date: Mon Mar 29 18:07:31 2021
