
  ___ ___ ___ _ _ _  
 |   |   |_  | | | | 
 | | | | | . | | | | 
 |__ |  _|___|_____|  20.10.1b1
 |___|_|             

User:   madkru@i008.nifl.fysik.dtu.dk
Date:   Thu Mar 25 17:37:13 2021
Arch:   x86_64
Pid:    26969
Python: 3.7.4
gpaw:   /home/niflheim/madkru/venv_folder/gpaw/gpaw (d224efde0f)
_gpaw:  /home/niflheim/madkru/venv_folder/gpaw/build/lib.linux-x86_64-ivybridge-3.7/
        _gpaw.cpython-37m-x86_64-linux-gnu.so (4fd39e8b1e)
ase:    /home/niflheim/madkru/venv_folder/ase/ase (version 3.21.0b1-4d5a73cb29)
numpy:  /home/niflheim/madkru/venv_folder/lib/python3.7/site-packages/numpy (version 1.19.4)
scipy:  /home/niflheim/madkru/venv_folder/lib/python3.7/site-packages/scipy (version 1.5.4)
libxc:  4.3.4
units:  Angstrom and eV
cores: 64
OMP_NUM_THREADS: 1

Input parameters:
  convergence: {bands: occupied,
                density: 0.0001,
                eigenstates: 4e-08,
                energy: 0.0005,
                forces: 1e-06}
  kpts: [6 6 4]
  mode: {ecut: 600.0,
         gammacentered: False,
         name: pw}
  occupations: {fixmagmom: False,
                name: fermi-dirac,
                width: 0.001}
  symmetry: {point_group: False,
             time_reversal: False}

System changes: positions, numbers, cell, pbc, initial_charges, initial_magmoms 

Initialize ...

O-setup:
  name: Oxygen
  id: 9b9d51c344dea68c822856295a461509
  Z: 8.0
  valence: 6
  core: 2
  charge: 0.0
  file: /home/modules/software/GPAW-setups/0.9.20000/O.LDA.gz
  compensation charges: gauss, rc=0.21, lmax=2
  cutoffs: 1.17(filt), 0.83(core),
  valence states:
                energy  radius
    2s(2.00)   -23.752   0.688
    2p(4.00)    -9.195   0.598
    *s           3.459   0.688
    *p          18.016   0.598
    *d           0.000   0.619

  Using partial waves for O as LCAO basis

Mn-setup:
  name: Manganese
  id: 0d715a8018be061a6e9ea6f2d364ac92
  Z: 25.0
  valence: 15
  core: 10
  charge: 0.0
  file: /home/modules/software/GPAW-setups/0.9.20000/Mn.LDA.gz
  compensation charges: gauss, rc=0.38, lmax=2
  cutoffs: 2.14(filt), 0.86(core),
  valence states:
                energy  radius
    3s(2.00)   -85.387   1.275
    4s(2.00)    -5.282   1.275
    3p(6.00)   -54.493   1.281
    4p(0.00)    -1.471   1.281
    3d(5.00)    -7.009   1.138
    *d          20.203   1.138

  Using partial waves for Mn as LCAO basis

P-setup:
  name: Phosphorus
  id: a5561c299094968922a179ab894d2e2d
  Z: 15.0
  valence: 5
  core: 10
  charge: 0.0
  file: /home/modules/software/GPAW-setups/0.9.20000/P.LDA.gz
  compensation charges: gauss, rc=0.30, lmax=2
  cutoffs: 1.69(filt), 1.81(core),
  valence states:
                energy  radius
    3s(2.00)   -14.015   0.953
    3p(3.00)    -5.596   0.953
    *s          13.197   0.953
    *p          21.615   0.953
    *d           0.000   0.953

  Using partial waves for P as LCAO basis

Li-setup:
  name: Lithium
  id: b73562207f97a71b6967473b66fe8b65
  Z: 3.0
  valence: 1
  core: 2
  charge: 0.0
  file: /home/modules/software/GPAW-setups/0.9.20000/Li.LDA.gz
  compensation charges: gauss, rc=0.33, lmax=2
  cutoffs: 1.91(filt), 2.55(core),
  valence states:
                energy  radius
    2s(1.00)    -2.874   1.058
    2p(0.00)    -1.126   1.058
    *s          24.338   1.058

  Using partial waves for Li as LCAO basis

Reference energy: -196157.275402

Spin-polarized calculation.
Magnetic moment: 0.000000

Convergence criteria:
  Maximum total energy change: 0.0005 eV / electron
  Maximum integral of absolute density change: 0.0001 electrons
  Maximum integral of absolute eigenstate change: 4e-08 eV^2
  Maximum change in atomic force: 1e-06 eV / Ang
  Maximum number of iterations: 333

Symmetries present (total): 1

  ( 1  0  0)
  ( 0  1  0)
  ( 0  0  1)

144 k-points: 6 x 6 x 4 Monkhorst-Pack grid
144 k-points in the irreducible part of the Brillouin zone
       k-points in crystal coordinates                weights
   0:    -0.41666667   -0.41666667   -0.37500000          1/144
   1:    -0.41666667   -0.41666667   -0.12500000          1/144
   2:    -0.41666667   -0.41666667    0.12500000          1/144
   3:    -0.41666667   -0.41666667    0.37500000          1/144
   4:    -0.41666667   -0.25000000   -0.37500000          1/144
   5:    -0.41666667   -0.25000000   -0.12500000          1/144
   6:    -0.41666667   -0.25000000    0.12500000          1/144
   7:    -0.41666667   -0.25000000    0.37500000          1/144
   8:    -0.41666667   -0.08333333   -0.37500000          1/144
   9:    -0.41666667   -0.08333333   -0.12500000          1/144
          ...
 143:     0.41666667    0.41666667    0.37500000          1/144

Wave functions: Plane wave expansion
  Cutoff energy: 600.000 eV
  Number of coefficients (min, max): 9132, 9161
  Pulay-stress correction: 0.000000 eV/Ang^3 (de/decut=0.000000)
  Using FFTW library
  ScaLapack parameters: grid=1x1, blocksize=None
  Wavefunction extrapolation:
    Improved wavefunction reuse through dual PAW basis 

  Fermi-Dirac: width=0.0010 eV

Eigensolver
   Davidson(niter=2, smin=None, normalize=True) 

Densities:
  Coarse grid: 60*35*27 grid
  Fine grid: 120*70*54 grid
  Total Charge: 0.000000 

Density mixing:
  Method: difference
  Backend: pulay
  Linear mixing parameter: 0.05
  Mixing with 5 old densities
  Damping of long wave oscillations: 50 

Hamiltonian:
  XC and Coulomb potentials evaluated on a 120*70*54 grid
  Using the LDA Exchange-Correlation functional
 

Memory estimate:
  Process memory now: 13630.83 MiB
  Calculator: 322.47 MiB
    Density: 9.62 MiB
      Arrays: 3.79 MiB
      Localized functions: 4.27 MiB
      Mixer: 1.56 MiB
    Hamiltonian: 2.94 MiB
      Arrays: 2.82 MiB
      XC: 0.00 MiB
      Poisson: 0.00 MiB
      vbar: 0.12 MiB
    Wavefunctions: 309.91 MiB
      Arrays psit_nG: 281.81 MiB
      Eigensolver: 18.27 MiB
      Projections: 2.71 MiB
      Projectors: 4.40 MiB
      PW-descriptor: 2.71 MiB

Total number of cores used: 64
Parallelization over k-points: 16
Domain decomposition: 2 x 2 x 1

Number of atoms: 28
Number of atomic orbitals: 148
Number of bands in calculation: 112
Number of valence electrons: 180
Bands to converge: occupied

... initialized

Initializing position-dependent things.

Density initialized from atomic densities
Creating initial wave functions:
  112 bands from LCAO basis set

                                           
                                           
                                           
                                           
                                           
               O     O  P  O               
            PO           OMn     O         
                  O          MO            
            O        Li O                  
             Mn  Mn          OP            
         O       O Li O                    
         Li     O P         O              
       Li                                  
                                           
                                           
                                           
                                           

Positions:
   0 O     -1.280122   -2.495595   -1.112331    ( 0.0000,  0.0000,  0.0000)
   1 O     -3.023238    2.918858    1.191723    ( 0.0000,  0.0000,  0.0000)
   2 O      1.997451    0.467212    1.441442    ( 0.0000,  0.0000,  0.0000)
   3 O      3.740343   -0.043905   -0.862614    ( 0.0000,  0.0000,  0.0000)
   4 O      1.997419    2.918835    1.441465    ( 0.0000,  0.0000,  0.0000)
   5 O      3.740372   -2.495531   -0.862587    ( 0.0000,  0.0000,  0.0000)
   6 O     -1.280154   -0.043891   -1.112309    ( 0.0000,  0.0000,  0.0000)
   7 O     -3.023210    0.467136    1.191750    ( 0.0000,  0.0000,  0.0000)
   8 O     -4.147405   -1.269737   -0.856207    ( 0.0000,  0.0000,  0.0000)
   9 O     -0.155894    1.692986    1.447725    ( 0.0000,  0.0000,  0.0000)
  10 O      4.864578    1.693016    1.185324    ( 0.0000,  0.0000,  0.0000)
  11 O      0.873163   -1.269706   -1.118625    ( 0.0000,  0.0000,  0.0000)
  12 Mn    -2.437108   -1.269902    0.302197    ( 0.0000,  0.0000,  1.0000)
  13 Mn    -1.866187    1.693156   -2.001927    ( 0.0000,  0.0000, -1.0000)
  14 Mn     3.154299    1.693181    0.026917    ( 0.0000,  0.0000, -1.0000)
  15 Mn     2.583444   -1.269877    2.331074    ( 0.0000,  0.0000,  1.0000)
  16 P     -0.543052   -1.269720   -1.734187    ( 0.0000,  0.0000,  0.0000)
  17 P     -3.760282    1.692974    0.569859    ( 0.0000,  0.0000,  0.0000)
  18 P      1.260300    1.693000    2.063344    ( 0.0000,  0.0000,  0.0000)
  19 P      4.477470   -1.269695   -0.240696    ( 0.0000,  0.0000,  0.0000)
  20 O     -0.544413   -1.269738    1.348523    ( 0.0000,  0.0000,  0.0000)
  21 O     -3.748895    1.692992   -0.955558    ( 0.0000,  0.0000,  0.0000)
  22 O      1.261690    1.693018   -1.019367    ( 0.0000,  0.0000,  0.0000)
  23 O      4.476045   -1.269713    1.284716    ( 0.0000,  0.0000,  0.0000)
  24 Li    -4.662027   -2.751322   -2.139440    ( 0.0000,  0.0000,  0.0000)
  25 Li     0.358703   -2.751277    0.164614    ( 0.0000,  0.0000,  0.0000)
  26 Li    -4.662011    0.211617   -2.139439    ( 0.0000,  0.0000,  0.0000)
  27 Li     0.358720    0.211628    0.164615    ( 0.0000,  0.0000,  0.0000)

Unit cell:
           periodic     x           y           z      points  spacing
  1. axis:    yes   10.041096    0.000054   -0.000022    60     0.1674
  2. axis:    yes    0.000032    5.925857    0.000001    35     0.1693
  3. axis:    yes   -0.000010    0.000001    4.608134    27     0.1707

  Lengths:  10.041096   5.925857   4.608134
  Angles:   89.999974  90.000250  89.999381

Effective grid spacing dv^(1/3) = 0.1691

                     log10-error:           total        iterations:
           time      wfs    density  force  energy       poisson  magmom
iter:   1  17:38:48                       -233.733286             +0.0000
iter:   2  17:39:07  -0.47  -0.95         -231.552564             +0.0022
iter:   3  17:39:27  -0.61  -1.00         -220.818873             +0.0023
iter:   4  17:39:47  -1.20  -1.31         -221.141119             +0.4314
iter:   5  17:40:07  -2.14  -1.39         -222.721897             +0.2494
iter:   6  17:40:26  -2.26  -1.37         -223.679643             +0.0685
iter:   7  17:40:46  -2.20  -1.52         -223.977192             -0.3351
iter:   8  17:41:06  -2.51  -1.66         -225.600384             -1.1676
iter:   9  17:41:26  -2.52  -1.90         -226.376984             -0.2412
iter:  10  17:41:45  -2.22  -2.03         -226.305772             +0.0170
iter:  11  17:42:05  -2.83  -2.17         -226.288478             -0.0111
iter:  12  17:42:25  -2.22  -2.22         -226.328967             -0.0111
iter:  13  17:42:44  -3.69  -2.63         -226.252919             -0.0033
iter:  14  17:43:04  -2.78  -2.73         -226.185097             +0.0027
iter:  15  17:43:24  -3.78  -3.03         -226.179730             +0.0003
iter:  16  17:43:44  -4.45  -3.17         -226.176693             +0.0001
iter:  17  17:44:03  -4.45  -3.22         -226.176111             +0.0000
iter:  18  17:44:23  -4.29  -3.38         -226.176340             +0.0000
iter:  19  17:44:43  -4.88  -3.45         -226.175165             +0.0000
iter:  20  17:45:02  -5.46  -3.50         -226.175116             +0.0000
iter:  21  17:45:22  -4.95  -3.55         -226.175497             -0.0000
iter:  22  17:45:42  -5.35  -3.91         -226.175037             +0.0000
iter:  23  17:46:02  -6.54  -4.18         -226.175019             +0.0000
iter:  24  17:46:21  -5.91  -4.20         -226.175109             -0.0000
iter:  25  17:46:41  -5.82  -4.31         -226.175013             -0.0000
iter:  26  17:47:01  -7.23  -4.75         -226.175014             -0.0000
iter:  27  17:47:20  -7.24  -4.80         -226.175018             +0.0000
iter:  28  17:47:40  -7.20  -4.97         -226.175014             +0.0000
iter:  29  17:48:04  -8.04  -5.14         -226.175014             +0.0000
iter:  30  17:48:29  -8.61  -5.21    -3.39-226.175014             +0.0000
iter:  31  17:48:53  -8.53  -5.26    -2.98-226.175014             +0.0000
iter:  32  17:49:17  -9.31  -5.44    -3.38-226.175014             -0.0000
iter:  33  17:49:42  -8.78  -5.51    -3.46-226.175014             +0.0000
iter:  34  17:50:06  -9.23  -5.56    -3.44-226.175014             -0.0000
iter:  35  17:50:31  -9.98  -5.64    -3.78-226.175014             -0.0000
iter:  36  17:50:55 -10.39  -5.69    -4.14-226.175014             +0.0000
iter:  37  17:51:19  -9.77  -5.73    -3.85-226.175014             +0.0000
iter:  38  17:51:43  -9.66  -5.82    -3.73-226.175014             +0.0000
iter:  39  17:52:08  -9.56  -5.87    -3.41-226.175014             +0.0000
iter:  40  17:52:32 -10.26  -5.96    -3.69-226.175014             +0.0000
iter:  41  17:52:56 -10.62  -6.16    -4.47-226.175014             +0.0000
iter:  42  17:53:21 -10.80  -6.21    -4.12-226.175014             +0.0000
iter:  43  17:53:45 -10.75  -6.30    -4.25-226.175014             +0.0000
iter:  44  17:54:10 -11.56  -6.40    -4.69-226.175014             +0.0000
iter:  45  17:54:34 -10.96  -6.46    -4.34-226.175014             +0.0000
iter:  46  17:54:58 -11.52  -6.59    -5.04-226.175014             +0.0000
iter:  47  17:55:22 -11.29  -6.66    -4.52-226.175014             +0.0000
iter:  48  17:55:47 -11.95  -6.83    -5.02-226.175014             +0.0000
iter:  49  17:56:11 -12.08  -6.90    -5.00-226.175014             +0.0000
iter:  50  17:56:35 -12.60  -7.05    -5.09-226.175014             +0.0000
iter:  51  17:57:00 -12.06  -7.19    -4.92-226.175014             +0.0000
iter:  52  17:57:24 -12.45  -7.36    -5.06-226.175014             +0.0000
iter:  53  17:57:49 -12.35  -7.42    -5.01-226.175014             +0.0000
iter:  54  17:58:13 -13.27  -7.56    -5.31-226.175014             +0.0000
iter:  55  17:58:37 -13.76  -7.62    -5.61-226.175014             +0.0000
iter:  56  17:59:01 -13.92  -7.67    -5.74-226.175014             +0.0000
iter:  57  17:59:26 -13.39  -7.71    -5.59-226.175014             +0.0000
iter:  58  17:59:50 -14.23  -8.06    -6.07-226.175014             +0.0000

Converged after 58 iterations.

Dipole moment: (18.322855, -2.308535, -4.523542) |e|*Ang

Total magnetic moment: (0.000000, 0.000000, 0.000000)
Local magnetic moments:
   0 O  ( 0.000000,  0.000000, -0.001862)
   1 O  ( 0.000000,  0.000000,  0.001816)
   2 O  ( 0.000000,  0.000000,  0.001797)
   3 O  ( 0.000000,  0.000000, -0.001870)
   4 O  ( 0.000000,  0.000000,  0.001792)
   5 O  ( 0.000000,  0.000000, -0.001864)
   6 O  ( 0.000000,  0.000000, -0.001868)
   7 O  ( 0.000000,  0.000000,  0.001822)
   8 O  ( 0.000000,  0.000000,  0.031012)
   9 O  ( 0.000000,  0.000000, -0.030911)
  10 O  ( 0.000000,  0.000000, -0.031144)
  11 O  ( 0.000000,  0.000000,  0.031143)
  12 Mn ( 0.000000,  0.000000,  4.395680)
  13 Mn ( 0.000000,  0.000000, -4.395225)
  14 Mn ( 0.000000,  0.000000, -4.395619)
  15 Mn ( 0.000000,  0.000000,  4.395711)
  16 P  ( 0.000000,  0.000000,  0.000829)
  17 P  ( 0.000000,  0.000000, -0.001117)
  18 P  ( 0.000000,  0.000000, -0.000881)
  19 P  ( 0.000000,  0.000000,  0.000878)
  20 O  ( 0.000000,  0.000000,  0.028423)
  21 O  ( 0.000000,  0.000000, -0.028458)
  22 O  ( 0.000000,  0.000000, -0.028454)
  23 O  ( 0.000000,  0.000000,  0.028409)
  24 Li ( 0.000000,  0.000000, -0.000003)
  25 Li ( 0.000000,  0.000000, -0.000000)
  26 Li ( 0.000000,  0.000000, -0.000003)
  27 Li ( 0.000000,  0.000000, -0.000000)

Energy contributions relative to reference atoms: (reference = -196157.275402)

Kinetic:       +277.722587
Potential:     -241.048215
External:        +0.000000
XC:            -264.737302
Entropy (-ST):   -0.000000
Local:           +1.887917
--------------------------
Free energy:   -226.175014
Extrapolated:  -226.175014

Spin contamination: 9.455074 electrons
Showing only first 2 kpts
                      Up                     Down
 Kpt  Band  Eigenvalues  Occupancy  Eigenvalues  Occupancy
  0    88      6.53144    0.00694      6.53433    0.00694
  0    89      6.56606    0.00694      6.57415    0.00694
  0    90      8.42670    0.00000      8.42796    0.00000
  0    91      8.45640    0.00000      8.44990    0.00000

  1    88      6.56967    0.00694      6.57261    0.00694
  1    89      6.59817    0.00694      6.60771    0.00694
  1    90      8.38296    0.00000      8.38422    0.00000
  1    91      8.41171    0.00000      8.40684    0.00000


Fermi level: 7.60111

Gap: 1.691 eV
Transition (v -> c):
  (s=1, k=93, n=89, [0.08, 0.42, -0.12]) -> (s=1, k=81, n=90, [0.08, -0.08, -0.12])
Writing to born-0.01-21x+.gpw (mode='all')

Timing:                              incl.     excl.
-----------------------------------------------------------
Hamiltonian:                         0.220     0.002   0.0% |
 Atomic:                             0.056     0.056   0.0% |
  XC Correction:                     0.000     0.000   0.0% |
 Calculate atomic Hamiltonians:      0.076     0.076   0.0% |
 Communicate:                        0.002     0.002   0.0% |
 Initialize Hamiltonian:             0.000     0.000   0.0% |
 Poisson:                            0.001     0.001   0.0% |
 XC 3D grid:                         0.084     0.084   0.0% |
LCAO initialization:                71.929     0.645   0.0% |
 LCAO eigensolver:                  19.769     0.002   0.0% |
  Calculate projections:             0.029     0.029   0.0% |
  DenseAtomicCorrection:             0.045     0.045   0.0% |
  Distribute overlap matrix:         0.009     0.009   0.0% |
  Orbital Layouts:                   0.430     0.430   0.0% |
  Potential matrix:                 19.157    19.157   0.6% |
  Sum over cells:                    0.099     0.099   0.0% |
 LCAO to grid:                      50.152    50.152   1.6% ||
 Set positions (LCAO WFS):           1.363     0.238   0.0% |
  Basic WFS set positions:           0.001     0.001   0.0% |
  Basis functions set positions:     0.000     0.000   0.0% |
  P tci:                             0.526     0.526   0.0% |
  ST tci:                            0.382     0.382   0.0% |
  mktci:                             0.216     0.216   0.0% |
PWDescriptor:                        0.024     0.024   0.0% |
SCF-cycle:                        1283.376     0.630   0.0% |
 Davidson:                        1085.049   332.084  10.3% |---|
  Apply H:                          75.674    73.506   2.3% ||
   HMM T:                            2.168     2.168   0.1% |
  Subspace diag:                   157.423     0.168   0.0% |
   calc_h_matrix:                  101.285    26.176   0.8% |
    Apply H:                        75.109    72.919   2.3% ||
     HMM T:                          2.190     2.190   0.1% |
   diagonalize:                      7.920     7.920   0.2% |
   rotate_psi:                      48.050    48.050   1.5% ||
  calc. matrices:                  324.609   177.354   5.5% |-|
   Apply H:                        147.255   143.224   4.5% |-|
    HMM T:                           4.031     4.031   0.1% |
  diagonalize:                      91.223    91.223   2.8% ||
  rotate_psi:                      104.036   104.036   3.2% ||
 Density:                           43.707     0.001   0.0% |
  Atomic density matrices:           0.910     0.910   0.0% |
  Mix:                               6.015     6.015   0.2% |
  Multipole moments:                 0.021     0.021   0.0% |
  Pseudo density:                   36.759    36.758   1.1% |
   Symmetrize density:               0.002     0.002   0.0% |
 Forces:                           139.588   139.588   4.3% |-|
 Hamiltonian:                       12.342     0.126   0.0% |
  Atomic:                            2.869     2.868   0.1% |
   XC Correction:                    0.000     0.000   0.0% |
  Calculate atomic Hamiltonians:     4.307     4.307   0.1% |
  Communicate:                       0.095     0.095   0.0% |
  Poisson:                           0.034     0.034   0.0% |
  XC 3D grid:                        4.912     4.912   0.2% |
 Orthonormalize:                     2.061     0.003   0.0% |
  calc_s_matrix:                     0.242     0.242   0.0% |
  inverse-cholesky:                  0.072     0.072   0.0% |
  projections:                       1.315     1.315   0.0% |
  rotate_psi_s:                      0.428     0.428   0.0% |
Set symmetry:                        0.000     0.000   0.0% |
Other:                            1859.478  1859.478  57.8% |----------------------|
-----------------------------------------------------------
Total:                                      3215.027 100.0%

Memory usage: 13.35 GiB
Date: Thu Mar 25 18:30:48 2021
