
  ___ ___ ___ _ _ _  
 |   |   |_  | | | | 
 | | | | | . | | | | 
 |__ |  _|___|_____|  20.10.1b1
 |___|_|             

User:   madkru@i008.nifl.fysik.dtu.dk
Date:   Thu Mar 25 09:58:03 2021
Arch:   x86_64
Pid:    26969
Python: 3.7.4
gpaw:   /home/niflheim/madkru/venv_folder/gpaw/gpaw (d224efde0f)
_gpaw:  /home/niflheim/madkru/venv_folder/gpaw/build/lib.linux-x86_64-ivybridge-3.7/
        _gpaw.cpython-37m-x86_64-linux-gnu.so (4fd39e8b1e)
ase:    /home/niflheim/madkru/venv_folder/ase/ase (version 3.21.0b1-4d5a73cb29)
numpy:  /home/niflheim/madkru/venv_folder/lib/python3.7/site-packages/numpy (version 1.19.4)
scipy:  /home/niflheim/madkru/venv_folder/lib/python3.7/site-packages/scipy (version 1.5.4)
libxc:  4.3.4
units:  Angstrom and eV
cores: 64
OMP_NUM_THREADS: 1

Input parameters:
  convergence: {bands: occupied,
                density: 0.0001,
                eigenstates: 4e-08,
                energy: 0.0005,
                forces: 1e-06}
  kpts: [6 6 4]
  mode: {ecut: 600.0,
         gammacentered: False,
         name: pw}
  occupations: {fixmagmom: False,
                name: fermi-dirac,
                width: 0.001}
  symmetry: {point_group: False,
             time_reversal: False}

System changes: positions, numbers, cell, pbc, initial_charges, initial_magmoms 

Initialize ...

O-setup:
  name: Oxygen
  id: 9b9d51c344dea68c822856295a461509
  Z: 8.0
  valence: 6
  core: 2
  charge: 0.0
  file: /home/modules/software/GPAW-setups/0.9.20000/O.LDA.gz
  compensation charges: gauss, rc=0.21, lmax=2
  cutoffs: 1.17(filt), 0.83(core),
  valence states:
                energy  radius
    2s(2.00)   -23.752   0.688
    2p(4.00)    -9.195   0.598
    *s           3.459   0.688
    *p          18.016   0.598
    *d           0.000   0.619

  Using partial waves for O as LCAO basis

Mn-setup:
  name: Manganese
  id: 0d715a8018be061a6e9ea6f2d364ac92
  Z: 25.0
  valence: 15
  core: 10
  charge: 0.0
  file: /home/modules/software/GPAW-setups/0.9.20000/Mn.LDA.gz
  compensation charges: gauss, rc=0.38, lmax=2
  cutoffs: 2.14(filt), 0.86(core),
  valence states:
                energy  radius
    3s(2.00)   -85.387   1.275
    4s(2.00)    -5.282   1.275
    3p(6.00)   -54.493   1.281
    4p(0.00)    -1.471   1.281
    3d(5.00)    -7.009   1.138
    *d          20.203   1.138

  Using partial waves for Mn as LCAO basis

P-setup:
  name: Phosphorus
  id: a5561c299094968922a179ab894d2e2d
  Z: 15.0
  valence: 5
  core: 10
  charge: 0.0
  file: /home/modules/software/GPAW-setups/0.9.20000/P.LDA.gz
  compensation charges: gauss, rc=0.30, lmax=2
  cutoffs: 1.69(filt), 1.81(core),
  valence states:
                energy  radius
    3s(2.00)   -14.015   0.953
    3p(3.00)    -5.596   0.953
    *s          13.197   0.953
    *p          21.615   0.953
    *d           0.000   0.953

  Using partial waves for P as LCAO basis

Li-setup:
  name: Lithium
  id: b73562207f97a71b6967473b66fe8b65
  Z: 3.0
  valence: 1
  core: 2
  charge: 0.0
  file: /home/modules/software/GPAW-setups/0.9.20000/Li.LDA.gz
  compensation charges: gauss, rc=0.33, lmax=2
  cutoffs: 1.91(filt), 2.55(core),
  valence states:
                energy  radius
    2s(1.00)    -2.874   1.058
    2p(0.00)    -1.126   1.058
    *s          24.338   1.058

  Using partial waves for Li as LCAO basis

Reference energy: -196157.275402

Spin-polarized calculation.
Magnetic moment: 0.000000

Convergence criteria:
  Maximum total energy change: 0.0005 eV / electron
  Maximum integral of absolute density change: 0.0001 electrons
  Maximum integral of absolute eigenstate change: 4e-08 eV^2
  Maximum change in atomic force: 1e-06 eV / Ang
  Maximum number of iterations: 333

Symmetries present (total): 1

  ( 1  0  0)
  ( 0  1  0)
  ( 0  0  1)

144 k-points: 6 x 6 x 4 Monkhorst-Pack grid
144 k-points in the irreducible part of the Brillouin zone
       k-points in crystal coordinates                weights
   0:    -0.41666667   -0.41666667   -0.37500000          1/144
   1:    -0.41666667   -0.41666667   -0.12500000          1/144
   2:    -0.41666667   -0.41666667    0.12500000          1/144
   3:    -0.41666667   -0.41666667    0.37500000          1/144
   4:    -0.41666667   -0.25000000   -0.37500000          1/144
   5:    -0.41666667   -0.25000000   -0.12500000          1/144
   6:    -0.41666667   -0.25000000    0.12500000          1/144
   7:    -0.41666667   -0.25000000    0.37500000          1/144
   8:    -0.41666667   -0.08333333   -0.37500000          1/144
   9:    -0.41666667   -0.08333333   -0.12500000          1/144
          ...
 143:     0.41666667    0.41666667    0.37500000          1/144

Wave functions: Plane wave expansion
  Cutoff energy: 600.000 eV
  Number of coefficients (min, max): 9132, 9161
  Pulay-stress correction: 0.000000 eV/Ang^3 (de/decut=0.000000)
  Using FFTW library
  ScaLapack parameters: grid=1x1, blocksize=None
  Wavefunction extrapolation:
    Improved wavefunction reuse through dual PAW basis 

  Fermi-Dirac: width=0.0010 eV

Eigensolver
   Davidson(niter=2, smin=None, normalize=True) 

Densities:
  Coarse grid: 60*35*27 grid
  Fine grid: 120*70*54 grid
  Total Charge: 0.000000 

Density mixing:
  Method: difference
  Backend: pulay
  Linear mixing parameter: 0.05
  Mixing with 5 old densities
  Damping of long wave oscillations: 50 

Hamiltonian:
  XC and Coulomb potentials evaluated on a 120*70*54 grid
  Using the LDA Exchange-Correlation functional
 

Memory estimate:
  Process memory now: 13252.18 MiB
  Calculator: 322.47 MiB
    Density: 9.62 MiB
      Arrays: 3.79 MiB
      Localized functions: 4.27 MiB
      Mixer: 1.56 MiB
    Hamiltonian: 2.94 MiB
      Arrays: 2.82 MiB
      XC: 0.00 MiB
      Poisson: 0.00 MiB
      vbar: 0.12 MiB
    Wavefunctions: 309.91 MiB
      Arrays psit_nG: 281.81 MiB
      Eigensolver: 18.27 MiB
      Projections: 2.71 MiB
      Projectors: 4.40 MiB
      PW-descriptor: 2.71 MiB

Total number of cores used: 64
Parallelization over k-points: 16
Domain decomposition: 2 x 2 x 1

Number of atoms: 28
Number of atomic orbitals: 148
Number of bands in calculation: 112
Number of valence electrons: 180
Bands to converge: occupied

... initialized

Initializing position-dependent things.

Density initialized from atomic densities
Creating initial wave functions:
  112 bands from LCAO basis set

                                           
                                           
                                           
                                           
                                           
               O     O  P  O               
            PO           OMn     O         
                  O          MO            
            O        Li O                  
             Mn  Mn          OP            
         O       O Li O                    
         Li     O P         O              
       Li                                  
                                           
                                           
                                           
                                           

Positions:
   0 O     -1.280122   -2.495595   -1.112331    ( 0.0000,  0.0000,  0.0000)
   1 O     -3.023238    2.918858    1.191723    ( 0.0000,  0.0000,  0.0000)
   2 O      1.997451    0.467212    1.441442    ( 0.0000,  0.0000,  0.0000)
   3 O      3.740343   -0.043905   -0.862614    ( 0.0000,  0.0000,  0.0000)
   4 O      1.997419    2.918835    1.441465    ( 0.0000,  0.0000,  0.0000)
   5 O      3.740372   -2.495531   -0.862587    ( 0.0000,  0.0000,  0.0000)
   6 O     -1.280154   -0.043891   -1.112309    ( 0.0000,  0.0000,  0.0000)
   7 O     -3.023210    0.467136    1.191750    ( 0.0000,  0.0000,  0.0000)
   8 O     -4.147405   -1.269737   -0.856207    ( 0.0000,  0.0000,  0.0000)
   9 O     -0.155894    1.692986    1.447725    ( 0.0000,  0.0000,  0.0000)
  10 O      4.864578    1.693016    1.185324    ( 0.0000,  0.0000,  0.0000)
  11 O      0.873163   -1.269706   -1.118625    ( 0.0000,  0.0000,  0.0000)
  12 Mn    -2.437108   -1.269902    0.302197    ( 0.0000,  0.0000,  1.0000)
  13 Mn    -1.866187    1.693156   -2.001927    ( 0.0000,  0.0000, -1.0000)
  14 Mn     3.154299    1.693181    0.026917    ( 0.0000,  0.0000, -1.0000)
  15 Mn     2.583444   -1.269877    2.331074    ( 0.0000,  0.0000,  1.0000)
  16 P     -0.543052   -1.269720   -1.734187    ( 0.0000,  0.0000,  0.0000)
  17 P     -3.760282    1.692974    0.569859    ( 0.0000,  0.0000,  0.0000)
  18 P      1.260300    1.693000    2.053344    ( 0.0000,  0.0000,  0.0000)
  19 P      4.477470   -1.269695   -0.240696    ( 0.0000,  0.0000,  0.0000)
  20 O     -0.544413   -1.269738    1.348523    ( 0.0000,  0.0000,  0.0000)
  21 O     -3.758895    1.692992   -0.955558    ( 0.0000,  0.0000,  0.0000)
  22 O      1.261690    1.693018   -1.019367    ( 0.0000,  0.0000,  0.0000)
  23 O      4.476045   -1.269713    1.284716    ( 0.0000,  0.0000,  0.0000)
  24 Li    -4.662027   -2.751322   -2.139440    ( 0.0000,  0.0000,  0.0000)
  25 Li     0.358703   -2.751277    0.164614    ( 0.0000,  0.0000,  0.0000)
  26 Li    -4.662011    0.211617   -2.139439    ( 0.0000,  0.0000,  0.0000)
  27 Li     0.358720    0.211628    0.164615    ( 0.0000,  0.0000,  0.0000)

Unit cell:
           periodic     x           y           z      points  spacing
  1. axis:    yes   10.041096    0.000054   -0.000022    60     0.1674
  2. axis:    yes    0.000032    5.925857    0.000001    35     0.1693
  3. axis:    yes   -0.000010    0.000001    4.608134    27     0.1707

  Lengths:  10.041096   5.925857   4.608134
  Angles:   89.999974  90.000250  89.999381

Effective grid spacing dv^(1/3) = 0.1691

                     log10-error:           total        iterations:
           time      wfs    density  force  energy       poisson  magmom
iter:   1  09:59:39                       -233.716704             +0.0000
iter:   2  09:59:59  -0.47  -0.95         -231.543047             +0.0034
iter:   3  10:00:19  -0.61  -1.00         -220.794934             +0.0036
iter:   4  10:00:38  -1.18  -1.31         -220.850964             +0.3208
iter:   5  10:00:58  -2.13  -1.40         -223.043296             +0.1741
iter:   6  10:01:18  -2.37  -1.37         -223.052297             +0.0732
iter:   7  10:01:37  -1.96  -1.55         -223.047787             +0.0503
iter:   8  10:01:57  -2.30  -1.89         -225.666960             +0.0176
iter:   9  10:02:17  -2.06  -2.00         -226.359004             -0.0036
iter:  10  10:02:36  -2.13  -2.10         -226.452946             +0.0004
iter:  11  10:02:56  -3.12  -2.22         -226.439651             +0.0002
iter:  12  10:03:16  -2.73  -2.25         -226.217931             +0.0000
iter:  13  10:03:36  -3.30  -2.47         -226.200389             +0.0000
iter:  14  10:03:55  -3.73  -2.65         -226.187046             +0.0000
iter:  15  10:04:15  -3.44  -2.87         -226.178161             -0.0000
iter:  16  10:04:35  -4.21  -3.04         -226.173689             -0.0000
iter:  17  10:04:54  -3.83  -3.18         -226.176142             -0.0000
iter:  18  10:05:14  -4.50  -3.54         -226.172801             -0.0000
iter:  19  10:05:34  -4.96  -3.62         -226.171934             -0.0000
iter:  20  10:05:53  -5.27  -3.71         -226.172261             -0.0000
iter:  21  10:06:13  -5.84  -3.74         -226.172125             -0.0000
iter:  22  10:06:33  -5.81  -3.81         -226.172066             -0.0000
iter:  23  10:06:52  -6.29  -3.92         -226.172054             -0.0000
iter:  24  10:07:12  -6.10  -3.97         -226.172037             -0.0000
iter:  25  10:07:32  -6.91  -4.28         -226.172033             -0.0000
iter:  26  10:07:56  -7.51  -4.48         -226.172025             +0.0000
iter:  27  10:08:16  -6.79  -4.53         -226.172015             +0.0000
iter:  28  10:08:35  -7.31  -4.64         -226.172014             +0.0000
iter:  29  10:09:00  -8.09  -4.80    -2.39-226.172014             -0.0000
iter:  30  10:09:24  -8.17  -4.93    -3.25-226.172014             -0.0000
iter:  31  10:09:48  -8.18  -5.03    -3.16-226.172014             -0.0000
iter:  32  10:10:13  -8.72  -5.14    -3.23-226.172014             -0.0000
iter:  33  10:10:37  -8.76  -5.41    -3.50-226.172014             -0.0000
iter:  34  10:11:01  -8.62  -5.46    -3.45-226.172014             -0.0000
iter:  35  10:11:26  -9.45  -5.77    -4.02-226.172014             -0.0000
iter:  36  10:11:50  -9.01  -5.84    -3.47-226.172014             +0.0000
iter:  37  10:12:15 -10.13  -6.11    -4.18-226.172014             -0.0000
iter:  38  10:12:39 -10.79  -6.21    -4.27-226.172014             -0.0000
iter:  39  10:13:03 -11.06  -6.28    -4.31-226.172014             -0.0000
iter:  40  10:13:27 -11.53  -6.36    -4.63-226.172014             -0.0000
iter:  41  10:13:52 -12.17  -6.41    -5.16-226.172014             -0.0000
iter:  42  10:14:16 -10.91  -6.45    -4.43-226.172014             -0.0000
iter:  43  10:14:40 -11.64  -6.53    -5.24-226.172014             -0.0000
iter:  44  10:15:05 -11.70  -6.57    -4.64-226.172014             -0.0000
iter:  45  10:15:29 -11.98  -6.69    -4.69-226.172014             -0.0000
iter:  46  10:15:54 -11.42  -6.77    -4.66-226.172014             -0.0000
iter:  47  10:16:18 -12.53  -7.01    -5.16-226.172014             -0.0000
iter:  48  10:16:42 -11.74  -7.10    -4.85-226.172014             -0.0000
iter:  49  10:17:07 -11.77  -7.24    -4.81-226.172014             -0.0000
iter:  50  10:17:31 -12.68  -7.41    -5.12-226.172014             -0.0000
iter:  51  10:17:55 -12.90  -7.68    -5.51-226.172014             -0.0000
iter:  52  10:18:20 -13.40  -7.73    -5.69-226.172014             -0.0000
iter:  53  10:18:44 -14.11  -7.79    -5.69-226.172014             -0.0000
iter:  54  10:19:08 -13.97  -7.83    -5.61-226.172014             -0.0000
iter:  55  10:19:33 -14.19  -7.90    -6.14-226.172014             -0.0000

Converged after 55 iterations.

Dipole moment: (18.342935, -2.301525, -4.543912) |e|*Ang

Total magnetic moment: (0.000000, 0.000000, -0.000000)
Local magnetic moments:
   0 O  ( 0.000000,  0.000000, -0.001788)
   1 O  ( 0.000000,  0.000000,  0.001805)
   2 O  ( 0.000000,  0.000000,  0.001623)
   3 O  ( 0.000000,  0.000000, -0.001781)
   4 O  ( 0.000000,  0.000000,  0.001617)
   5 O  ( 0.000000,  0.000000, -0.001776)
   6 O  ( 0.000000,  0.000000, -0.001793)
   7 O  ( 0.000000,  0.000000,  0.001810)
   8 O  ( 0.000000,  0.000000,  0.031108)
   9 O  ( 0.000000,  0.000000, -0.030810)
  10 O  ( 0.000000,  0.000000, -0.030990)
  11 O  ( 0.000000,  0.000000,  0.031116)
  12 Mn ( 0.000000,  0.000000,  4.395798)
  13 Mn ( 0.000000,  0.000000, -4.396049)
  14 Mn ( 0.000000,  0.000000, -4.395693)
  15 Mn ( 0.000000,  0.000000,  4.396112)
  16 P  ( 0.000000,  0.000000,  0.000863)
  17 P  ( 0.000000,  0.000000, -0.000865)
  18 P  ( 0.000000,  0.000000, -0.000710)
  19 P  ( 0.000000,  0.000000,  0.000857)
  20 O  ( 0.000000,  0.000000,  0.028417)
  21 O  ( 0.000000,  0.000000, -0.028463)
  22 O  ( 0.000000,  0.000000, -0.028813)
  23 O  ( 0.000000,  0.000000,  0.028398)
  24 Li ( 0.000000,  0.000000,  0.000000)
  25 Li ( 0.000000,  0.000000, -0.000003)
  26 Li ( 0.000000,  0.000000,  0.000000)
  27 Li ( 0.000000,  0.000000, -0.000003)

Energy contributions relative to reference atoms: (reference = -196157.275402)

Kinetic:       +277.664576
Potential:     -240.983099
External:        +0.000000
XC:            -264.741711
Entropy (-ST):   -0.000000
Local:           +1.888220
--------------------------
Free energy:   -226.172014
Extrapolated:  -226.172014

Spin contamination: 9.455504 electrons
Showing only first 2 kpts
                      Up                     Down
 Kpt  Band  Eigenvalues  Occupancy  Eigenvalues  Occupancy
  0    88      6.52494    0.00694      6.52839    0.00694
  0    89      6.55955    0.00694      6.56735    0.00694
  0    90      8.42643    0.00000      8.42293    0.00000
  0    91      8.44826    0.00000      8.44432    0.00000

  1    88      6.56326    0.00694      6.56595    0.00694
  1    89      6.59159    0.00694      6.59993    0.00694
  1    90      8.38235    0.00000      8.37933    0.00000
  1    91      8.40472    0.00000      8.40143    0.00000


Fermi level: 7.40897

Gap: 1.695 eV
Transition (v -> c):
  (s=1, k=94, n=89, [0.08, 0.42, 0.12]) -> (s=1, k=81, n=90, [0.08, -0.08, -0.12])
Writing to born-0.01-18z-.gpw (mode='all')

Timing:                              incl.     excl.
-----------------------------------------------------------
Hamiltonian:                         0.221     0.002   0.0% |
 Atomic:                             0.058     0.058   0.0% |
  XC Correction:                     0.000     0.000   0.0% |
 Calculate atomic Hamiltonians:      0.074     0.074   0.0% |
 Communicate:                        0.002     0.002   0.0% |
 Initialize Hamiltonian:             0.000     0.000   0.0% |
 Poisson:                            0.001     0.001   0.0% |
 XC 3D grid:                         0.083     0.083   0.0% |
LCAO initialization:                73.783     0.649   0.0% |
 LCAO eigensolver:                  19.797     0.002   0.0% |
  Calculate projections:             0.029     0.029   0.0% |
  DenseAtomicCorrection:             0.045     0.045   0.0% |
  Distribute overlap matrix:         0.009     0.009   0.0% |
  Orbital Layouts:                   0.431     0.431   0.0% |
  Potential matrix:                 19.182    19.182   0.6% |
  Sum over cells:                    0.100     0.100   0.0% |
 LCAO to grid:                      52.017    52.017   1.6% ||
 Set positions (LCAO WFS):           1.318     0.192   0.0% |
  Basic WFS set positions:           0.001     0.001   0.0% |
  Basis functions set positions:     0.000     0.000   0.0% |
  P tci:                             0.524     0.524   0.0% |
  ST tci:                            0.382     0.382   0.0% |
  mktci:                             0.219     0.219   0.0% |
PWDescriptor:                        0.023     0.023   0.0% |
SCF-cycle:                        1214.440     1.385   0.0% |
 Davidson:                        1027.222   314.825   9.5% |---|
  Apply H:                          71.166    68.974   2.1% ||
   HMM T:                            2.193     2.193   0.1% |
  Subspace diag:                   148.875     0.157   0.0% |
   calc_h_matrix:                   95.644    24.835   0.7% |
    Apply H:                        70.809    68.646   2.1% ||
     HMM T:                          2.163     2.163   0.1% |
   diagonalize:                      7.478     7.478   0.2% |
   rotate_psi:                      45.595    45.595   1.4% ||
  calc. matrices:                  306.991   168.226   5.1% |-|
   Apply H:                        138.765   134.753   4.0% |-|
    HMM T:                           4.013     4.013   0.1% |
  diagonalize:                      86.661    86.661   2.6% ||
  rotate_psi:                       98.704    98.704   3.0% ||
 Density:                           41.133     0.001   0.0% |
  Atomic density matrices:           0.870     0.870   0.0% |
  Mix:                               5.695     5.695   0.2% |
  Multipole moments:                 0.020     0.020   0.0% |
  Pseudo density:                   34.547    34.545   1.0% |
   Symmetrize density:               0.002     0.002   0.0% |
 Forces:                           130.955   130.955   3.9% |-|
 Hamiltonian:                       11.684     0.117   0.0% |
  Atomic:                            2.733     2.732   0.1% |
   XC Correction:                    0.000     0.000   0.0% |
  Calculate atomic Hamiltonians:     4.077     4.077   0.1% |
  Communicate:                       0.093     0.093   0.0% |
  Poisson:                           0.033     0.033   0.0% |
  XC 3D grid:                        4.631     4.631   0.1% |
 Orthonormalize:                     2.061     0.003   0.0% |
  calc_s_matrix:                     0.242     0.242   0.0% |
  inverse-cholesky:                  0.071     0.071   0.0% |
  projections:                       1.315     1.315   0.0% |
  rotate_psi_s:                      0.429     0.429   0.0% |
Set symmetry:                        0.000     0.000   0.0% |
Other:                            2041.025  2041.025  61.3% |------------------------|
-----------------------------------------------------------
Total:                                      3329.492 100.0%

Memory usage: 12.98 GiB
Date: Thu Mar 25 10:53:33 2021
