
  ___ ___ ___ _ _ _  
 |   |   |_  | | | | 
 | | | | | . | | | | 
 |__ |  _|___|_____|  20.10.1b1
 |___|_|             

User:   madkru@i013.nifl.fysik.dtu.dk
Date:   Sun Mar 21 19:25:29 2021
Arch:   x86_64
Pid:    27943
Python: 3.7.4
gpaw:   /home/niflheim/madkru/venv_folder/gpaw/gpaw (d0d1ca1c71)
_gpaw:  /home/niflheim/madkru/venv_folder/gpaw/build/lib.linux-x86_64-ivybridge-3.7/
        _gpaw.cpython-37m-x86_64-linux-gnu.so (4fd39e8b1e)
ase:    /home/niflheim/madkru/venv_folder/ase/ase (version 3.21.0b1-7e6c206a91)
numpy:  /home/niflheim/madkru/venv_folder/lib/python3.7/site-packages/numpy (version 1.19.4)
scipy:  /home/niflheim/madkru/venv_folder/lib/python3.7/site-packages/scipy (version 1.5.4)
libxc:  4.3.4
units:  Angstrom and eV
cores: 32
OMP_NUM_THREADS: 1

Input parameters:
  convergence: {bands: occupied,
                density: 0.0001,
                eigenstates: 4e-08,
                energy: 0.0005,
                forces: 1e-06}
  kpts: [6 6 4]
  mode: {ecut: 600.0,
         gammacentered: False,
         name: pw}
  occupations: {fixmagmom: False,
                name: fermi-dirac,
                width: 0.001}
  symmetry: {point_group: False,
             time_reversal: False}

System changes: positions, numbers, cell, pbc, initial_charges, initial_magmoms 

Initialize ...

O-setup:
  name: Oxygen
  id: 9b9d51c344dea68c822856295a461509
  Z: 8.0
  valence: 6
  core: 2
  charge: 0.0
  file: /home/modules/software/GPAW-setups/0.9.20000/O.LDA.gz
  compensation charges: gauss, rc=0.21, lmax=2
  cutoffs: 1.17(filt), 0.83(core),
  valence states:
                energy  radius
    2s(2.00)   -23.752   0.688
    2p(4.00)    -9.195   0.598
    *s           3.459   0.688
    *p          18.016   0.598
    *d           0.000   0.619

  Using partial waves for O as LCAO basis

Mn-setup:
  name: Manganese
  id: 0d715a8018be061a6e9ea6f2d364ac92
  Z: 25.0
  valence: 15
  core: 10
  charge: 0.0
  file: /home/modules/software/GPAW-setups/0.9.20000/Mn.LDA.gz
  compensation charges: gauss, rc=0.38, lmax=2
  cutoffs: 2.14(filt), 0.86(core),
  valence states:
                energy  radius
    3s(2.00)   -85.387   1.275
    4s(2.00)    -5.282   1.275
    3p(6.00)   -54.493   1.281
    4p(0.00)    -1.471   1.281
    3d(5.00)    -7.009   1.138
    *d          20.203   1.138

  Using partial waves for Mn as LCAO basis

P-setup:
  name: Phosphorus
  id: a5561c299094968922a179ab894d2e2d
  Z: 15.0
  valence: 5
  core: 10
  charge: 0.0
  file: /home/modules/software/GPAW-setups/0.9.20000/P.LDA.gz
  compensation charges: gauss, rc=0.30, lmax=2
  cutoffs: 1.69(filt), 1.81(core),
  valence states:
                energy  radius
    3s(2.00)   -14.015   0.953
    3p(3.00)    -5.596   0.953
    *s          13.197   0.953
    *p          21.615   0.953
    *d           0.000   0.953

  Using partial waves for P as LCAO basis

Li-setup:
  name: Lithium
  id: b73562207f97a71b6967473b66fe8b65
  Z: 3.0
  valence: 1
  core: 2
  charge: 0.0
  file: /home/modules/software/GPAW-setups/0.9.20000/Li.LDA.gz
  compensation charges: gauss, rc=0.33, lmax=2
  cutoffs: 1.91(filt), 2.55(core),
  valence states:
                energy  radius
    2s(1.00)    -2.874   1.058
    2p(0.00)    -1.126   1.058
    *s          24.338   1.058

  Using partial waves for Li as LCAO basis

Reference energy: -196157.275402

Spin-polarized calculation.
Magnetic moment: 0.000000

Convergence criteria:
  Maximum total energy change: 0.0005 eV / electron
  Maximum integral of absolute density change: 0.0001 electrons
  Maximum integral of absolute eigenstate change: 4e-08 eV^2
  Maximum change in atomic force: 1e-06 eV / Ang
  Maximum number of iterations: 333

Symmetries present (total): 1

  ( 1  0  0)
  ( 0  1  0)
  ( 0  0  1)

144 k-points: 6 x 6 x 4 Monkhorst-Pack grid
144 k-points in the irreducible part of the Brillouin zone
       k-points in crystal coordinates                weights
   0:    -0.41666667   -0.41666667   -0.37500000          1/144
   1:    -0.41666667   -0.41666667   -0.12500000          1/144
   2:    -0.41666667   -0.41666667    0.12500000          1/144
   3:    -0.41666667   -0.41666667    0.37500000          1/144
   4:    -0.41666667   -0.25000000   -0.37500000          1/144
   5:    -0.41666667   -0.25000000   -0.12500000          1/144
   6:    -0.41666667   -0.25000000    0.12500000          1/144
   7:    -0.41666667   -0.25000000    0.37500000          1/144
   8:    -0.41666667   -0.08333333   -0.37500000          1/144
   9:    -0.41666667   -0.08333333   -0.12500000          1/144
          ...
 143:     0.41666667    0.41666667    0.37500000          1/144

Wave functions: Plane wave expansion
  Cutoff energy: 600.000 eV
  Number of coefficients (min, max): 9132, 9161
  Pulay-stress correction: 0.000000 eV/Ang^3 (de/decut=0.000000)
  Using FFTW library
  ScaLapack parameters: grid=1x1, blocksize=None
  Wavefunction extrapolation:
    Improved wavefunction reuse through dual PAW basis 

  Fermi-Dirac: width=0.0010 eV

Eigensolver
   Davidson(niter=2, smin=None, normalize=True) 

Densities:
  Coarse grid: 60*35*27 grid
  Fine grid: 120*70*54 grid
  Total Charge: 0.000000 

Density mixing:
  Method: difference
  Backend: pulay
  Linear mixing parameter: 0.05
  Mixing with 5 old densities
  Damping of long wave oscillations: 50 

Hamiltonian:
  XC and Coulomb potentials evaluated on a 120*70*54 grid
  Using the LDA Exchange-Correlation functional
 

Memory estimate:
  Process memory now: 12683.21 MiB
  Calculator: 342.26 MiB
    Density: 19.13 MiB
      Arrays: 7.57 MiB
      Localized functions: 8.54 MiB
      Mixer: 3.03 MiB
    Hamiltonian: 5.87 MiB
      Arrays: 5.62 MiB
      XC: 0.00 MiB
      Poisson: 0.00 MiB
      vbar: 0.25 MiB
    Wavefunctions: 317.25 MiB
      Arrays psit_nG: 281.81 MiB
      Eigensolver: 18.27 MiB
      Projections: 5.41 MiB
      Projectors: 8.81 MiB
      PW-descriptor: 2.95 MiB

Total number of cores used: 32
Parallelization over k-points: 16
Domain decomposition: 2 x 1 x 1

Number of atoms: 28
Number of atomic orbitals: 148
Number of bands in calculation: 112
Number of valence electrons: 180
Bands to converge: occupied

... initialized

Initializing position-dependent things.

Density initialized from atomic densities
Creating initial wave functions:
  112 bands from LCAO basis set

                                           
                                           
                                           
                                           
                                           
               O     O  P  O               
            PO           OMn     O         
                  O          MO            
            O        Li O                  
             Mn  Mn          OP            
         O       O Li O                    
         Li     O P         O              
       Li                                  
                                           
                                           
                                           
                                           

Positions:
   0 O     -1.280122   -2.495595   -1.112331    ( 0.0000,  0.0000,  0.0000)
   1 O     -3.023238    2.918858    1.191723    ( 0.0000,  0.0000,  0.0000)
   2 O      1.997451    0.467212    1.441442    ( 0.0000,  0.0000,  0.0000)
   3 O      3.740343   -0.053905   -0.862614    ( 0.0000,  0.0000,  0.0000)
   4 O      1.997419    2.918835    1.441465    ( 0.0000,  0.0000,  0.0000)
   5 O      3.740372   -2.495531   -0.862587    ( 0.0000,  0.0000,  0.0000)
   6 O     -1.280154   -0.043891   -1.112309    ( 0.0000,  0.0000,  0.0000)
   7 O     -3.023210    0.467136    1.191750    ( 0.0000,  0.0000,  0.0000)
   8 O     -4.147405   -1.269737   -0.856207    ( 0.0000,  0.0000,  0.0000)
   9 O     -0.155894    1.692986    1.447725    ( 0.0000,  0.0000,  0.0000)
  10 O      4.864578    1.693016    1.185324    ( 0.0000,  0.0000,  0.0000)
  11 O      0.873163   -1.269706   -1.118625    ( 0.0000,  0.0000,  0.0000)
  12 Mn    -2.437108   -1.269902    0.302197    ( 0.0000,  0.0000,  1.0000)
  13 Mn    -1.866187    1.693156   -2.001927    ( 0.0000,  0.0000, -1.0000)
  14 Mn     3.154299    1.693181    0.026917    ( 0.0000,  0.0000, -1.0000)
  15 Mn     2.583444   -1.269877    2.331074    ( 0.0000,  0.0000,  1.0000)
  16 P     -0.543052   -1.269720   -1.734187    ( 0.0000,  0.0000,  0.0000)
  17 P     -3.760282    1.692974    0.569859    ( 0.0000,  0.0000,  0.0000)
  18 P      1.260300    1.693000    2.063344    ( 0.0000,  0.0000,  0.0000)
  19 P      4.477470   -1.269695   -0.240696    ( 0.0000,  0.0000,  0.0000)
  20 O     -0.544413   -1.269738    1.348523    ( 0.0000,  0.0000,  0.0000)
  21 O     -3.758895    1.692992   -0.955558    ( 0.0000,  0.0000,  0.0000)
  22 O      1.261690    1.693018   -1.019367    ( 0.0000,  0.0000,  0.0000)
  23 O      4.476045   -1.269713    1.284716    ( 0.0000,  0.0000,  0.0000)
  24 Li    -4.662027   -2.751322   -2.139440    ( 0.0000,  0.0000,  0.0000)
  25 Li     0.358703   -2.751277    0.164614    ( 0.0000,  0.0000,  0.0000)
  26 Li    -4.662011    0.211617   -2.139439    ( 0.0000,  0.0000,  0.0000)
  27 Li     0.358720    0.211628    0.164615    ( 0.0000,  0.0000,  0.0000)

Unit cell:
           periodic     x           y           z      points  spacing
  1. axis:    yes   10.041096    0.000054   -0.000022    60     0.1674
  2. axis:    yes    0.000032    5.925857    0.000001    35     0.1693
  3. axis:    yes   -0.000010    0.000001    4.608134    27     0.1707

  Lengths:  10.041096   5.925857   4.608134
  Angles:   89.999974  90.000250  89.999381

Effective grid spacing dv^(1/3) = 0.1691

                     log10-error:           total        iterations:
           time      wfs    density  force  energy       poisson  magmom
iter:   1  19:28:34                       -233.723759             +0.0000
iter:   2  19:29:10  -0.47  -0.95         -231.548730             +0.0008
iter:   3  19:29:47  -0.60  -1.00         -220.852134             +0.0009
iter:   4  19:30:23  -1.21  -1.30         -222.081642             +0.4080
iter:   5  19:30:59  -2.07  -1.36         -222.202558             +0.1653
iter:   6  19:31:35  -2.30  -1.41         -224.356902             -0.5329
iter:   7  19:32:12  -2.37  -1.49         -225.632968             -0.2838
iter:   8  19:32:48  -2.36  -1.73         -226.379992             +0.0198
iter:   9  19:33:24  -2.85  -2.12         -226.306546             -0.0030
iter:  10  19:34:00  -2.99  -2.19         -226.253795             -0.0015
iter:  11  19:34:36  -2.58  -2.27         -226.295924             -0.0007
iter:  12  19:35:12  -2.90  -2.50         -226.237365             -0.0006
iter:  13  19:35:49  -3.78  -2.72         -226.226374             -0.0002
iter:  14  19:36:25  -3.69  -2.81         -226.192521             +0.0000
iter:  15  19:37:01  -3.68  -2.94         -226.177358             -0.0000
iter:  16  19:37:37  -3.96  -3.07         -226.173643             +0.0000
iter:  17  19:38:13  -4.85  -3.17         -226.175037             -0.0000
iter:  18  19:38:49  -4.61  -3.21         -226.174881             -0.0000
iter:  19  19:39:26  -4.81  -3.53         -226.174054             -0.0000
iter:  20  19:40:02  -5.20  -3.61         -226.174153             -0.0000
iter:  21  19:40:38  -5.03  -3.60         -226.174077             -0.0000
iter:  22  19:41:14  -5.25  -3.74         -226.174049             -0.0000
iter:  23  19:41:50  -5.32  -3.80         -226.173876             -0.0000
iter:  24  19:42:26  -6.12  -4.24         -226.173896             -0.0000
iter:  25  19:43:02  -6.25  -4.33         -226.173849             -0.0000
iter:  26  19:43:39  -6.40  -4.36         -226.173872             -0.0000
iter:  27  19:44:15  -6.70  -4.38         -226.173854             -0.0000
iter:  28  19:44:51  -7.18  -4.69         -226.173851             -0.0000
iter:  29  19:45:36  -7.81  -4.74         -226.173849             -0.0000
iter:  30  19:46:21  -7.58  -4.86    -2.41-226.173848             -0.0000
iter:  31  19:47:07  -8.09  -4.99    -2.97-226.173848             -0.0000
iter:  32  19:47:52  -7.71  -5.12    -2.84-226.173847             -0.0000
iter:  33  19:48:37  -7.71  -5.20    -2.64-226.173847             -0.0000
iter:  34  19:49:23  -9.17  -5.42    -3.40-226.173847             -0.0000
iter:  35  19:50:08  -9.14  -5.47    -3.36-226.173847             -0.0000
iter:  36  19:50:53  -8.87  -5.56    -3.15-226.173847             -0.0000
iter:  37  19:51:39  -9.50  -5.55    -3.53-226.173847             +0.0000
iter:  38  19:52:24  -9.67  -5.61    -3.85-226.173847             +0.0000
iter:  39  19:53:09  -9.07  -5.66    -3.42-226.173847             -0.0000
iter:  40  19:53:54  -9.72  -5.77    -3.44-226.173847             +0.0000
iter:  41  19:54:40 -10.96  -6.04    -4.31-226.173847             +0.0000
iter:  42  19:55:25  -9.98  -6.08    -3.64-226.173847             +0.0000
iter:  43  19:56:10 -10.19  -6.31    -3.85-226.173847             +0.0000
iter:  44  19:56:55 -11.50  -6.57    -4.61-226.173847             -0.0000
iter:  45  19:57:41 -10.84  -6.59    -4.00-226.173847             -0.0000
iter:  46  19:58:26 -11.18  -6.67    -4.27-226.173847             -0.0000
iter:  47  19:59:11 -11.99  -6.91    -4.78-226.173847             -0.0000
iter:  48  19:59:56 -11.91  -7.04    -4.73-226.173847             -0.0000
iter:  49  20:00:42 -11.69  -7.08    -4.59-226.173847             -0.0000
iter:  50  20:01:27 -12.75  -7.45    -4.95-226.173847             -0.0000
iter:  51  20:02:12 -13.47  -7.72    -5.83-226.173847             -0.0000
iter:  52  20:02:58 -12.89  -7.78    -5.24-226.173847             -0.0000
iter:  53  20:03:43 -13.23  -7.84    -5.44-226.173847             -0.0000
iter:  54  20:04:28 -14.53  -8.06    -6.28-226.173847             -0.0000

Converged after 54 iterations.

Dipole moment: (18.325525, -1.812968, -4.527606) |e|*Ang

Total magnetic moment: (0.000000, 0.000000, -0.000000)
Local magnetic moments:
   0 O  ( 0.000000,  0.000000, -0.001817)
   1 O  ( 0.000000,  0.000000,  0.001797)
   2 O  ( 0.000000,  0.000000,  0.001842)
   3 O  ( 0.000000,  0.000000, -0.001408)
   4 O  ( 0.000000,  0.000000,  0.001568)
   5 O  ( 0.000000,  0.000000, -0.001954)
   6 O  ( 0.000000,  0.000000, -0.001825)
   7 O  ( 0.000000,  0.000000,  0.001795)
   8 O  ( 0.000000,  0.000000,  0.031337)
   9 O  ( 0.000000,  0.000000, -0.031078)
  10 O  ( 0.000000,  0.000000, -0.031086)
  11 O  ( 0.000000,  0.000000,  0.031097)
  12 Mn ( 0.000000,  0.000000,  4.395893)
  13 Mn ( 0.000000,  0.000000, -4.395762)
  14 Mn ( 0.000000,  0.000000, -4.397509)
  15 Mn ( 0.000000,  0.000000,  4.396061)
  16 P  ( 0.000000,  0.000000,  0.000874)
  17 P  ( 0.000000,  0.000000, -0.000845)
  18 P  ( 0.000000,  0.000000, -0.000855)
  19 P  ( 0.000000,  0.000000,  0.001257)
  20 O  ( 0.000000,  0.000000,  0.028395)
  21 O  ( 0.000000,  0.000000, -0.028418)
  22 O  ( 0.000000,  0.000000, -0.028371)
  23 O  ( 0.000000,  0.000000,  0.028575)
  24 Li ( 0.000000,  0.000000,  0.000002)
  25 Li ( 0.000000,  0.000000,  0.000001)
  26 Li ( 0.000000,  0.000000,  0.000030)
  27 Li ( 0.000000,  0.000000,  0.000001)

Energy contributions relative to reference atoms: (reference = -196157.275402)

Kinetic:       +278.151409
Potential:     -241.375014
External:        +0.000000
XC:            -264.837725
Entropy (-ST):   -0.000000
Local:           +1.887483
--------------------------
Free energy:   -226.173847
Extrapolated:  -226.173847

Spin contamination: 9.456581 electrons
Showing only first 2 kpts
                      Up                     Down
 Kpt  Band  Eigenvalues  Occupancy  Eigenvalues  Occupancy
  0    88      6.53300    0.00694      6.52372    0.00694
  0    89      6.56652    0.00694      6.55831    0.00694
  0    90      8.42151    0.00000      8.42884    0.00000
  0    91      8.44529    0.00000      8.45064    0.00000

  1    88      6.57153    0.00694      6.56200    0.00694
  1    89      6.59860    0.00694      6.59039    0.00694
  1    90      8.37819    0.00000      8.38579    0.00000
  1    91      8.40209    0.00000      8.40873    0.00000


Fermi level: 7.21434

Gap: 1.693 eV
Transition (v -> c):
  (s=0, k=93, n=89, [0.08, 0.42, -0.12]) -> (s=0, k=57, n=90, [-0.08, -0.08, -0.12])
Writing to born-0.01-3y-.gpw (mode='all')

Timing:                              incl.     excl.
-----------------------------------------------------------
Hamiltonian:                         0.354     0.002   0.0% |
 Atomic:                             0.050     0.050   0.0% |
  XC Correction:                     0.000     0.000   0.0% |
 Calculate atomic Hamiltonians:      0.145     0.145   0.0% |
 Communicate:                        0.002     0.002   0.0% |
 Initialize Hamiltonian:             0.000     0.000   0.0% |
 Poisson:                            0.001     0.001   0.0% |
 XC 3D grid:                         0.154     0.154   0.0% |
LCAO initialization:               142.473     0.641   0.0% |
 LCAO eigensolver:                  37.860     0.002   0.0% |
  Calculate projections:             0.056     0.056   0.0% |
  DenseAtomicCorrection:             0.089     0.089   0.0% |
  Distribute overlap matrix:         0.006     0.006   0.0% |
  Orbital Layouts:                   0.340     0.340   0.0% |
  Potential matrix:                 37.267    37.267   0.7% |
  Sum over cells:                    0.099     0.099   0.0% |
 LCAO to grid:                     101.648   101.648   1.9% ||
 Set positions (LCAO WFS):           2.324     0.370   0.0% |
  Basic WFS set positions:           0.001     0.001   0.0% |
  Basis functions set positions:     0.000     0.000   0.0% |
  P tci:                             1.042     1.042   0.0% |
  ST tci:                            0.694     0.694   0.0% |
  mktci:                             0.216     0.216   0.0% |
PWDescriptor:                        0.023     0.023   0.0% |
SCF-cycle:                        2194.747    18.807   0.3% |
 Davidson:                        1839.035   588.676  10.8% |---|
  Apply H:                         129.674   125.960   2.3% ||
   HMM T:                            3.714     3.714   0.1% |
  Subspace diag:                   272.195     0.160   0.0% |
   calc_h_matrix:                  176.702    48.090   0.9% |
    Apply H:                       128.612   124.963   2.3% ||
     HMM T:                          3.649     3.649   0.1% |
   diagonalize:                      6.258     6.258   0.1% |
   rotate_psi:                      89.075    89.075   1.6% ||
  calc. matrices:                  581.570   324.281   6.0% |-|
   Apply H:                        257.289   250.089   4.6% |-|
    HMM T:                           7.200     7.200   0.1% |
  diagonalize:                      84.937    84.937   1.6% ||
  rotate_psi:                      181.983   181.983   3.3% ||
 Density:                           73.970     0.001   0.0% |
  Atomic density matrices:           1.331     1.331   0.0% |
  Mix:                              10.212    10.212   0.2% |
  Multipole moments:                 0.031     0.031   0.0% |
  Pseudo density:                   62.395    62.394   1.1% |
   Symmetrize density:               0.002     0.002   0.0% |
 Forces:                           239.902   239.902   4.4% |-|
 Hamiltonian:                       19.055     0.127   0.0% |
  Atomic:                            2.674     2.674   0.0% |
   XC Correction:                    0.000     0.000   0.0% |
  Calculate atomic Hamiltonians:     7.671     7.671   0.1% |
  Communicate:                       0.102     0.102   0.0% |
  Poisson:                           0.059     0.059   0.0% |
  XC 3D grid:                        8.422     8.422   0.2% |
 Orthonormalize:                     3.978     0.004   0.0% |
  calc_s_matrix:                     0.478     0.478   0.0% |
  inverse-cholesky:                  0.054     0.054   0.0% |
  projections:                       2.590     2.590   0.0% |
  rotate_psi_s:                      0.853     0.853   0.0% |
Set symmetry:                        0.000     0.000   0.0% |
Other:                            3103.880  3103.880  57.0% |----------------------|
-----------------------------------------------------------
Total:                                      5441.477 100.0%

Memory usage: 12.41 GiB
Date: Sun Mar 21 20:56:11 2021
