
  ___ ___ ___ _ _ _  
 |   |   |_  | | | | 
 | | | | | . | | | | 
 |__ |  _|___|_____|  20.10.1b1
 |___|_|             

User:   madkru@i013.nifl.fysik.dtu.dk
Date:   Mon Mar 22 21:05:23 2021
Arch:   x86_64
Pid:    27943
Python: 3.7.4
gpaw:   /home/niflheim/madkru/venv_folder/gpaw/gpaw (d0d1ca1c71)
_gpaw:  /home/niflheim/madkru/venv_folder/gpaw/build/lib.linux-x86_64-ivybridge-3.7/
        _gpaw.cpython-37m-x86_64-linux-gnu.so (4fd39e8b1e)
ase:    /home/niflheim/madkru/venv_folder/ase/ase (version 3.21.0b1-7e6c206a91)
numpy:  /home/niflheim/madkru/venv_folder/lib/python3.7/site-packages/numpy (version 1.19.4)
scipy:  /home/niflheim/madkru/venv_folder/lib/python3.7/site-packages/scipy (version 1.5.4)
libxc:  4.3.4
units:  Angstrom and eV
cores: 32
OMP_NUM_THREADS: 1

Input parameters:
  convergence: {bands: occupied,
                density: 0.0001,
                eigenstates: 4e-08,
                energy: 0.0005,
                forces: 1e-06}
  kpts: [6 6 4]
  mode: {ecut: 600.0,
         gammacentered: False,
         name: pw}
  occupations: {fixmagmom: False,
                name: fermi-dirac,
                width: 0.001}
  symmetry: {point_group: False,
             time_reversal: False}

System changes: positions, numbers, cell, pbc, initial_charges, initial_magmoms 

Initialize ...

O-setup:
  name: Oxygen
  id: 9b9d51c344dea68c822856295a461509
  Z: 8.0
  valence: 6
  core: 2
  charge: 0.0
  file: /home/modules/software/GPAW-setups/0.9.20000/O.LDA.gz
  compensation charges: gauss, rc=0.21, lmax=2
  cutoffs: 1.17(filt), 0.83(core),
  valence states:
                energy  radius
    2s(2.00)   -23.752   0.688
    2p(4.00)    -9.195   0.598
    *s           3.459   0.688
    *p          18.016   0.598
    *d           0.000   0.619

  Using partial waves for O as LCAO basis

Mn-setup:
  name: Manganese
  id: 0d715a8018be061a6e9ea6f2d364ac92
  Z: 25.0
  valence: 15
  core: 10
  charge: 0.0
  file: /home/modules/software/GPAW-setups/0.9.20000/Mn.LDA.gz
  compensation charges: gauss, rc=0.38, lmax=2
  cutoffs: 2.14(filt), 0.86(core),
  valence states:
                energy  radius
    3s(2.00)   -85.387   1.275
    4s(2.00)    -5.282   1.275
    3p(6.00)   -54.493   1.281
    4p(0.00)    -1.471   1.281
    3d(5.00)    -7.009   1.138
    *d          20.203   1.138

  Using partial waves for Mn as LCAO basis

P-setup:
  name: Phosphorus
  id: a5561c299094968922a179ab894d2e2d
  Z: 15.0
  valence: 5
  core: 10
  charge: 0.0
  file: /home/modules/software/GPAW-setups/0.9.20000/P.LDA.gz
  compensation charges: gauss, rc=0.30, lmax=2
  cutoffs: 1.69(filt), 1.81(core),
  valence states:
                energy  radius
    3s(2.00)   -14.015   0.953
    3p(3.00)    -5.596   0.953
    *s          13.197   0.953
    *p          21.615   0.953
    *d           0.000   0.953

  Using partial waves for P as LCAO basis

Li-setup:
  name: Lithium
  id: b73562207f97a71b6967473b66fe8b65
  Z: 3.0
  valence: 1
  core: 2
  charge: 0.0
  file: /home/modules/software/GPAW-setups/0.9.20000/Li.LDA.gz
  compensation charges: gauss, rc=0.33, lmax=2
  cutoffs: 1.91(filt), 2.55(core),
  valence states:
                energy  radius
    2s(1.00)    -2.874   1.058
    2p(0.00)    -1.126   1.058
    *s          24.338   1.058

  Using partial waves for Li as LCAO basis

Reference energy: -196157.275402

Spin-polarized calculation.
Magnetic moment: 0.000000

Convergence criteria:
  Maximum total energy change: 0.0005 eV / electron
  Maximum integral of absolute density change: 0.0001 electrons
  Maximum integral of absolute eigenstate change: 4e-08 eV^2
  Maximum change in atomic force: 1e-06 eV / Ang
  Maximum number of iterations: 333

Symmetries present (total): 1

  ( 1  0  0)
  ( 0  1  0)
  ( 0  0  1)

144 k-points: 6 x 6 x 4 Monkhorst-Pack grid
144 k-points in the irreducible part of the Brillouin zone
       k-points in crystal coordinates                weights
   0:    -0.41666667   -0.41666667   -0.37500000          1/144
   1:    -0.41666667   -0.41666667   -0.12500000          1/144
   2:    -0.41666667   -0.41666667    0.12500000          1/144
   3:    -0.41666667   -0.41666667    0.37500000          1/144
   4:    -0.41666667   -0.25000000   -0.37500000          1/144
   5:    -0.41666667   -0.25000000   -0.12500000          1/144
   6:    -0.41666667   -0.25000000    0.12500000          1/144
   7:    -0.41666667   -0.25000000    0.37500000          1/144
   8:    -0.41666667   -0.08333333   -0.37500000          1/144
   9:    -0.41666667   -0.08333333   -0.12500000          1/144
          ...
 143:     0.41666667    0.41666667    0.37500000          1/144

Wave functions: Plane wave expansion
  Cutoff energy: 600.000 eV
  Number of coefficients (min, max): 9132, 9161
  Pulay-stress correction: 0.000000 eV/Ang^3 (de/decut=0.000000)
  Using FFTW library
  ScaLapack parameters: grid=1x1, blocksize=None
  Wavefunction extrapolation:
    Improved wavefunction reuse through dual PAW basis 

  Fermi-Dirac: width=0.0010 eV

Eigensolver
   Davidson(niter=2, smin=None, normalize=True) 

Densities:
  Coarse grid: 60*35*27 grid
  Fine grid: 120*70*54 grid
  Total Charge: 0.000000 

Density mixing:
  Method: difference
  Backend: pulay
  Linear mixing parameter: 0.05
  Mixing with 5 old densities
  Damping of long wave oscillations: 50 

Hamiltonian:
  XC and Coulomb potentials evaluated on a 120*70*54 grid
  Using the LDA Exchange-Correlation functional
 

Memory estimate:
  Process memory now: 13460.94 MiB
  Calculator: 342.26 MiB
    Density: 19.13 MiB
      Arrays: 7.57 MiB
      Localized functions: 8.54 MiB
      Mixer: 3.03 MiB
    Hamiltonian: 5.87 MiB
      Arrays: 5.62 MiB
      XC: 0.00 MiB
      Poisson: 0.00 MiB
      vbar: 0.25 MiB
    Wavefunctions: 317.25 MiB
      Arrays psit_nG: 281.81 MiB
      Eigensolver: 18.27 MiB
      Projections: 5.41 MiB
      Projectors: 8.81 MiB
      PW-descriptor: 2.95 MiB

Total number of cores used: 32
Parallelization over k-points: 16
Domain decomposition: 2 x 1 x 1

Number of atoms: 28
Number of atomic orbitals: 148
Number of bands in calculation: 112
Number of valence electrons: 180
Bands to converge: occupied

... initialized

Initializing position-dependent things.

Density initialized from atomic densities
Creating initial wave functions:
  112 bands from LCAO basis set

                                           
                                           
                                           
                                           
                                           
               O     O  P  O               
            PO           OMn     O         
                  O          MO            
            O        Li O                  
             Mn  Mn          OP            
         O       O Li O                    
         Li     O P         O              
       Li                                  
                                           
                                           
                                           
                                           

Positions:
   0 O     -1.280122   -2.495595   -1.112331    ( 0.0000,  0.0000,  0.0000)
   1 O     -3.023238    2.918858    1.191723    ( 0.0000,  0.0000,  0.0000)
   2 O      1.997451    0.467212    1.441442    ( 0.0000,  0.0000,  0.0000)
   3 O      3.740343   -0.043905   -0.862614    ( 0.0000,  0.0000,  0.0000)
   4 O      1.997419    2.918835    1.441465    ( 0.0000,  0.0000,  0.0000)
   5 O      3.740372   -2.495531   -0.862587    ( 0.0000,  0.0000,  0.0000)
   6 O     -1.280154   -0.043891   -1.112309    ( 0.0000,  0.0000,  0.0000)
   7 O     -3.023210    0.467136    1.191750    ( 0.0000,  0.0000,  0.0000)
   8 O     -4.147405   -1.259737   -0.856207    ( 0.0000,  0.0000,  0.0000)
   9 O     -0.155894    1.692986    1.447725    ( 0.0000,  0.0000,  0.0000)
  10 O      4.864578    1.693016    1.185324    ( 0.0000,  0.0000,  0.0000)
  11 O      0.873163   -1.269706   -1.118625    ( 0.0000,  0.0000,  0.0000)
  12 Mn    -2.437108   -1.269902    0.302197    ( 0.0000,  0.0000,  1.0000)
  13 Mn    -1.866187    1.693156   -2.001927    ( 0.0000,  0.0000, -1.0000)
  14 Mn     3.154299    1.693181    0.026917    ( 0.0000,  0.0000, -1.0000)
  15 Mn     2.583444   -1.269877    2.331074    ( 0.0000,  0.0000,  1.0000)
  16 P     -0.543052   -1.269720   -1.734187    ( 0.0000,  0.0000,  0.0000)
  17 P     -3.760282    1.692974    0.569859    ( 0.0000,  0.0000,  0.0000)
  18 P      1.260300    1.693000    2.063344    ( 0.0000,  0.0000,  0.0000)
  19 P      4.477470   -1.269695   -0.240696    ( 0.0000,  0.0000,  0.0000)
  20 O     -0.544413   -1.269738    1.348523    ( 0.0000,  0.0000,  0.0000)
  21 O     -3.758895    1.692992   -0.955558    ( 0.0000,  0.0000,  0.0000)
  22 O      1.261690    1.693018   -1.019367    ( 0.0000,  0.0000,  0.0000)
  23 O      4.476045   -1.269713    1.284716    ( 0.0000,  0.0000,  0.0000)
  24 Li    -4.662027   -2.751322   -2.139440    ( 0.0000,  0.0000,  0.0000)
  25 Li     0.358703   -2.751277    0.164614    ( 0.0000,  0.0000,  0.0000)
  26 Li    -4.662011    0.211617   -2.139439    ( 0.0000,  0.0000,  0.0000)
  27 Li     0.358720    0.211628    0.164615    ( 0.0000,  0.0000,  0.0000)

Unit cell:
           periodic     x           y           z      points  spacing
  1. axis:    yes   10.041096    0.000054   -0.000022    60     0.1674
  2. axis:    yes    0.000032    5.925857    0.000001    35     0.1693
  3. axis:    yes   -0.000010    0.000001    4.608134    27     0.1707

  Lengths:  10.041096   5.925857   4.608134
  Angles:   89.999974  90.000250  89.999381

Effective grid spacing dv^(1/3) = 0.1691

                     log10-error:           total        iterations:
           time      wfs    density  force  energy       poisson  magmom
iter:   1  21:08:29                       -233.730125             +0.0000
iter:   2  21:09:05  -0.47  -0.95         -231.549823             +0.0019
iter:   3  21:09:41  -0.61  -1.00         -220.802902             +0.0020
iter:   4  21:10:17  -1.19  -1.31         -220.894432             +0.3151
iter:   5  21:10:53  -2.12  -1.40         -222.886387             +0.1697
iter:   6  21:11:29  -2.17  -1.38         -223.687111             +0.2413
iter:   7  21:12:05  -2.18  -1.53         -223.777993             -0.1559
iter:   8  21:12:42  -2.54  -1.68         -225.626157             -0.5877
iter:   9  21:13:18  -2.17  -1.90         -226.373966             -0.3146
iter:  10  21:13:54  -2.25  -2.02         -226.305859             -0.1103
iter:  11  21:14:30  -3.01  -2.13         -226.296692             -0.0237
iter:  12  21:15:06  -2.54  -2.15         -226.225519             +0.0051
iter:  13  21:15:42  -3.27  -2.60         -226.222360             -0.0059
iter:  14  21:16:18  -2.88  -2.76         -226.182096             +0.0088
iter:  15  21:16:54  -4.28  -3.09         -226.180613             +0.0009
iter:  16  21:17:31  -4.37  -3.18         -226.176413             -0.0005
iter:  17  21:18:07  -5.40  -3.26         -226.176287             -0.0001
iter:  18  21:18:43  -4.56  -3.29         -226.175358             -0.0000
iter:  19  21:19:19  -5.57  -3.36         -226.175205             -0.0000
iter:  20  21:19:55  -4.76  -3.39         -226.175670             -0.0000
iter:  21  21:20:31  -5.41  -3.69         -226.175144             -0.0000
iter:  22  21:21:07  -5.79  -3.79         -226.175108             -0.0000
iter:  23  21:21:43  -6.26  -3.84         -226.175078             -0.0000
iter:  24  21:22:20  -5.37  -3.90         -226.175243             -0.0000
iter:  25  21:22:56  -6.49  -3.96         -226.175193             +0.0000
iter:  26  21:23:32  -5.26  -4.07         -226.175101             +0.0000
iter:  27  21:24:08  -6.28  -4.39         -226.175048             +0.0000
iter:  28  21:24:44  -7.12  -4.74         -226.175047             +0.0000
iter:  29  21:25:20  -7.34  -4.79         -226.175051             +0.0000
iter:  30  21:25:56  -7.26  -4.97         -226.175052             +0.0000
iter:  31  21:26:42  -7.77  -4.97         -226.175051             +0.0000
iter:  32  21:27:27  -8.47  -5.14    -3.45-226.175051             +0.0000
iter:  33  21:28:13  -8.11  -5.23    -3.14-226.175051             -0.0000
iter:  34  21:28:58  -9.24  -5.33    -3.39-226.175051             +0.0000
iter:  35  21:29:44  -8.57  -5.39    -3.32-226.175051             +0.0000
iter:  36  21:30:29  -9.06  -5.46    -3.46-226.175051             +0.0000
iter:  37  21:31:15  -9.41  -5.61    -3.98-226.175051             +0.0000
iter:  38  21:32:00  -9.21  -5.67    -3.37-226.175051             +0.0000
iter:  39  21:32:45  -9.62  -6.13    -4.02-226.175051             -0.0000
iter:  40  21:33:31 -10.77  -6.31    -4.18-226.175051             -0.0000
iter:  41  21:34:16 -10.59  -6.36    -4.12-226.175051             -0.0000
iter:  42  21:35:01 -10.91  -6.55    -4.20-226.175051             -0.0000
iter:  43  21:35:47 -11.77  -6.76    -4.74-226.175051             -0.0000
iter:  44  21:36:32 -12.09  -6.85    -5.03-226.175051             -0.0000
iter:  45  21:37:17 -11.91  -6.92    -5.03-226.175051             -0.0000
iter:  46  21:38:03 -12.32  -7.02    -5.01-226.175051             -0.0000
iter:  47  21:38:48 -13.16  -7.09    -5.19-226.175051             -0.0000
iter:  48  21:39:33 -11.77  -7.16    -4.83-226.175051             -0.0000
iter:  49  21:40:19 -12.89  -7.33    -5.27-226.175051             -0.0000
iter:  50  21:41:04 -13.53  -7.36    -5.77-226.175051             -0.0000
iter:  51  21:41:49 -12.63  -7.39    -4.97-226.175051             -0.0000
iter:  52  21:42:35 -13.24  -7.50    -5.59-226.175051             -0.0000
iter:  53  21:43:20 -13.22  -7.57    -5.58-226.175051             -0.0000
iter:  54  21:44:06 -13.39  -7.71    -5.62-226.175051             -0.0000
iter:  55  21:44:51 -14.46  -7.82    -6.20-226.175051             -0.0000

Converged after 55 iterations.

Dipole moment: (18.327090, -2.306005, -4.524273) |e|*Ang

Total magnetic moment: (0.000000, 0.000000, -0.000000)
Local magnetic moments:
   0 O  ( 0.000000,  0.000000, -0.001807)
   1 O  ( 0.000000,  0.000000,  0.001846)
   2 O  ( 0.000000,  0.000000,  0.001809)
   3 O  ( 0.000000,  0.000000, -0.001793)
   4 O  ( 0.000000,  0.000000,  0.001806)
   5 O  ( 0.000000,  0.000000, -0.001820)
   6 O  ( 0.000000,  0.000000, -0.001815)
   7 O  ( 0.000000,  0.000000,  0.001776)
   8 O  ( 0.000000,  0.000000,  0.031099)
   9 O  ( 0.000000,  0.000000, -0.031097)
  10 O  ( 0.000000,  0.000000, -0.031096)
  11 O  ( 0.000000,  0.000000,  0.031096)
  12 Mn ( 0.000000,  0.000000,  4.395765)
  13 Mn ( 0.000000,  0.000000, -4.395782)
  14 Mn ( 0.000000,  0.000000, -4.395736)
  15 Mn ( 0.000000,  0.000000,  4.395750)
  16 P  ( 0.000000,  0.000000,  0.000866)
  17 P  ( 0.000000,  0.000000, -0.000864)
  18 P  ( 0.000000,  0.000000, -0.000871)
  19 P  ( 0.000000,  0.000000,  0.000869)
  20 O  ( 0.000000,  0.000000,  0.028417)
  21 O  ( 0.000000,  0.000000, -0.028416)
  22 O  ( 0.000000,  0.000000, -0.028420)
  23 O  ( 0.000000,  0.000000,  0.028418)
  24 Li ( 0.000000,  0.000000, -0.000022)
  25 Li ( 0.000000,  0.000000,  0.000000)
  26 Li ( 0.000000,  0.000000,  0.000022)
  27 Li ( 0.000000,  0.000000, -0.000000)

Energy contributions relative to reference atoms: (reference = -196157.275402)

Kinetic:       +277.622701
Potential:     -240.965441
External:        +0.000000
XC:            -264.720764
Entropy (-ST):   -0.000000
Local:           +1.888453
--------------------------
Free energy:   -226.175051
Extrapolated:  -226.175051

Spin contamination: 9.455314 electrons
Showing only first 2 kpts
                      Up                     Down
 Kpt  Band  Eigenvalues  Occupancy  Eigenvalues  Occupancy
  0    88      6.53064    0.00694      6.53053    0.00694
  0    89      6.56395    0.00694      6.56406    0.00694
  0    90      8.42674    0.00000      8.42675    0.00000
  0    91      8.44832    0.00000      8.44836    0.00000

  1    88      6.56890    0.00694      6.56892    0.00694
  1    89      6.59606    0.00694      6.59607    0.00694
  1    90      8.38310    0.00000      8.38305    0.00000
  1    91      8.40520    0.00000      8.40527    0.00000


Fermi level: 7.61414

Gap: 1.699 eV
Transition (v -> c):
  (s=0, k=94, n=89, [0.08, 0.42, 0.12]) -> (s=1, k=58, n=90, [-0.08, -0.08, 0.12])
Writing to born-0.01-8y+.gpw (mode='all')

Timing:                              incl.     excl.
-----------------------------------------------------------
Hamiltonian:                         0.354     0.002   0.0% |
 Atomic:                             0.050     0.050   0.0% |
  XC Correction:                     0.000     0.000   0.0% |
 Calculate atomic Hamiltonians:      0.143     0.143   0.0% |
 Communicate:                        0.002     0.002   0.0% |
 Initialize Hamiltonian:             0.000     0.000   0.0% |
 Poisson:                            0.001     0.001   0.0% |
 XC 3D grid:                         0.156     0.156   0.0% |
LCAO initialization:               142.746     0.676   0.0% |
 LCAO eigensolver:                  38.152     0.002   0.0% |
  Calculate projections:             0.056     0.056   0.0% |
  DenseAtomicCorrection:             0.088     0.088   0.0% |
  Distribute overlap matrix:         0.046     0.046   0.0% |
  Orbital Layouts:                   0.343     0.343   0.0% |
  Potential matrix:                 37.529    37.529   0.7% |
  Sum over cells:                    0.087     0.087   0.0% |
 LCAO to grid:                     101.566   101.566   1.8% ||
 Set positions (LCAO WFS):           2.352     0.374   0.0% |
  Basic WFS set positions:           0.002     0.002   0.0% |
  Basis functions set positions:     0.000     0.000   0.0% |
  P tci:                             1.055     1.055   0.0% |
  ST tci:                            0.703     0.703   0.0% |
  mktci:                             0.218     0.218   0.0% |
PWDescriptor:                        0.024     0.024   0.0% |
SCF-cycle:                        2223.049    10.379   0.2% |
 Davidson:                        1881.950   600.714  10.7% |---|
  Apply H:                         134.870   130.297   2.3% ||
   HMM T:                            4.574     4.574   0.1% |
  Subspace diag:                   280.604     0.173   0.0% |
   calc_h_matrix:                  183.002    49.119   0.9% |
    Apply H:                       133.883   129.506   2.3% ||
     HMM T:                          4.378     4.378   0.1% |
   diagonalize:                      6.512     6.512   0.1% |
   rotate_psi:                      90.917    90.917   1.6% ||
  calc. matrices:                  593.190   330.568   5.9% |-|
   Apply H:                        262.622   254.492   4.5% |-|
    HMM T:                           8.130     8.130   0.1% |
  diagonalize:                      86.846    86.846   1.5% ||
  rotate_psi:                      185.725   185.725   3.3% ||
 Density:                           76.395     0.001   0.0% |
  Atomic density matrices:           1.479     1.479   0.0% |
  Mix:                              10.362    10.362   0.2% |
  Multipole moments:                 0.033     0.033   0.0% |
  Pseudo density:                   64.520    64.518   1.2% |
   Symmetrize density:               0.002     0.002   0.0% |
 Forces:                           230.899   230.899   4.1% |-|
 Hamiltonian:                       19.441     0.129   0.0% |
  Atomic:                            2.732     2.731   0.0% |
   XC Correction:                    0.000     0.000   0.0% |
  Calculate atomic Hamiltonians:     7.821     7.821   0.1% |
  Communicate:                       0.103     0.103   0.0% |
  Poisson:                           0.066     0.066   0.0% |
  XC 3D grid:                        8.591     8.591   0.2% |
 Orthonormalize:                     3.984     0.004   0.0% |
  calc_s_matrix:                     0.479     0.479   0.0% |
  inverse-cholesky:                  0.054     0.054   0.0% |
  projections:                       2.595     2.595   0.0% |
  rotate_psi_s:                      0.853     0.853   0.0% |
Set symmetry:                        0.000     0.000   0.0% |
Other:                            3240.916  3240.916  57.8% |----------------------|
-----------------------------------------------------------
Total:                                      5607.089 100.0%

Memory usage: 13.17 GiB
Date: Mon Mar 22 22:38:50 2021
