
  ___ ___ ___ _ _ _  
 |   |   |_  | | | | 
 | | | | | . | | | | 
 |__ |  _|___|_____|  20.10.1b1
 |___|_|             

User:   madkru@i013.nifl.fysik.dtu.dk
Date:   Sun Mar 21 02:53:38 2021
Arch:   x86_64
Pid:    27943
Python: 3.7.4
gpaw:   /home/niflheim/madkru/venv_folder/gpaw/gpaw (d0d1ca1c71)
_gpaw:  /home/niflheim/madkru/venv_folder/gpaw/build/lib.linux-x86_64-ivybridge-3.7/
        _gpaw.cpython-37m-x86_64-linux-gnu.so (4fd39e8b1e)
ase:    /home/niflheim/madkru/venv_folder/ase/ase (version 3.21.0b1-7e6c206a91)
numpy:  /home/niflheim/madkru/venv_folder/lib/python3.7/site-packages/numpy (version 1.19.4)
scipy:  /home/niflheim/madkru/venv_folder/lib/python3.7/site-packages/scipy (version 1.5.4)
libxc:  4.3.4
units:  Angstrom and eV
cores: 32
OMP_NUM_THREADS: 1

Input parameters:
  convergence: {bands: occupied,
                density: 0.0001,
                eigenstates: 4e-08,
                energy: 0.0005,
                forces: 1e-06}
  kpts: [6 6 4]
  mode: {ecut: 600.0,
         gammacentered: False,
         name: pw}
  occupations: {fixmagmom: False,
                name: fermi-dirac,
                width: 0.001}
  symmetry: {point_group: False,
             time_reversal: False}

System changes: positions, numbers, cell, pbc, initial_charges, initial_magmoms 

Initialize ...

O-setup:
  name: Oxygen
  id: 9b9d51c344dea68c822856295a461509
  Z: 8.0
  valence: 6
  core: 2
  charge: 0.0
  file: /home/modules/software/GPAW-setups/0.9.20000/O.LDA.gz
  compensation charges: gauss, rc=0.21, lmax=2
  cutoffs: 1.17(filt), 0.83(core),
  valence states:
                energy  radius
    2s(2.00)   -23.752   0.688
    2p(4.00)    -9.195   0.598
    *s           3.459   0.688
    *p          18.016   0.598
    *d           0.000   0.619

  Using partial waves for O as LCAO basis

Mn-setup:
  name: Manganese
  id: 0d715a8018be061a6e9ea6f2d364ac92
  Z: 25.0
  valence: 15
  core: 10
  charge: 0.0
  file: /home/modules/software/GPAW-setups/0.9.20000/Mn.LDA.gz
  compensation charges: gauss, rc=0.38, lmax=2
  cutoffs: 2.14(filt), 0.86(core),
  valence states:
                energy  radius
    3s(2.00)   -85.387   1.275
    4s(2.00)    -5.282   1.275
    3p(6.00)   -54.493   1.281
    4p(0.00)    -1.471   1.281
    3d(5.00)    -7.009   1.138
    *d          20.203   1.138

  Using partial waves for Mn as LCAO basis

P-setup:
  name: Phosphorus
  id: a5561c299094968922a179ab894d2e2d
  Z: 15.0
  valence: 5
  core: 10
  charge: 0.0
  file: /home/modules/software/GPAW-setups/0.9.20000/P.LDA.gz
  compensation charges: gauss, rc=0.30, lmax=2
  cutoffs: 1.69(filt), 1.81(core),
  valence states:
                energy  radius
    3s(2.00)   -14.015   0.953
    3p(3.00)    -5.596   0.953
    *s          13.197   0.953
    *p          21.615   0.953
    *d           0.000   0.953

  Using partial waves for P as LCAO basis

Li-setup:
  name: Lithium
  id: b73562207f97a71b6967473b66fe8b65
  Z: 3.0
  valence: 1
  core: 2
  charge: 0.0
  file: /home/modules/software/GPAW-setups/0.9.20000/Li.LDA.gz
  compensation charges: gauss, rc=0.33, lmax=2
  cutoffs: 1.91(filt), 2.55(core),
  valence states:
                energy  radius
    2s(1.00)    -2.874   1.058
    2p(0.00)    -1.126   1.058
    *s          24.338   1.058

  Using partial waves for Li as LCAO basis

Reference energy: -196157.275402

Spin-polarized calculation.
Magnetic moment: 0.000000

Convergence criteria:
  Maximum total energy change: 0.0005 eV / electron
  Maximum integral of absolute density change: 0.0001 electrons
  Maximum integral of absolute eigenstate change: 4e-08 eV^2
  Maximum change in atomic force: 1e-06 eV / Ang
  Maximum number of iterations: 333

Symmetries present (total): 1

  ( 1  0  0)
  ( 0  1  0)
  ( 0  0  1)

144 k-points: 6 x 6 x 4 Monkhorst-Pack grid
144 k-points in the irreducible part of the Brillouin zone
       k-points in crystal coordinates                weights
   0:    -0.41666667   -0.41666667   -0.37500000          1/144
   1:    -0.41666667   -0.41666667   -0.12500000          1/144
   2:    -0.41666667   -0.41666667    0.12500000          1/144
   3:    -0.41666667   -0.41666667    0.37500000          1/144
   4:    -0.41666667   -0.25000000   -0.37500000          1/144
   5:    -0.41666667   -0.25000000   -0.12500000          1/144
   6:    -0.41666667   -0.25000000    0.12500000          1/144
   7:    -0.41666667   -0.25000000    0.37500000          1/144
   8:    -0.41666667   -0.08333333   -0.37500000          1/144
   9:    -0.41666667   -0.08333333   -0.12500000          1/144
          ...
 143:     0.41666667    0.41666667    0.37500000          1/144

Wave functions: Plane wave expansion
  Cutoff energy: 600.000 eV
  Number of coefficients (min, max): 9132, 9161
  Pulay-stress correction: 0.000000 eV/Ang^3 (de/decut=0.000000)
  Using FFTW library
  ScaLapack parameters: grid=1x1, blocksize=None
  Wavefunction extrapolation:
    Improved wavefunction reuse through dual PAW basis 

  Fermi-Dirac: width=0.0010 eV

Eigensolver
   Davidson(niter=2, smin=None, normalize=True) 

Densities:
  Coarse grid: 60*35*27 grid
  Fine grid: 120*70*54 grid
  Total Charge: 0.000000 

Density mixing:
  Method: difference
  Backend: pulay
  Linear mixing parameter: 0.05
  Mixing with 5 old densities
  Damping of long wave oscillations: 50 

Hamiltonian:
  XC and Coulomb potentials evaluated on a 120*70*54 grid
  Using the LDA Exchange-Correlation functional
 

Memory estimate:
  Process memory now: 126.54 MiB
  Calculator: 342.26 MiB
    Density: 19.13 MiB
      Arrays: 7.57 MiB
      Localized functions: 8.54 MiB
      Mixer: 3.03 MiB
    Hamiltonian: 5.87 MiB
      Arrays: 5.62 MiB
      XC: 0.00 MiB
      Poisson: 0.00 MiB
      vbar: 0.25 MiB
    Wavefunctions: 317.25 MiB
      Arrays psit_nG: 281.81 MiB
      Eigensolver: 18.27 MiB
      Projections: 5.41 MiB
      Projectors: 8.81 MiB
      PW-descriptor: 2.95 MiB

Total number of cores used: 32
Parallelization over k-points: 16
Domain decomposition: 2 x 1 x 1

Number of atoms: 28
Number of atomic orbitals: 148
Number of bands in calculation: 112
Number of valence electrons: 180
Bands to converge: occupied

... initialized

Initializing position-dependent things.

Density initialized from atomic densities
Creating initial wave functions:
  112 bands from LCAO basis set

                                           
                                           
                                           
                                           
                                           
               O     O  P  O               
            PO           OMn     O         
                  O          MO            
            O        Li O                  
             Mn  Mn          OP            
         O       O Li O                    
         Li     O P         O              
       Li                                  
                                           
                                           
                                           
                                           

Positions:
   0 O     -1.290122   -2.495595   -1.112331    ( 0.0000,  0.0000,  0.0000)
   1 O     -3.023238    2.918858    1.191723    ( 0.0000,  0.0000,  0.0000)
   2 O      1.997451    0.467212    1.441442    ( 0.0000,  0.0000,  0.0000)
   3 O      3.740343   -0.043905   -0.862614    ( 0.0000,  0.0000,  0.0000)
   4 O      1.997419    2.918835    1.441465    ( 0.0000,  0.0000,  0.0000)
   5 O      3.740372   -2.495531   -0.862587    ( 0.0000,  0.0000,  0.0000)
   6 O     -1.280154   -0.043891   -1.112309    ( 0.0000,  0.0000,  0.0000)
   7 O     -3.023210    0.467136    1.191750    ( 0.0000,  0.0000,  0.0000)
   8 O     -4.147405   -1.269737   -0.856207    ( 0.0000,  0.0000,  0.0000)
   9 O     -0.155894    1.692986    1.447725    ( 0.0000,  0.0000,  0.0000)
  10 O      4.864578    1.693016    1.185324    ( 0.0000,  0.0000,  0.0000)
  11 O      0.873163   -1.269706   -1.118625    ( 0.0000,  0.0000,  0.0000)
  12 Mn    -2.437108   -1.269902    0.302197    ( 0.0000,  0.0000,  1.0000)
  13 Mn    -1.866187    1.693156   -2.001927    ( 0.0000,  0.0000, -1.0000)
  14 Mn     3.154299    1.693181    0.026917    ( 0.0000,  0.0000, -1.0000)
  15 Mn     2.583444   -1.269877    2.331074    ( 0.0000,  0.0000,  1.0000)
  16 P     -0.543052   -1.269720   -1.734187    ( 0.0000,  0.0000,  0.0000)
  17 P     -3.760282    1.692974    0.569859    ( 0.0000,  0.0000,  0.0000)
  18 P      1.260300    1.693000    2.063344    ( 0.0000,  0.0000,  0.0000)
  19 P      4.477470   -1.269695   -0.240696    ( 0.0000,  0.0000,  0.0000)
  20 O     -0.544413   -1.269738    1.348523    ( 0.0000,  0.0000,  0.0000)
  21 O     -3.758895    1.692992   -0.955558    ( 0.0000,  0.0000,  0.0000)
  22 O      1.261690    1.693018   -1.019367    ( 0.0000,  0.0000,  0.0000)
  23 O      4.476045   -1.269713    1.284716    ( 0.0000,  0.0000,  0.0000)
  24 Li    -4.662027   -2.751322   -2.139440    ( 0.0000,  0.0000,  0.0000)
  25 Li     0.358703   -2.751277    0.164614    ( 0.0000,  0.0000,  0.0000)
  26 Li    -4.662011    0.211617   -2.139439    ( 0.0000,  0.0000,  0.0000)
  27 Li     0.358720    0.211628    0.164615    ( 0.0000,  0.0000,  0.0000)

Unit cell:
           periodic     x           y           z      points  spacing
  1. axis:    yes   10.041096    0.000054   -0.000022    60     0.1674
  2. axis:    yes    0.000032    5.925857    0.000001    35     0.1693
  3. axis:    yes   -0.000010    0.000001    4.608134    27     0.1707

  Lengths:  10.041096   5.925857   4.608134
  Angles:   89.999974  90.000250  89.999381

Effective grid spacing dv^(1/3) = 0.1691

                     log10-error:           total        iterations:
           time      wfs    density  force  energy       poisson  magmom
iter:   1  02:56:32                       -233.731182             +0.0000
iter:   2  02:57:08  -0.47  -0.95         -231.544872             +0.0029
iter:   3  02:57:45  -0.61  -1.00         -220.830217             +0.0030
iter:   4  02:58:21  -1.21  -1.31         -221.386099             +0.4198
iter:   5  02:58:58  -2.15  -1.38         -222.503272             +0.2390
iter:   6  02:59:34  -2.36  -1.38         -223.665587             +0.1017
iter:   7  03:00:10  -2.05  -1.54         -223.500293             +0.0864
iter:   8  03:00:46  -2.41  -1.91         -225.742618             +0.0345
iter:   9  03:01:23  -2.22  -2.09         -226.346875             -0.0031
iter:  10  03:01:59  -2.32  -2.14         -226.325642             -0.0007
iter:  11  03:02:35  -2.86  -2.30         -226.332947             -0.0002
iter:  12  03:03:12  -2.76  -2.40         -226.204392             +0.0000
iter:  13  03:03:48  -2.85  -2.43         -226.191771             -0.0000
iter:  14  03:04:24  -3.56  -2.86         -226.180550             -0.0000
iter:  15  03:05:01  -3.78  -2.82         -226.175769             +0.0000
iter:  16  03:05:37  -4.71  -3.21         -226.175701             +0.0000
iter:  17  03:06:13  -5.02  -3.22         -226.175821             -0.0000
iter:  18  03:06:49  -4.75  -3.28         -226.175122             -0.0000
iter:  19  03:07:26  -5.62  -3.33         -226.175035             -0.0000
iter:  20  03:08:02  -5.36  -3.44         -226.175187             +0.0000
iter:  21  03:08:38  -5.73  -3.52         -226.175060             -0.0000
iter:  22  03:09:14  -5.13  -3.56         -226.174735             -0.0000
iter:  23  03:09:51  -5.82  -3.77         -226.174754             -0.0000
iter:  24  03:10:27  -6.22  -3.83         -226.174724             -0.0000
iter:  25  03:11:03  -6.57  -4.02         -226.174744             -0.0000
iter:  26  03:11:40  -6.44  -4.12         -226.174710             -0.0000
iter:  27  03:12:16  -6.82  -4.39         -226.174705             -0.0000
iter:  28  03:12:52  -7.37  -4.54         -226.174707             -0.0000
iter:  29  03:13:38  -7.67  -4.61         -226.174702             -0.0000
iter:  30  03:14:14  -7.27  -4.70         -226.174697             -0.0000
iter:  31  03:14:59  -7.80  -4.90    -2.38-226.174696             -0.0000
iter:  32  03:15:45  -8.52  -4.98    -2.74-226.174696             -0.0000
iter:  33  03:16:30  -7.86  -5.05    -2.81-226.174697             +0.0000
iter:  34  03:17:16  -8.79  -5.18    -3.28-226.174696             +0.0000
iter:  35  03:18:01  -9.14  -5.22    -3.27-226.174696             +0.0000
iter:  36  03:18:47  -8.72  -5.28    -2.99-226.174696             +0.0000
iter:  37  03:19:32  -8.56  -5.40    -3.39-226.174696             +0.0000
iter:  38  03:20:17  -9.49  -5.64    -4.01-226.174696             +0.0000
iter:  39  03:21:03  -9.79  -5.68    -3.59-226.174696             +0.0000
iter:  40  03:21:48  -9.08  -5.80    -3.75-226.174696             +0.0000
iter:  41  03:22:33  -9.42  -5.82    -3.70-226.174696             +0.0000
iter:  42  03:23:19 -10.60  -6.02    -4.58-226.174696             +0.0000
iter:  43  03:24:04  -9.80  -6.06    -3.50-226.174696             +0.0000
iter:  44  03:24:50 -10.38  -6.33    -4.09-226.174696             +0.0000
iter:  45  03:25:35 -11.29  -6.67    -4.85-226.174696             +0.0000
iter:  46  03:26:20 -10.92  -6.73    -4.45-226.174696             +0.0000
iter:  47  03:27:06 -10.93  -6.77    -4.46-226.174696             +0.0000
iter:  48  03:27:51 -11.88  -6.93    -4.87-226.174696             +0.0000
iter:  49  03:28:36 -11.45  -6.98    -4.70-226.174696             +0.0000
iter:  50  03:29:22 -12.23  -7.16    -4.85-226.174696             +0.0000
iter:  51  03:30:07 -13.33  -7.40    -5.71-226.174696             +0.0000
iter:  52  03:30:52 -12.71  -7.42    -5.14-226.174696             +0.0000
iter:  53  03:31:38 -12.62  -7.50    -5.34-226.174696             +0.0000
iter:  54  03:32:23 -12.43  -7.60    -5.10-226.174696             +0.0000
iter:  55  03:33:09 -12.89  -7.56    -5.35-226.174696             +0.0000
iter:  56  03:33:54 -13.84  -8.11    -5.81-226.174696             +0.0000
iter:  57  03:34:39 -14.58  -8.20    -6.13-226.174696             +0.0000

Converged after 57 iterations.

Dipole moment: (18.322176, -2.305209, -4.523701) |e|*Ang

Total magnetic moment: (0.000000, 0.000000, 0.000000)
Local magnetic moments:
   0 O  ( 0.000000,  0.000000, -0.001787)
   1 O  ( 0.000000,  0.000000,  0.001791)
   2 O  ( 0.000000,  0.000000,  0.001831)
   3 O  ( 0.000000,  0.000000, -0.001792)
   4 O  ( 0.000000,  0.000000,  0.001828)
   5 O  ( 0.000000,  0.000000, -0.001787)
   6 O  ( 0.000000,  0.000000, -0.001798)
   7 O  ( 0.000000,  0.000000,  0.001751)
   8 O  ( 0.000000,  0.000000,  0.031095)
   9 O  ( 0.000000,  0.000000, -0.031044)
  10 O  ( 0.000000,  0.000000, -0.031155)
  11 O  ( 0.000000,  0.000000,  0.030966)
  12 Mn ( 0.000000,  0.000000,  4.394917)
  13 Mn ( 0.000000,  0.000000, -4.394721)
  14 Mn ( 0.000000,  0.000000, -4.395716)
  15 Mn ( 0.000000,  0.000000,  4.395728)
  16 P  ( 0.000000,  0.000000,  0.000895)
  17 P  ( 0.000000,  0.000000, -0.000849)
  18 P  ( 0.000000,  0.000000, -0.000886)
  19 P  ( 0.000000,  0.000000,  0.000880)
  20 O  ( 0.000000,  0.000000,  0.028376)
  21 O  ( 0.000000,  0.000000, -0.028453)
  22 O  ( 0.000000,  0.000000, -0.028395)
  23 O  ( 0.000000,  0.000000,  0.028463)
  24 Li ( 0.000000,  0.000000, -0.000000)
  25 Li ( 0.000000,  0.000000,  0.000007)
  26 Li ( 0.000000,  0.000000,  0.000001)
  27 Li ( 0.000000,  0.000000, -0.000005)

Energy contributions relative to reference atoms: (reference = -196157.275402)

Kinetic:       +277.358635
Potential:     -240.765545
External:        +0.000000
XC:            -264.656561
Entropy (-ST):   -0.000000
Local:           +1.888776
--------------------------
Free energy:   -226.174696
Extrapolated:  -226.174696

Spin contamination: 9.454201 electrons
Showing only first 2 kpts
                      Up                     Down
 Kpt  Band  Eigenvalues  Occupancy  Eigenvalues  Occupancy
  0    88      6.53036    0.00694      6.53382    0.00694
  0    89      6.56720    0.00694      6.56804    0.00694
  0    90      8.42785    0.00000      8.42787    0.00000
  0    91      8.45237    0.00000      8.45098    0.00000

  1    88      6.56821    0.00694      6.57232    0.00694
  1    89      6.59988    0.00694      6.59993    0.00694
  1    90      8.38425    0.00000      8.38477    0.00000
  1    91      8.40884    0.00000      8.40943    0.00000


Fermi level: 7.55936

Gap: 1.697 eV
Transition (v -> c):
  (s=1, k=70, n=89, [-0.08, 0.42, 0.12]) -> (s=1, k=58, n=90, [-0.08, -0.08, 0.12])
Writing to born-0.01-0x-.gpw (mode='all')

Timing:                              incl.     excl.
-----------------------------------------------------------
Hamiltonian:                         0.362     0.002   0.0% |
 Atomic:                             0.054     0.054   0.0% |
  XC Correction:                     0.000     0.000   0.0% |
 Calculate atomic Hamiltonians:      0.149     0.149   0.0% |
 Communicate:                        0.000     0.000   0.0% |
 Initialize Hamiltonian:             0.000     0.000   0.0% |
 Poisson:                            0.001     0.001   0.0% |
 XC 3D grid:                         0.156     0.156   0.0% |
LCAO initialization:               132.610     0.648   0.0% |
 LCAO eigensolver:                  37.434     0.004   0.0% |
  Calculate projections:             0.057     0.057   0.0% |
  DenseAtomicCorrection:             0.089     0.089   0.0% |
  Distribute overlap matrix:         0.119     0.119   0.0% |
  Orbital Layouts:                   0.322     0.322   0.0% |
  Potential matrix:                 36.753    36.753   0.7% |
  Sum over cells:                    0.090     0.090   0.0% |
 LCAO to grid:                      92.138    92.138   1.7% ||
 Set positions (LCAO WFS):           2.390     0.377   0.0% |
  Basic WFS set positions:           0.002     0.002   0.0% |
  Basis functions set positions:     0.000     0.000   0.0% |
  P tci:                             1.085     1.085   0.0% |
  ST tci:                            0.707     0.707   0.0% |
  mktci:                             0.220     0.220   0.0% |
PWDescriptor:                        0.025     0.025   0.0% |
SCF-cycle:                        2326.465     5.590   0.1% |
 Davidson:                        1959.066   622.733  11.2% |---|
  Apply H:                         142.303   137.943   2.5% ||
   HMM T:                            4.360     4.360   0.1% |
  Subspace diag:                   292.304     0.181   0.0% |
   calc_h_matrix:                  191.183    51.000   0.9% |
    Apply H:                       140.183   135.921   2.5% ||
     HMM T:                          4.262     4.262   0.1% |
   diagonalize:                      6.578     6.578   0.1% |
   rotate_psi:                      94.362    94.362   1.7% ||
  calc. matrices:                  619.078   342.871   6.2% |-|
   Apply H:                        276.207   268.081   4.8% |-|
    HMM T:                           8.126     8.126   0.1% |
  diagonalize:                      90.415    90.415   1.6% ||
  rotate_psi:                      192.233   192.233   3.5% ||
 Density:                           79.013     0.002   0.0% |
  Atomic density matrices:           1.467     1.467   0.0% |
  Mix:                              10.993    10.993   0.2% |
  Multipole moments:                 0.035     0.035   0.0% |
  Pseudo density:                   66.517    66.515   1.2% |
   Symmetrize density:               0.002     0.002   0.0% |
 Forces:                           258.620   258.620   4.7% |-|
 Hamiltonian:                       20.176     0.127   0.0% |
  Atomic:                            2.882     2.881   0.1% |
   XC Correction:                    0.000     0.000   0.0% |
  Calculate atomic Hamiltonians:     8.044     8.044   0.1% |
  Communicate:                       0.100     0.100   0.0% |
  Poisson:                           0.074     0.074   0.0% |
  XC 3D grid:                        8.949     8.949   0.2% |
 Orthonormalize:                     3.999     0.004   0.0% |
  calc_s_matrix:                     0.480     0.480   0.0% |
  inverse-cholesky:                  0.049     0.049   0.0% |
  projections:                       2.610     2.610   0.0% |
  rotate_psi_s:                      0.857     0.857   0.0% |
Set symmetry:                        0.000     0.000   0.0% |
Other:                            3081.494  3081.494  55.6% |---------------------|
-----------------------------------------------------------
Total:                                      5540.956 100.0%

Memory usage: 11.79 GiB
Date: Sun Mar 21 04:25:59 2021
