
  ___ ___ ___ _ _ _  
 |   |   |_  | | | | 
 | | | | | . | | | | 
 |__ |  _|___|_____|  20.10.1b1
 |___|_|             

User:   madkru@i008.nifl.fysik.dtu.dk
Date:   Fri Mar 26 05:27:14 2021
Arch:   x86_64
Pid:    26969
Python: 3.7.4
gpaw:   /home/niflheim/madkru/venv_folder/gpaw/gpaw (d224efde0f)
_gpaw:  /home/niflheim/madkru/venv_folder/gpaw/build/lib.linux-x86_64-ivybridge-3.7/
        _gpaw.cpython-37m-x86_64-linux-gnu.so (4fd39e8b1e)
ase:    /home/niflheim/madkru/venv_folder/ase/ase (version 3.21.0b1-4d5a73cb29)
numpy:  /home/niflheim/madkru/venv_folder/lib/python3.7/site-packages/numpy (version 1.19.4)
scipy:  /home/niflheim/madkru/venv_folder/lib/python3.7/site-packages/scipy (version 1.5.4)
libxc:  4.3.4
units:  Angstrom and eV
cores: 64
OMP_NUM_THREADS: 1

Input parameters:
  convergence: {bands: occupied,
                density: 0.0001,
                eigenstates: 4e-08,
                energy: 0.0005,
                forces: 1e-06}
  kpts: [6 6 4]
  mode: {ecut: 600.0,
         gammacentered: False,
         name: pw}
  occupations: {fixmagmom: False,
                name: fermi-dirac,
                width: 0.001}
  symmetry: {point_group: False,
             time_reversal: False}

System changes: positions, numbers, cell, pbc, initial_charges, initial_magmoms 

Initialize ...

O-setup:
  name: Oxygen
  id: 9b9d51c344dea68c822856295a461509
  Z: 8.0
  valence: 6
  core: 2
  charge: 0.0
  file: /home/modules/software/GPAW-setups/0.9.20000/O.LDA.gz
  compensation charges: gauss, rc=0.21, lmax=2
  cutoffs: 1.17(filt), 0.83(core),
  valence states:
                energy  radius
    2s(2.00)   -23.752   0.688
    2p(4.00)    -9.195   0.598
    *s           3.459   0.688
    *p          18.016   0.598
    *d           0.000   0.619

  Using partial waves for O as LCAO basis

Mn-setup:
  name: Manganese
  id: 0d715a8018be061a6e9ea6f2d364ac92
  Z: 25.0
  valence: 15
  core: 10
  charge: 0.0
  file: /home/modules/software/GPAW-setups/0.9.20000/Mn.LDA.gz
  compensation charges: gauss, rc=0.38, lmax=2
  cutoffs: 2.14(filt), 0.86(core),
  valence states:
                energy  radius
    3s(2.00)   -85.387   1.275
    4s(2.00)    -5.282   1.275
    3p(6.00)   -54.493   1.281
    4p(0.00)    -1.471   1.281
    3d(5.00)    -7.009   1.138
    *d          20.203   1.138

  Using partial waves for Mn as LCAO basis

P-setup:
  name: Phosphorus
  id: a5561c299094968922a179ab894d2e2d
  Z: 15.0
  valence: 5
  core: 10
  charge: 0.0
  file: /home/modules/software/GPAW-setups/0.9.20000/P.LDA.gz
  compensation charges: gauss, rc=0.30, lmax=2
  cutoffs: 1.69(filt), 1.81(core),
  valence states:
                energy  radius
    3s(2.00)   -14.015   0.953
    3p(3.00)    -5.596   0.953
    *s          13.197   0.953
    *p          21.615   0.953
    *d           0.000   0.953

  Using partial waves for P as LCAO basis

Li-setup:
  name: Lithium
  id: b73562207f97a71b6967473b66fe8b65
  Z: 3.0
  valence: 1
  core: 2
  charge: 0.0
  file: /home/modules/software/GPAW-setups/0.9.20000/Li.LDA.gz
  compensation charges: gauss, rc=0.33, lmax=2
  cutoffs: 1.91(filt), 2.55(core),
  valence states:
                energy  radius
    2s(1.00)    -2.874   1.058
    2p(0.00)    -1.126   1.058
    *s          24.338   1.058

  Using partial waves for Li as LCAO basis

Reference energy: -196157.275402

Spin-polarized calculation.
Magnetic moment: 0.000000

Convergence criteria:
  Maximum total energy change: 0.0005 eV / electron
  Maximum integral of absolute density change: 0.0001 electrons
  Maximum integral of absolute eigenstate change: 4e-08 eV^2
  Maximum change in atomic force: 1e-06 eV / Ang
  Maximum number of iterations: 333

Symmetries present (total): 1

  ( 1  0  0)
  ( 0  1  0)
  ( 0  0  1)

144 k-points: 6 x 6 x 4 Monkhorst-Pack grid
144 k-points in the irreducible part of the Brillouin zone
       k-points in crystal coordinates                weights
   0:    -0.41666667   -0.41666667   -0.37500000          1/144
   1:    -0.41666667   -0.41666667   -0.12500000          1/144
   2:    -0.41666667   -0.41666667    0.12500000          1/144
   3:    -0.41666667   -0.41666667    0.37500000          1/144
   4:    -0.41666667   -0.25000000   -0.37500000          1/144
   5:    -0.41666667   -0.25000000   -0.12500000          1/144
   6:    -0.41666667   -0.25000000    0.12500000          1/144
   7:    -0.41666667   -0.25000000    0.37500000          1/144
   8:    -0.41666667   -0.08333333   -0.37500000          1/144
   9:    -0.41666667   -0.08333333   -0.12500000          1/144
          ...
 143:     0.41666667    0.41666667    0.37500000          1/144

Wave functions: Plane wave expansion
  Cutoff energy: 600.000 eV
  Number of coefficients (min, max): 9132, 9161
  Pulay-stress correction: 0.000000 eV/Ang^3 (de/decut=0.000000)
  Using FFTW library
  ScaLapack parameters: grid=1x1, blocksize=None
  Wavefunction extrapolation:
    Improved wavefunction reuse through dual PAW basis 

  Fermi-Dirac: width=0.0010 eV

Eigensolver
   Davidson(niter=2, smin=None, normalize=True) 

Densities:
  Coarse grid: 60*35*27 grid
  Fine grid: 120*70*54 grid
  Total Charge: 0.000000 

Density mixing:
  Method: difference
  Backend: pulay
  Linear mixing parameter: 0.05
  Mixing with 5 old densities
  Damping of long wave oscillations: 50 

Hamiltonian:
  XC and Coulomb potentials evaluated on a 120*70*54 grid
  Using the LDA Exchange-Correlation functional
 

Memory estimate:
  Process memory now: 14222.87 MiB
  Calculator: 322.47 MiB
    Density: 9.62 MiB
      Arrays: 3.79 MiB
      Localized functions: 4.27 MiB
      Mixer: 1.56 MiB
    Hamiltonian: 2.94 MiB
      Arrays: 2.82 MiB
      XC: 0.00 MiB
      Poisson: 0.00 MiB
      vbar: 0.12 MiB
    Wavefunctions: 309.91 MiB
      Arrays psit_nG: 281.81 MiB
      Eigensolver: 18.27 MiB
      Projections: 2.71 MiB
      Projectors: 4.40 MiB
      PW-descriptor: 2.71 MiB

Total number of cores used: 64
Parallelization over k-points: 16
Domain decomposition: 2 x 2 x 1

Number of atoms: 28
Number of atomic orbitals: 148
Number of bands in calculation: 112
Number of valence electrons: 180
Bands to converge: occupied

... initialized

Initializing position-dependent things.

Density initialized from atomic densities
Creating initial wave functions:
  112 bands from LCAO basis set

                                           
                                           
                                           
                                           
                                           
               O     O  P  O               
            PO           OMn     O         
                  O          MO            
            O        Li O                  
             Mn  Mn          OP            
         O       O Li O                    
         Li     O P         O              
       Li                                  
                                           
                                           
                                           
                                           

Positions:
   0 O     -1.280122   -2.495595   -1.112331    ( 0.0000,  0.0000,  0.0000)
   1 O     -3.023238    2.918858    1.191723    ( 0.0000,  0.0000,  0.0000)
   2 O      1.997451    0.467212    1.441442    ( 0.0000,  0.0000,  0.0000)
   3 O      3.740343   -0.043905   -0.862614    ( 0.0000,  0.0000,  0.0000)
   4 O      1.997419    2.918835    1.441465    ( 0.0000,  0.0000,  0.0000)
   5 O      3.740372   -2.495531   -0.862587    ( 0.0000,  0.0000,  0.0000)
   6 O     -1.280154   -0.043891   -1.112309    ( 0.0000,  0.0000,  0.0000)
   7 O     -3.023210    0.467136    1.191750    ( 0.0000,  0.0000,  0.0000)
   8 O     -4.147405   -1.269737   -0.856207    ( 0.0000,  0.0000,  0.0000)
   9 O     -0.155894    1.692986    1.447725    ( 0.0000,  0.0000,  0.0000)
  10 O      4.864578    1.693016    1.185324    ( 0.0000,  0.0000,  0.0000)
  11 O      0.873163   -1.269706   -1.118625    ( 0.0000,  0.0000,  0.0000)
  12 Mn    -2.437108   -1.269902    0.302197    ( 0.0000,  0.0000,  1.0000)
  13 Mn    -1.866187    1.693156   -2.001927    ( 0.0000,  0.0000, -1.0000)
  14 Mn     3.154299    1.693181    0.026917    ( 0.0000,  0.0000, -1.0000)
  15 Mn     2.583444   -1.269877    2.331074    ( 0.0000,  0.0000,  1.0000)
  16 P     -0.543052   -1.269720   -1.734187    ( 0.0000,  0.0000,  0.0000)
  17 P     -3.760282    1.692974    0.569859    ( 0.0000,  0.0000,  0.0000)
  18 P      1.260300    1.693000    2.063344    ( 0.0000,  0.0000,  0.0000)
  19 P      4.477470   -1.269695   -0.240696    ( 0.0000,  0.0000,  0.0000)
  20 O     -0.544413   -1.269738    1.348523    ( 0.0000,  0.0000,  0.0000)
  21 O     -3.758895    1.692992   -0.955558    ( 0.0000,  0.0000,  0.0000)
  22 O      1.261690    1.693018   -1.019367    ( 0.0000,  0.0000,  0.0000)
  23 O      4.476045   -1.269713    1.284716    ( 0.0000,  0.0000,  0.0000)
  24 Li    -4.662027   -2.751322   -2.139440    ( 0.0000,  0.0000,  0.0000)
  25 Li     0.348703   -2.751277    0.164614    ( 0.0000,  0.0000,  0.0000)
  26 Li    -4.662011    0.211617   -2.139439    ( 0.0000,  0.0000,  0.0000)
  27 Li     0.358720    0.211628    0.164615    ( 0.0000,  0.0000,  0.0000)

Unit cell:
           periodic     x           y           z      points  spacing
  1. axis:    yes   10.041096    0.000054   -0.000022    60     0.1674
  2. axis:    yes    0.000032    5.925857    0.000001    35     0.1693
  3. axis:    yes   -0.000010    0.000001    4.608134    27     0.1707

  Lengths:  10.041096   5.925857   4.608134
  Angles:   89.999974  90.000250  89.999381

Effective grid spacing dv^(1/3) = 0.1691

                     log10-error:           total        iterations:
           time      wfs    density  force  energy       poisson  magmom
iter:   1  05:28:50                       -233.730310             +0.0000
iter:   2  05:29:10  -0.47  -0.95         -231.549993             +0.0004
iter:   3  05:29:30  -0.61  -1.00         -220.796166             +0.0004
iter:   4  05:29:49  -1.17  -1.31         -220.728428             +0.1547
iter:   5  05:30:09  -2.09  -1.40         -222.936242             +0.0482
iter:   6  05:30:29  -2.15  -1.39         -223.322897             +0.0845
iter:   7  05:30:49  -2.06  -1.52         -224.037816             +0.4631
iter:   8  05:31:08  -2.53  -1.66         -225.166123             +0.7103
iter:   9  05:31:28  -2.59  -1.88         -226.248475             +0.2013
iter:  10  05:31:48  -1.91  -1.94         -226.283763             -0.0498
iter:  11  05:32:07  -2.46  -2.18         -226.301620             -0.0043
iter:  12  05:32:27  -3.12  -2.25         -226.254886             +0.0080
iter:  13  05:32:47  -3.04  -2.46         -226.194982             +0.0016
iter:  14  05:33:06  -3.10  -2.79         -226.179998             +0.0027
iter:  15  05:33:26  -3.70  -3.03         -226.178542             +0.0004
iter:  16  05:33:46  -4.43  -3.24         -226.177241             +0.0000
iter:  17  05:34:05  -4.87  -3.30         -226.175833             -0.0000
iter:  18  05:34:25  -5.07  -3.37         -226.175398             -0.0000
iter:  19  05:34:45  -5.00  -3.62         -226.175524             -0.0000
iter:  20  05:35:04  -5.98  -3.71         -226.175540             -0.0000
iter:  21  05:35:24  -5.41  -3.75         -226.175313             -0.0000
iter:  22  05:35:44  -6.01  -4.07         -226.175376             -0.0000
iter:  23  05:36:03  -6.33  -4.15         -226.175315             -0.0000
iter:  24  05:36:23  -6.63  -4.53         -226.175301             -0.0000
iter:  25  05:36:48  -7.45  -4.66         -226.175300             -0.0000
iter:  26  05:37:12  -7.63  -4.76    -2.72-226.175299             -0.0000
iter:  27  05:37:36  -7.78  -4.79    -2.45-226.175298             -0.0000
iter:  28  05:38:01  -8.37  -4.87    -2.83-226.175298             -0.0000
iter:  29  05:38:25  -8.81  -4.97    -3.40-226.175298             -0.0000
iter:  30  05:38:49  -8.16  -5.00    -2.76-226.175298             -0.0000
iter:  31  05:39:14  -8.24  -5.12    -2.92-226.175298             -0.0000
iter:  32  05:39:38  -8.61  -5.23    -3.32-226.175298             -0.0000
iter:  33  05:40:02  -9.57  -5.24    -3.40-226.175298             -0.0000
iter:  34  05:40:27  -9.69  -5.30    -3.45-226.175298             +0.0000
iter:  35  05:40:51  -8.78  -5.38    -3.09-226.175298             +0.0000
iter:  36  05:41:15  -9.26  -5.65    -3.59-226.175298             +0.0000
iter:  37  05:41:40 -10.41  -5.82    -4.16-226.175298             +0.0000
iter:  38  05:42:04  -9.26  -5.86    -3.50-226.175298             -0.0000
iter:  39  05:42:28 -10.12  -6.13    -3.87-226.175298             +0.0000
iter:  40  05:42:53 -11.32  -6.27    -4.45-226.175298             +0.0000
iter:  41  05:43:17 -10.18  -6.33    -4.02-226.175298             +0.0000
iter:  42  05:43:42 -10.35  -6.39    -3.98-226.175298             +0.0000
iter:  43  05:44:06 -11.45  -6.60    -4.47-226.175298             +0.0000
iter:  44  05:44:30 -11.39  -6.87    -4.88-226.175298             +0.0000
iter:  45  05:44:55 -11.99  -6.91    -4.83-226.175298             +0.0000
iter:  46  05:45:19 -11.99  -6.98    -4.82-226.175298             +0.0000
iter:  47  05:45:43 -13.24  -7.08    -5.53-226.175298             +0.0000
iter:  48  05:46:08 -12.05  -7.12    -4.80-226.175298             +0.0000
iter:  49  05:46:32 -12.21  -7.27    -4.99-226.175298             +0.0000
iter:  50  05:46:56 -13.49  -7.47    -5.72-226.175298             +0.0000
iter:  51  05:47:21 -13.12  -7.52    -5.41-226.175298             +0.0000
iter:  52  05:47:45 -12.82  -7.59    -5.18-226.175298             +0.0000
iter:  53  05:48:09 -12.89  -7.70    -5.38-226.175298             +0.0000
iter:  54  05:48:34 -14.49  -7.91    -5.87-226.175298             +0.0000
iter:  55  05:48:58 -13.99  -7.98    -5.90-226.175298             +0.0000
iter:  56  05:49:22 -13.95  -8.08    -6.02-226.175298             +0.0000

Converged after 56 iterations.

Dipole moment: (18.348807, -2.306828, -4.524464) |e|*Ang

Total magnetic moment: (0.000000, 0.000000, 0.000000)
Local magnetic moments:
   0 O  ( 0.000000,  0.000000, -0.001783)
   1 O  ( 0.000000,  0.000000,  0.001811)
   2 O  ( 0.000000,  0.000000,  0.001812)
   3 O  ( 0.000000,  0.000000, -0.001806)
   4 O  ( 0.000000,  0.000000,  0.001830)
   5 O  ( 0.000000,  0.000000, -0.001802)
   6 O  ( 0.000000,  0.000000, -0.001811)
   7 O  ( 0.000000,  0.000000,  0.001817)
   8 O  ( 0.000000,  0.000000,  0.031138)
   9 O  ( 0.000000,  0.000000, -0.031144)
  10 O  ( 0.000000,  0.000000, -0.031055)
  11 O  ( 0.000000,  0.000000,  0.031050)
  12 Mn ( 0.000000,  0.000000,  4.395694)
  13 Mn ( 0.000000,  0.000000, -4.395726)
  14 Mn ( 0.000000,  0.000000, -4.395806)
  15 Mn ( 0.000000,  0.000000,  4.395807)
  16 P  ( 0.000000,  0.000000,  0.000880)
  17 P  ( 0.000000,  0.000000, -0.000872)
  18 P  ( 0.000000,  0.000000, -0.000857)
  19 P  ( 0.000000,  0.000000,  0.000863)
  20 O  ( 0.000000,  0.000000,  0.028428)
  21 O  ( 0.000000,  0.000000, -0.028425)
  22 O  ( 0.000000,  0.000000, -0.028410)
  23 O  ( 0.000000,  0.000000,  0.028410)
  24 Li ( 0.000000,  0.000000, -0.000000)
  25 Li ( 0.000000,  0.000000, -0.000027)
  26 Li ( 0.000000,  0.000000, -0.000000)
  27 Li ( 0.000000,  0.000000,  0.000001)

Energy contributions relative to reference atoms: (reference = -196157.275402)

Kinetic:       +277.624562
Potential:     -240.966987
External:        +0.000000
XC:            -264.721307
Entropy (-ST):   -0.000000
Local:           +1.888434
--------------------------
Free energy:   -226.175298
Extrapolated:  -226.175298

Spin contamination: 9.455313 electrons
Showing only first 2 kpts
                      Up                     Down
 Kpt  Band  Eigenvalues  Occupancy  Eigenvalues  Occupancy
  0    88      6.53033    0.00694      6.52988    0.00694
  0    89      6.56419    0.00694      6.56476    0.00694
  0    90      8.42652    0.00000      8.42547    0.00000
  0    91      8.44841    0.00000      8.44976    0.00000

  1    88      6.56885    0.00694      6.56804    0.00694
  1    89      6.59610    0.00694      6.59697    0.00694
  1    90      8.38276    0.00000      8.38191    0.00000
  1    91      8.40547    0.00000      8.40646    0.00000


Fermi level: 7.59595

Gap: 1.699 eV
Transition (v -> c):
  (s=1, k=94, n=89, [0.08, 0.42, 0.12]) -> (s=0, k=85, n=90, [0.08, 0.08, -0.12])
Writing to born-0.01-25x-.gpw (mode='all')

Timing:                              incl.     excl.
-----------------------------------------------------------
Hamiltonian:                         0.214     0.002   0.0% |
 Atomic:                             0.052     0.052   0.0% |
  XC Correction:                     0.000     0.000   0.0% |
 Calculate atomic Hamiltonians:      0.074     0.074   0.0% |
 Communicate:                        0.002     0.002   0.0% |
 Initialize Hamiltonian:             0.000     0.000   0.0% |
 Poisson:                            0.001     0.001   0.0% |
 XC 3D grid:                         0.084     0.084   0.0% |
LCAO initialization:                72.909     0.644   0.0% |
 LCAO eigensolver:                  19.664     0.002   0.0% |
  Calculate projections:             0.029     0.029   0.0% |
  DenseAtomicCorrection:             0.045     0.045   0.0% |
  Distribute overlap matrix:         0.113     0.113   0.0% |
  Orbital Layouts:                   0.429     0.429   0.0% |
  Potential matrix:                 18.958    18.958   0.6% |
  Sum over cells:                    0.087     0.087   0.0% |
 LCAO to grid:                      51.228    51.228   1.6% ||
 Set positions (LCAO WFS):           1.374     0.190   0.0% |
  Basic WFS set positions:           0.001     0.001   0.0% |
  Basis functions set positions:     0.000     0.000   0.0% |
  P tci:                             0.518     0.518   0.0% |
  ST tci:                            0.381     0.381   0.0% |
  mktci:                             0.283     0.283   0.0% |
PWDescriptor:                        0.037     0.037   0.0% |
SCF-cycle:                        1253.804     1.510   0.0% |
 Davidson:                        1046.761   320.437  10.1% |---|
  Apply H:                          72.427    70.321   2.2% ||
   HMM T:                            2.106     2.106   0.1% |
  Subspace diag:                   151.874     0.161   0.0% |
   calc_h_matrix:                   97.711    25.350   0.8% |
    Apply H:                        72.361    70.219   2.2% ||
     HMM T:                          2.142     2.142   0.1% |
   diagonalize:                      7.565     7.565   0.2% |
   rotate_psi:                      46.437    46.437   1.5% ||
  calc. matrices:                  313.140   171.441   5.4% |-|
   Apply H:                        141.699   137.750   4.3% |-|
    HMM T:                           3.950     3.950   0.1% |
  diagonalize:                      88.300    88.300   2.8% ||
  rotate_psi:                      100.581   100.581   3.2% ||
 Density:                           42.853     0.001   0.0% |
  Atomic density matrices:           0.836     0.836   0.0% |
  Mix:                               5.820     5.820   0.2% |
  Multipole moments:                 0.020     0.020   0.0% |
  Pseudo density:                   36.175    36.174   1.1% |
   Symmetrize density:               0.001     0.001   0.0% |
 Forces:                           148.677   148.677   4.7% |-|
 Hamiltonian:                       11.938     0.119   0.0% |
  Atomic:                            2.837     2.837   0.1% |
   XC Correction:                    0.000     0.000   0.0% |
  Calculate atomic Hamiltonians:     4.126     4.126   0.1% |
  Communicate:                       0.105     0.105   0.0% |
  Poisson:                           0.036     0.036   0.0% |
  XC 3D grid:                        4.716     4.716   0.1% |
 Orthonormalize:                     2.066     0.003   0.0% |
  calc_s_matrix:                     0.243     0.243   0.0% |
  inverse-cholesky:                  0.072     0.072   0.0% |
  projections:                       1.318     1.318   0.0% |
  rotate_psi_s:                      0.429     0.429   0.0% |
Set symmetry:                        0.000     0.000   0.0% |
Other:                            1843.750  1843.750  58.1% |----------------------|
-----------------------------------------------------------
Total:                                      3170.714 100.0%

Memory usage: 13.90 GiB
Date: Fri Mar 26 06:20:05 2021
