
  ___ ___ ___ _ _ _  
 |   |   |_  | | | | 
 | | | | | . | | | | 
 |__ |  _|___|_____|  20.10.1b1
 |___|_|             

User:   madkru@i008.nifl.fysik.dtu.dk
Date:   Thu Mar 25 01:51:15 2021
Arch:   x86_64
Pid:    26969
Python: 3.7.4
gpaw:   /home/niflheim/madkru/venv_folder/gpaw/gpaw (d224efde0f)
_gpaw:  /home/niflheim/madkru/venv_folder/gpaw/build/lib.linux-x86_64-ivybridge-3.7/
        _gpaw.cpython-37m-x86_64-linux-gnu.so (4fd39e8b1e)
ase:    /home/niflheim/madkru/venv_folder/ase/ase (version 3.21.0b1-4d5a73cb29)
numpy:  /home/niflheim/madkru/venv_folder/lib/python3.7/site-packages/numpy (version 1.19.4)
scipy:  /home/niflheim/madkru/venv_folder/lib/python3.7/site-packages/scipy (version 1.5.4)
libxc:  4.3.4
units:  Angstrom and eV
cores: 64
OMP_NUM_THREADS: 1

Input parameters:
  convergence: {bands: occupied,
                density: 0.0001,
                eigenstates: 4e-08,
                energy: 0.0005,
                forces: 1e-06}
  kpts: [6 6 4]
  mode: {ecut: 600.0,
         gammacentered: False,
         name: pw}
  occupations: {fixmagmom: False,
                name: fermi-dirac,
                width: 0.001}
  symmetry: {point_group: False,
             time_reversal: False}

System changes: positions, numbers, cell, pbc, initial_charges, initial_magmoms 

Initialize ...

O-setup:
  name: Oxygen
  id: 9b9d51c344dea68c822856295a461509
  Z: 8.0
  valence: 6
  core: 2
  charge: 0.0
  file: /home/modules/software/GPAW-setups/0.9.20000/O.LDA.gz
  compensation charges: gauss, rc=0.21, lmax=2
  cutoffs: 1.17(filt), 0.83(core),
  valence states:
                energy  radius
    2s(2.00)   -23.752   0.688
    2p(4.00)    -9.195   0.598
    *s           3.459   0.688
    *p          18.016   0.598
    *d           0.000   0.619

  Using partial waves for O as LCAO basis

Mn-setup:
  name: Manganese
  id: 0d715a8018be061a6e9ea6f2d364ac92
  Z: 25.0
  valence: 15
  core: 10
  charge: 0.0
  file: /home/modules/software/GPAW-setups/0.9.20000/Mn.LDA.gz
  compensation charges: gauss, rc=0.38, lmax=2
  cutoffs: 2.14(filt), 0.86(core),
  valence states:
                energy  radius
    3s(2.00)   -85.387   1.275
    4s(2.00)    -5.282   1.275
    3p(6.00)   -54.493   1.281
    4p(0.00)    -1.471   1.281
    3d(5.00)    -7.009   1.138
    *d          20.203   1.138

  Using partial waves for Mn as LCAO basis

P-setup:
  name: Phosphorus
  id: a5561c299094968922a179ab894d2e2d
  Z: 15.0
  valence: 5
  core: 10
  charge: 0.0
  file: /home/modules/software/GPAW-setups/0.9.20000/P.LDA.gz
  compensation charges: gauss, rc=0.30, lmax=2
  cutoffs: 1.69(filt), 1.81(core),
  valence states:
                energy  radius
    3s(2.00)   -14.015   0.953
    3p(3.00)    -5.596   0.953
    *s          13.197   0.953
    *p          21.615   0.953
    *d           0.000   0.953

  Using partial waves for P as LCAO basis

Li-setup:
  name: Lithium
  id: b73562207f97a71b6967473b66fe8b65
  Z: 3.0
  valence: 1
  core: 2
  charge: 0.0
  file: /home/modules/software/GPAW-setups/0.9.20000/Li.LDA.gz
  compensation charges: gauss, rc=0.33, lmax=2
  cutoffs: 1.91(filt), 2.55(core),
  valence states:
                energy  radius
    2s(1.00)    -2.874   1.058
    2p(0.00)    -1.126   1.058
    *s          24.338   1.058

  Using partial waves for Li as LCAO basis

Reference energy: -196157.275402

Spin-polarized calculation.
Magnetic moment: 0.000000

Convergence criteria:
  Maximum total energy change: 0.0005 eV / electron
  Maximum integral of absolute density change: 0.0001 electrons
  Maximum integral of absolute eigenstate change: 4e-08 eV^2
  Maximum change in atomic force: 1e-06 eV / Ang
  Maximum number of iterations: 333

Symmetries present (total): 1

  ( 1  0  0)
  ( 0  1  0)
  ( 0  0  1)

144 k-points: 6 x 6 x 4 Monkhorst-Pack grid
144 k-points in the irreducible part of the Brillouin zone
       k-points in crystal coordinates                weights
   0:    -0.41666667   -0.41666667   -0.37500000          1/144
   1:    -0.41666667   -0.41666667   -0.12500000          1/144
   2:    -0.41666667   -0.41666667    0.12500000          1/144
   3:    -0.41666667   -0.41666667    0.37500000          1/144
   4:    -0.41666667   -0.25000000   -0.37500000          1/144
   5:    -0.41666667   -0.25000000   -0.12500000          1/144
   6:    -0.41666667   -0.25000000    0.12500000          1/144
   7:    -0.41666667   -0.25000000    0.37500000          1/144
   8:    -0.41666667   -0.08333333   -0.37500000          1/144
   9:    -0.41666667   -0.08333333   -0.12500000          1/144
          ...
 143:     0.41666667    0.41666667    0.37500000          1/144

Wave functions: Plane wave expansion
  Cutoff energy: 600.000 eV
  Number of coefficients (min, max): 9132, 9161
  Pulay-stress correction: 0.000000 eV/Ang^3 (de/decut=0.000000)
  Using FFTW library
  ScaLapack parameters: grid=1x1, blocksize=None
  Wavefunction extrapolation:
    Improved wavefunction reuse through dual PAW basis 

  Fermi-Dirac: width=0.0010 eV

Eigensolver
   Davidson(niter=2, smin=None, normalize=True) 

Densities:
  Coarse grid: 60*35*27 grid
  Fine grid: 120*70*54 grid
  Total Charge: 0.000000 

Density mixing:
  Method: difference
  Backend: pulay
  Linear mixing parameter: 0.05
  Mixing with 5 old densities
  Damping of long wave oscillations: 50 

Hamiltonian:
  XC and Coulomb potentials evaluated on a 120*70*54 grid
  Using the LDA Exchange-Correlation functional
 

Memory estimate:
  Process memory now: 12869.64 MiB
  Calculator: 322.47 MiB
    Density: 9.62 MiB
      Arrays: 3.79 MiB
      Localized functions: 4.27 MiB
      Mixer: 1.56 MiB
    Hamiltonian: 2.94 MiB
      Arrays: 2.82 MiB
      XC: 0.00 MiB
      Poisson: 0.00 MiB
      vbar: 0.12 MiB
    Wavefunctions: 309.91 MiB
      Arrays psit_nG: 281.81 MiB
      Eigensolver: 18.27 MiB
      Projections: 2.71 MiB
      Projectors: 4.40 MiB
      PW-descriptor: 2.71 MiB

Total number of cores used: 64
Parallelization over k-points: 16
Domain decomposition: 2 x 2 x 1

Number of atoms: 28
Number of atomic orbitals: 148
Number of bands in calculation: 112
Number of valence electrons: 180
Bands to converge: occupied

... initialized

Initializing position-dependent things.

Density initialized from atomic densities
Creating initial wave functions:
  112 bands from LCAO basis set

                                           
                                           
                                           
                                           
                                           
               O     O  P  O               
            PO           OMn     O         
                  O          MO            
            O        Li O                  
             Mn  Mn          OP            
         O       O Li O                    
         Li     O P         O              
       Li                                  
                                           
                                           
                                           
                                           

Positions:
   0 O     -1.280122   -2.495595   -1.112331    ( 0.0000,  0.0000,  0.0000)
   1 O     -3.023238    2.918858    1.191723    ( 0.0000,  0.0000,  0.0000)
   2 O      1.997451    0.467212    1.441442    ( 0.0000,  0.0000,  0.0000)
   3 O      3.740343   -0.043905   -0.862614    ( 0.0000,  0.0000,  0.0000)
   4 O      1.997419    2.918835    1.441465    ( 0.0000,  0.0000,  0.0000)
   5 O      3.740372   -2.495531   -0.862587    ( 0.0000,  0.0000,  0.0000)
   6 O     -1.280154   -0.043891   -1.112309    ( 0.0000,  0.0000,  0.0000)
   7 O     -3.023210    0.467136    1.191750    ( 0.0000,  0.0000,  0.0000)
   8 O     -4.147405   -1.269737   -0.856207    ( 0.0000,  0.0000,  0.0000)
   9 O     -0.155894    1.692986    1.447725    ( 0.0000,  0.0000,  0.0000)
  10 O      4.864578    1.693016    1.185324    ( 0.0000,  0.0000,  0.0000)
  11 O      0.873163   -1.269706   -1.118625    ( 0.0000,  0.0000,  0.0000)
  12 Mn    -2.437108   -1.269902    0.302197    ( 0.0000,  0.0000,  1.0000)
  13 Mn    -1.866187    1.693156   -2.001927    ( 0.0000,  0.0000, -1.0000)
  14 Mn     3.154299    1.693181    0.026917    ( 0.0000,  0.0000, -1.0000)
  15 Mn     2.583444   -1.269877    2.331074    ( 0.0000,  0.0000,  1.0000)
  16 P     -0.553052   -1.269720   -1.734187    ( 0.0000,  0.0000,  0.0000)
  17 P     -3.760282    1.692974    0.569859    ( 0.0000,  0.0000,  0.0000)
  18 P      1.260300    1.693000    2.063344    ( 0.0000,  0.0000,  0.0000)
  19 P      4.477470   -1.269695   -0.240696    ( 0.0000,  0.0000,  0.0000)
  20 O     -0.544413   -1.269738    1.348523    ( 0.0000,  0.0000,  0.0000)
  21 O     -3.758895    1.692992   -0.955558    ( 0.0000,  0.0000,  0.0000)
  22 O      1.261690    1.693018   -1.019367    ( 0.0000,  0.0000,  0.0000)
  23 O      4.476045   -1.269713    1.284716    ( 0.0000,  0.0000,  0.0000)
  24 Li    -4.662027   -2.751322   -2.139440    ( 0.0000,  0.0000,  0.0000)
  25 Li     0.358703   -2.751277    0.164614    ( 0.0000,  0.0000,  0.0000)
  26 Li    -4.662011    0.211617   -2.139439    ( 0.0000,  0.0000,  0.0000)
  27 Li     0.358720    0.211628    0.164615    ( 0.0000,  0.0000,  0.0000)

Unit cell:
           periodic     x           y           z      points  spacing
  1. axis:    yes   10.041096    0.000054   -0.000022    60     0.1674
  2. axis:    yes    0.000032    5.925857    0.000001    35     0.1693
  3. axis:    yes   -0.000010    0.000001    4.608134    27     0.1707

  Lengths:  10.041096   5.925857   4.608134
  Angles:   89.999974  90.000250  89.999381

Effective grid spacing dv^(1/3) = 0.1691

                     log10-error:           total        iterations:
           time      wfs    density  force  energy       poisson  magmom
iter:   1  01:52:48                       -233.734846             +0.0000
iter:   2  01:53:08  -0.47  -0.95         -231.557104             +0.0019
iter:   3  01:53:28  -0.61  -1.00         -220.798796             +0.0020
iter:   4  01:53:47  -1.17  -1.31         -220.878430             +0.3145
iter:   5  01:54:07  -2.05  -1.40         -222.908024             +0.1749
iter:   6  01:54:27  -2.10  -1.38         -224.214988             +0.3701
iter:   7  01:54:46  -2.03  -1.48         -223.911011             -0.1249
iter:   8  01:55:06  -2.39  -1.60         -224.985302             -0.4893
iter:   9  01:55:26  -2.68  -1.88         -226.174325             -0.1107
iter:  10  01:55:45  -2.29  -1.97         -226.439950             +0.0662
iter:  11  01:56:05  -2.06  -2.09         -226.382335             +0.0172
iter:  12  01:56:25  -3.03  -2.29         -226.306136             +0.0198
iter:  13  01:56:44  -2.56  -2.37         -226.193300             +0.0064
iter:  14  01:57:04  -3.95  -2.68         -226.183414             +0.0031
iter:  15  01:57:23  -3.34  -2.75         -226.183493             +0.0002
iter:  16  01:57:43  -3.94  -3.01         -226.174146             +0.0005
iter:  17  01:58:03  -5.11  -3.13         -226.174313             +0.0001
iter:  18  01:58:22  -4.37  -3.17         -226.174136             -0.0000
iter:  19  01:58:42  -4.08  -3.35         -226.173583             +0.0000
iter:  20  01:59:02  -5.14  -3.63         -226.172578             -0.0000
iter:  21  01:59:21  -5.61  -3.82         -226.172442             -0.0000
iter:  22  01:59:41  -6.13  -3.89         -226.172447             -0.0000
iter:  23  02:00:00  -5.84  -3.95         -226.172459             +0.0000
iter:  24  02:00:20  -6.93  -4.12         -226.172455             -0.0000
iter:  25  02:00:40  -6.35  -4.12         -226.172426             -0.0000
iter:  26  02:00:59  -6.52  -4.18         -226.172431             -0.0000
iter:  27  02:01:19  -7.02  -4.24         -226.172420             -0.0000
iter:  28  02:01:39  -7.34  -4.41         -226.172423             +0.0000
iter:  29  02:01:58  -6.76  -4.48         -226.172412             -0.0000
iter:  30  02:02:23  -7.72  -4.55         -226.172412             +0.0000
iter:  31  02:02:47  -7.56  -4.57    -2.32-226.172413             +0.0000
iter:  32  02:03:11  -8.17  -4.64    -2.81-226.172412             +0.0000
iter:  33  02:03:36  -7.54  -4.71    -2.66-226.172414             +0.0000
iter:  34  02:04:00  -7.70  -4.85    -2.39-226.172412             +0.0000
iter:  35  02:04:24  -7.81  -5.16    -2.95-226.172412             +0.0000
iter:  36  02:04:49  -8.70  -5.30    -2.82-226.172412             +0.0000
iter:  37  02:05:13  -9.40  -5.51    -3.28-226.172412             +0.0000
iter:  38  02:05:37  -9.72  -5.65    -3.57-226.172412             -0.0000
iter:  39  02:06:02  -9.31  -5.71    -3.75-226.172412             -0.0000
iter:  40  02:06:26  -9.83  -5.79    -3.77-226.172412             -0.0000
iter:  41  02:06:50 -10.52  -5.83    -4.23-226.172412             -0.0000
iter:  42  02:07:15  -9.63  -5.86    -3.55-226.172412             +0.0000
iter:  43  02:07:39 -10.46  -6.18    -3.94-226.172412             -0.0000
iter:  44  02:08:03 -10.57  -6.26    -3.71-226.172412             -0.0000
iter:  45  02:08:28 -10.65  -6.36    -4.24-226.172412             +0.0000
iter:  46  02:08:52 -10.37  -6.41    -4.14-226.172412             +0.0000
iter:  47  02:09:16 -11.95  -6.56    -4.72-226.172412             +0.0000
iter:  48  02:09:41 -10.67  -6.59    -4.27-226.172412             +0.0000
iter:  49  02:10:05 -11.49  -6.75    -4.71-226.172412             +0.0000
iter:  50  02:10:29 -11.72  -6.81    -4.73-226.172412             +0.0000
iter:  51  02:10:54 -12.82  -6.90    -5.07-226.172412             +0.0000
iter:  52  02:11:18 -12.11  -6.95    -4.95-226.172412             +0.0000
iter:  53  02:11:42 -12.69  -7.16    -4.99-226.172412             +0.0000
iter:  54  02:12:06 -12.57  -7.26    -5.26-226.172412             +0.0000
iter:  55  02:12:31 -13.27  -7.32    -5.23-226.172412             +0.0000
iter:  56  02:12:55 -12.79  -7.36    -5.04-226.172412             +0.0000
iter:  57  02:13:19 -13.21  -7.44    -5.47-226.172412             +0.0000
iter:  58  02:13:44 -13.77  -7.51    -5.86-226.172412             +0.0000
iter:  59  02:14:08 -13.71  -7.53    -5.14-226.172412             +0.0000
iter:  60  02:14:32 -13.70  -7.81    -5.26-226.172412             +0.0000
iter:  61  02:14:57 -14.69  -7.90    -6.24-226.172412             +0.0000

Converged after 61 iterations.

Dipole moment: (18.173236, -2.315908, -4.524757) |e|*Ang

Total magnetic moment: (0.000000, 0.000000, 0.000000)
Local magnetic moments:
   0 O  ( 0.000000,  0.000000, -0.001594)
   1 O  ( 0.000000,  0.000000,  0.001838)
   2 O  ( 0.000000,  0.000000,  0.001691)
   3 O  ( 0.000000,  0.000000, -0.001876)
   4 O  ( 0.000000,  0.000000,  0.001686)
   5 O  ( 0.000000,  0.000000, -0.001870)
   6 O  ( 0.000000,  0.000000, -0.001599)
   7 O  ( 0.000000,  0.000000,  0.001844)
   8 O  ( 0.000000,  0.000000,  0.031192)
   9 O  ( 0.000000,  0.000000, -0.031272)
  10 O  ( 0.000000,  0.000000, -0.030972)
  11 O  ( 0.000000,  0.000000,  0.031370)
  12 Mn ( 0.000000,  0.000000,  4.395541)
  13 Mn ( 0.000000,  0.000000, -4.395927)
  14 Mn ( 0.000000,  0.000000, -4.395784)
  15 Mn ( 0.000000,  0.000000,  4.395604)
  16 P  ( 0.000000,  0.000000,  0.000685)
  17 P  ( 0.000000,  0.000000, -0.000877)
  18 P  ( 0.000000,  0.000000, -0.000829)
  19 P  ( 0.000000,  0.000000,  0.000856)
  20 O  ( 0.000000,  0.000000,  0.028662)
  21 O  ( 0.000000,  0.000000, -0.028439)
  22 O  ( 0.000000,  0.000000, -0.028440)
  23 O  ( 0.000000,  0.000000,  0.028290)
  24 Li ( 0.000000,  0.000000, -0.000001)
  25 Li ( 0.000000,  0.000000,  0.000022)
  26 Li ( 0.000000,  0.000000, -0.000001)
  27 Li ( 0.000000,  0.000000,  0.000022)

Energy contributions relative to reference atoms: (reference = -196157.275402)

Kinetic:       +277.608696
Potential:     -240.948961
External:        +0.000000
XC:            -264.720574
Entropy (-ST):   -0.000000
Local:           +1.888428
--------------------------
Free energy:   -226.172412
Extrapolated:  -226.172412

Spin contamination: 9.455506 electrons
Showing only first 2 kpts
                      Up                     Down
 Kpt  Band  Eigenvalues  Occupancy  Eigenvalues  Occupancy
  0    88      6.52913    0.00694      6.52113    0.00694
  0    89      6.57496    0.00694      6.56422    0.00694
  0    90      8.41767    0.00000      8.41286    0.00000
  0    91      8.44839    0.00000      8.45935    0.00000

  1    88      6.56645    0.00694      6.55856    0.00694
  1    89      6.60768    0.00694      6.59715    0.00694
  1    90      8.37405    0.00000      8.36914    0.00000
  1    91      8.40558    0.00000      8.41566    0.00000


Fermi level: 7.50046

Gap: 1.681 eV
Transition (v -> c):
  (s=0, k=70, n=89, [-0.08, 0.42, 0.12]) -> (s=1, k=86, n=90, [0.08, 0.08, 0.12])
Writing to born-0.01-16x-.gpw (mode='all')

Timing:                              incl.     excl.
-----------------------------------------------------------
Hamiltonian:                         0.219     0.002   0.0% |
 Atomic:                             0.055     0.055   0.0% |
  XC Correction:                     0.000     0.000   0.0% |
 Calculate atomic Hamiltonians:      0.075     0.075   0.0% |
 Communicate:                        0.002     0.002   0.0% |
 Initialize Hamiltonian:             0.000     0.000   0.0% |
 Poisson:                            0.001     0.001   0.0% |
 XC 3D grid:                         0.083     0.083   0.0% |
LCAO initialization:                70.755     0.649   0.0% |
 LCAO eigensolver:                  19.726     0.002   0.0% |
  Calculate projections:             0.029     0.029   0.0% |
  DenseAtomicCorrection:             0.045     0.045   0.0% |
  Distribute overlap matrix:         0.008     0.008   0.0% |
  Orbital Layouts:                   0.428     0.428   0.0% |
  Potential matrix:                 19.119    19.119   0.6% |
  Sum over cells:                    0.097     0.097   0.0% |
 LCAO to grid:                      49.076    49.076   1.5% ||
 Set positions (LCAO WFS):           1.304     0.191   0.0% |
  Basic WFS set positions:           0.001     0.001   0.0% |
  Basis functions set positions:     0.000     0.000   0.0% |
  P tci:                             0.518     0.518   0.0% |
  ST tci:                            0.381     0.381   0.0% |
  mktci:                             0.212     0.212   0.0% |
PWDescriptor:                        0.023     0.023   0.0% |
SCF-cycle:                        1349.865     1.728   0.1% |
 Davidson:                        1137.936   348.831  10.7% |---|
  Apply H:                          78.721    76.494   2.3% ||
   HMM T:                            2.227     2.227   0.1% |
  Subspace diag:                   164.869     0.170   0.0% |
   calc_h_matrix:                  105.835    27.508   0.8% |
    Apply H:                        78.326    76.050   2.3% ||
     HMM T:                          2.276     2.276   0.1% |
   diagonalize:                      8.234     8.234   0.3% |
   rotate_psi:                      50.631    50.631   1.6% ||
  calc. matrices:                  339.851   186.354   5.7% |-|
   Apply H:                        153.497   149.317   4.6% |-|
    HMM T:                           4.180     4.180   0.1% |
  diagonalize:                      96.150    96.150   2.9% ||
  rotate_psi:                      109.513   109.513   3.4% ||
 Density:                           45.881     0.001   0.0% |
  Atomic density matrices:           0.934     0.934   0.0% |
  Mix:                               6.295     6.295   0.2% |
  Multipole moments:                 0.021     0.021   0.0% |
  Pseudo density:                   38.629    38.627   1.2% |
   Symmetrize density:               0.002     0.002   0.0% |
 Forces:                           149.252   149.252   4.6% |-|
 Hamiltonian:                       13.012     0.129   0.0% |
  Atomic:                            3.091     3.091   0.1% |
   XC Correction:                    0.000     0.000   0.0% |
  Calculate atomic Hamiltonians:     4.513     4.513   0.1% |
  Communicate:                       0.117     0.117   0.0% |
  Poisson:                           0.036     0.036   0.0% |
  XC 3D grid:                        5.126     5.126   0.2% |
 Orthonormalize:                     2.057     0.003   0.0% |
  calc_s_matrix:                     0.241     0.241   0.0% |
  inverse-cholesky:                  0.072     0.072   0.0% |
  projections:                       1.313     1.313   0.0% |
  rotate_psi_s:                      0.427     0.427   0.0% |
Set symmetry:                        0.000     0.000   0.0% |
Other:                            1841.316  1841.316  56.4% |----------------------|
-----------------------------------------------------------
Total:                                      3262.178 100.0%

Memory usage: 12.61 GiB
Date: Thu Mar 25 02:45:37 2021
