
  ___ ___ ___ _ _ _  
 |   |   |_  | | | | 
 | | | | | . | | | | 
 |__ |  _|___|_____|  20.10.1b1
 |___|_|             

User:   madkru@i008.nifl.fysik.dtu.dk
Date:   Wed Mar 24 22:47:08 2021
Arch:   x86_64
Pid:    26969
Python: 3.7.4
gpaw:   /home/niflheim/madkru/venv_folder/gpaw/gpaw (d224efde0f)
_gpaw:  /home/niflheim/madkru/venv_folder/gpaw/build/lib.linux-x86_64-ivybridge-3.7/
        _gpaw.cpython-37m-x86_64-linux-gnu.so (4fd39e8b1e)
ase:    /home/niflheim/madkru/venv_folder/ase/ase (version 3.21.0b1-4d5a73cb29)
numpy:  /home/niflheim/madkru/venv_folder/lib/python3.7/site-packages/numpy (version 1.19.4)
scipy:  /home/niflheim/madkru/venv_folder/lib/python3.7/site-packages/scipy (version 1.5.4)
libxc:  4.3.4
units:  Angstrom and eV
cores: 64
OMP_NUM_THREADS: 1

Input parameters:
  convergence: {bands: occupied,
                density: 0.0001,
                eigenstates: 4e-08,
                energy: 0.0005,
                forces: 1e-06}
  kpts: [6 6 4]
  mode: {ecut: 600.0,
         gammacentered: False,
         name: pw}
  occupations: {fixmagmom: False,
                name: fermi-dirac,
                width: 0.001}
  symmetry: {point_group: False,
             time_reversal: False}

System changes: positions, numbers, cell, pbc, initial_charges, initial_magmoms 

Initialize ...

O-setup:
  name: Oxygen
  id: 9b9d51c344dea68c822856295a461509
  Z: 8.0
  valence: 6
  core: 2
  charge: 0.0
  file: /home/modules/software/GPAW-setups/0.9.20000/O.LDA.gz
  compensation charges: gauss, rc=0.21, lmax=2
  cutoffs: 1.17(filt), 0.83(core),
  valence states:
                energy  radius
    2s(2.00)   -23.752   0.688
    2p(4.00)    -9.195   0.598
    *s           3.459   0.688
    *p          18.016   0.598
    *d           0.000   0.619

  Using partial waves for O as LCAO basis

Mn-setup:
  name: Manganese
  id: 0d715a8018be061a6e9ea6f2d364ac92
  Z: 25.0
  valence: 15
  core: 10
  charge: 0.0
  file: /home/modules/software/GPAW-setups/0.9.20000/Mn.LDA.gz
  compensation charges: gauss, rc=0.38, lmax=2
  cutoffs: 2.14(filt), 0.86(core),
  valence states:
                energy  radius
    3s(2.00)   -85.387   1.275
    4s(2.00)    -5.282   1.275
    3p(6.00)   -54.493   1.281
    4p(0.00)    -1.471   1.281
    3d(5.00)    -7.009   1.138
    *d          20.203   1.138

  Using partial waves for Mn as LCAO basis

P-setup:
  name: Phosphorus
  id: a5561c299094968922a179ab894d2e2d
  Z: 15.0
  valence: 5
  core: 10
  charge: 0.0
  file: /home/modules/software/GPAW-setups/0.9.20000/P.LDA.gz
  compensation charges: gauss, rc=0.30, lmax=2
  cutoffs: 1.69(filt), 1.81(core),
  valence states:
                energy  radius
    3s(2.00)   -14.015   0.953
    3p(3.00)    -5.596   0.953
    *s          13.197   0.953
    *p          21.615   0.953
    *d           0.000   0.953

  Using partial waves for P as LCAO basis

Li-setup:
  name: Lithium
  id: b73562207f97a71b6967473b66fe8b65
  Z: 3.0
  valence: 1
  core: 2
  charge: 0.0
  file: /home/modules/software/GPAW-setups/0.9.20000/Li.LDA.gz
  compensation charges: gauss, rc=0.33, lmax=2
  cutoffs: 1.91(filt), 2.55(core),
  valence states:
                energy  radius
    2s(1.00)    -2.874   1.058
    2p(0.00)    -1.126   1.058
    *s          24.338   1.058

  Using partial waves for Li as LCAO basis

Reference energy: -196157.275402

Spin-polarized calculation.
Magnetic moment: 0.000000

Convergence criteria:
  Maximum total energy change: 0.0005 eV / electron
  Maximum integral of absolute density change: 0.0001 electrons
  Maximum integral of absolute eigenstate change: 4e-08 eV^2
  Maximum change in atomic force: 1e-06 eV / Ang
  Maximum number of iterations: 333

Symmetries present (total): 1

  ( 1  0  0)
  ( 0  1  0)
  ( 0  0  1)

144 k-points: 6 x 6 x 4 Monkhorst-Pack grid
144 k-points in the irreducible part of the Brillouin zone
       k-points in crystal coordinates                weights
   0:    -0.41666667   -0.41666667   -0.37500000          1/144
   1:    -0.41666667   -0.41666667   -0.12500000          1/144
   2:    -0.41666667   -0.41666667    0.12500000          1/144
   3:    -0.41666667   -0.41666667    0.37500000          1/144
   4:    -0.41666667   -0.25000000   -0.37500000          1/144
   5:    -0.41666667   -0.25000000   -0.12500000          1/144
   6:    -0.41666667   -0.25000000    0.12500000          1/144
   7:    -0.41666667   -0.25000000    0.37500000          1/144
   8:    -0.41666667   -0.08333333   -0.37500000          1/144
   9:    -0.41666667   -0.08333333   -0.12500000          1/144
          ...
 143:     0.41666667    0.41666667    0.37500000          1/144

Wave functions: Plane wave expansion
  Cutoff energy: 600.000 eV
  Number of coefficients (min, max): 9132, 9161
  Pulay-stress correction: 0.000000 eV/Ang^3 (de/decut=0.000000)
  Using FFTW library
  ScaLapack parameters: grid=1x1, blocksize=None
  Wavefunction extrapolation:
    Improved wavefunction reuse through dual PAW basis 

  Fermi-Dirac: width=0.0010 eV

Eigensolver
   Davidson(niter=2, smin=None, normalize=True) 

Densities:
  Coarse grid: 60*35*27 grid
  Fine grid: 120*70*54 grid
  Total Charge: 0.000000 

Density mixing:
  Method: difference
  Backend: pulay
  Linear mixing parameter: 0.05
  Mixing with 5 old densities
  Damping of long wave oscillations: 50 

Hamiltonian:
  XC and Coulomb potentials evaluated on a 120*70*54 grid
  Using the LDA Exchange-Correlation functional
 

Memory estimate:
  Process memory now: 12720.94 MiB
  Calculator: 322.47 MiB
    Density: 9.62 MiB
      Arrays: 3.79 MiB
      Localized functions: 4.27 MiB
      Mixer: 1.56 MiB
    Hamiltonian: 2.94 MiB
      Arrays: 2.82 MiB
      XC: 0.00 MiB
      Poisson: 0.00 MiB
      vbar: 0.12 MiB
    Wavefunctions: 309.91 MiB
      Arrays psit_nG: 281.81 MiB
      Eigensolver: 18.27 MiB
      Projections: 2.71 MiB
      Projectors: 4.40 MiB
      PW-descriptor: 2.71 MiB

Total number of cores used: 64
Parallelization over k-points: 16
Domain decomposition: 2 x 2 x 1

Number of atoms: 28
Number of atomic orbitals: 148
Number of bands in calculation: 112
Number of valence electrons: 180
Bands to converge: occupied

... initialized

Initializing position-dependent things.

Density initialized from atomic densities
Creating initial wave functions:
  112 bands from LCAO basis set

                                           
                                           
                                           
                                           
                                           
               O     O  P  O               
            PO           OMn     O         
                  O          MO            
            O        Li O                  
             Mn  Mn          OP            
         O       O Li O                    
         Li     O P         O              
       Li                                  
                                           
                                           
                                           
                                           

Positions:
   0 O     -1.280122   -2.495595   -1.112331    ( 0.0000,  0.0000,  0.0000)
   1 O     -3.023238    2.918858    1.191723    ( 0.0000,  0.0000,  0.0000)
   2 O      1.997451    0.467212    1.441442    ( 0.0000,  0.0000,  0.0000)
   3 O      3.740343   -0.043905   -0.862614    ( 0.0000,  0.0000,  0.0000)
   4 O      1.997419    2.918835    1.441465    ( 0.0000,  0.0000,  0.0000)
   5 O      3.740372   -2.495531   -0.862587    ( 0.0000,  0.0000,  0.0000)
   6 O     -1.280154   -0.043891   -1.112309    ( 0.0000,  0.0000,  0.0000)
   7 O     -3.023210    0.467136    1.191750    ( 0.0000,  0.0000,  0.0000)
   8 O     -4.147405   -1.269737   -0.856207    ( 0.0000,  0.0000,  0.0000)
   9 O     -0.155894    1.692986    1.447725    ( 0.0000,  0.0000,  0.0000)
  10 O      4.864578    1.693016    1.185324    ( 0.0000,  0.0000,  0.0000)
  11 O      0.873163   -1.269706   -1.118625    ( 0.0000,  0.0000,  0.0000)
  12 Mn    -2.437108   -1.269902    0.302197    ( 0.0000,  0.0000,  1.0000)
  13 Mn    -1.866187    1.693156   -2.001927    ( 0.0000,  0.0000, -1.0000)
  14 Mn     3.154299    1.693181    0.026917    ( 0.0000,  0.0000, -1.0000)
  15 Mn     2.573444   -1.269877    2.331074    ( 0.0000,  0.0000,  1.0000)
  16 P     -0.543052   -1.269720   -1.734187    ( 0.0000,  0.0000,  0.0000)
  17 P     -3.760282    1.692974    0.569859    ( 0.0000,  0.0000,  0.0000)
  18 P      1.260300    1.693000    2.063344    ( 0.0000,  0.0000,  0.0000)
  19 P      4.477470   -1.269695   -0.240696    ( 0.0000,  0.0000,  0.0000)
  20 O     -0.544413   -1.269738    1.348523    ( 0.0000,  0.0000,  0.0000)
  21 O     -3.758895    1.692992   -0.955558    ( 0.0000,  0.0000,  0.0000)
  22 O      1.261690    1.693018   -1.019367    ( 0.0000,  0.0000,  0.0000)
  23 O      4.476045   -1.269713    1.284716    ( 0.0000,  0.0000,  0.0000)
  24 Li    -4.662027   -2.751322   -2.139440    ( 0.0000,  0.0000,  0.0000)
  25 Li     0.358703   -2.751277    0.164614    ( 0.0000,  0.0000,  0.0000)
  26 Li    -4.662011    0.211617   -2.139439    ( 0.0000,  0.0000,  0.0000)
  27 Li     0.358720    0.211628    0.164615    ( 0.0000,  0.0000,  0.0000)

Unit cell:
           periodic     x           y           z      points  spacing
  1. axis:    yes   10.041096    0.000054   -0.000022    60     0.1674
  2. axis:    yes    0.000032    5.925857    0.000001    35     0.1693
  3. axis:    yes   -0.000010    0.000001    4.608134    27     0.1707

  Lengths:  10.041096   5.925857   4.608134
  Angles:   89.999974  90.000250  89.999381

Effective grid spacing dv^(1/3) = 0.1691

                     log10-error:           total        iterations:
           time      wfs    density  force  energy       poisson  magmom
iter:   1  22:48:41                       -233.725805             +0.0000
iter:   2  22:49:01  -0.47  -0.95         -231.554403             +0.0035
iter:   3  22:49:21  -0.61  -1.00         -220.795874             +0.0037
iter:   4  22:49:41  -1.18  -1.31         -220.757313             +0.1067
iter:   5  22:50:00  -2.12  -1.40         -223.250847             +0.0303
iter:   6  22:50:20  -2.28  -1.37         -222.866986             +0.0661
iter:   7  22:50:40  -2.00  -1.55         -222.991000             +0.0103
iter:   8  22:50:59  -2.32  -1.83         -225.707162             +0.0103
iter:   9  22:51:19  -2.02  -1.97         -226.374339             +0.0031
iter:  10  22:51:39  -2.14  -2.07         -226.421135             +0.0014
iter:  11  22:51:58  -3.23  -2.19         -226.392695             +0.0004
iter:  12  22:52:18  -2.59  -2.22         -226.204725             +0.0000
iter:  13  22:52:38  -3.39  -2.47         -226.215281             +0.0001
iter:  14  22:52:57  -3.77  -2.60         -226.207803             +0.0000
iter:  15  22:53:17  -3.08  -2.77         -226.176496             +0.0000
iter:  16  22:53:37  -4.27  -3.13         -226.174126             +0.0000
iter:  17  22:53:56  -4.04  -3.22         -226.176390             -0.0000
iter:  18  22:54:16  -4.87  -3.42         -226.175478             +0.0000
iter:  19  22:54:36  -5.25  -3.54         -226.174998             +0.0000
iter:  20  22:54:55  -5.15  -3.62         -226.175034             +0.0000
iter:  21  22:55:15  -5.37  -3.70         -226.174906             +0.0000
iter:  22  22:55:34  -6.61  -3.77         -226.174887             +0.0000
iter:  23  22:55:54  -6.72  -3.80         -226.174874             -0.0000
iter:  24  22:56:14  -6.10  -3.84         -226.174901             -0.0000
iter:  25  22:56:33  -6.27  -4.08         -226.174888             -0.0000
iter:  26  22:56:53  -6.99  -4.16         -226.174861             -0.0000
iter:  27  22:57:13  -6.25  -4.22         -226.174845             -0.0000
iter:  28  22:57:32  -6.44  -4.39         -226.174850             -0.0000
iter:  29  22:57:52  -6.60  -4.47         -226.174840             -0.0000
iter:  30  22:58:16  -7.79  -4.83         -226.174840             -0.0000
iter:  31  22:58:36  -7.37  -4.89         -226.174839             -0.0000
iter:  32  22:59:00  -7.76  -5.06    -2.41-226.174839             -0.0000
iter:  33  22:59:25  -7.61  -5.17    -3.06-226.174839             -0.0000
iter:  34  22:59:49  -8.05  -5.11    -3.26-226.174839             -0.0000
iter:  35  23:00:13  -8.77  -5.51    -3.50-226.174838             -0.0000
iter:  36  23:00:38  -9.21  -5.62    -3.67-226.174838             -0.0000
iter:  37  23:01:02  -9.27  -5.69    -3.15-226.174838             -0.0000
iter:  38  23:01:26  -9.34  -5.83    -3.86-226.174838             +0.0000
iter:  39  23:01:51 -10.13  -6.00    -4.20-226.174838             -0.0000
iter:  40  23:02:15 -10.75  -6.05    -4.28-226.174838             -0.0000
iter:  41  23:02:39 -10.05  -6.10    -3.85-226.174838             -0.0000
iter:  42  23:03:04 -11.06  -6.23    -4.39-226.174838             -0.0000
iter:  43  23:03:28 -11.10  -6.28    -4.07-226.174838             -0.0000
iter:  44  23:03:53 -11.41  -6.38    -4.24-226.174838             -0.0000
iter:  45  23:04:17 -10.54  -6.55    -4.26-226.174838             -0.0000
iter:  46  23:04:41 -11.53  -6.78    -5.03-226.174838             -0.0000
iter:  47  23:05:06 -11.56  -6.81    -4.64-226.174838             -0.0000
iter:  48  23:05:30 -11.83  -6.92    -4.77-226.174838             -0.0000
iter:  49  23:05:54 -11.97  -7.05    -4.87-226.174838             -0.0000
iter:  50  23:06:19 -11.96  -7.17    -5.12-226.174838             -0.0000
iter:  51  23:06:43 -12.73  -7.21    -5.02-226.174838             -0.0000
iter:  52  23:07:07 -13.34  -7.29    -5.28-226.174838             -0.0000
iter:  53  23:07:32 -12.49  -7.33    -5.17-226.174838             -0.0000
iter:  54  23:07:56 -13.40  -7.47    -5.50-226.174838             -0.0000
iter:  55  23:08:20 -13.52  -7.51    -5.91-226.174838             -0.0000
iter:  56  23:08:45 -12.72  -7.56    -5.22-226.174838             -0.0000
iter:  57  23:09:09 -13.35  -7.87    -5.55-226.174838             -0.0000
iter:  58  23:09:33 -14.44  -8.13    -6.63-226.174838             -0.0000

Converged after 58 iterations.

Dipole moment: (18.318566, -2.307228, -4.523167) |e|*Ang

Total magnetic moment: (0.000000, 0.000000, -0.000000)
Local magnetic moments:
   0 O  ( 0.000000,  0.000000, -0.001780)
   1 O  ( 0.000000,  0.000000,  0.001787)
   2 O  ( 0.000000,  0.000000,  0.002053)
   3 O  ( 0.000000,  0.000000, -0.002198)
   4 O  ( 0.000000,  0.000000,  0.002048)
   5 O  ( 0.000000,  0.000000, -0.002193)
   6 O  ( 0.000000,  0.000000, -0.001786)
   7 O  ( 0.000000,  0.000000,  0.001792)
   8 O  ( 0.000000,  0.000000,  0.031167)
   9 O  ( 0.000000,  0.000000, -0.031071)
  10 O  ( 0.000000,  0.000000, -0.031131)
  11 O  ( 0.000000,  0.000000,  0.031574)
  12 Mn ( 0.000000,  0.000000,  4.395784)
  13 Mn ( 0.000000,  0.000000, -4.395777)
  14 Mn ( 0.000000,  0.000000, -4.395990)
  15 Mn ( 0.000000,  0.000000,  4.395463)
  16 P  ( 0.000000,  0.000000,  0.001007)
  17 P  ( 0.000000,  0.000000, -0.000869)
  18 P  ( 0.000000,  0.000000, -0.000799)
  19 P  ( 0.000000,  0.000000,  0.000660)
  20 O  ( 0.000000,  0.000000,  0.028403)
  21 O  ( 0.000000,  0.000000, -0.028450)
  22 O  ( 0.000000,  0.000000, -0.028367)
  23 O  ( 0.000000,  0.000000,  0.028051)
  24 Li ( 0.000000,  0.000000,  0.000003)
  25 Li ( 0.000000,  0.000000,  0.000018)
  26 Li ( 0.000000,  0.000000,  0.000003)
  27 Li ( 0.000000,  0.000000,  0.000018)

Energy contributions relative to reference atoms: (reference = -196157.275402)

Kinetic:       +277.639632
Potential:     -240.984383
External:        +0.000000
XC:            -264.718371
Entropy (-ST):   -0.000000
Local:           +1.888284
--------------------------
Free energy:   -226.174838
Extrapolated:  -226.174838

Spin contamination: 9.455899 electrons
Showing only first 2 kpts
                      Up                     Down
 Kpt  Band  Eigenvalues  Occupancy  Eigenvalues  Occupancy
  0    88      6.53231    0.00694      6.53063    0.00694
  0    89      6.56541    0.00694      6.56535    0.00694
  0    90      8.42715    0.00000      8.42648    0.00000
  0    91      8.44854    0.00000      8.44827    0.00000

  1    88      6.57073    0.00694      6.56891    0.00694
  1    89      6.59691    0.00694      6.59739    0.00694
  1    90      8.38353    0.00000      8.38232    0.00000
  1    91      8.40569    0.00000      8.40461    0.00000


Fermi level: 7.64872

Gap: 1.697 eV
Transition (v -> c):
  (s=0, k=93, n=89, [0.08, 0.42, -0.12]) -> (s=1, k=62, n=90, [-0.08, 0.08, 0.12])
Writing to born-0.01-15x-.gpw (mode='all')

Timing:                              incl.     excl.
-----------------------------------------------------------
Hamiltonian:                         0.218     0.002   0.0% |
 Atomic:                             0.056     0.056   0.0% |
  XC Correction:                     0.000     0.000   0.0% |
 Calculate atomic Hamiltonians:      0.075     0.075   0.0% |
 Communicate:                        0.001     0.001   0.0% |
 Initialize Hamiltonian:             0.000     0.000   0.0% |
 Poisson:                            0.001     0.001   0.0% |
 XC 3D grid:                         0.083     0.083   0.0% |
LCAO initialization:                71.379     0.646   0.0% |
 LCAO eigensolver:                  19.751     0.002   0.0% |
  Calculate projections:             0.029     0.029   0.0% |
  DenseAtomicCorrection:             0.045     0.045   0.0% |
  Distribute overlap matrix:         0.009     0.009   0.0% |
  Orbital Layouts:                   0.433     0.433   0.0% |
  Potential matrix:                 19.142    19.142   0.6% |
  Sum over cells:                    0.093     0.093   0.0% |
 LCAO to grid:                      49.665    49.665   1.5% ||
 Set positions (LCAO WFS):           1.317     0.191   0.0% |
  Basic WFS set positions:           0.001     0.001   0.0% |
  Basis functions set positions:     0.000     0.000   0.0% |
  P tci:                             0.526     0.526   0.0% |
  ST tci:                            0.384     0.384   0.0% |
  mktci:                             0.215     0.215   0.0% |
PWDescriptor:                        0.023     0.023   0.0% |
SCF-cycle:                        1272.774     0.653   0.0% |
 Davidson:                        1082.986   331.787  10.0% |---|
  Apply H:                          75.230    73.075   2.2% ||
   HMM T:                            2.156     2.156   0.1% |
  Subspace diag:                   157.156     0.164   0.0% |
   calc_h_matrix:                  100.971    26.153   0.8% |
    Apply H:                        74.819    72.632   2.2% ||
     HMM T:                          2.186     2.186   0.1% |
   diagonalize:                      7.893     7.893   0.2% |
   rotate_psi:                      48.128    48.128   1.4% ||
  calc. matrices:                  323.587   177.127   5.3% |-|
   Apply H:                        146.461   142.455   4.3% |-|
    HMM T:                           4.005     4.005   0.1% |
  diagonalize:                      91.123    91.123   2.7% ||
  rotate_psi:                      104.102   104.102   3.1% ||
 Density:                           43.524     0.001   0.0% |
  Atomic density matrices:           0.896     0.896   0.0% |
  Mix:                               5.997     5.997   0.2% |
  Multipole moments:                 0.020     0.020   0.0% |
  Pseudo density:                   36.610    36.608   1.1% |
   Symmetrize density:               0.002     0.002   0.0% |
 Forces:                           131.129   131.129   3.9% |-|
 Hamiltonian:                       12.421     0.121   0.0% |
  Atomic:                            2.966     2.966   0.1% |
   XC Correction:                    0.000     0.000   0.0% |
  Calculate atomic Hamiltonians:     4.331     4.331   0.1% |
  Communicate:                       0.099     0.099   0.0% |
  Poisson:                           0.033     0.033   0.0% |
  XC 3D grid:                        4.871     4.871   0.1% |
 Orthonormalize:                     2.060     0.003   0.0% |
  calc_s_matrix:                     0.242     0.242   0.0% |
  inverse-cholesky:                  0.073     0.073   0.0% |
  projections:                       1.313     1.313   0.0% |
  rotate_psi_s:                      0.429     0.429   0.0% |
Set symmetry:                        0.000     0.000   0.0% |
Other:                            1980.110  1980.110  59.6% |-----------------------|
-----------------------------------------------------------
Total:                                      3324.505 100.0%

Memory usage: 12.46 GiB
Date: Wed Mar 24 23:42:32 2021
