
  ___ ___ ___ _ _ _  
 |   |   |_  | | | | 
 | | | | | . | | | | 
 |__ |  _|___|_____|  20.10.1b1
 |___|_|             

User:   madkru@i013.nifl.fysik.dtu.dk
Date:   Mon Mar 22 02:08:57 2021
Arch:   x86_64
Pid:    27943
Python: 3.7.4
gpaw:   /home/niflheim/madkru/venv_folder/gpaw/gpaw (d0d1ca1c71)
_gpaw:  /home/niflheim/madkru/venv_folder/gpaw/build/lib.linux-x86_64-ivybridge-3.7/
        _gpaw.cpython-37m-x86_64-linux-gnu.so (4fd39e8b1e)
ase:    /home/niflheim/madkru/venv_folder/ase/ase (version 3.21.0b1-7e6c206a91)
numpy:  /home/niflheim/madkru/venv_folder/lib/python3.7/site-packages/numpy (version 1.19.4)
scipy:  /home/niflheim/madkru/venv_folder/lib/python3.7/site-packages/scipy (version 1.5.4)
libxc:  4.3.4
units:  Angstrom and eV
cores: 32
OMP_NUM_THREADS: 1

Input parameters:
  convergence: {bands: occupied,
                density: 0.0001,
                eigenstates: 4e-08,
                energy: 0.0005,
                forces: 1e-06}
  kpts: [6 6 4]
  mode: {ecut: 600.0,
         gammacentered: False,
         name: pw}
  occupations: {fixmagmom: False,
                name: fermi-dirac,
                width: 0.001}
  symmetry: {point_group: False,
             time_reversal: False}

System changes: positions, numbers, cell, pbc, initial_charges, initial_magmoms 

Initialize ...

O-setup:
  name: Oxygen
  id: 9b9d51c344dea68c822856295a461509
  Z: 8.0
  valence: 6
  core: 2
  charge: 0.0
  file: /home/modules/software/GPAW-setups/0.9.20000/O.LDA.gz
  compensation charges: gauss, rc=0.21, lmax=2
  cutoffs: 1.17(filt), 0.83(core),
  valence states:
                energy  radius
    2s(2.00)   -23.752   0.688
    2p(4.00)    -9.195   0.598
    *s           3.459   0.688
    *p          18.016   0.598
    *d           0.000   0.619

  Using partial waves for O as LCAO basis

Mn-setup:
  name: Manganese
  id: 0d715a8018be061a6e9ea6f2d364ac92
  Z: 25.0
  valence: 15
  core: 10
  charge: 0.0
  file: /home/modules/software/GPAW-setups/0.9.20000/Mn.LDA.gz
  compensation charges: gauss, rc=0.38, lmax=2
  cutoffs: 2.14(filt), 0.86(core),
  valence states:
                energy  radius
    3s(2.00)   -85.387   1.275
    4s(2.00)    -5.282   1.275
    3p(6.00)   -54.493   1.281
    4p(0.00)    -1.471   1.281
    3d(5.00)    -7.009   1.138
    *d          20.203   1.138

  Using partial waves for Mn as LCAO basis

P-setup:
  name: Phosphorus
  id: a5561c299094968922a179ab894d2e2d
  Z: 15.0
  valence: 5
  core: 10
  charge: 0.0
  file: /home/modules/software/GPAW-setups/0.9.20000/P.LDA.gz
  compensation charges: gauss, rc=0.30, lmax=2
  cutoffs: 1.69(filt), 1.81(core),
  valence states:
                energy  radius
    3s(2.00)   -14.015   0.953
    3p(3.00)    -5.596   0.953
    *s          13.197   0.953
    *p          21.615   0.953
    *d           0.000   0.953

  Using partial waves for P as LCAO basis

Li-setup:
  name: Lithium
  id: b73562207f97a71b6967473b66fe8b65
  Z: 3.0
  valence: 1
  core: 2
  charge: 0.0
  file: /home/modules/software/GPAW-setups/0.9.20000/Li.LDA.gz
  compensation charges: gauss, rc=0.33, lmax=2
  cutoffs: 1.91(filt), 2.55(core),
  valence states:
                energy  radius
    2s(1.00)    -2.874   1.058
    2p(0.00)    -1.126   1.058
    *s          24.338   1.058

  Using partial waves for Li as LCAO basis

Reference energy: -196157.275402

Spin-polarized calculation.
Magnetic moment: 0.000000

Convergence criteria:
  Maximum total energy change: 0.0005 eV / electron
  Maximum integral of absolute density change: 0.0001 electrons
  Maximum integral of absolute eigenstate change: 4e-08 eV^2
  Maximum change in atomic force: 1e-06 eV / Ang
  Maximum number of iterations: 333

Symmetries present (total): 1

  ( 1  0  0)
  ( 0  1  0)
  ( 0  0  1)

144 k-points: 6 x 6 x 4 Monkhorst-Pack grid
144 k-points in the irreducible part of the Brillouin zone
       k-points in crystal coordinates                weights
   0:    -0.41666667   -0.41666667   -0.37500000          1/144
   1:    -0.41666667   -0.41666667   -0.12500000          1/144
   2:    -0.41666667   -0.41666667    0.12500000          1/144
   3:    -0.41666667   -0.41666667    0.37500000          1/144
   4:    -0.41666667   -0.25000000   -0.37500000          1/144
   5:    -0.41666667   -0.25000000   -0.12500000          1/144
   6:    -0.41666667   -0.25000000    0.12500000          1/144
   7:    -0.41666667   -0.25000000    0.37500000          1/144
   8:    -0.41666667   -0.08333333   -0.37500000          1/144
   9:    -0.41666667   -0.08333333   -0.12500000          1/144
          ...
 143:     0.41666667    0.41666667    0.37500000          1/144

Wave functions: Plane wave expansion
  Cutoff energy: 600.000 eV
  Number of coefficients (min, max): 9132, 9161
  Pulay-stress correction: 0.000000 eV/Ang^3 (de/decut=0.000000)
  Using FFTW library
  ScaLapack parameters: grid=1x1, blocksize=None
  Wavefunction extrapolation:
    Improved wavefunction reuse through dual PAW basis 

  Fermi-Dirac: width=0.0010 eV

Eigensolver
   Davidson(niter=2, smin=None, normalize=True) 

Densities:
  Coarse grid: 60*35*27 grid
  Fine grid: 120*70*54 grid
  Total Charge: 0.000000 

Density mixing:
  Method: difference
  Backend: pulay
  Linear mixing parameter: 0.05
  Mixing with 5 old densities
  Damping of long wave oscillations: 50 

Hamiltonian:
  XC and Coulomb potentials evaluated on a 120*70*54 grid
  Using the LDA Exchange-Correlation functional
 

Memory estimate:
  Process memory now: 12884.32 MiB
  Calculator: 342.26 MiB
    Density: 19.13 MiB
      Arrays: 7.57 MiB
      Localized functions: 8.54 MiB
      Mixer: 3.03 MiB
    Hamiltonian: 5.87 MiB
      Arrays: 5.62 MiB
      XC: 0.00 MiB
      Poisson: 0.00 MiB
      vbar: 0.25 MiB
    Wavefunctions: 317.25 MiB
      Arrays psit_nG: 281.81 MiB
      Eigensolver: 18.27 MiB
      Projections: 5.41 MiB
      Projectors: 8.81 MiB
      PW-descriptor: 2.95 MiB

Total number of cores used: 32
Parallelization over k-points: 16
Domain decomposition: 2 x 1 x 1

Number of atoms: 28
Number of atomic orbitals: 148
Number of bands in calculation: 112
Number of valence electrons: 180
Bands to converge: occupied

... initialized

Initializing position-dependent things.

Density initialized from atomic densities
Creating initial wave functions:
  112 bands from LCAO basis set

                                           
                                           
                                           
                                           
                                           
               O     O  P  O               
            PO           OMn     O         
                  O          MO            
            O        Li O                  
             Mn  Mn          OP            
         O       O Li O                    
         Li     O P         O              
       Li                                  
                                           
                                           
                                           
                                           

Positions:
   0 O     -1.280122   -2.495595   -1.112331    ( 0.0000,  0.0000,  0.0000)
   1 O     -3.023238    2.918858    1.191723    ( 0.0000,  0.0000,  0.0000)
   2 O      1.997451    0.467212    1.441442    ( 0.0000,  0.0000,  0.0000)
   3 O      3.740343   -0.043905   -0.862614    ( 0.0000,  0.0000,  0.0000)
   4 O      1.997419    2.918835    1.431465    ( 0.0000,  0.0000,  0.0000)
   5 O      3.740372   -2.495531   -0.862587    ( 0.0000,  0.0000,  0.0000)
   6 O     -1.280154   -0.043891   -1.112309    ( 0.0000,  0.0000,  0.0000)
   7 O     -3.023210    0.467136    1.191750    ( 0.0000,  0.0000,  0.0000)
   8 O     -4.147405   -1.269737   -0.856207    ( 0.0000,  0.0000,  0.0000)
   9 O     -0.155894    1.692986    1.447725    ( 0.0000,  0.0000,  0.0000)
  10 O      4.864578    1.693016    1.185324    ( 0.0000,  0.0000,  0.0000)
  11 O      0.873163   -1.269706   -1.118625    ( 0.0000,  0.0000,  0.0000)
  12 Mn    -2.437108   -1.269902    0.302197    ( 0.0000,  0.0000,  1.0000)
  13 Mn    -1.866187    1.693156   -2.001927    ( 0.0000,  0.0000, -1.0000)
  14 Mn     3.154299    1.693181    0.026917    ( 0.0000,  0.0000, -1.0000)
  15 Mn     2.583444   -1.269877    2.331074    ( 0.0000,  0.0000,  1.0000)
  16 P     -0.543052   -1.269720   -1.734187    ( 0.0000,  0.0000,  0.0000)
  17 P     -3.760282    1.692974    0.569859    ( 0.0000,  0.0000,  0.0000)
  18 P      1.260300    1.693000    2.063344    ( 0.0000,  0.0000,  0.0000)
  19 P      4.477470   -1.269695   -0.240696    ( 0.0000,  0.0000,  0.0000)
  20 O     -0.544413   -1.269738    1.348523    ( 0.0000,  0.0000,  0.0000)
  21 O     -3.758895    1.692992   -0.955558    ( 0.0000,  0.0000,  0.0000)
  22 O      1.261690    1.693018   -1.019367    ( 0.0000,  0.0000,  0.0000)
  23 O      4.476045   -1.269713    1.284716    ( 0.0000,  0.0000,  0.0000)
  24 Li    -4.662027   -2.751322   -2.139440    ( 0.0000,  0.0000,  0.0000)
  25 Li     0.358703   -2.751277    0.164614    ( 0.0000,  0.0000,  0.0000)
  26 Li    -4.662011    0.211617   -2.139439    ( 0.0000,  0.0000,  0.0000)
  27 Li     0.358720    0.211628    0.164615    ( 0.0000,  0.0000,  0.0000)

Unit cell:
           periodic     x           y           z      points  spacing
  1. axis:    yes   10.041096    0.000054   -0.000022    60     0.1674
  2. axis:    yes    0.000032    5.925857    0.000001    35     0.1693
  3. axis:    yes   -0.000010    0.000001    4.608134    27     0.1707

  Lengths:  10.041096   5.925857   4.608134
  Angles:   89.999974  90.000250  89.999381

Effective grid spacing dv^(1/3) = 0.1691

                     log10-error:           total        iterations:
           time      wfs    density  force  energy       poisson  magmom
iter:   1  02:11:58                       -233.734930             +0.0000
iter:   2  02:12:35  -0.47  -0.95         -231.547644             +0.0025
iter:   3  02:13:12  -0.61  -1.00         -220.796329             +0.0026
iter:   4  02:13:48  -1.17  -1.31         -220.766429             +0.0390
iter:   5  02:14:25  -2.12  -1.40         -223.267152             -0.0054
iter:   6  02:15:01  -2.31  -1.37         -222.781525             +0.0442
iter:   7  02:15:38  -2.07  -1.55         -222.589392             -0.0009
iter:   8  02:16:15  -2.22  -1.87         -225.837129             +0.0131
iter:   9  02:16:51  -2.07  -2.05         -226.389042             +0.0069
iter:  10  02:17:28  -2.32  -2.15         -226.414527             +0.0023
iter:  11  02:18:04  -3.11  -2.29         -226.340160             +0.0008
iter:  12  02:18:41  -2.53  -2.38         -226.191973             +0.0001
iter:  13  02:19:17  -3.09  -2.49         -226.182045             +0.0002
iter:  14  02:19:54  -4.44  -2.85         -226.180632             +0.0001
iter:  15  02:20:30  -4.05  -2.91         -226.176205             +0.0000
iter:  16  02:21:07  -4.41  -3.03         -226.176398             +0.0000
iter:  17  02:21:43  -4.85  -2.97         -226.176173             +0.0000
iter:  18  02:22:20  -5.03  -3.06         -226.176226             +0.0000
iter:  19  02:22:56  -4.15  -3.13         -226.175889             -0.0000
iter:  20  02:23:32  -4.60  -3.25         -226.175648             +0.0000
iter:  21  02:24:09  -4.74  -3.28         -226.175090             +0.0000
iter:  22  02:24:45  -5.02  -3.58         -226.174877             +0.0000
iter:  23  02:25:21  -5.83  -4.02         -226.174828             +0.0000
iter:  24  02:25:58  -6.16  -4.09         -226.174830             +0.0000
iter:  25  02:26:34  -7.03  -4.23         -226.174828             +0.0000
iter:  26  02:27:10  -6.84  -4.28         -226.174810             +0.0000
iter:  27  02:27:47  -7.26  -4.43         -226.174809             +0.0000
iter:  28  02:28:32  -7.95  -4.45         -226.174809             +0.0000
iter:  29  02:29:09  -7.24  -4.49         -226.174809             +0.0000
iter:  30  02:29:54  -7.57  -4.60    -2.64-226.174808             +0.0000
iter:  31  02:30:40  -8.43  -4.89    -3.03-226.174807             +0.0000
iter:  32  02:31:26  -7.97  -4.94    -3.04-226.174806             +0.0000
iter:  33  02:32:11  -7.90  -5.03    -2.68-226.174806             +0.0000
iter:  34  02:32:57  -8.24  -5.14    -3.11-226.174806             +0.0000
iter:  35  02:33:43  -9.00  -5.34    -3.81-226.174806             +0.0000
iter:  36  02:34:28  -8.73  -5.39    -3.27-226.174805             +0.0000
iter:  37  02:35:14  -9.34  -5.52    -3.66-226.174806             +0.0000
iter:  38  02:35:59  -9.69  -5.58    -3.81-226.174806             +0.0000
iter:  39  02:36:45 -10.34  -5.71    -3.97-226.174806             +0.0000
iter:  40  02:37:30  -8.87  -5.76    -3.31-226.174805             +0.0000
iter:  41  02:38:16 -10.10  -5.95    -4.19-226.174805             +0.0000
iter:  42  02:39:01 -10.46  -5.98    -3.88-226.174805             -0.0000
iter:  43  02:39:47  -9.68  -6.07    -3.71-226.174805             -0.0000
iter:  44  02:40:32  -9.65  -6.05    -3.56-226.174805             -0.0000
iter:  45  02:41:18 -10.90  -6.35    -4.55-226.174805             -0.0000
iter:  46  02:42:03 -10.55  -6.43    -4.13-226.174805             -0.0000
iter:  47  02:42:49 -10.79  -6.52    -4.23-226.174805             +0.0000
iter:  48  02:43:34 -11.28  -6.80    -4.38-226.174805             +0.0000
iter:  49  02:44:20 -12.11  -7.08    -4.93-226.174805             +0.0000
iter:  50  02:45:05 -11.57  -7.13    -4.71-226.174805             -0.0000
iter:  51  02:45:50 -12.88  -7.34    -5.22-226.174805             -0.0000
iter:  52  02:46:36 -12.93  -7.43    -5.30-226.174805             -0.0000
iter:  53  02:47:21 -13.21  -7.49    -5.45-226.174805             -0.0000
iter:  54  02:48:07 -13.10  -7.57    -5.09-226.174805             -0.0000
iter:  55  02:48:52 -13.46  -7.75    -5.49-226.174805             -0.0000
iter:  56  02:49:37 -14.34  -8.14    -6.17-226.174805             -0.0000

Converged after 56 iterations.

Dipole moment: (18.326332, -2.308180, -4.520698) |e|*Ang

Total magnetic moment: (0.000000, 0.000000, -0.000000)
Local magnetic moments:
   0 O  ( 0.000000,  0.000000, -0.001820)
   1 O  ( 0.000000,  0.000000,  0.001804)
   2 O  ( 0.000000,  0.000000,  0.001793)
   3 O  ( 0.000000,  0.000000, -0.001666)
   4 O  ( 0.000000,  0.000000,  0.001524)
   5 O  ( 0.000000,  0.000000, -0.001852)
   6 O  ( 0.000000,  0.000000, -0.001827)
   7 O  ( 0.000000,  0.000000,  0.001805)
   8 O  ( 0.000000,  0.000000,  0.031105)
   9 O  ( 0.000000,  0.000000, -0.031191)
  10 O  ( 0.000000,  0.000000, -0.031115)
  11 O  ( 0.000000,  0.000000,  0.031040)
  12 Mn ( 0.000000,  0.000000,  4.395743)
  13 Mn ( 0.000000,  0.000000, -4.395800)
  14 Mn ( 0.000000,  0.000000, -4.395178)
  15 Mn ( 0.000000,  0.000000,  4.396190)
  16 P  ( 0.000000,  0.000000,  0.000858)
  17 P  ( 0.000000,  0.000000, -0.000877)
  18 P  ( 0.000000,  0.000000, -0.001084)
  19 P  ( 0.000000,  0.000000,  0.000863)
  20 O  ( 0.000000,  0.000000,  0.028404)
  21 O  ( 0.000000,  0.000000, -0.028420)
  22 O  ( 0.000000,  0.000000, -0.028418)
  23 O  ( 0.000000,  0.000000,  0.028397)
  24 Li ( 0.000000,  0.000000,  0.000001)
  25 Li ( 0.000000,  0.000000, -0.000008)
  26 Li ( 0.000000,  0.000000, -0.000001)
  27 Li ( 0.000000,  0.000000, -0.000001)

Energy contributions relative to reference atoms: (reference = -196157.275402)

Kinetic:       +277.375565
Potential:     -240.774864
External:        +0.000000
XC:            -264.664724
Entropy (-ST):   -0.000000
Local:           +1.889218
--------------------------
Free energy:   -226.174805
Extrapolated:  -226.174805

Spin contamination: 9.455136 electrons
Showing only first 2 kpts
                      Up                     Down
 Kpt  Band  Eigenvalues  Occupancy  Eigenvalues  Occupancy
  0    88      6.52883    0.00694      6.53241    0.00694
  0    89      6.56283    0.00694      6.56688    0.00694
  0    90      8.42893    0.00000      8.42721    0.00000
  0    91      8.45056    0.00000      8.44891    0.00000

  1    88      6.56747    0.00694      6.57083    0.00694
  1    89      6.59503    0.00694      6.59931    0.00694
  1    90      8.38475    0.00000      8.38339    0.00000
  1    91      8.40715    0.00000      8.40563    0.00000


Fermi level: 7.60881

Gap: 1.697 eV
Transition (v -> c):
  (s=1, k=94, n=89, [0.08, 0.42, 0.12]) -> (s=1, k=57, n=90, [-0.08, -0.08, -0.12])
Writing to born-0.01-4z-.gpw (mode='all')

Timing:                              incl.     excl.
-----------------------------------------------------------
Hamiltonian:                         0.355     0.002   0.0% |
 Atomic:                             0.050     0.050   0.0% |
  XC Correction:                     0.000     0.000   0.0% |
 Calculate atomic Hamiltonians:      0.144     0.144   0.0% |
 Communicate:                        0.002     0.002   0.0% |
 Initialize Hamiltonian:             0.000     0.000   0.0% |
 Poisson:                            0.001     0.001   0.0% |
 XC 3D grid:                         0.156     0.156   0.0% |
LCAO initialization:               140.953     0.641   0.0% |
 LCAO eigensolver:                  38.102     0.002   0.0% |
  Calculate projections:             0.056     0.056   0.0% |
  DenseAtomicCorrection:             0.087     0.087   0.0% |
  Distribute overlap matrix:         0.545     0.545   0.0% |
  Orbital Layouts:                   0.339     0.339   0.0% |
  Potential matrix:                 36.974    36.974   0.7% |
  Sum over cells:                    0.098     0.098   0.0% |
 LCAO to grid:                      99.889    99.889   1.9% ||
 Set positions (LCAO WFS):           2.320     0.369   0.0% |
  Basic WFS set positions:           0.001     0.001   0.0% |
  Basis functions set positions:     0.000     0.000   0.0% |
  P tci:                             1.040     1.040   0.0% |
  ST tci:                            0.695     0.695   0.0% |
  mktci:                             0.214     0.214   0.0% |
PWDescriptor:                        0.023     0.023   0.0% |
SCF-cycle:                        2297.672    26.121   0.5% |
 Davidson:                        1911.578   611.054  11.3% |----|
  Apply H:                         135.772   131.561   2.4% ||
   HMM T:                            4.211     4.211   0.1% |
  Subspace diag:                   283.797     0.171   0.0% |
   calc_h_matrix:                  184.683    49.904   0.9% |
    Apply H:                       134.779   130.647   2.4% ||
     HMM T:                          4.132     4.132   0.1% |
   diagonalize:                      6.566     6.566   0.1% |
   rotate_psi:                      92.378    92.378   1.7% ||
  calc. matrices:                  603.944   336.020   6.2% |-|
   Apply H:                        267.924   259.954   4.8% |-|
    HMM T:                           7.970     7.970   0.1% |
  diagonalize:                      88.239    88.239   1.6% ||
  rotate_psi:                      188.771   188.771   3.5% ||
 Density:                           77.605     0.001   0.0% |
  Atomic density matrices:           1.400     1.400   0.0% |
  Mix:                              10.631    10.631   0.2% |
  Multipole moments:                 0.032     0.032   0.0% |
  Pseudo density:                   65.541    65.539   1.2% |
   Symmetrize density:               0.002     0.002   0.0% |
 Forces:                           258.575   258.575   4.8% |-|
 Hamiltonian:                       19.817     0.131   0.0% |
  Atomic:                            2.792     2.792   0.1% |
   XC Correction:                    0.000     0.000   0.0% |
  Calculate atomic Hamiltonians:     7.989     7.989   0.1% |
  Communicate:                       0.090     0.090   0.0% |
  Poisson:                           0.069     0.069   0.0% |
  XC 3D grid:                        8.746     8.746   0.2% |
 Orthonormalize:                     3.977     0.004   0.0% |
  calc_s_matrix:                     0.479     0.479   0.0% |
  inverse-cholesky:                  0.054     0.054   0.0% |
  projections:                       2.589     2.589   0.0% |
  rotate_psi_s:                      0.851     0.851   0.0% |
Set symmetry:                        0.000     0.000   0.0% |
Other:                            2954.267  2954.267  54.8% |---------------------|
-----------------------------------------------------------
Total:                                      5393.270 100.0%

Memory usage: 12.61 GiB
Date: Mon Mar 22 03:38:50 2021
