
  ___ ___ ___ _ _ _  
 |   |   |_  | | | | 
 | | | | | . | | | | 
 |__ |  _|___|_____|  21.1.1b1
 |___|_|             

User:   madkru@g043.nifl.fysik.dtu.dk
Date:   Mon Mar 29 19:18:30 2021
Arch:   x86_64
Pid:    9629
Python: 3.8.6
gpaw:   /home/niflheim/madkru/venv_madkru/gpaw/gpaw (e6f0d78a31)
_gpaw:  /home/niflheim/madkru/venv_madkru/gpaw/build/lib.linux-x86_64-sandybridge-3.8/
        _gpaw.cpython-38-x86_64-linux-gnu.so (e6f0d78a31)
ase:    /home/niflheim/madkru/venv_madkru/ase/ase (version 3.22.0b1-4d5a73cb29)
numpy:  /home/modules/software/SciPy-bundle/2020.11-foss-2020b/lib/python3.8/site-packages/numpy (version 1.19.4)
scipy:  /home/modules/software/SciPy-bundle/2020.11-foss-2020b/lib/python3.8/site-packages/scipy (version 1.5.4)
libxc:  4.3.4
units:  Angstrom and eV
cores: 64
OpenMP: False
OMP_NUM_THREADS: 1

Input parameters:
  convergence: {bands: occupied,
                density: 0.0001,
                eigenstates: 4e-08,
                energy: 0.0005,
                forces: 1e-06}
  kpts: [6 6 4]
  mode: {ecut: 600.0,
         gammacentered: False,
         name: pw}
  occupations: {fixmagmom: False,
                name: fermi-dirac,
                width: 0.001}
  symmetry: {point_group: False,
             time_reversal: False}

System changes: positions, numbers, cell, pbc, initial_charges, initial_magmoms 

Initialize ...

O-setup:
  name: Oxygen
  id: 9b9d51c344dea68c822856295a461509
  Z: 8.0
  valence: 6
  core: 2
  charge: 0.0
  file: /home/modules/software/GPAW-setups/0.9.20000/O.LDA.gz
  compensation charges: gauss, rc=0.21, lmax=2
  cutoffs: 1.17(filt), 0.83(core),
  valence states:
                energy  radius
    2s(2.00)   -23.752   0.688
    2p(4.00)    -9.195   0.598
    *s           3.459   0.688
    *p          18.016   0.598
    *d           0.000   0.619

  Using partial waves for O as LCAO basis

Mn-setup:
  name: Manganese
  id: 0d715a8018be061a6e9ea6f2d364ac92
  Z: 25.0
  valence: 15
  core: 10
  charge: 0.0
  file: /home/modules/software/GPAW-setups/0.9.20000/Mn.LDA.gz
  compensation charges: gauss, rc=0.38, lmax=2
  cutoffs: 2.14(filt), 0.86(core),
  valence states:
                energy  radius
    3s(2.00)   -85.387   1.275
    4s(2.00)    -5.282   1.275
    3p(6.00)   -54.493   1.281
    4p(0.00)    -1.471   1.281
    3d(5.00)    -7.009   1.138
    *d          20.203   1.138

  Using partial waves for Mn as LCAO basis

P-setup:
  name: Phosphorus
  id: a5561c299094968922a179ab894d2e2d
  Z: 15.0
  valence: 5
  core: 10
  charge: 0.0
  file: /home/modules/software/GPAW-setups/0.9.20000/P.LDA.gz
  compensation charges: gauss, rc=0.30, lmax=2
  cutoffs: 1.69(filt), 1.81(core),
  valence states:
                energy  radius
    3s(2.00)   -14.015   0.953
    3p(3.00)    -5.596   0.953
    *s          13.197   0.953
    *p          21.615   0.953
    *d           0.000   0.953

  Using partial waves for P as LCAO basis

Li-setup:
  name: Lithium
  id: b73562207f97a71b6967473b66fe8b65
  Z: 3.0
  valence: 1
  core: 2
  charge: 0.0
  file: /home/modules/software/GPAW-setups/0.9.20000/Li.LDA.gz
  compensation charges: gauss, rc=0.33, lmax=2
  cutoffs: 1.91(filt), 2.55(core),
  valence states:
                energy  radius
    2s(1.00)    -2.874   1.058
    2p(0.00)    -1.126   1.058
    *s          24.338   1.058

  Using partial waves for Li as LCAO basis

Reference energy: -196157.275402

Spin-polarized calculation.
Magnetic moment: 0.000000

Convergence criteria:
  Maximum total energy change: 0.0005 eV / electron
  Maximum integral of absolute density change: 0.0001 electrons
  Maximum integral of absolute eigenstate change: 4e-08 eV^2
  Maximum change in atomic force: 1e-06 eV / Ang
  Maximum number of iterations: 333

Symmetries present (total): 1

  ( 1  0  0)
  ( 0  1  0)
  ( 0  0  1)

144 k-points: 6 x 6 x 4 Monkhorst-Pack grid
144 k-points in the irreducible part of the Brillouin zone
       k-points in crystal coordinates                weights
   0:    -0.41666667   -0.41666667   -0.37500000          1/144
   1:    -0.41666667   -0.41666667   -0.12500000          1/144
   2:    -0.41666667   -0.41666667    0.12500000          1/144
   3:    -0.41666667   -0.41666667    0.37500000          1/144
   4:    -0.41666667   -0.25000000   -0.37500000          1/144
   5:    -0.41666667   -0.25000000   -0.12500000          1/144
   6:    -0.41666667   -0.25000000    0.12500000          1/144
   7:    -0.41666667   -0.25000000    0.37500000          1/144
   8:    -0.41666667   -0.08333333   -0.37500000          1/144
   9:    -0.41666667   -0.08333333   -0.12500000          1/144
          ...
 143:     0.41666667    0.41666667    0.37500000          1/144

Wave functions: Plane wave expansion
  Cutoff energy: 600.000 eV
  Number of coefficients (min, max): 9132, 9161
  Pulay-stress correction: 0.000000 eV/Ang^3 (de/decut=0.000000)
  Using FFTW library
  ScaLapack parameters: grid=1x1, blocksize=None
  Wavefunction extrapolation:
    Improved wavefunction reuse through dual PAW basis 

  Fermi-Dirac: width=0.0010 eV

Eigensolver
   Davidson(niter=2) 

Densities:
  Coarse grid: 60*35*27 grid
  Fine grid: 120*70*54 grid
  Total Charge: 0.000000 

Density mixing:
  Method: difference
  Backend: pulay
  Linear mixing parameter: 0.05
  Mixing with 5 old densities
  Damping of long wave oscillations: 50 

Hamiltonian:
  XC and Coulomb potentials evaluated on a 120*70*54 grid
  Using the LDA Exchange-Correlation functional
 

Memory estimate:
  Process memory now: 12145.11 MiB
  Calculator: 322.47 MiB
    Density: 9.62 MiB
      Arrays: 3.79 MiB
      Localized functions: 4.27 MiB
      Mixer: 1.56 MiB
    Hamiltonian: 2.94 MiB
      Arrays: 2.82 MiB
      XC: 0.00 MiB
      Poisson: 0.00 MiB
      vbar: 0.12 MiB
    Wavefunctions: 309.91 MiB
      Arrays psit_nG: 281.81 MiB
      Eigensolver: 18.27 MiB
      Projections: 2.71 MiB
      Projectors: 4.40 MiB
      PW-descriptor: 2.71 MiB

Total number of cores used: 64
Parallelization over k-points: 16
Domain decomposition: 2 x 2 x 1

Number of atoms: 28
Number of atomic orbitals: 148
Number of bands in calculation: 112
Number of valence electrons: 180
Bands to converge: occupied

... initialized

Initializing position-dependent things.

Density initialized from atomic densities
Creating initial wave functions:
  112 bands from LCAO basis set

                                           
                                           
                                           
                                           
                                           
               O     O  P  O               
            PO           OMn     O         
                  O          MO            
            O        Li O                  
             Mn  Mn          OP            
         O       O Li O                    
         Li     O P         O              
       Li                                  
                                           
                                           
                                           
                                           

Positions:
   0 O     -1.280122   -2.495595   -1.112331    ( 0.0000,  0.0000,  0.0000)
   1 O     -3.023238    2.918858    1.191723    ( 0.0000,  0.0000,  0.0000)
   2 O      1.997451    0.467212    1.441442    ( 0.0000,  0.0000,  0.0000)
   3 O      3.740343   -0.043905   -0.862614    ( 0.0000,  0.0000,  0.0000)
   4 O      1.997419    2.918835    1.441465    ( 0.0000,  0.0000,  0.0000)
   5 O      3.740372   -2.495531   -0.862587    ( 0.0000,  0.0000,  0.0000)
   6 O     -1.280154   -0.043891   -1.112309    ( 0.0000,  0.0000,  0.0000)
   7 O     -3.023210    0.467136    1.191750    ( 0.0000,  0.0000,  0.0000)
   8 O     -4.147405   -1.269737   -0.856207    ( 0.0000,  0.0000,  0.0000)
   9 O     -0.155894    1.692986    1.447725    ( 0.0000,  0.0000,  0.0000)
  10 O      4.864578    1.693016    1.185324    ( 0.0000,  0.0000,  0.0000)
  11 O      0.873163   -1.269706   -1.118625    ( 0.0000,  0.0000,  0.0000)
  12 Mn    -2.437108   -1.269902    0.302197    ( 0.0000,  0.0000,  1.0000)
  13 Mn    -1.866187    1.693156   -2.001927    ( 0.0000,  0.0000, -1.0000)
  14 Mn     3.154299    1.693181    0.026917    ( 0.0000,  0.0000, -1.0000)
  15 Mn     2.583444   -1.269877    2.331074    ( 0.0000,  0.0000,  1.0000)
  16 P     -0.543052   -1.269720   -1.734187    ( 0.0000,  0.0000,  0.0000)
  17 P     -3.760282    1.692974    0.569859    ( 0.0000,  0.0000,  0.0000)
  18 P      1.260300    1.693000    2.063344    ( 0.0000,  0.0000,  0.0000)
  19 P      4.477470   -1.269695   -0.240696    ( 0.0000,  0.0000,  0.0000)
  20 O     -0.544413   -1.269738    1.348523    ( 0.0000,  0.0000,  0.0000)
  21 O     -3.758895    1.692992   -0.955558    ( 0.0000,  0.0000,  0.0000)
  22 O      1.261690    1.693018   -1.019367    ( 0.0000,  0.0000,  0.0000)
  23 O      4.476045   -1.269713    1.284716    ( 0.0000,  0.0000,  0.0000)
  24 Li    -4.662027   -2.751322   -2.139440    ( 0.0000,  0.0000,  0.0000)
  25 Li     0.358703   -2.751277    0.164614    ( 0.0000,  0.0000,  0.0000)
  26 Li    -4.652011    0.211617   -2.139439    ( 0.0000,  0.0000,  0.0000)
  27 Li     0.358720    0.211628    0.164615    ( 0.0000,  0.0000,  0.0000)

Unit cell:
           periodic     x           y           z      points  spacing
  1. axis:    yes   10.041096    0.000054   -0.000022    60     0.1674
  2. axis:    yes    0.000032    5.925857    0.000001    35     0.1693
  3. axis:    yes   -0.000010    0.000001    4.608134    27     0.1707

  Lengths:  10.041096   5.925857   4.608134
  Angles:   89.999974  90.000250  89.999381

Effective grid spacing dv^(1/3) = 0.1691

                     log10-error:           total        iterations:
           time      wfs    density  force  energy       poisson  magmom
iter:   1  19:20:12                       -233.730322             +0.0000
iter:   2  19:20:32  -0.47  -0.95         -231.550029             +0.0040
iter:   3  19:20:52  -0.61  -1.00         -220.820394             +0.0042
iter:   4  19:21:12  -1.21  -1.31         -221.315222             +0.4202
iter:   5  19:21:32  -2.15  -1.38         -222.514545             +0.2412
iter:   6  19:21:52  -2.27  -1.38         -223.950187             +0.0345
iter:   7  19:22:12  -2.19  -1.52         -224.242134             -0.4094
iter:   8  19:22:32  -2.61  -1.66         -225.774500             -0.9265
iter:   9  19:22:52  -2.38  -1.92         -226.402711             -0.0403
iter:  10  19:23:12  -2.15  -2.07         -226.268779             -0.0231
iter:  11  19:23:32  -2.69  -2.28         -226.307115             -0.0089
iter:  12  19:23:51  -2.38  -2.34         -226.240795             -0.0069
iter:  13  19:24:11  -3.82  -2.84         -226.203236             -0.0024
iter:  14  19:24:31  -3.05  -2.91         -226.188781             +0.0005
iter:  15  19:24:51  -3.74  -3.03         -226.178333             -0.0002
iter:  16  19:25:11  -4.46  -3.31         -226.176914             -0.0001
iter:  17  19:25:31  -4.17  -3.37         -226.176315             -0.0000
iter:  18  19:25:51  -4.55  -3.47         -226.175529             -0.0000
iter:  19  19:26:11  -5.07  -3.78         -226.175593             -0.0000
iter:  20  19:26:31  -4.88  -3.81         -226.175415             -0.0000
iter:  21  19:26:51  -5.66  -3.87         -226.175304             -0.0000
iter:  22  19:27:11  -6.95  -4.25         -226.175303             -0.0000
iter:  23  19:27:30  -6.10  -4.29         -226.175321             +0.0000
iter:  24  19:27:50  -6.48  -4.32         -226.175297             -0.0000
iter:  25  19:28:15  -7.52  -4.76         -226.175297             -0.0000
iter:  26  19:28:40  -8.01  -4.82    -2.46-226.175297             -0.0000
iter:  27  19:29:05  -8.59  -5.23    -3.37-226.175297             +0.0000
iter:  28  19:29:30  -8.46  -5.24    -2.99-226.175297             -0.0000
iter:  29  19:29:55  -9.25  -5.34    -3.34-226.175297             +0.0000
iter:  30  19:30:20  -9.08  -5.44    -3.55-226.175297             -0.0000
iter:  31  19:30:45  -9.00  -5.53    -3.45-226.175297             -0.0000
iter:  32  19:31:10  -9.12  -5.63    -3.57-226.175297             -0.0000
iter:  33  19:31:35 -10.01  -5.69    -3.84-226.175297             -0.0000
iter:  34  19:31:59 -10.01  -5.73    -3.87-226.175297             -0.0000
iter:  35  19:32:24 -10.07  -5.79    -3.75-226.175297             -0.0000
iter:  36  19:32:49  -9.73  -5.90    -3.69-226.175297             -0.0000
iter:  37  19:33:14 -10.30  -6.14    -3.94-226.175297             -0.0000
iter:  38  19:33:39 -10.76  -6.34    -4.49-226.175297             -0.0000
iter:  39  19:34:04 -11.36  -6.40    -4.36-226.175297             -0.0000
iter:  40  19:34:29 -10.94  -6.49    -4.08-226.175297             -0.0000
iter:  41  19:34:54 -11.11  -6.57    -4.41-226.175297             -0.0000
iter:  42  19:35:19 -11.39  -6.80    -4.71-226.175297             -0.0000
iter:  43  19:35:44 -11.29  -6.86    -4.57-226.175297             -0.0000
iter:  44  19:36:09 -12.43  -7.11    -5.08-226.175297             -0.0000
iter:  45  19:36:34 -13.36  -7.27    -5.67-226.175297             -0.0000
iter:  46  19:36:58 -12.23  -7.33    -5.15-226.175297             -0.0000
iter:  47  19:37:23 -12.35  -7.39    -5.04-226.175297             -0.0000
iter:  48  19:37:48 -13.62  -7.64    -5.58-226.175297             -0.0000
iter:  49  19:38:13 -13.00  -7.77    -5.31-226.175297             -0.0000
iter:  50  19:38:38 -13.33  -7.79    -5.49-226.175297             -0.0000
iter:  51  19:39:03 -14.76  -8.25    -6.05-226.175297             -0.0000

Converged after 51 iterations.

Dipole moment: (18.330083, -2.306502, -4.524047) |e|*Ang

Total magnetic moment: (0.000000, 0.000000, -0.000000)
Local magnetic moments:
   0 O  ( 0.000000,  0.000000, -0.001811)
   1 O  ( 0.000000,  0.000000,  0.001806)
   2 O  ( 0.000000,  0.000000,  0.001808)
   3 O  ( 0.000000,  0.000000, -0.001834)
   4 O  ( 0.000000,  0.000000,  0.001802)
   5 O  ( 0.000000,  0.000000, -0.001806)
   6 O  ( 0.000000,  0.000000, -0.001816)
   7 O  ( 0.000000,  0.000000,  0.001788)
   8 O  ( 0.000000,  0.000000,  0.031144)
   9 O  ( 0.000000,  0.000000, -0.031138)
  10 O  ( 0.000000,  0.000000, -0.031050)
  11 O  ( 0.000000,  0.000000,  0.031055)
  12 Mn ( 0.000000,  0.000000,  4.395709)
  13 Mn ( 0.000000,  0.000000, -4.395711)
  14 Mn ( 0.000000,  0.000000, -4.395791)
  15 Mn ( 0.000000,  0.000000,  4.395822)
  16 P  ( 0.000000,  0.000000,  0.000873)
  17 P  ( 0.000000,  0.000000, -0.000878)
  18 P  ( 0.000000,  0.000000, -0.000864)
  19 P  ( 0.000000,  0.000000,  0.000856)
  20 O  ( 0.000000,  0.000000,  0.028426)
  21 O  ( 0.000000,  0.000000, -0.028427)
  22 O  ( 0.000000,  0.000000, -0.028411)
  23 O  ( 0.000000,  0.000000,  0.028408)
  24 Li ( 0.000000,  0.000000, -0.000001)
  25 Li ( 0.000000,  0.000000,  0.000000)
  26 Li ( 0.000000,  0.000000,  0.000027)
  27 Li ( 0.000000,  0.000000,  0.000000)

Energy contributions relative to reference atoms: (reference = -196157.275402)

Kinetic:       +277.624674
Potential:     -240.967100
External:        +0.000000
XC:            -264.721312
Entropy (-ST):   -0.000000
Local:           +1.888441
--------------------------
Free energy:   -226.175297
Extrapolated:  -226.175297

Spin contamination: 9.455313 electrons
Showing only first 2 kpts
                      Up                     Down
 Kpt  Band  Eigenvalues  Occupancy  Eigenvalues  Occupancy
  0    88      6.53039    1.00000      6.52982    1.00000
  0    89      6.56428    1.00000      6.56468    1.00000
  0    90      8.42651    0.00000      8.42547    0.00000
  0    91      8.44850    0.00000      8.44969    0.00000

  1    88      6.56888    1.00000      6.56802    1.00000
  1    89      6.59616    1.00000      6.59691    1.00000
  1    90      8.38275    0.00000      8.38192    0.00000
  1    91      8.40551    0.00000      8.40642    0.00000


Fermi level: 7.59549

Gap: 1.699 eV
Transition (v -> c):
  (s=0, k=73, n=89, [0.08, -0.42, -0.12]) -> (s=1, k=61, n=90, [-0.08, 0.08, -0.12])
Writing to born-0.01-26x+.gpw (mode='all')

Timing:                              incl.     excl.
-----------------------------------------------------------
Hamiltonian:                         0.233     0.002   0.0% |
 Atomic:                             0.055     0.055   0.0% |
  XC Correction:                     0.000     0.000   0.0% |
 Calculate atomic Hamiltonians:      0.084     0.084   0.0% |
 Communicate:                        0.000     0.000   0.0% |
 Initialize Hamiltonian:             0.000     0.000   0.0% |
 Poisson:                            0.001     0.001   0.0% |
 XC 3D grid:                         0.090     0.090   0.0% |
LCAO initialization:                79.778     0.673   0.0% |
 LCAO eigensolver:                  21.735     0.002   0.0% |
  Calculate projections:             0.029     0.029   0.0% |
  DenseAtomicCorrection:             0.042     0.042   0.0% |
  Distribute overlap matrix:         0.114     0.114   0.0% |
  Orbital Layouts:                   0.275     0.275   0.0% |
  Potential matrix:                 21.188    21.188   0.7% |
  Sum over cells:                    0.084     0.084   0.0% |
 LCAO to grid:                      56.018    56.018   1.8% ||
 Set positions (LCAO WFS):           1.352     0.193   0.0% |
  Basic WFS set positions:           0.002     0.002   0.0% |
  Basis functions set positions:     0.000     0.000   0.0% |
  P tci:                             0.532     0.532   0.0% |
  ST tci:                            0.397     0.397   0.0% |
  mktci:                             0.228     0.228   0.0% |
PWDescriptor:                        0.024     0.024   0.0% |
SCF-cycle:                        1151.818     1.857   0.1% |
 Davidson:                         961.235   298.042   9.7% |---|
  Apply H:                          68.604    66.637   2.2% ||
   HMM T:                            1.968     1.968   0.1% |
  Subspace diag:                   139.753     0.143   0.0% |
   calc_h_matrix:                   90.856    23.424   0.8% |
    Apply H:                        67.432    65.572   2.1% ||
     HMM T:                          1.860     1.860   0.1% |
   diagonalize:                      5.232     5.232   0.2% |
   rotate_psi:                      43.521    43.521   1.4% ||
  calc. matrices:                  289.073   155.257   5.1% |-|
   Apply H:                        133.815   130.196   4.2% |-|
    HMM T:                           3.619     3.619   0.1% |
  diagonalize:                      78.994    78.994   2.6% ||
  rotate_psi:                       86.769    86.769   2.8% ||
 Density:                           39.748     0.001   0.0% |
  Atomic density matrices:           0.666     0.666   0.0% |
  Mix:                               6.438     6.438   0.2% |
  Multipole moments:                 0.018     0.018   0.0% |
  Pseudo density:                   32.625    32.623   1.1% |
   Symmetrize density:               0.001     0.001   0.0% |
 Forces:                           134.929   134.929   4.4% |-|
 Hamiltonian:                       11.952     0.105   0.0% |
  Atomic:                            2.839     2.839   0.1% |
   XC Correction:                    0.000     0.000   0.0% |
  Calculate atomic Hamiltonians:     4.308     4.308   0.1% |
  Communicate:                       0.050     0.050   0.0% |
  Poisson:                           0.044     0.044   0.0% |
  XC 3D grid:                        4.606     4.606   0.2% |
 Orthonormalize:                     2.098     0.003   0.0% |
  calc_s_matrix:                     0.243     0.243   0.0% |
  inverse-cholesky:                  0.040     0.040   0.0% |
  projections:                       1.367     1.367   0.0% |
  rotate_psi_s:                      0.444     0.444   0.0% |
Set symmetry:                        0.000     0.000   0.0% |
Other:                            1836.191  1836.191  59.8% |-----------------------|
-----------------------------------------------------------
Total:                                      3068.045 100.0%

Memory usage: 11.90 GiB
Date: Mon Mar 29 20:09:38 2021
