
  ___ ___ ___ _ _ _  
 |   |   |_  | | | | 
 | | | | | . | | | | 
 |__ |  _|___|_____|  20.10.1b1
 |___|_|             

User:   madkru@i008.nifl.fysik.dtu.dk
Date:   Wed Mar 24 15:46:41 2021
Arch:   x86_64
Pid:    26969
Python: 3.7.4
gpaw:   /home/niflheim/madkru/venv_folder/gpaw/gpaw (d224efde0f)
_gpaw:  /home/niflheim/madkru/venv_folder/gpaw/build/lib.linux-x86_64-ivybridge-3.7/
        _gpaw.cpython-37m-x86_64-linux-gnu.so (4fd39e8b1e)
ase:    /home/niflheim/madkru/venv_folder/ase/ase (version 3.21.0b1-4d5a73cb29)
numpy:  /home/niflheim/madkru/venv_folder/lib/python3.7/site-packages/numpy (version 1.19.4)
scipy:  /home/niflheim/madkru/venv_folder/lib/python3.7/site-packages/scipy (version 1.5.4)
libxc:  4.3.4
units:  Angstrom and eV
cores: 64
OMP_NUM_THREADS: 1

Input parameters:
  convergence: {bands: occupied,
                density: 0.0001,
                eigenstates: 4e-08,
                energy: 0.0005,
                forces: 1e-06}
  kpts: [6 6 4]
  mode: {ecut: 600.0,
         gammacentered: False,
         name: pw}
  occupations: {fixmagmom: False,
                name: fermi-dirac,
                width: 0.001}
  symmetry: {point_group: False,
             time_reversal: False}

System changes: positions, numbers, cell, pbc, initial_charges, initial_magmoms 

Initialize ...

O-setup:
  name: Oxygen
  id: 9b9d51c344dea68c822856295a461509
  Z: 8.0
  valence: 6
  core: 2
  charge: 0.0
  file: /home/modules/software/GPAW-setups/0.9.20000/O.LDA.gz
  compensation charges: gauss, rc=0.21, lmax=2
  cutoffs: 1.17(filt), 0.83(core),
  valence states:
                energy  radius
    2s(2.00)   -23.752   0.688
    2p(4.00)    -9.195   0.598
    *s           3.459   0.688
    *p          18.016   0.598
    *d           0.000   0.619

  Using partial waves for O as LCAO basis

Mn-setup:
  name: Manganese
  id: 0d715a8018be061a6e9ea6f2d364ac92
  Z: 25.0
  valence: 15
  core: 10
  charge: 0.0
  file: /home/modules/software/GPAW-setups/0.9.20000/Mn.LDA.gz
  compensation charges: gauss, rc=0.38, lmax=2
  cutoffs: 2.14(filt), 0.86(core),
  valence states:
                energy  radius
    3s(2.00)   -85.387   1.275
    4s(2.00)    -5.282   1.275
    3p(6.00)   -54.493   1.281
    4p(0.00)    -1.471   1.281
    3d(5.00)    -7.009   1.138
    *d          20.203   1.138

  Using partial waves for Mn as LCAO basis

P-setup:
  name: Phosphorus
  id: a5561c299094968922a179ab894d2e2d
  Z: 15.0
  valence: 5
  core: 10
  charge: 0.0
  file: /home/modules/software/GPAW-setups/0.9.20000/P.LDA.gz
  compensation charges: gauss, rc=0.30, lmax=2
  cutoffs: 1.69(filt), 1.81(core),
  valence states:
                energy  radius
    3s(2.00)   -14.015   0.953
    3p(3.00)    -5.596   0.953
    *s          13.197   0.953
    *p          21.615   0.953
    *d           0.000   0.953

  Using partial waves for P as LCAO basis

Li-setup:
  name: Lithium
  id: b73562207f97a71b6967473b66fe8b65
  Z: 3.0
  valence: 1
  core: 2
  charge: 0.0
  file: /home/modules/software/GPAW-setups/0.9.20000/Li.LDA.gz
  compensation charges: gauss, rc=0.33, lmax=2
  cutoffs: 1.91(filt), 2.55(core),
  valence states:
                energy  radius
    2s(1.00)    -2.874   1.058
    2p(0.00)    -1.126   1.058
    *s          24.338   1.058

  Using partial waves for Li as LCAO basis

Reference energy: -196157.275402

Spin-polarized calculation.
Magnetic moment: 0.000000

Convergence criteria:
  Maximum total energy change: 0.0005 eV / electron
  Maximum integral of absolute density change: 0.0001 electrons
  Maximum integral of absolute eigenstate change: 4e-08 eV^2
  Maximum change in atomic force: 1e-06 eV / Ang
  Maximum number of iterations: 333

Symmetries present (total): 1

  ( 1  0  0)
  ( 0  1  0)
  ( 0  0  1)

144 k-points: 6 x 6 x 4 Monkhorst-Pack grid
144 k-points in the irreducible part of the Brillouin zone
       k-points in crystal coordinates                weights
   0:    -0.41666667   -0.41666667   -0.37500000          1/144
   1:    -0.41666667   -0.41666667   -0.12500000          1/144
   2:    -0.41666667   -0.41666667    0.12500000          1/144
   3:    -0.41666667   -0.41666667    0.37500000          1/144
   4:    -0.41666667   -0.25000000   -0.37500000          1/144
   5:    -0.41666667   -0.25000000   -0.12500000          1/144
   6:    -0.41666667   -0.25000000    0.12500000          1/144
   7:    -0.41666667   -0.25000000    0.37500000          1/144
   8:    -0.41666667   -0.08333333   -0.37500000          1/144
   9:    -0.41666667   -0.08333333   -0.12500000          1/144
          ...
 143:     0.41666667    0.41666667    0.37500000          1/144

Wave functions: Plane wave expansion
  Cutoff energy: 600.000 eV
  Number of coefficients (min, max): 9132, 9161
  Pulay-stress correction: 0.000000 eV/Ang^3 (de/decut=0.000000)
  Using FFTW library
  ScaLapack parameters: grid=1x1, blocksize=None
  Wavefunction extrapolation:
    Improved wavefunction reuse through dual PAW basis 

  Fermi-Dirac: width=0.0010 eV

Eigensolver
   Davidson(niter=2, smin=None, normalize=True) 

Densities:
  Coarse grid: 60*35*27 grid
  Fine grid: 120*70*54 grid
  Total Charge: 0.000000 

Density mixing:
  Method: difference
  Backend: pulay
  Linear mixing parameter: 0.05
  Mixing with 5 old densities
  Damping of long wave oscillations: 50 

Hamiltonian:
  XC and Coulomb potentials evaluated on a 120*70*54 grid
  Using the LDA Exchange-Correlation functional
 

Memory estimate:
  Process memory now: 12384.28 MiB
  Calculator: 322.47 MiB
    Density: 9.62 MiB
      Arrays: 3.79 MiB
      Localized functions: 4.27 MiB
      Mixer: 1.56 MiB
    Hamiltonian: 2.94 MiB
      Arrays: 2.82 MiB
      XC: 0.00 MiB
      Poisson: 0.00 MiB
      vbar: 0.12 MiB
    Wavefunctions: 309.91 MiB
      Arrays psit_nG: 281.81 MiB
      Eigensolver: 18.27 MiB
      Projections: 2.71 MiB
      Projectors: 4.40 MiB
      PW-descriptor: 2.71 MiB

Total number of cores used: 64
Parallelization over k-points: 16
Domain decomposition: 2 x 2 x 1

Number of atoms: 28
Number of atomic orbitals: 148
Number of bands in calculation: 112
Number of valence electrons: 180
Bands to converge: occupied

... initialized

Initializing position-dependent things.

Density initialized from atomic densities
Creating initial wave functions:
  112 bands from LCAO basis set

                                           
                                           
                                           
                                           
                                           
               O     O  P  O               
            PO           OMn     O         
                  O          MO            
            O        Li O                  
             Mn  Mn          OP            
         O       O Li O                    
         Li     O P         O              
       Li                                  
                                           
                                           
                                           
                                           

Positions:
   0 O     -1.280122   -2.495595   -1.112331    ( 0.0000,  0.0000,  0.0000)
   1 O     -3.023238    2.918858    1.191723    ( 0.0000,  0.0000,  0.0000)
   2 O      1.997451    0.467212    1.441442    ( 0.0000,  0.0000,  0.0000)
   3 O      3.740343   -0.043905   -0.862614    ( 0.0000,  0.0000,  0.0000)
   4 O      1.997419    2.918835    1.441465    ( 0.0000,  0.0000,  0.0000)
   5 O      3.740372   -2.495531   -0.862587    ( 0.0000,  0.0000,  0.0000)
   6 O     -1.280154   -0.043891   -1.112309    ( 0.0000,  0.0000,  0.0000)
   7 O     -3.023210    0.467136    1.191750    ( 0.0000,  0.0000,  0.0000)
   8 O     -4.147405   -1.269737   -0.856207    ( 0.0000,  0.0000,  0.0000)
   9 O     -0.155894    1.692986    1.447725    ( 0.0000,  0.0000,  0.0000)
  10 O      4.864578    1.693016    1.185324    ( 0.0000,  0.0000,  0.0000)
  11 O      0.873163   -1.269706   -1.118625    ( 0.0000,  0.0000,  0.0000)
  12 Mn    -2.437108   -1.269902    0.292197    ( 0.0000,  0.0000,  1.0000)
  13 Mn    -1.866187    1.693156   -2.001927    ( 0.0000,  0.0000, -1.0000)
  14 Mn     3.154299    1.693181    0.026917    ( 0.0000,  0.0000, -1.0000)
  15 Mn     2.583444   -1.269877    2.331074    ( 0.0000,  0.0000,  1.0000)
  16 P     -0.543052   -1.269720   -1.734187    ( 0.0000,  0.0000,  0.0000)
  17 P     -3.760282    1.692974    0.569859    ( 0.0000,  0.0000,  0.0000)
  18 P      1.260300    1.693000    2.063344    ( 0.0000,  0.0000,  0.0000)
  19 P      4.477470   -1.269695   -0.240696    ( 0.0000,  0.0000,  0.0000)
  20 O     -0.544413   -1.269738    1.348523    ( 0.0000,  0.0000,  0.0000)
  21 O     -3.758895    1.692992   -0.955558    ( 0.0000,  0.0000,  0.0000)
  22 O      1.261690    1.693018   -1.019367    ( 0.0000,  0.0000,  0.0000)
  23 O      4.476045   -1.269713    1.284716    ( 0.0000,  0.0000,  0.0000)
  24 Li    -4.662027   -2.751322   -2.139440    ( 0.0000,  0.0000,  0.0000)
  25 Li     0.358703   -2.751277    0.164614    ( 0.0000,  0.0000,  0.0000)
  26 Li    -4.662011    0.211617   -2.139439    ( 0.0000,  0.0000,  0.0000)
  27 Li     0.358720    0.211628    0.164615    ( 0.0000,  0.0000,  0.0000)

Unit cell:
           periodic     x           y           z      points  spacing
  1. axis:    yes   10.041096    0.000054   -0.000022    60     0.1674
  2. axis:    yes    0.000032    5.925857    0.000001    35     0.1693
  3. axis:    yes   -0.000010    0.000001    4.608134    27     0.1707

  Lengths:  10.041096   5.925857   4.608134
  Angles:   89.999974  90.000250  89.999381

Effective grid spacing dv^(1/3) = 0.1691

                     log10-error:           total        iterations:
           time      wfs    density  force  energy       poisson  magmom
iter:   1  15:48:15                       -233.732744             +0.0000
iter:   2  15:48:34  -0.47  -0.95         -231.543722             +0.0005
iter:   3  15:48:54  -0.60  -1.00         -220.837258             +0.0005
iter:   4  15:49:14  -1.21  -1.30         -221.660826             +0.3850
iter:   5  15:49:33  -2.13  -1.37         -222.292136             +0.2147
iter:   6  15:49:53  -2.25  -1.39         -224.470494             -0.0044
iter:   7  15:50:13  -2.13  -1.49         -224.717235             -0.7679
iter:   8  15:50:33  -2.38  -1.61         -225.892605             -0.9492
iter:   9  15:50:52  -2.54  -1.89         -226.376520             -0.7997
iter:  10  15:51:12  -3.06  -2.11         -226.430293             -0.2130
iter:  11  15:51:32  -2.29  -2.12         -226.682758             -0.0230
iter:  12  15:51:51  -3.14  -2.25         -226.416482             -0.0592
iter:  13  15:52:11  -2.56  -2.30         -226.290666             -0.0211
iter:  14  15:52:31  -2.68  -2.55         -226.222830             -0.0088
iter:  15  15:52:50  -3.21  -2.63         -226.210177             -0.0052
iter:  16  15:53:10  -3.39  -2.72         -226.180677             -0.0021
iter:  17  15:53:30  -4.55  -2.84         -226.178158             -0.0006
iter:  18  15:53:49  -4.05  -2.94         -226.175674             +0.0002
iter:  19  15:54:09  -4.57  -3.34         -226.176583             +0.0000
iter:  20  15:54:29  -4.41  -3.43         -226.175375             +0.0000
iter:  21  15:54:48  -5.56  -3.64         -226.175171             +0.0000
iter:  22  15:55:08  -5.91  -3.82         -226.175141             -0.0000
iter:  23  15:55:28  -5.82  -3.88         -226.175049             +0.0000
iter:  24  15:55:47  -5.63  -3.97         -226.175183             -0.0000
iter:  25  15:56:07  -6.60  -4.07         -226.175106             +0.0000
iter:  26  15:56:27  -6.53  -4.12         -226.175070             +0.0000
iter:  27  15:56:46  -7.26  -4.24         -226.175083             +0.0000
iter:  28  15:57:06  -7.04  -4.33         -226.175060             -0.0000
iter:  29  15:57:26  -6.53  -4.39         -226.175040             +0.0000
iter:  30  15:57:45  -7.23  -4.44         -226.175039             -0.0000
iter:  31  15:58:05  -7.02  -4.46         -226.175045             +0.0000
iter:  32  15:58:29  -8.24  -4.70         -226.175042             +0.0000
iter:  33  15:58:49  -6.74  -4.73         -226.175040             +0.0000
iter:  34  15:59:13  -7.72  -4.98    -2.40-226.175038             +0.0000
iter:  35  15:59:37  -8.51  -5.11    -3.02-226.175038             +0.0000
iter:  36  16:00:02  -8.75  -5.20    -3.29-226.175038             +0.0000
iter:  37  16:00:26  -8.74  -5.24    -3.30-226.175038             +0.0000
iter:  38  16:00:50  -8.76  -5.41    -2.92-226.175038             +0.0000
iter:  39  16:01:15 -10.00  -5.51    -3.76-226.175038             +0.0000
iter:  40  16:01:39  -8.51  -5.56    -3.16-226.175038             +0.0000
iter:  41  16:02:03  -9.78  -5.76    -3.39-226.175038             +0.0000
iter:  42  16:02:28  -9.86  -5.82    -3.63-226.175038             +0.0000
iter:  43  16:02:52 -10.01  -5.95    -3.85-226.175038             +0.0000
iter:  44  16:03:16 -10.43  -6.04    -4.07-226.175038             +0.0000
iter:  45  16:03:41  -9.77  -6.08    -3.78-226.175038             +0.0000
iter:  46  16:04:05 -10.81  -6.21    -3.89-226.175038             +0.0000
iter:  47  16:04:29 -11.11  -6.34    -4.29-226.175038             -0.0000
iter:  48  16:04:54 -11.19  -6.46    -4.56-226.175038             -0.0000
iter:  49  16:05:18 -11.77  -6.51    -4.70-226.175038             -0.0000
iter:  50  16:05:43 -11.08  -6.56    -4.19-226.175038             -0.0000
iter:  51  16:06:07 -12.01  -6.84    -4.95-226.175038             -0.0000
iter:  52  16:06:31 -11.00  -6.91    -4.38-226.175038             -0.0000
iter:  53  16:06:56 -11.93  -7.16    -4.62-226.175038             -0.0000
iter:  54  16:07:20 -12.90  -7.33    -5.11-226.175038             -0.0000
iter:  55  16:07:44 -12.33  -7.42    -5.02-226.175038             -0.0000
iter:  56  16:08:09 -12.50  -7.49    -4.97-226.175038             -0.0000
iter:  57  16:08:33 -13.85  -7.89    -5.83-226.175038             -0.0000
iter:  58  16:08:57 -14.02  -7.96    -5.76-226.175038             -0.0000
iter:  59  16:09:22 -14.20  -8.22    -5.78-226.175038             -0.0000
iter:  60  16:09:46 -14.90  -8.37    -6.46-226.175038             -0.0000

Converged after 60 iterations.

Dipole moment: (18.329182, -2.306220, -4.457004) |e|*Ang

Total magnetic moment: (0.000000, 0.000000, -0.000000)
Local magnetic moments:
   0 O  ( 0.000000,  0.000000, -0.001404)
   1 O  ( 0.000000,  0.000000,  0.001566)
   2 O  ( 0.000000,  0.000000,  0.001807)
   3 O  ( 0.000000,  0.000000, -0.001770)
   4 O  ( 0.000000,  0.000000,  0.001802)
   5 O  ( 0.000000,  0.000000, -0.001765)
   6 O  ( 0.000000,  0.000000, -0.001409)
   7 O  ( 0.000000,  0.000000,  0.001571)
   8 O  ( 0.000000,  0.000000,  0.031316)
   9 O  ( 0.000000,  0.000000, -0.031066)
  10 O  ( 0.000000,  0.000000, -0.031187)
  11 O  ( 0.000000,  0.000000,  0.031105)
  12 Mn ( 0.000000,  0.000000,  4.395601)
  13 Mn ( 0.000000,  0.000000, -4.395431)
  14 Mn ( 0.000000,  0.000000, -4.395737)
  15 Mn ( 0.000000,  0.000000,  4.395781)
  16 P  ( 0.000000,  0.000000,  0.000888)
  17 P  ( 0.000000,  0.000000, -0.001073)
  18 P  ( 0.000000,  0.000000, -0.000871)
  19 P  ( 0.000000,  0.000000,  0.001005)
  20 O  ( 0.000000,  0.000000,  0.028163)
  21 O  ( 0.000000,  0.000000, -0.028485)
  22 O  ( 0.000000,  0.000000, -0.028403)
  23 O  ( 0.000000,  0.000000,  0.028411)
  24 Li ( 0.000000,  0.000000,  0.000004)
  25 Li ( 0.000000,  0.000000,  0.000004)
  26 Li ( 0.000000,  0.000000,  0.000004)
  27 Li ( 0.000000,  0.000000,  0.000004)

Energy contributions relative to reference atoms: (reference = -196157.275402)

Kinetic:       +277.680470
Potential:     -241.010197
External:        +0.000000
XC:            -264.733582
Entropy (-ST):   -0.000000
Local:           +1.888270
--------------------------
Free energy:   -226.175038
Extrapolated:  -226.175038

Spin contamination: 9.454689 electrons
Showing only first 2 kpts
                      Up                     Down
 Kpt  Band  Eigenvalues  Occupancy  Eigenvalues  Occupancy
  0    88      6.52984    0.00694      6.53040    0.00694
  0    89      6.56372    0.00694      6.56395    0.00694
  0    90      8.42709    0.00000      8.42993    0.00000
  0    91      8.44879    0.00000      8.45198    0.00000

  1    88      6.56872    0.00694      6.56914    0.00694
  1    89      6.59690    0.00694      6.59610    0.00694
  1    90      8.38336    0.00000      8.38472    0.00000
  1    91      8.40571    0.00000      8.40690    0.00000


Fermi level: 7.35327

Gap: 1.698 eV
Transition (v -> c):
  (s=0, k=49, n=89, [-0.08, -0.42, -0.12]) -> (s=0, k=82, n=90, [0.08, -0.08, 0.12])
Writing to born-0.01-12z-.gpw (mode='all')

Timing:                              incl.     excl.
-----------------------------------------------------------
Hamiltonian:                         0.223     0.002   0.0% |
 Atomic:                             0.061     0.061   0.0% |
  XC Correction:                     0.000     0.000   0.0% |
 Calculate atomic Hamiltonians:      0.074     0.074   0.0% |
 Communicate:                        0.002     0.002   0.0% |
 Initialize Hamiltonian:             0.000     0.000   0.0% |
 Poisson:                            0.001     0.001   0.0% |
 XC 3D grid:                         0.083     0.083   0.0% |
LCAO initialization:                71.340     0.649   0.0% |
 LCAO eigensolver:                  19.783     0.002   0.0% |
  Calculate projections:             0.029     0.029   0.0% |
  DenseAtomicCorrection:             0.045     0.045   0.0% |
  Distribute overlap matrix:         0.009     0.009   0.0% |
  Orbital Layouts:                   0.429     0.429   0.0% |
  Potential matrix:                 19.183    19.183   0.6% |
  Sum over cells:                    0.087     0.087   0.0% |
 LCAO to grid:                      49.592    49.592   1.5% ||
 Set positions (LCAO WFS):           1.315     0.192   0.0% |
  Basic WFS set positions:           0.001     0.001   0.0% |
  Basis functions set positions:     0.000     0.000   0.0% |
  P tci:                             0.524     0.524   0.0% |
  ST tci:                            0.383     0.383   0.0% |
  mktci:                             0.216     0.216   0.0% |
PWDescriptor:                        0.024     0.024   0.0% |
SCF-cycle:                        1312.139     0.961   0.0% |
 Davidson:                        1120.693   343.419  10.6% |---|
  Apply H:                          77.639    75.397   2.3% ||
   HMM T:                            2.243     2.243   0.1% |
  Subspace diag:                   162.737     0.169   0.0% |
   calc_h_matrix:                  104.563    27.081   0.8% |
    Apply H:                        77.481    75.226   2.3% ||
     HMM T:                          2.256     2.256   0.1% |
   diagonalize:                      8.130     8.130   0.3% |
   rotate_psi:                      49.875    49.875   1.5% ||
  calc. matrices:                  335.098   183.524   5.6% |-|
   Apply H:                        151.574   147.381   4.5% |-|
    HMM T:                           4.193     4.193   0.1% |
  diagonalize:                      94.006    94.006   2.9% ||
  rotate_psi:                      107.794   107.794   3.3% ||
 Density:                           45.566     0.001   0.0% |
  Atomic density matrices:           0.975     0.975   0.0% |
  Mix:                               6.203     6.203   0.2% |
  Multipole moments:                 0.022     0.022   0.0% |
  Pseudo density:                   38.365    38.364   1.2% |
   Symmetrize density:               0.002     0.002   0.0% |
 Forces:                           130.052   130.052   4.0% |-|
 Hamiltonian:                       12.809     0.125   0.0% |
  Atomic:                            3.021     3.021   0.1% |
   XC Correction:                    0.000     0.000   0.0% |
  Calculate atomic Hamiltonians:     4.400     4.400   0.1% |
  Communicate:                       0.110     0.110   0.0% |
  Poisson:                           0.034     0.034   0.0% |
  XC 3D grid:                        5.118     5.118   0.2% |
 Orthonormalize:                     2.058     0.003   0.0% |
  calc_s_matrix:                     0.241     0.241   0.0% |
  inverse-cholesky:                  0.071     0.071   0.0% |
  projections:                       1.314     1.314   0.0% |
  rotate_psi_s:                      0.429     0.429   0.0% |
Set symmetry:                        0.000     0.000   0.0% |
Other:                            1866.046  1866.046  57.4% |----------------------|
-----------------------------------------------------------
Total:                                      3249.771 100.0%

Memory usage: 12.14 GiB
Date: Wed Mar 24 16:40:51 2021
