
  ___ ___ ___ _ _ _  
 |   |   |_  | | | | 
 | | | | | . | | | | 
 |__ |  _|___|_____|  20.10.1b1
 |___|_|             

User:   madkru@i013.nifl.fysik.dtu.dk
Date:   Mon Mar 22 08:02:09 2021
Arch:   x86_64
Pid:    27943
Python: 3.7.4
gpaw:   /home/niflheim/madkru/venv_folder/gpaw/gpaw (d0d1ca1c71)
_gpaw:  /home/niflheim/madkru/venv_folder/gpaw/build/lib.linux-x86_64-ivybridge-3.7/
        _gpaw.cpython-37m-x86_64-linux-gnu.so (4fd39e8b1e)
ase:    /home/niflheim/madkru/venv_folder/ase/ase (version 3.21.0b1-7e6c206a91)
numpy:  /home/niflheim/madkru/venv_folder/lib/python3.7/site-packages/numpy (version 1.19.4)
scipy:  /home/niflheim/madkru/venv_folder/lib/python3.7/site-packages/scipy (version 1.5.4)
libxc:  4.3.4
units:  Angstrom and eV
cores: 32
OMP_NUM_THREADS: 1

Input parameters:
  convergence: {bands: occupied,
                density: 0.0001,
                eigenstates: 4e-08,
                energy: 0.0005,
                forces: 1e-06}
  kpts: [6 6 4]
  mode: {ecut: 600.0,
         gammacentered: False,
         name: pw}
  occupations: {fixmagmom: False,
                name: fermi-dirac,
                width: 0.001}
  symmetry: {point_group: False,
             time_reversal: False}

System changes: positions, numbers, cell, pbc, initial_charges, initial_magmoms 

Initialize ...

O-setup:
  name: Oxygen
  id: 9b9d51c344dea68c822856295a461509
  Z: 8.0
  valence: 6
  core: 2
  charge: 0.0
  file: /home/modules/software/GPAW-setups/0.9.20000/O.LDA.gz
  compensation charges: gauss, rc=0.21, lmax=2
  cutoffs: 1.17(filt), 0.83(core),
  valence states:
                energy  radius
    2s(2.00)   -23.752   0.688
    2p(4.00)    -9.195   0.598
    *s           3.459   0.688
    *p          18.016   0.598
    *d           0.000   0.619

  Using partial waves for O as LCAO basis

Mn-setup:
  name: Manganese
  id: 0d715a8018be061a6e9ea6f2d364ac92
  Z: 25.0
  valence: 15
  core: 10
  charge: 0.0
  file: /home/modules/software/GPAW-setups/0.9.20000/Mn.LDA.gz
  compensation charges: gauss, rc=0.38, lmax=2
  cutoffs: 2.14(filt), 0.86(core),
  valence states:
                energy  radius
    3s(2.00)   -85.387   1.275
    4s(2.00)    -5.282   1.275
    3p(6.00)   -54.493   1.281
    4p(0.00)    -1.471   1.281
    3d(5.00)    -7.009   1.138
    *d          20.203   1.138

  Using partial waves for Mn as LCAO basis

P-setup:
  name: Phosphorus
  id: a5561c299094968922a179ab894d2e2d
  Z: 15.0
  valence: 5
  core: 10
  charge: 0.0
  file: /home/modules/software/GPAW-setups/0.9.20000/P.LDA.gz
  compensation charges: gauss, rc=0.30, lmax=2
  cutoffs: 1.69(filt), 1.81(core),
  valence states:
                energy  radius
    3s(2.00)   -14.015   0.953
    3p(3.00)    -5.596   0.953
    *s          13.197   0.953
    *p          21.615   0.953
    *d           0.000   0.953

  Using partial waves for P as LCAO basis

Li-setup:
  name: Lithium
  id: b73562207f97a71b6967473b66fe8b65
  Z: 3.0
  valence: 1
  core: 2
  charge: 0.0
  file: /home/modules/software/GPAW-setups/0.9.20000/Li.LDA.gz
  compensation charges: gauss, rc=0.33, lmax=2
  cutoffs: 1.91(filt), 2.55(core),
  valence states:
                energy  radius
    2s(1.00)    -2.874   1.058
    2p(0.00)    -1.126   1.058
    *s          24.338   1.058

  Using partial waves for Li as LCAO basis

Reference energy: -196157.275402

Spin-polarized calculation.
Magnetic moment: 0.000000

Convergence criteria:
  Maximum total energy change: 0.0005 eV / electron
  Maximum integral of absolute density change: 0.0001 electrons
  Maximum integral of absolute eigenstate change: 4e-08 eV^2
  Maximum change in atomic force: 1e-06 eV / Ang
  Maximum number of iterations: 333

Symmetries present (total): 1

  ( 1  0  0)
  ( 0  1  0)
  ( 0  0  1)

144 k-points: 6 x 6 x 4 Monkhorst-Pack grid
144 k-points in the irreducible part of the Brillouin zone
       k-points in crystal coordinates                weights
   0:    -0.41666667   -0.41666667   -0.37500000          1/144
   1:    -0.41666667   -0.41666667   -0.12500000          1/144
   2:    -0.41666667   -0.41666667    0.12500000          1/144
   3:    -0.41666667   -0.41666667    0.37500000          1/144
   4:    -0.41666667   -0.25000000   -0.37500000          1/144
   5:    -0.41666667   -0.25000000   -0.12500000          1/144
   6:    -0.41666667   -0.25000000    0.12500000          1/144
   7:    -0.41666667   -0.25000000    0.37500000          1/144
   8:    -0.41666667   -0.08333333   -0.37500000          1/144
   9:    -0.41666667   -0.08333333   -0.12500000          1/144
          ...
 143:     0.41666667    0.41666667    0.37500000          1/144

Wave functions: Plane wave expansion
  Cutoff energy: 600.000 eV
  Number of coefficients (min, max): 9132, 9161
  Pulay-stress correction: 0.000000 eV/Ang^3 (de/decut=0.000000)
  Using FFTW library
  ScaLapack parameters: grid=1x1, blocksize=None
  Wavefunction extrapolation:
    Improved wavefunction reuse through dual PAW basis 

  Fermi-Dirac: width=0.0010 eV

Eigensolver
   Davidson(niter=2, smin=None, normalize=True) 

Densities:
  Coarse grid: 60*35*27 grid
  Fine grid: 120*70*54 grid
  Total Charge: 0.000000 

Density mixing:
  Method: difference
  Backend: pulay
  Linear mixing parameter: 0.05
  Mixing with 5 old densities
  Damping of long wave oscillations: 50 

Hamiltonian:
  XC and Coulomb potentials evaluated on a 120*70*54 grid
  Using the LDA Exchange-Correlation functional
 

Memory estimate:
  Process memory now: 13059.14 MiB
  Calculator: 342.26 MiB
    Density: 19.13 MiB
      Arrays: 7.57 MiB
      Localized functions: 8.54 MiB
      Mixer: 3.03 MiB
    Hamiltonian: 5.87 MiB
      Arrays: 5.62 MiB
      XC: 0.00 MiB
      Poisson: 0.00 MiB
      vbar: 0.25 MiB
    Wavefunctions: 317.25 MiB
      Arrays psit_nG: 281.81 MiB
      Eigensolver: 18.27 MiB
      Projections: 5.41 MiB
      Projectors: 8.81 MiB
      PW-descriptor: 2.95 MiB

Total number of cores used: 32
Parallelization over k-points: 16
Domain decomposition: 2 x 1 x 1

Number of atoms: 28
Number of atomic orbitals: 148
Number of bands in calculation: 112
Number of valence electrons: 180
Bands to converge: occupied

... initialized

Initializing position-dependent things.

Density initialized from atomic densities
Creating initial wave functions:
  112 bands from LCAO basis set

                                           
                                           
                                           
                                           
                                           
               O     O  P  O               
            PO           OMn     O         
                  O          MO            
            O        Li O                  
             Mn  Mn          OP            
         O       O Li O                    
         Li     O P         O              
       Li                                  
                                           
                                           
                                           
                                           

Positions:
   0 O     -1.280122   -2.495595   -1.112331    ( 0.0000,  0.0000,  0.0000)
   1 O     -3.023238    2.918858    1.191723    ( 0.0000,  0.0000,  0.0000)
   2 O      1.997451    0.467212    1.441442    ( 0.0000,  0.0000,  0.0000)
   3 O      3.740343   -0.043905   -0.862614    ( 0.0000,  0.0000,  0.0000)
   4 O      1.997419    2.918835    1.441465    ( 0.0000,  0.0000,  0.0000)
   5 O      3.740372   -2.495531   -0.852587    ( 0.0000,  0.0000,  0.0000)
   6 O     -1.280154   -0.043891   -1.112309    ( 0.0000,  0.0000,  0.0000)
   7 O     -3.023210    0.467136    1.191750    ( 0.0000,  0.0000,  0.0000)
   8 O     -4.147405   -1.269737   -0.856207    ( 0.0000,  0.0000,  0.0000)
   9 O     -0.155894    1.692986    1.447725    ( 0.0000,  0.0000,  0.0000)
  10 O      4.864578    1.693016    1.185324    ( 0.0000,  0.0000,  0.0000)
  11 O      0.873163   -1.269706   -1.118625    ( 0.0000,  0.0000,  0.0000)
  12 Mn    -2.437108   -1.269902    0.302197    ( 0.0000,  0.0000,  1.0000)
  13 Mn    -1.866187    1.693156   -2.001927    ( 0.0000,  0.0000, -1.0000)
  14 Mn     3.154299    1.693181    0.026917    ( 0.0000,  0.0000, -1.0000)
  15 Mn     2.583444   -1.269877    2.331074    ( 0.0000,  0.0000,  1.0000)
  16 P     -0.543052   -1.269720   -1.734187    ( 0.0000,  0.0000,  0.0000)
  17 P     -3.760282    1.692974    0.569859    ( 0.0000,  0.0000,  0.0000)
  18 P      1.260300    1.693000    2.063344    ( 0.0000,  0.0000,  0.0000)
  19 P      4.477470   -1.269695   -0.240696    ( 0.0000,  0.0000,  0.0000)
  20 O     -0.544413   -1.269738    1.348523    ( 0.0000,  0.0000,  0.0000)
  21 O     -3.758895    1.692992   -0.955558    ( 0.0000,  0.0000,  0.0000)
  22 O      1.261690    1.693018   -1.019367    ( 0.0000,  0.0000,  0.0000)
  23 O      4.476045   -1.269713    1.284716    ( 0.0000,  0.0000,  0.0000)
  24 Li    -4.662027   -2.751322   -2.139440    ( 0.0000,  0.0000,  0.0000)
  25 Li     0.358703   -2.751277    0.164614    ( 0.0000,  0.0000,  0.0000)
  26 Li    -4.662011    0.211617   -2.139439    ( 0.0000,  0.0000,  0.0000)
  27 Li     0.358720    0.211628    0.164615    ( 0.0000,  0.0000,  0.0000)

Unit cell:
           periodic     x           y           z      points  spacing
  1. axis:    yes   10.041096    0.000054   -0.000022    60     0.1674
  2. axis:    yes    0.000032    5.925857    0.000001    35     0.1693
  3. axis:    yes   -0.000010    0.000001    4.608134    27     0.1707

  Lengths:  10.041096   5.925857   4.608134
  Angles:   89.999974  90.000250  89.999381

Effective grid spacing dv^(1/3) = 0.1691

                     log10-error:           total        iterations:
           time      wfs    density  force  energy       poisson  magmom
iter:   1  08:05:15                       -233.725013             +0.0000
iter:   2  08:05:51  -0.47  -0.95         -231.551774             +0.0027
iter:   3  08:06:27  -0.61  -1.00         -220.799179             +0.0028
iter:   4  08:07:04  -1.17  -1.31         -220.764599             +0.0544
iter:   5  08:07:40  -2.12  -1.40         -223.263877             +0.0034
iter:   6  08:08:16  -2.30  -1.37         -222.792383             +0.0484
iter:   7  08:08:53  -2.06  -1.55         -222.615932             +0.0017
iter:   8  08:09:29  -2.24  -1.86         -225.821351             +0.0139
iter:   9  08:10:05  -2.06  -2.04         -226.383271             +0.0068
iter:  10  08:10:42  -2.33  -2.14         -226.409745             +0.0023
iter:  11  08:11:18  -3.12  -2.29         -226.364143             +0.0007
iter:  12  08:11:54  -2.45  -2.36         -226.196093             +0.0000
iter:  13  08:12:30  -3.11  -2.46         -226.183320             +0.0002
iter:  14  08:13:07  -4.02  -2.85         -226.183516             +0.0002
iter:  15  08:13:43  -3.43  -2.90         -226.179571             +0.0001
iter:  16  08:14:19  -4.07  -3.05         -226.177637             +0.0000
iter:  17  08:14:55  -5.03  -3.28         -226.176715             +0.0000
iter:  18  08:15:32  -4.75  -3.29         -226.175546             +0.0000
iter:  19  08:16:08  -4.96  -3.36         -226.175077             +0.0000
iter:  20  08:16:44  -5.13  -3.36         -226.174992             +0.0000
iter:  21  08:17:20  -5.55  -3.52         -226.175016             +0.0000
iter:  22  08:17:56  -5.59  -3.55         -226.175095             -0.0000
iter:  23  08:18:32  -4.97  -3.60         -226.175077             -0.0000
iter:  24  08:19:08  -5.96  -3.96         -226.174912             -0.0000
iter:  25  08:19:45  -6.00  -4.10         -226.174835             -0.0000
iter:  26  08:20:21  -6.95  -4.13         -226.174837             -0.0000
iter:  27  08:20:57  -6.53  -4.18         -226.174828             +0.0000
iter:  28  08:21:33  -6.85  -4.45         -226.174818             -0.0000
iter:  29  08:22:09  -6.88  -4.52         -226.174816             +0.0000
iter:  30  08:22:45  -6.96  -4.62         -226.174816             -0.0000
iter:  31  08:23:30  -8.14  -4.86         -226.174815             +0.0000
iter:  32  08:24:16  -8.34  -4.91    -3.08-226.174815             +0.0000
iter:  33  08:25:01  -8.10  -4.97    -2.91-226.174815             +0.0000
iter:  34  08:25:46  -8.19  -5.25    -3.09-226.174814             +0.0000
iter:  35  08:26:32  -9.01  -5.36    -3.62-226.174814             +0.0000
iter:  36  08:27:17  -8.56  -5.40    -2.97-226.174814             +0.0000
iter:  37  08:28:02  -8.86  -5.59    -3.58-226.174814             +0.0000
iter:  38  08:28:48 -10.15  -5.71    -3.96-226.174814             +0.0000
iter:  39  08:29:33  -9.12  -5.74    -3.48-226.174814             -0.0000
iter:  40  08:30:18  -9.46  -5.81    -3.69-226.174814             +0.0000
iter:  41  08:31:04 -10.70  -5.99    -4.50-226.174814             -0.0000
iter:  42  08:31:49  -9.92  -6.02    -3.77-226.174814             +0.0000
iter:  43  08:32:34  -9.80  -6.16    -3.99-226.174814             +0.0000
iter:  44  08:33:20 -11.22  -6.68    -4.91-226.174814             +0.0000
iter:  45  08:34:05 -11.11  -6.71    -4.82-226.174814             +0.0000
iter:  46  08:34:51 -11.11  -6.75    -4.60-226.174814             +0.0000
iter:  47  08:35:36 -12.05  -7.13    -5.49-226.174814             +0.0000
iter:  48  08:36:21 -12.31  -7.10    -4.90-226.174814             +0.0000
iter:  49  08:37:07 -12.96  -7.31    -5.49-226.174814             +0.0000
iter:  50  08:37:52 -13.11  -7.48    -5.84-226.174814             +0.0000
iter:  51  08:38:38 -12.72  -7.57    -5.36-226.174814             +0.0000
iter:  52  08:39:23 -12.93  -7.66    -5.42-226.174814             +0.0000
iter:  53  08:40:08 -13.93  -8.01    -6.32-226.174814             +0.0000

Converged after 53 iterations.

Dipole moment: (18.326428, -2.308057, -4.500526) |e|*Ang

Total magnetic moment: (0.000000, 0.000000, 0.000000)
Local magnetic moments:
   0 O  ( 0.000000,  0.000000, -0.001812)
   1 O  ( 0.000000,  0.000000,  0.001797)
   2 O  ( 0.000000,  0.000000,  0.001951)
   3 O  ( 0.000000,  0.000000, -0.001824)
   4 O  ( 0.000000,  0.000000,  0.001756)
   5 O  ( 0.000000,  0.000000, -0.002086)
   6 O  ( 0.000000,  0.000000, -0.001822)
   7 O  ( 0.000000,  0.000000,  0.001800)
   8 O  ( 0.000000,  0.000000,  0.031004)
   9 O  ( 0.000000,  0.000000, -0.031090)
  10 O  ( 0.000000,  0.000000, -0.031151)
  11 O  ( 0.000000,  0.000000,  0.031076)
  12 Mn ( 0.000000,  0.000000,  4.395747)
  13 Mn ( 0.000000,  0.000000, -4.395804)
  14 Mn ( 0.000000,  0.000000, -4.395282)
  15 Mn ( 0.000000,  0.000000,  4.396283)
  16 P  ( 0.000000,  0.000000,  0.000854)
  17 P  ( 0.000000,  0.000000, -0.000872)
  18 P  ( 0.000000,  0.000000, -0.000879)
  19 P  ( 0.000000,  0.000000,  0.000659)
  20 O  ( 0.000000,  0.000000,  0.028413)
  21 O  ( 0.000000,  0.000000, -0.028429)
  22 O  ( 0.000000,  0.000000, -0.028442)
  23 O  ( 0.000000,  0.000000,  0.028422)
  24 Li ( 0.000000,  0.000000, -0.000007)
  25 Li ( 0.000000,  0.000000,  0.000001)
  26 Li ( 0.000000,  0.000000, -0.000001)
  27 Li ( 0.000000,  0.000000, -0.000001)

Energy contributions relative to reference atoms: (reference = -196157.275402)

Kinetic:       +277.876278
Potential:     -241.161112
External:        +0.000000
XC:            -264.777603
Entropy (-ST):   -0.000000
Local:           +1.887623
--------------------------
Free energy:   -226.174814
Extrapolated:  -226.174814

Spin contamination: 9.455467 electrons
Showing only first 2 kpts
                      Up                     Down
 Kpt  Band  Eigenvalues  Occupancy  Eigenvalues  Occupancy
  0    88      6.52792    0.00694      6.53176    0.00694
  0    89      6.56226    0.00694      6.56577    0.00694
  0    90      8.42621    0.00000      8.42421    0.00000
  0    91      8.44781    0.00000      8.44623    0.00000

  1    88      6.56603    0.00694      6.57003    0.00694
  1    89      6.59411    0.00694      6.59745    0.00694
  1    90      8.38271    0.00000      8.38097    0.00000
  1    91      8.40483    0.00000      8.40351    0.00000


Fermi level: 7.65636

Gap: 1.697 eV
Transition (v -> c):
  (s=1, k=94, n=89, [0.08, 0.42, 0.12]) -> (s=1, k=86, n=90, [0.08, 0.08, 0.12])
Writing to born-0.01-5z+.gpw (mode='all')

Timing:                              incl.     excl.
-----------------------------------------------------------
Hamiltonian:                         0.352     0.002   0.0% |
 Atomic:                             0.050     0.050   0.0% |
  XC Correction:                     0.000     0.000   0.0% |
 Calculate atomic Hamiltonians:      0.141     0.141   0.0% |
 Communicate:                        0.002     0.002   0.0% |
 Initialize Hamiltonian:             0.000     0.000   0.0% |
 Poisson:                            0.001     0.001   0.0% |
 XC 3D grid:                         0.156     0.156   0.0% |
LCAO initialization:               142.034     0.649   0.0% |
 LCAO eigensolver:                  38.224     0.002   0.0% |
  Calculate projections:             0.056     0.056   0.0% |
  DenseAtomicCorrection:             0.088     0.088   0.0% |
  Distribute overlap matrix:         0.108     0.108   0.0% |
  Orbital Layouts:                   0.340     0.340   0.0% |
  Potential matrix:                 37.543    37.543   0.7% |
  Sum over cells:                    0.087     0.087   0.0% |
 LCAO to grid:                     100.810   100.810   1.9% ||
 Set positions (LCAO WFS):           2.350     0.371   0.0% |
  Basic WFS set positions:           0.001     0.001   0.0% |
  Basis functions set positions:     0.000     0.000   0.0% |
  P tci:                             1.055     1.055   0.0% |
  ST tci:                            0.704     0.704   0.0% |
  mktci:                             0.218     0.218   0.0% |
PWDescriptor:                        0.023     0.023   0.0% |
SCF-cycle:                        2135.017     5.398   0.1% |
 Davidson:                        1820.897   577.909  11.0% |---|
  Apply H:                         132.145   127.964   2.4% ||
   HMM T:                            4.180     4.180   0.1% |
  Subspace diag:                   272.445     0.165   0.0% |
   calc_h_matrix:                  178.582    47.317   0.9% |
    Apply H:                       131.266   127.101   2.4% ||
     HMM T:                          4.165     4.165   0.1% |
   diagonalize:                      6.246     6.246   0.1% |
   rotate_psi:                      87.452    87.452   1.7% ||
  calc. matrices:                  575.522   318.856   6.0% |-|
   Apply H:                        256.665   248.805   4.7% |-|
    HMM T:                           7.861     7.861   0.1% |
  diagonalize:                      83.930    83.930   1.6% ||
  rotate_psi:                      178.947   178.947   3.4% ||
 Density:                           73.452     0.001   0.0% |
  Atomic density matrices:           1.310     1.310   0.0% |
  Mix:                              10.035    10.035   0.2% |
  Multipole moments:                 0.030     0.030   0.0% |
  Pseudo density:                   62.075    62.073   1.2% |
   Symmetrize density:               0.001     0.001   0.0% |
 Forces:                           212.515   212.515   4.0% |-|
 Hamiltonian:                       18.774     0.121   0.0% |
  Atomic:                            2.629     2.628   0.0% |
   XC Correction:                    0.000     0.000   0.0% |
  Calculate atomic Hamiltonians:     7.564     7.564   0.1% |
  Communicate:                       0.088     0.088   0.0% |
  Poisson:                           0.062     0.062   0.0% |
  XC 3D grid:                        8.310     8.310   0.2% |
 Orthonormalize:                     3.981     0.004   0.0% |
  calc_s_matrix:                     0.478     0.478   0.0% |
  inverse-cholesky:                  0.053     0.053   0.0% |
  projections:                       2.593     2.593   0.0% |
  rotate_psi_s:                      0.854     0.854   0.0% |
Set symmetry:                        0.000     0.000   0.0% |
Other:                            3000.270  3000.270  56.8% |----------------------|
-----------------------------------------------------------
Total:                                      5277.697 100.0%

Memory usage: 12.78 GiB
Date: Mon Mar 22 09:30:07 2021
