
  ___ ___ ___ _ _ _  
 |   |   |_  | | | | 
 | | | | | . | | | | 
 |__ |  _|___|_____|  20.10.1b1
 |___|_|             

User:   madkru@i008.nifl.fysik.dtu.dk
Date:   Fri Mar 26 01:53:07 2021
Arch:   x86_64
Pid:    26969
Python: 3.7.4
gpaw:   /home/niflheim/madkru/venv_folder/gpaw/gpaw (d224efde0f)
_gpaw:  /home/niflheim/madkru/venv_folder/gpaw/build/lib.linux-x86_64-ivybridge-3.7/
        _gpaw.cpython-37m-x86_64-linux-gnu.so (4fd39e8b1e)
ase:    /home/niflheim/madkru/venv_folder/ase/ase (version 3.21.0b1-4d5a73cb29)
numpy:  /home/niflheim/madkru/venv_folder/lib/python3.7/site-packages/numpy (version 1.19.4)
scipy:  /home/niflheim/madkru/venv_folder/lib/python3.7/site-packages/scipy (version 1.5.4)
libxc:  4.3.4
units:  Angstrom and eV
cores: 64
OMP_NUM_THREADS: 1

Input parameters:
  convergence: {bands: occupied,
                density: 0.0001,
                eigenstates: 4e-08,
                energy: 0.0005,
                forces: 1e-06}
  kpts: [6 6 4]
  mode: {ecut: 600.0,
         gammacentered: False,
         name: pw}
  occupations: {fixmagmom: False,
                name: fermi-dirac,
                width: 0.001}
  symmetry: {point_group: False,
             time_reversal: False}

System changes: positions, numbers, cell, pbc, initial_charges, initial_magmoms 

Initialize ...

O-setup:
  name: Oxygen
  id: 9b9d51c344dea68c822856295a461509
  Z: 8.0
  valence: 6
  core: 2
  charge: 0.0
  file: /home/modules/software/GPAW-setups/0.9.20000/O.LDA.gz
  compensation charges: gauss, rc=0.21, lmax=2
  cutoffs: 1.17(filt), 0.83(core),
  valence states:
                energy  radius
    2s(2.00)   -23.752   0.688
    2p(4.00)    -9.195   0.598
    *s           3.459   0.688
    *p          18.016   0.598
    *d           0.000   0.619

  Using partial waves for O as LCAO basis

Mn-setup:
  name: Manganese
  id: 0d715a8018be061a6e9ea6f2d364ac92
  Z: 25.0
  valence: 15
  core: 10
  charge: 0.0
  file: /home/modules/software/GPAW-setups/0.9.20000/Mn.LDA.gz
  compensation charges: gauss, rc=0.38, lmax=2
  cutoffs: 2.14(filt), 0.86(core),
  valence states:
                energy  radius
    3s(2.00)   -85.387   1.275
    4s(2.00)    -5.282   1.275
    3p(6.00)   -54.493   1.281
    4p(0.00)    -1.471   1.281
    3d(5.00)    -7.009   1.138
    *d          20.203   1.138

  Using partial waves for Mn as LCAO basis

P-setup:
  name: Phosphorus
  id: a5561c299094968922a179ab894d2e2d
  Z: 15.0
  valence: 5
  core: 10
  charge: 0.0
  file: /home/modules/software/GPAW-setups/0.9.20000/P.LDA.gz
  compensation charges: gauss, rc=0.30, lmax=2
  cutoffs: 1.69(filt), 1.81(core),
  valence states:
                energy  radius
    3s(2.00)   -14.015   0.953
    3p(3.00)    -5.596   0.953
    *s          13.197   0.953
    *p          21.615   0.953
    *d           0.000   0.953

  Using partial waves for P as LCAO basis

Li-setup:
  name: Lithium
  id: b73562207f97a71b6967473b66fe8b65
  Z: 3.0
  valence: 1
  core: 2
  charge: 0.0
  file: /home/modules/software/GPAW-setups/0.9.20000/Li.LDA.gz
  compensation charges: gauss, rc=0.33, lmax=2
  cutoffs: 1.91(filt), 2.55(core),
  valence states:
                energy  radius
    2s(1.00)    -2.874   1.058
    2p(0.00)    -1.126   1.058
    *s          24.338   1.058

  Using partial waves for Li as LCAO basis

Reference energy: -196157.275402

Spin-polarized calculation.
Magnetic moment: 0.000000

Convergence criteria:
  Maximum total energy change: 0.0005 eV / electron
  Maximum integral of absolute density change: 0.0001 electrons
  Maximum integral of absolute eigenstate change: 4e-08 eV^2
  Maximum change in atomic force: 1e-06 eV / Ang
  Maximum number of iterations: 333

Symmetries present (total): 1

  ( 1  0  0)
  ( 0  1  0)
  ( 0  0  1)

144 k-points: 6 x 6 x 4 Monkhorst-Pack grid
144 k-points in the irreducible part of the Brillouin zone
       k-points in crystal coordinates                weights
   0:    -0.41666667   -0.41666667   -0.37500000          1/144
   1:    -0.41666667   -0.41666667   -0.12500000          1/144
   2:    -0.41666667   -0.41666667    0.12500000          1/144
   3:    -0.41666667   -0.41666667    0.37500000          1/144
   4:    -0.41666667   -0.25000000   -0.37500000          1/144
   5:    -0.41666667   -0.25000000   -0.12500000          1/144
   6:    -0.41666667   -0.25000000    0.12500000          1/144
   7:    -0.41666667   -0.25000000    0.37500000          1/144
   8:    -0.41666667   -0.08333333   -0.37500000          1/144
   9:    -0.41666667   -0.08333333   -0.12500000          1/144
          ...
 143:     0.41666667    0.41666667    0.37500000          1/144

Wave functions: Plane wave expansion
  Cutoff energy: 600.000 eV
  Number of coefficients (min, max): 9132, 9161
  Pulay-stress correction: 0.000000 eV/Ang^3 (de/decut=0.000000)
  Using FFTW library
  ScaLapack parameters: grid=1x1, blocksize=None
  Wavefunction extrapolation:
    Improved wavefunction reuse through dual PAW basis 

  Fermi-Dirac: width=0.0010 eV

Eigensolver
   Davidson(niter=2, smin=None, normalize=True) 

Densities:
  Coarse grid: 60*35*27 grid
  Fine grid: 120*70*54 grid
  Total Charge: 0.000000 

Density mixing:
  Method: difference
  Backend: pulay
  Linear mixing parameter: 0.05
  Mixing with 5 old densities
  Damping of long wave oscillations: 50 

Hamiltonian:
  XC and Coulomb potentials evaluated on a 120*70*54 grid
  Using the LDA Exchange-Correlation functional
 

Memory estimate:
  Process memory now: 14034.46 MiB
  Calculator: 322.47 MiB
    Density: 9.62 MiB
      Arrays: 3.79 MiB
      Localized functions: 4.27 MiB
      Mixer: 1.56 MiB
    Hamiltonian: 2.94 MiB
      Arrays: 2.82 MiB
      XC: 0.00 MiB
      Poisson: 0.00 MiB
      vbar: 0.12 MiB
    Wavefunctions: 309.91 MiB
      Arrays psit_nG: 281.81 MiB
      Eigensolver: 18.27 MiB
      Projections: 2.71 MiB
      Projectors: 4.40 MiB
      PW-descriptor: 2.71 MiB

Total number of cores used: 64
Parallelization over k-points: 16
Domain decomposition: 2 x 2 x 1

Number of atoms: 28
Number of atomic orbitals: 148
Number of bands in calculation: 112
Number of valence electrons: 180
Bands to converge: occupied

... initialized

Initializing position-dependent things.

Density initialized from atomic densities
Creating initial wave functions:
  112 bands from LCAO basis set

                                           
                                           
                                           
                                           
                                           
               O     O  P  O               
            PO           OMn     O         
                  O          MO            
            O        Li O                  
             Mn  Mn          OP            
         O       O Li O                    
         Li     O P         O              
       Li                                  
                                           
                                           
                                           
                                           

Positions:
   0 O     -1.280122   -2.495595   -1.112331    ( 0.0000,  0.0000,  0.0000)
   1 O     -3.023238    2.918858    1.191723    ( 0.0000,  0.0000,  0.0000)
   2 O      1.997451    0.467212    1.441442    ( 0.0000,  0.0000,  0.0000)
   3 O      3.740343   -0.043905   -0.862614    ( 0.0000,  0.0000,  0.0000)
   4 O      1.997419    2.918835    1.441465    ( 0.0000,  0.0000,  0.0000)
   5 O      3.740372   -2.495531   -0.862587    ( 0.0000,  0.0000,  0.0000)
   6 O     -1.280154   -0.043891   -1.112309    ( 0.0000,  0.0000,  0.0000)
   7 O     -3.023210    0.467136    1.191750    ( 0.0000,  0.0000,  0.0000)
   8 O     -4.147405   -1.269737   -0.856207    ( 0.0000,  0.0000,  0.0000)
   9 O     -0.155894    1.692986    1.447725    ( 0.0000,  0.0000,  0.0000)
  10 O      4.864578    1.693016    1.185324    ( 0.0000,  0.0000,  0.0000)
  11 O      0.873163   -1.269706   -1.118625    ( 0.0000,  0.0000,  0.0000)
  12 Mn    -2.437108   -1.269902    0.302197    ( 0.0000,  0.0000,  1.0000)
  13 Mn    -1.866187    1.693156   -2.001927    ( 0.0000,  0.0000, -1.0000)
  14 Mn     3.154299    1.693181    0.026917    ( 0.0000,  0.0000, -1.0000)
  15 Mn     2.583444   -1.269877    2.331074    ( 0.0000,  0.0000,  1.0000)
  16 P     -0.543052   -1.269720   -1.734187    ( 0.0000,  0.0000,  0.0000)
  17 P     -3.760282    1.692974    0.569859    ( 0.0000,  0.0000,  0.0000)
  18 P      1.260300    1.693000    2.063344    ( 0.0000,  0.0000,  0.0000)
  19 P      4.477470   -1.269695   -0.240696    ( 0.0000,  0.0000,  0.0000)
  20 O     -0.544413   -1.269738    1.348523    ( 0.0000,  0.0000,  0.0000)
  21 O     -3.758895    1.692992   -0.955558    ( 0.0000,  0.0000,  0.0000)
  22 O      1.261690    1.693018   -1.019367    ( 0.0000,  0.0000,  0.0000)
  23 O      4.476045   -1.269713    1.294716    ( 0.0000,  0.0000,  0.0000)
  24 Li    -4.662027   -2.751322   -2.139440    ( 0.0000,  0.0000,  0.0000)
  25 Li     0.358703   -2.751277    0.164614    ( 0.0000,  0.0000,  0.0000)
  26 Li    -4.662011    0.211617   -2.139439    ( 0.0000,  0.0000,  0.0000)
  27 Li     0.358720    0.211628    0.164615    ( 0.0000,  0.0000,  0.0000)

Unit cell:
           periodic     x           y           z      points  spacing
  1. axis:    yes   10.041096    0.000054   -0.000022    60     0.1674
  2. axis:    yes    0.000032    5.925857    0.000001    35     0.1693
  3. axis:    yes   -0.000010    0.000001    4.608134    27     0.1707

  Lengths:  10.041096   5.925857   4.608134
  Angles:   89.999974  90.000250  89.999381

Effective grid spacing dv^(1/3) = 0.1691

                     log10-error:           total        iterations:
           time      wfs    density  force  energy       poisson  magmom
iter:   1  01:54:42                       -233.738969             +0.0000
iter:   2  01:55:02  -0.47  -0.95         -231.555356             +0.0023
iter:   3  01:55:22  -0.61  -1.00         -220.803071             +0.0024
iter:   4  01:55:42  -1.18  -1.31         -220.811990             +0.3211
iter:   5  01:56:01  -2.12  -1.40         -223.180306             +0.1738
iter:   6  01:56:21  -2.33  -1.37         -222.884897             +0.0800
iter:   7  01:56:41  -2.05  -1.54         -222.751180             +0.0504
iter:   8  01:57:01  -2.23  -1.88         -225.861927             +0.0237
iter:   9  01:57:20  -2.11  -2.06         -226.387745             +0.0016
iter:  10  01:57:40  -2.30  -2.15         -226.396435             +0.0013
iter:  11  01:58:00  -3.08  -2.29         -226.330835             +0.0004
iter:  12  01:58:19  -2.69  -2.39         -226.193458             +0.0000
iter:  13  01:58:39  -3.01  -2.47         -226.179647             +0.0001
iter:  14  01:58:59  -4.39  -2.88         -226.176821             +0.0000
iter:  15  01:59:19  -4.60  -2.94         -226.175286             -0.0000
iter:  16  01:59:38  -4.32  -2.98         -226.175299             -0.0000
iter:  17  01:59:58  -5.04  -2.99         -226.174996             -0.0000
iter:  18  02:00:18  -4.98  -3.05         -226.175217             +0.0000
iter:  19  02:00:37  -4.99  -3.12         -226.175279             -0.0000
iter:  20  02:00:57  -5.70  -3.37         -226.174601             -0.0000
iter:  21  02:01:17  -4.64  -3.50         -226.173265             +0.0000
iter:  22  02:01:36  -5.46  -3.83         -226.173256             -0.0000
iter:  23  02:01:56  -6.33  -3.93         -226.173113             +0.0000
iter:  24  02:02:16  -5.61  -3.97         -226.173150             -0.0000
iter:  25  02:02:35  -6.45  -4.12         -226.173153             -0.0000
iter:  26  02:03:00  -7.54  -4.19         -226.173151             +0.0000
iter:  27  02:03:24  -7.42  -4.23    -2.17-226.173149             +0.0000
iter:  28  02:03:44  -6.97  -4.29         -226.173150             -0.0000
iter:  29  02:04:08  -7.59  -4.42    -2.25-226.173150             +0.0000
iter:  30  02:04:28  -6.83  -4.48         -226.173151             -0.0000
iter:  31  02:04:52  -7.62  -4.73    -2.33-226.173150             +0.0000
iter:  32  02:05:17  -8.52  -4.85    -3.06-226.173149             +0.0000
iter:  33  02:05:36  -7.34  -4.91         -226.173147             +0.0000
iter:  34  02:06:01  -8.07  -5.05    -2.58-226.173147             +0.0000
iter:  35  02:06:25  -9.08  -5.14    -3.46-226.173147             +0.0000
iter:  36  02:06:49  -8.81  -5.22    -3.11-226.173147             +0.0000
iter:  37  02:07:14  -8.64  -5.42    -3.17-226.173147             +0.0000
iter:  38  02:07:38  -9.30  -5.50    -3.46-226.173147             +0.0000
iter:  39  02:08:02  -9.03  -5.44    -3.22-226.173147             -0.0000
iter:  40  02:08:27  -9.69  -5.55    -3.81-226.173147             -0.0000
iter:  41  02:08:51  -9.56  -5.57    -3.73-226.173147             -0.0000
iter:  42  02:09:15 -10.37  -5.66    -3.71-226.173147             -0.0000
iter:  43  02:09:40 -10.03  -5.72    -3.77-226.173147             -0.0000
iter:  44  02:10:04  -9.69  -5.80    -3.64-226.173147             -0.0000
iter:  45  02:10:28  -9.50  -5.85    -3.89-226.173147             -0.0000
iter:  46  02:10:53 -10.60  -6.27    -4.88-226.173147             -0.0000
iter:  47  02:11:17 -10.28  -6.29    -4.10-226.173147             -0.0000
iter:  48  02:11:41 -10.74  -6.37    -4.23-226.173147             -0.0000
iter:  49  02:12:06 -11.96  -6.72    -5.01-226.173147             -0.0000
iter:  50  02:12:30 -11.29  -6.77    -4.59-226.173147             -0.0000
iter:  51  02:12:54 -11.48  -6.89    -4.81-226.173147             -0.0000
iter:  52  02:13:19 -12.56  -7.06    -5.30-226.173147             -0.0000
iter:  53  02:13:43 -11.93  -7.13    -4.78-226.173147             -0.0000
iter:  54  02:14:07 -12.24  -7.18    -5.06-226.173147             -0.0000
iter:  55  02:14:31 -13.49  -7.46    -5.70-226.173147             -0.0000
iter:  56  02:14:56 -13.80  -7.54    -5.77-226.173147             +0.0000
iter:  57  02:15:20 -13.34  -7.55    -5.73-226.173147             -0.0000
iter:  58  02:15:44 -13.05  -7.60    -5.68-226.173147             -0.0000
iter:  59  02:16:09 -13.51  -7.83    -5.96-226.173147             -0.0000
iter:  60  02:16:33 -13.84  -7.88    -5.85-226.173147             +0.0000
iter:  61  02:16:57 -14.13  -7.99    -6.00-226.173147             -0.0000
iter:  62  02:17:22 -14.86  -8.08    -6.34-226.173147             -0.0000

Converged after 62 iterations.

Dipole moment: (18.327480, -2.308073, -4.523951) |e|*Ang

Total magnetic moment: (0.000000, 0.000000, -0.000000)
Local magnetic moments:
   0 O  ( 0.000000,  0.000000, -0.001805)
   1 O  ( 0.000000,  0.000000,  0.001825)
   2 O  ( 0.000000,  0.000000,  0.001826)
   3 O  ( 0.000000,  0.000000, -0.001883)
   4 O  ( 0.000000,  0.000000,  0.001821)
   5 O  ( 0.000000,  0.000000, -0.001878)
   6 O  ( 0.000000,  0.000000, -0.001810)
   7 O  ( 0.000000,  0.000000,  0.001830)
   8 O  ( 0.000000,  0.000000,  0.031125)
   9 O  ( 0.000000,  0.000000, -0.031101)
  10 O  ( 0.000000,  0.000000, -0.031090)
  11 O  ( 0.000000,  0.000000,  0.030953)
  12 Mn ( 0.000000,  0.000000,  4.395801)
  13 Mn ( 0.000000,  0.000000, -4.395751)
  14 Mn ( 0.000000,  0.000000, -4.395780)
  15 Mn ( 0.000000,  0.000000,  4.395253)
  16 P  ( 0.000000,  0.000000,  0.000867)
  17 P  ( 0.000000,  0.000000, -0.000867)
  18 P  ( 0.000000,  0.000000, -0.000842)
  19 P  ( 0.000000,  0.000000,  0.000962)
  20 O  ( 0.000000,  0.000000,  0.028429)
  21 O  ( 0.000000,  0.000000, -0.028413)
  22 O  ( 0.000000,  0.000000, -0.028427)
  23 O  ( 0.000000,  0.000000,  0.028650)
  24 Li ( 0.000000,  0.000000,  0.000016)
  25 Li ( 0.000000,  0.000000,  0.000000)
  26 Li ( 0.000000,  0.000000,  0.000016)
  27 Li ( 0.000000,  0.000000,  0.000000)

Energy contributions relative to reference atoms: (reference = -196157.275402)

Kinetic:       +276.914072
Potential:     -240.404854
External:        +0.000000
XC:            -264.572712
Entropy (-ST):   -0.000000
Local:           +1.890347
--------------------------
Free energy:   -226.173147
Extrapolated:  -226.173147

Spin contamination: 9.455452 electrons
Showing only first 2 kpts
                      Up                     Down
 Kpt  Band  Eigenvalues  Occupancy  Eigenvalues  Occupancy
  0    88      6.53549    0.00694      6.53049    0.00694
  0    89      6.57220    0.00694      6.56399    0.00694
  0    90      8.42623    0.00000      8.42776    0.00000
  0    91      8.44820    0.00000      8.44990    0.00000

  1    88      6.57450    0.00694      6.56890    0.00694
  1    89      6.60397    0.00694      6.59591    0.00694
  1    90      8.38273    0.00000      8.38418    0.00000
  1    91      8.40512    0.00000      8.40698    0.00000


Fermi level: 7.56641

Gap: 1.692 eV
Transition (v -> c):
  (s=0, k=50, n=89, [-0.08, -0.42, 0.12]) -> (s=0, k=82, n=90, [0.08, -0.08, 0.12])
Writing to born-0.01-23z+.gpw (mode='all')

Timing:                              incl.     excl.
-----------------------------------------------------------
Hamiltonian:                         0.216     0.002   0.0% |
 Atomic:                             0.050     0.050   0.0% |
  XC Correction:                     0.000     0.000   0.0% |
 Calculate atomic Hamiltonians:      0.077     0.077   0.0% |
 Communicate:                        0.001     0.001   0.0% |
 Initialize Hamiltonian:             0.000     0.000   0.0% |
 Poisson:                            0.001     0.001   0.0% |
 XC 3D grid:                         0.085     0.085   0.0% |
LCAO initialization:                73.028     0.646   0.0% |
 LCAO eigensolver:                  19.922     0.002   0.0% |
  Calculate projections:             0.029     0.029   0.0% |
  DenseAtomicCorrection:             0.045     0.045   0.0% |
  Distribute overlap matrix:         0.009     0.009   0.0% |
  Orbital Layouts:                   0.430     0.430   0.0% |
  Potential matrix:                 19.321    19.321   0.6% |
  Sum over cells:                    0.088     0.088   0.0% |
 LCAO to grid:                      51.129    51.129   1.5% ||
 Set positions (LCAO WFS):           1.331     0.206   0.0% |
  Basic WFS set positions:           0.001     0.001   0.0% |
  Basis functions set positions:     0.000     0.000   0.0% |
  P tci:                             0.526     0.526   0.0% |
  ST tci:                            0.383     0.383   0.0% |
  mktci:                             0.214     0.214   0.0% |
PWDescriptor:                        0.023     0.023   0.0% |
SCF-cycle:                        1380.505     0.650   0.0% |
 Davidson:                        1159.093   354.738  10.5% |---|
  Apply H:                          80.545    78.242   2.3% ||
   HMM T:                            2.303     2.303   0.1% |
  Subspace diag:                   168.430     0.180   0.0% |
   calc_h_matrix:                  108.394    27.969   0.8% |
    Apply H:                        80.424    78.091   2.3% ||
     HMM T:                          2.334     2.334   0.1% |
   diagonalize:                      8.466     8.466   0.3% |
   rotate_psi:                      51.390    51.390   1.5% ||
  calc. matrices:                  346.359   189.543   5.6% |-|
   Apply H:                        156.816   152.525   4.5% |-|
    HMM T:                           4.292     4.292   0.1% |
  diagonalize:                      97.663    97.663   2.9% ||
  rotate_psi:                      111.358   111.358   3.3% ||
 Density:                           47.007     0.001   0.0% |
  Atomic density matrices:           0.941     0.941   0.0% |
  Mix:                               6.488     6.488   0.2% |
  Multipole moments:                 0.022     0.022   0.0% |
  Pseudo density:                   39.554    39.553   1.2% |
   Symmetrize density:               0.002     0.002   0.0% |
 Forces:                           158.473   158.473   4.7% |-|
 Hamiltonian:                       13.224     0.130   0.0% |
  Atomic:                            3.102     3.102   0.1% |
   XC Correction:                    0.000     0.000   0.0% |
  Calculate atomic Hamiltonians:     4.603     4.603   0.1% |
  Communicate:                       0.109     0.109   0.0% |
  Poisson:                           0.036     0.036   0.0% |
  XC 3D grid:                        5.244     5.244   0.2% |
 Orthonormalize:                     2.057     0.003   0.0% |
  calc_s_matrix:                     0.241     0.241   0.0% |
  inverse-cholesky:                  0.072     0.072   0.0% |
  projections:                       1.312     1.312   0.0% |
  rotate_psi_s:                      0.428     0.428   0.0% |
Set symmetry:                        0.000     0.000   0.0% |
Other:                            1932.732  1932.732  57.1% |----------------------|
-----------------------------------------------------------
Total:                                      3386.503 100.0%

Memory usage: 13.75 GiB
Date: Fri Mar 26 02:49:33 2021
