
  ___ ___ ___ _ _ _  
 |   |   |_  | | | | 
 | | | | | . | | | | 
 |__ |  _|___|_____|  20.10.1b1
 |___|_|             

User:   madkru@i008.nifl.fysik.dtu.dk
Date:   Wed Mar 24 12:43:04 2021
Arch:   x86_64
Pid:    26969
Python: 3.7.4
gpaw:   /home/niflheim/madkru/venv_folder/gpaw/gpaw (d224efde0f)
_gpaw:  /home/niflheim/madkru/venv_folder/gpaw/build/lib.linux-x86_64-ivybridge-3.7/
        _gpaw.cpython-37m-x86_64-linux-gnu.so (4fd39e8b1e)
ase:    /home/niflheim/madkru/venv_folder/ase/ase (version 3.21.0b1-4d5a73cb29)
numpy:  /home/niflheim/madkru/venv_folder/lib/python3.7/site-packages/numpy (version 1.19.4)
scipy:  /home/niflheim/madkru/venv_folder/lib/python3.7/site-packages/scipy (version 1.5.4)
libxc:  4.3.4
units:  Angstrom and eV
cores: 64
OMP_NUM_THREADS: 1

Input parameters:
  convergence: {bands: occupied,
                density: 0.0001,
                eigenstates: 4e-08,
                energy: 0.0005,
                forces: 1e-06}
  kpts: [6 6 4]
  mode: {ecut: 600.0,
         gammacentered: False,
         name: pw}
  occupations: {fixmagmom: False,
                name: fermi-dirac,
                width: 0.001}
  symmetry: {point_group: False,
             time_reversal: False}

System changes: positions, numbers, cell, pbc, initial_charges, initial_magmoms 

Initialize ...

O-setup:
  name: Oxygen
  id: 9b9d51c344dea68c822856295a461509
  Z: 8.0
  valence: 6
  core: 2
  charge: 0.0
  file: /home/modules/software/GPAW-setups/0.9.20000/O.LDA.gz
  compensation charges: gauss, rc=0.21, lmax=2
  cutoffs: 1.17(filt), 0.83(core),
  valence states:
                energy  radius
    2s(2.00)   -23.752   0.688
    2p(4.00)    -9.195   0.598
    *s           3.459   0.688
    *p          18.016   0.598
    *d           0.000   0.619

  Using partial waves for O as LCAO basis

Mn-setup:
  name: Manganese
  id: 0d715a8018be061a6e9ea6f2d364ac92
  Z: 25.0
  valence: 15
  core: 10
  charge: 0.0
  file: /home/modules/software/GPAW-setups/0.9.20000/Mn.LDA.gz
  compensation charges: gauss, rc=0.38, lmax=2
  cutoffs: 2.14(filt), 0.86(core),
  valence states:
                energy  radius
    3s(2.00)   -85.387   1.275
    4s(2.00)    -5.282   1.275
    3p(6.00)   -54.493   1.281
    4p(0.00)    -1.471   1.281
    3d(5.00)    -7.009   1.138
    *d          20.203   1.138

  Using partial waves for Mn as LCAO basis

P-setup:
  name: Phosphorus
  id: a5561c299094968922a179ab894d2e2d
  Z: 15.0
  valence: 5
  core: 10
  charge: 0.0
  file: /home/modules/software/GPAW-setups/0.9.20000/P.LDA.gz
  compensation charges: gauss, rc=0.30, lmax=2
  cutoffs: 1.69(filt), 1.81(core),
  valence states:
                energy  radius
    3s(2.00)   -14.015   0.953
    3p(3.00)    -5.596   0.953
    *s          13.197   0.953
    *p          21.615   0.953
    *d           0.000   0.953

  Using partial waves for P as LCAO basis

Li-setup:
  name: Lithium
  id: b73562207f97a71b6967473b66fe8b65
  Z: 3.0
  valence: 1
  core: 2
  charge: 0.0
  file: /home/modules/software/GPAW-setups/0.9.20000/Li.LDA.gz
  compensation charges: gauss, rc=0.33, lmax=2
  cutoffs: 1.91(filt), 2.55(core),
  valence states:
                energy  radius
    2s(1.00)    -2.874   1.058
    2p(0.00)    -1.126   1.058
    *s          24.338   1.058

  Using partial waves for Li as LCAO basis

Reference energy: -196157.275402

Spin-polarized calculation.
Magnetic moment: 0.000000

Convergence criteria:
  Maximum total energy change: 0.0005 eV / electron
  Maximum integral of absolute density change: 0.0001 electrons
  Maximum integral of absolute eigenstate change: 4e-08 eV^2
  Maximum change in atomic force: 1e-06 eV / Ang
  Maximum number of iterations: 333

Symmetries present (total): 1

  ( 1  0  0)
  ( 0  1  0)
  ( 0  0  1)

144 k-points: 6 x 6 x 4 Monkhorst-Pack grid
144 k-points in the irreducible part of the Brillouin zone
       k-points in crystal coordinates                weights
   0:    -0.41666667   -0.41666667   -0.37500000          1/144
   1:    -0.41666667   -0.41666667   -0.12500000          1/144
   2:    -0.41666667   -0.41666667    0.12500000          1/144
   3:    -0.41666667   -0.41666667    0.37500000          1/144
   4:    -0.41666667   -0.25000000   -0.37500000          1/144
   5:    -0.41666667   -0.25000000   -0.12500000          1/144
   6:    -0.41666667   -0.25000000    0.12500000          1/144
   7:    -0.41666667   -0.25000000    0.37500000          1/144
   8:    -0.41666667   -0.08333333   -0.37500000          1/144
   9:    -0.41666667   -0.08333333   -0.12500000          1/144
          ...
 143:     0.41666667    0.41666667    0.37500000          1/144

Wave functions: Plane wave expansion
  Cutoff energy: 600.000 eV
  Number of coefficients (min, max): 9132, 9161
  Pulay-stress correction: 0.000000 eV/Ang^3 (de/decut=0.000000)
  Using FFTW library
  ScaLapack parameters: grid=1x1, blocksize=None
  Wavefunction extrapolation:
    Improved wavefunction reuse through dual PAW basis 

  Fermi-Dirac: width=0.0010 eV

Eigensolver
   Davidson(niter=2, smin=None, normalize=True) 

Densities:
  Coarse grid: 60*35*27 grid
  Fine grid: 120*70*54 grid
  Total Charge: 0.000000 

Density mixing:
  Method: difference
  Backend: pulay
  Linear mixing parameter: 0.05
  Mixing with 5 old densities
  Damping of long wave oscillations: 50 

Hamiltonian:
  XC and Coulomb potentials evaluated on a 120*70*54 grid
  Using the LDA Exchange-Correlation functional
 

Memory estimate:
  Process memory now: 12235.84 MiB
  Calculator: 322.47 MiB
    Density: 9.62 MiB
      Arrays: 3.79 MiB
      Localized functions: 4.27 MiB
      Mixer: 1.56 MiB
    Hamiltonian: 2.94 MiB
      Arrays: 2.82 MiB
      XC: 0.00 MiB
      Poisson: 0.00 MiB
      vbar: 0.12 MiB
    Wavefunctions: 309.91 MiB
      Arrays psit_nG: 281.81 MiB
      Eigensolver: 18.27 MiB
      Projections: 2.71 MiB
      Projectors: 4.40 MiB
      PW-descriptor: 2.71 MiB

Total number of cores used: 64
Parallelization over k-points: 16
Domain decomposition: 2 x 2 x 1

Number of atoms: 28
Number of atomic orbitals: 148
Number of bands in calculation: 112
Number of valence electrons: 180
Bands to converge: occupied

... initialized

Initializing position-dependent things.

Density initialized from atomic densities
Creating initial wave functions:
  112 bands from LCAO basis set

                                           
                                           
                                           
                                           
                                           
               O     O  P  O               
            PO           OMn     O         
                  O          MO            
            O        Li O                  
             Mn  Mn          OP            
         O       O Li O                    
         Li     O P         O              
       Li                                  
                                           
                                           
                                           
                                           

Positions:
   0 O     -1.280122   -2.495595   -1.112331    ( 0.0000,  0.0000,  0.0000)
   1 O     -3.023238    2.918858    1.191723    ( 0.0000,  0.0000,  0.0000)
   2 O      1.997451    0.467212    1.441442    ( 0.0000,  0.0000,  0.0000)
   3 O      3.740343   -0.043905   -0.862614    ( 0.0000,  0.0000,  0.0000)
   4 O      1.997419    2.918835    1.441465    ( 0.0000,  0.0000,  0.0000)
   5 O      3.740372   -2.495531   -0.862587    ( 0.0000,  0.0000,  0.0000)
   6 O     -1.280154   -0.043891   -1.112309    ( 0.0000,  0.0000,  0.0000)
   7 O     -3.023210    0.467136    1.191750    ( 0.0000,  0.0000,  0.0000)
   8 O     -4.147405   -1.269737   -0.856207    ( 0.0000,  0.0000,  0.0000)
   9 O     -0.155894    1.692986    1.447725    ( 0.0000,  0.0000,  0.0000)
  10 O      4.864578    1.693016    1.185324    ( 0.0000,  0.0000,  0.0000)
  11 O      0.873163   -1.269706   -1.128625    ( 0.0000,  0.0000,  0.0000)
  12 Mn    -2.437108   -1.269902    0.302197    ( 0.0000,  0.0000,  1.0000)
  13 Mn    -1.866187    1.693156   -2.001927    ( 0.0000,  0.0000, -1.0000)
  14 Mn     3.154299    1.693181    0.026917    ( 0.0000,  0.0000, -1.0000)
  15 Mn     2.583444   -1.269877    2.331074    ( 0.0000,  0.0000,  1.0000)
  16 P     -0.543052   -1.269720   -1.734187    ( 0.0000,  0.0000,  0.0000)
  17 P     -3.760282    1.692974    0.569859    ( 0.0000,  0.0000,  0.0000)
  18 P      1.260300    1.693000    2.063344    ( 0.0000,  0.0000,  0.0000)
  19 P      4.477470   -1.269695   -0.240696    ( 0.0000,  0.0000,  0.0000)
  20 O     -0.544413   -1.269738    1.348523    ( 0.0000,  0.0000,  0.0000)
  21 O     -3.758895    1.692992   -0.955558    ( 0.0000,  0.0000,  0.0000)
  22 O      1.261690    1.693018   -1.019367    ( 0.0000,  0.0000,  0.0000)
  23 O      4.476045   -1.269713    1.284716    ( 0.0000,  0.0000,  0.0000)
  24 Li    -4.662027   -2.751322   -2.139440    ( 0.0000,  0.0000,  0.0000)
  25 Li     0.358703   -2.751277    0.164614    ( 0.0000,  0.0000,  0.0000)
  26 Li    -4.662011    0.211617   -2.139439    ( 0.0000,  0.0000,  0.0000)
  27 Li     0.358720    0.211628    0.164615    ( 0.0000,  0.0000,  0.0000)

Unit cell:
           periodic     x           y           z      points  spacing
  1. axis:    yes   10.041096    0.000054   -0.000022    60     0.1674
  2. axis:    yes    0.000032    5.925857    0.000001    35     0.1693
  3. axis:    yes   -0.000010    0.000001    4.608134    27     0.1707

  Lengths:  10.041096   5.925857   4.608134
  Angles:   89.999974  90.000250  89.999381

Effective grid spacing dv^(1/3) = 0.1691

                     log10-error:           total        iterations:
           time      wfs    density  force  energy       poisson  magmom
iter:   1  12:44:38                       -233.728499             +0.0000
iter:   2  12:44:58  -0.47  -0.95         -231.549823             +0.0015
iter:   3  12:45:18  -0.61  -1.00         -220.802804             +0.0016
iter:   4  12:45:38  -1.17  -1.31         -220.732166             +0.2022
iter:   5  12:45:57  -2.11  -1.41         -222.601839             +0.0721
iter:   6  12:46:17  -2.09  -1.40         -223.361781             +0.3507
iter:   7  12:46:37  -2.03  -1.52         -224.121698             +0.1843
iter:   8  12:46:57  -2.47  -1.68         -225.183781             -1.0779
iter:   9  12:47:16  -2.59  -1.90         -226.250894             -0.4831
iter:  10  12:47:36  -1.90  -1.94         -226.297658             -0.0154
iter:  11  12:47:56  -2.37  -2.19         -226.345098             -0.0266
iter:  12  12:48:16  -2.87  -2.27         -226.218773             -0.0107
iter:  13  12:48:35  -3.53  -2.60         -226.197308             -0.0055
iter:  14  12:48:55  -3.18  -2.77         -226.178196             +0.0011
iter:  15  12:49:15  -3.77  -3.01         -226.178354             -0.0002
iter:  16  12:49:35  -4.56  -3.29         -226.177385             +0.0005
iter:  17  12:49:54  -4.97  -3.37         -226.175772             -0.0000
iter:  18  12:50:14  -5.33  -3.43         -226.175269             -0.0000
iter:  19  12:50:34  -4.72  -3.45         -226.174871             -0.0000
iter:  20  12:50:53  -5.72  -3.62         -226.174906             -0.0000
iter:  21  12:51:13  -4.68  -3.64         -226.175373             -0.0000
iter:  22  12:51:33  -5.53  -3.83         -226.174855             -0.0000
iter:  23  12:51:53  -5.08  -3.98         -226.174888             -0.0000
iter:  24  12:52:12  -5.70  -4.06         -226.174751             -0.0000
iter:  25  12:52:32  -6.54  -4.41         -226.174760             -0.0000
iter:  26  12:52:56  -7.50  -4.48         -226.174753             +0.0000
iter:  27  12:53:21  -7.74  -4.61    -2.56-226.174754             +0.0000
iter:  28  12:53:45  -7.64  -4.69    -2.75-226.174750             +0.0000
iter:  29  12:54:05  -7.19  -4.73         -226.174748             +0.0000
iter:  30  12:54:29  -7.94  -4.86    -2.56-226.174748             +0.0000
iter:  31  12:54:54  -7.91  -4.94    -2.64-226.174748             +0.0000
iter:  32  12:55:18  -8.62  -5.09    -2.86-226.174748             +0.0000
iter:  33  12:55:43  -8.75  -5.18    -3.52-226.174748             -0.0000
iter:  34  12:56:07  -8.69  -5.22    -3.21-226.174748             -0.0000
iter:  35  12:56:31  -9.25  -5.27    -3.76-226.174748             -0.0000
iter:  36  12:56:56  -9.20  -5.31    -3.56-226.174748             -0.0000
iter:  37  12:57:20  -8.78  -5.37    -3.11-226.174748             -0.0000
iter:  38  12:57:45  -9.03  -5.80    -3.64-226.174748             -0.0000
iter:  39  12:58:09 -10.46  -6.03    -4.18-226.174748             -0.0000
iter:  40  12:58:33  -9.57  -6.07    -3.49-226.174748             -0.0000
iter:  41  12:58:58  -9.97  -6.17    -4.02-226.174748             -0.0000
iter:  42  12:59:22 -10.88  -6.49    -4.67-226.174748             -0.0000
iter:  43  12:59:46 -11.46  -6.51    -4.48-226.174748             -0.0000
iter:  44  13:00:11 -11.20  -6.56    -4.40-226.174748             -0.0000
iter:  45  13:00:35 -11.56  -6.93    -5.01-226.174748             +0.0000
iter:  46  13:00:59 -12.88  -7.09    -5.60-226.174748             +0.0000
iter:  47  13:01:24 -11.70  -7.13    -4.79-226.174748             +0.0000
iter:  48  13:01:48 -12.41  -7.31    -5.31-226.174748             +0.0000
iter:  49  13:02:13 -13.00  -7.45    -5.44-226.174748             +0.0000
iter:  50  13:02:37 -12.88  -7.49    -5.37-226.174748             +0.0000
iter:  51  13:03:01 -13.65  -7.77    -5.84-226.174748             +0.0000
iter:  52  13:03:26 -13.67  -7.85    -5.67-226.174748             +0.0000
iter:  53  13:03:50 -14.37  -7.97    -6.05-226.174748             +0.0000

Converged after 53 iterations.

Dipole moment: (18.323913, -2.306252, -4.526386) |e|*Ang

Total magnetic moment: (0.000000, 0.000000, 0.000000)
Local magnetic moments:
   0 O  ( 0.000000,  0.000000, -0.001749)
   1 O  ( 0.000000,  0.000000,  0.001806)
   2 O  ( 0.000000,  0.000000,  0.001838)
   3 O  ( 0.000000,  0.000000, -0.001788)
   4 O  ( 0.000000,  0.000000,  0.001832)
   5 O  ( 0.000000,  0.000000, -0.001783)
   6 O  ( 0.000000,  0.000000, -0.001754)
   7 O  ( 0.000000,  0.000000,  0.001811)
   8 O  ( 0.000000,  0.000000,  0.031063)
   9 O  ( 0.000000,  0.000000, -0.031075)
  10 O  ( 0.000000,  0.000000, -0.031103)
  11 O  ( 0.000000,  0.000000,  0.031103)
  12 Mn ( 0.000000,  0.000000,  4.395895)
  13 Mn ( 0.000000,  0.000000, -4.395716)
  14 Mn ( 0.000000,  0.000000, -4.395703)
  15 Mn ( 0.000000,  0.000000,  4.395086)
  16 P  ( 0.000000,  0.000000,  0.000943)
  17 P  ( 0.000000,  0.000000, -0.000856)
  18 P  ( 0.000000,  0.000000, -0.000859)
  19 P  ( 0.000000,  0.000000,  0.000880)
  20 O  ( 0.000000,  0.000000,  0.028542)
  21 O  ( 0.000000,  0.000000, -0.028408)
  22 O  ( 0.000000,  0.000000, -0.028404)
  23 O  ( 0.000000,  0.000000,  0.028356)
  24 Li ( 0.000000,  0.000000,  0.000001)
  25 Li ( 0.000000,  0.000000, -0.000007)
  26 Li ( 0.000000,  0.000000,  0.000001)
  27 Li ( 0.000000,  0.000000, -0.000007)

Energy contributions relative to reference atoms: (reference = -196157.275402)

Kinetic:       +277.985202
Potential:     -241.250953
External:        +0.000000
XC:            -264.796122
Entropy (-ST):   -0.000000
Local:           +1.887126
--------------------------
Free energy:   -226.174748
Extrapolated:  -226.174748

Spin contamination: 9.455065 electrons
Showing only first 2 kpts
                      Up                     Down
 Kpt  Band  Eigenvalues  Occupancy  Eigenvalues  Occupancy
  0    88      6.53676    0.00694      6.53128    0.00694
  0    89      6.57081    0.00694      6.56490    0.00694
  0    90      8.42762    0.00000      8.42902    0.00000
  0    91      8.44924    0.00000      8.45070    0.00000

  1    88      6.57511    0.00694      6.56963    0.00694
  1    89      6.60282    0.00694      6.59678    0.00694
  1    90      8.38393    0.00000      8.38504    0.00000
  1    91      8.40612    0.00000      8.40717    0.00000


Fermi level: 7.57602

Gap: 1.693 eV
Transition (v -> c):
  (s=0, k=50, n=89, [-0.08, -0.42, 0.12]) -> (s=0, k=61, n=90, [-0.08, 0.08, -0.12])
Writing to born-0.01-11z-.gpw (mode='all')

Timing:                              incl.     excl.
-----------------------------------------------------------
Hamiltonian:                         0.211     0.002   0.0% |
 Atomic:                             0.049     0.049   0.0% |
  XC Correction:                     0.000     0.000   0.0% |
 Calculate atomic Hamiltonians:      0.074     0.074   0.0% |
 Communicate:                        0.002     0.002   0.0% |
 Initialize Hamiltonian:             0.000     0.000   0.0% |
 Poisson:                            0.001     0.001   0.0% |
 XC 3D grid:                         0.083     0.083   0.0% |
LCAO initialization:                68.620     0.647   0.0% |
 LCAO eigensolver:                  19.693     0.002   0.0% |
  Calculate projections:             0.029     0.029   0.0% |
  DenseAtomicCorrection:             0.045     0.045   0.0% |
  Distribute overlap matrix:         0.009     0.009   0.0% |
  Orbital Layouts:                   0.431     0.431   0.0% |
  Potential matrix:                 19.085    19.085   0.6% |
  Sum over cells:                    0.094     0.094   0.0% |
 LCAO to grid:                      46.952    46.952   1.4% ||
 Set positions (LCAO WFS):           1.328     0.193   0.0% |
  Basic WFS set positions:           0.001     0.001   0.0% |
  Basis functions set positions:     0.000     0.000   0.0% |
  P tci:                             0.530     0.530   0.0% |
  ST tci:                            0.385     0.385   0.0% |
  mktci:                             0.218     0.218   0.0% |
PWDescriptor:                        0.023     0.023   0.0% |
SCF-cycle:                        1175.779     3.821   0.1% |
 Davidson:                         992.869   303.179   9.3% |---|
  Apply H:                          68.632    66.650   2.1% ||
   HMM T:                            1.982     1.982   0.1% |
  Subspace diag:                   144.079     0.150   0.0% |
   calc_h_matrix:                   92.708    23.917   0.7% |
    Apply H:                        68.792    66.766   2.1% ||
     HMM T:                          2.026     2.026   0.1% |
   diagonalize:                      7.218     7.218   0.2% |
   rotate_psi:                      44.003    44.003   1.4% ||
  calc. matrices:                  297.745   162.203   5.0% |-|
   Apply H:                        135.541   131.736   4.1% |-|
    HMM T:                           3.805     3.805   0.1% |
  diagonalize:                      83.800    83.800   2.6% ||
  rotate_psi:                       95.435    95.435   2.9% ||
 Density:                           39.983     0.001   0.0% |
  Atomic density matrices:           0.791     0.791   0.0% |
  Mix:                               5.527     5.527   0.2% |
  Multipole moments:                 0.019     0.019   0.0% |
  Pseudo density:                   33.646    33.645   1.0% |
   Symmetrize density:               0.001     0.001   0.0% |
 Forces:                           125.817   125.817   3.9% |-|
 Hamiltonian:                       11.221     0.111   0.0% |
  Atomic:                            2.628     2.628   0.1% |
   XC Correction:                    0.000     0.000   0.0% |
  Calculate atomic Hamiltonians:     3.896     3.896   0.1% |
  Communicate:                       0.091     0.091   0.0% |
  Poisson:                           0.031     0.031   0.0% |
  XC 3D grid:                        4.463     4.463   0.1% |
 Orthonormalize:                     2.067     0.003   0.0% |
  calc_s_matrix:                     0.243     0.243   0.0% |
  inverse-cholesky:                  0.073     0.073   0.0% |
  projections:                       1.317     1.317   0.0% |
  rotate_psi_s:                      0.431     0.431   0.0% |
Set symmetry:                        0.000     0.000   0.0% |
Other:                            2003.848  2003.848  61.7% |------------------------|
-----------------------------------------------------------
Total:                                      3248.481 100.0%

Memory usage: 11.99 GiB
Date: Wed Mar 24 13:37:13 2021
