
  ___ ___ ___ _ _ _  
 |   |   |_  | | | | 
 | | | | | . | | | | 
 |__ |  _|___|_____|  20.10.1b1
 |___|_|             

User:   madkru@i008.nifl.fysik.dtu.dk
Date:   Thu Mar 25 15:31:30 2021
Arch:   x86_64
Pid:    26969
Python: 3.7.4
gpaw:   /home/niflheim/madkru/venv_folder/gpaw/gpaw (d224efde0f)
_gpaw:  /home/niflheim/madkru/venv_folder/gpaw/build/lib.linux-x86_64-ivybridge-3.7/
        _gpaw.cpython-37m-x86_64-linux-gnu.so (4fd39e8b1e)
ase:    /home/niflheim/madkru/venv_folder/ase/ase (version 3.21.0b1-4d5a73cb29)
numpy:  /home/niflheim/madkru/venv_folder/lib/python3.7/site-packages/numpy (version 1.19.4)
scipy:  /home/niflheim/madkru/venv_folder/lib/python3.7/site-packages/scipy (version 1.5.4)
libxc:  4.3.4
units:  Angstrom and eV
cores: 64
OMP_NUM_THREADS: 1

Input parameters:
  convergence: {bands: occupied,
                density: 0.0001,
                eigenstates: 4e-08,
                energy: 0.0005,
                forces: 1e-06}
  kpts: [6 6 4]
  mode: {ecut: 600.0,
         gammacentered: False,
         name: pw}
  occupations: {fixmagmom: False,
                name: fermi-dirac,
                width: 0.001}
  symmetry: {point_group: False,
             time_reversal: False}

System changes: positions, numbers, cell, pbc, initial_charges, initial_magmoms 

Initialize ...

O-setup:
  name: Oxygen
  id: 9b9d51c344dea68c822856295a461509
  Z: 8.0
  valence: 6
  core: 2
  charge: 0.0
  file: /home/modules/software/GPAW-setups/0.9.20000/O.LDA.gz
  compensation charges: gauss, rc=0.21, lmax=2
  cutoffs: 1.17(filt), 0.83(core),
  valence states:
                energy  radius
    2s(2.00)   -23.752   0.688
    2p(4.00)    -9.195   0.598
    *s           3.459   0.688
    *p          18.016   0.598
    *d           0.000   0.619

  Using partial waves for O as LCAO basis

Mn-setup:
  name: Manganese
  id: 0d715a8018be061a6e9ea6f2d364ac92
  Z: 25.0
  valence: 15
  core: 10
  charge: 0.0
  file: /home/modules/software/GPAW-setups/0.9.20000/Mn.LDA.gz
  compensation charges: gauss, rc=0.38, lmax=2
  cutoffs: 2.14(filt), 0.86(core),
  valence states:
                energy  radius
    3s(2.00)   -85.387   1.275
    4s(2.00)    -5.282   1.275
    3p(6.00)   -54.493   1.281
    4p(0.00)    -1.471   1.281
    3d(5.00)    -7.009   1.138
    *d          20.203   1.138

  Using partial waves for Mn as LCAO basis

P-setup:
  name: Phosphorus
  id: a5561c299094968922a179ab894d2e2d
  Z: 15.0
  valence: 5
  core: 10
  charge: 0.0
  file: /home/modules/software/GPAW-setups/0.9.20000/P.LDA.gz
  compensation charges: gauss, rc=0.30, lmax=2
  cutoffs: 1.69(filt), 1.81(core),
  valence states:
                energy  radius
    3s(2.00)   -14.015   0.953
    3p(3.00)    -5.596   0.953
    *s          13.197   0.953
    *p          21.615   0.953
    *d           0.000   0.953

  Using partial waves for P as LCAO basis

Li-setup:
  name: Lithium
  id: b73562207f97a71b6967473b66fe8b65
  Z: 3.0
  valence: 1
  core: 2
  charge: 0.0
  file: /home/modules/software/GPAW-setups/0.9.20000/Li.LDA.gz
  compensation charges: gauss, rc=0.33, lmax=2
  cutoffs: 1.91(filt), 2.55(core),
  valence states:
                energy  radius
    2s(1.00)    -2.874   1.058
    2p(0.00)    -1.126   1.058
    *s          24.338   1.058

  Using partial waves for Li as LCAO basis

Reference energy: -196157.275402

Spin-polarized calculation.
Magnetic moment: 0.000000

Convergence criteria:
  Maximum total energy change: 0.0005 eV / electron
  Maximum integral of absolute density change: 0.0001 electrons
  Maximum integral of absolute eigenstate change: 4e-08 eV^2
  Maximum change in atomic force: 1e-06 eV / Ang
  Maximum number of iterations: 333

Symmetries present (total): 1

  ( 1  0  0)
  ( 0  1  0)
  ( 0  0  1)

144 k-points: 6 x 6 x 4 Monkhorst-Pack grid
144 k-points in the irreducible part of the Brillouin zone
       k-points in crystal coordinates                weights
   0:    -0.41666667   -0.41666667   -0.37500000          1/144
   1:    -0.41666667   -0.41666667   -0.12500000          1/144
   2:    -0.41666667   -0.41666667    0.12500000          1/144
   3:    -0.41666667   -0.41666667    0.37500000          1/144
   4:    -0.41666667   -0.25000000   -0.37500000          1/144
   5:    -0.41666667   -0.25000000   -0.12500000          1/144
   6:    -0.41666667   -0.25000000    0.12500000          1/144
   7:    -0.41666667   -0.25000000    0.37500000          1/144
   8:    -0.41666667   -0.08333333   -0.37500000          1/144
   9:    -0.41666667   -0.08333333   -0.12500000          1/144
          ...
 143:     0.41666667    0.41666667    0.37500000          1/144

Wave functions: Plane wave expansion
  Cutoff energy: 600.000 eV
  Number of coefficients (min, max): 9132, 9161
  Pulay-stress correction: 0.000000 eV/Ang^3 (de/decut=0.000000)
  Using FFTW library
  ScaLapack parameters: grid=1x1, blocksize=None
  Wavefunction extrapolation:
    Improved wavefunction reuse through dual PAW basis 

  Fermi-Dirac: width=0.0010 eV

Eigensolver
   Davidson(niter=2, smin=None, normalize=True) 

Densities:
  Coarse grid: 60*35*27 grid
  Fine grid: 120*70*54 grid
  Total Charge: 0.000000 

Density mixing:
  Method: difference
  Backend: pulay
  Linear mixing parameter: 0.05
  Mixing with 5 old densities
  Damping of long wave oscillations: 50 

Hamiltonian:
  XC and Coulomb potentials evaluated on a 120*70*54 grid
  Using the LDA Exchange-Correlation functional
 

Memory estimate:
  Process memory now: 13527.95 MiB
  Calculator: 322.47 MiB
    Density: 9.62 MiB
      Arrays: 3.79 MiB
      Localized functions: 4.27 MiB
      Mixer: 1.56 MiB
    Hamiltonian: 2.94 MiB
      Arrays: 2.82 MiB
      XC: 0.00 MiB
      Poisson: 0.00 MiB
      vbar: 0.12 MiB
    Wavefunctions: 309.91 MiB
      Arrays psit_nG: 281.81 MiB
      Eigensolver: 18.27 MiB
      Projections: 2.71 MiB
      Projectors: 4.40 MiB
      PW-descriptor: 2.71 MiB

Total number of cores used: 64
Parallelization over k-points: 16
Domain decomposition: 2 x 2 x 1

Number of atoms: 28
Number of atomic orbitals: 148
Number of bands in calculation: 112
Number of valence electrons: 180
Bands to converge: occupied

... initialized

Initializing position-dependent things.

Density initialized from atomic densities
Creating initial wave functions:
  112 bands from LCAO basis set

                                           
                                           
                                           
                                           
                                           
               O     O  P  O               
            PO           OMn     O         
                  O          MO            
            O        Li O                  
             Mn  Mn          OP            
         O       O Li O                    
         Li     O P         O              
       Li                                  
                                           
                                           
                                           
                                           

Positions:
   0 O     -1.280122   -2.495595   -1.112331    ( 0.0000,  0.0000,  0.0000)
   1 O     -3.023238    2.918858    1.191723    ( 0.0000,  0.0000,  0.0000)
   2 O      1.997451    0.467212    1.441442    ( 0.0000,  0.0000,  0.0000)
   3 O      3.740343   -0.043905   -0.862614    ( 0.0000,  0.0000,  0.0000)
   4 O      1.997419    2.918835    1.441465    ( 0.0000,  0.0000,  0.0000)
   5 O      3.740372   -2.495531   -0.862587    ( 0.0000,  0.0000,  0.0000)
   6 O     -1.280154   -0.043891   -1.112309    ( 0.0000,  0.0000,  0.0000)
   7 O     -3.023210    0.467136    1.191750    ( 0.0000,  0.0000,  0.0000)
   8 O     -4.147405   -1.269737   -0.856207    ( 0.0000,  0.0000,  0.0000)
   9 O     -0.155894    1.692986    1.447725    ( 0.0000,  0.0000,  0.0000)
  10 O      4.864578    1.693016    1.185324    ( 0.0000,  0.0000,  0.0000)
  11 O      0.873163   -1.269706   -1.118625    ( 0.0000,  0.0000,  0.0000)
  12 Mn    -2.437108   -1.269902    0.302197    ( 0.0000,  0.0000,  1.0000)
  13 Mn    -1.866187    1.693156   -2.001927    ( 0.0000,  0.0000, -1.0000)
  14 Mn     3.154299    1.693181    0.026917    ( 0.0000,  0.0000, -1.0000)
  15 Mn     2.583444   -1.269877    2.331074    ( 0.0000,  0.0000,  1.0000)
  16 P     -0.543052   -1.269720   -1.734187    ( 0.0000,  0.0000,  0.0000)
  17 P     -3.760282    1.692974    0.569859    ( 0.0000,  0.0000,  0.0000)
  18 P      1.260300    1.693000    2.063344    ( 0.0000,  0.0000,  0.0000)
  19 P      4.477470   -1.269695   -0.240696    ( 0.0000,  0.0000,  0.0000)
  20 O     -0.544413   -1.259738    1.348523    ( 0.0000,  0.0000,  0.0000)
  21 O     -3.758895    1.692992   -0.955558    ( 0.0000,  0.0000,  0.0000)
  22 O      1.261690    1.693018   -1.019367    ( 0.0000,  0.0000,  0.0000)
  23 O      4.476045   -1.269713    1.284716    ( 0.0000,  0.0000,  0.0000)
  24 Li    -4.662027   -2.751322   -2.139440    ( 0.0000,  0.0000,  0.0000)
  25 Li     0.358703   -2.751277    0.164614    ( 0.0000,  0.0000,  0.0000)
  26 Li    -4.662011    0.211617   -2.139439    ( 0.0000,  0.0000,  0.0000)
  27 Li     0.358720    0.211628    0.164615    ( 0.0000,  0.0000,  0.0000)

Unit cell:
           periodic     x           y           z      points  spacing
  1. axis:    yes   10.041096    0.000054   -0.000022    60     0.1674
  2. axis:    yes    0.000032    5.925857    0.000001    35     0.1693
  3. axis:    yes   -0.000010    0.000001    4.608134    27     0.1707

  Lengths:  10.041096   5.925857   4.608134
  Angles:   89.999974  90.000250  89.999381

Effective grid spacing dv^(1/3) = 0.1691

                     log10-error:           total        iterations:
           time      wfs    density  force  energy       poisson  magmom
iter:   1  15:33:03                       -233.730158             +0.0000
iter:   2  15:33:23  -0.47  -0.95         -231.549857             +0.0020
iter:   3  15:33:43  -0.61  -1.00         -220.803092             +0.0021
iter:   4  15:34:02  -1.19  -1.31         -220.897658             +0.3150
iter:   5  15:34:22  -2.12  -1.40         -222.885225             +0.1696
iter:   6  15:34:42  -2.19  -1.38         -223.663948             +0.2163
iter:   7  15:35:02  -2.17  -1.53         -223.835692             -0.2042
iter:   8  15:35:21  -2.48  -1.67         -225.590395             -0.5374
iter:   9  15:35:41  -2.36  -1.90         -226.443637             -0.2093
iter:  10  15:36:01  -2.23  -2.00         -226.317752             -0.0566
iter:  11  15:36:20  -2.82  -2.12         -226.298750             -0.0283
iter:  12  15:36:40  -2.61  -2.17         -226.245131             -0.0083
iter:  13  15:36:59  -2.87  -2.48         -226.213413             -0.0062
iter:  14  15:37:19  -2.96  -2.79         -226.187878             -0.0023
iter:  15  15:37:39  -3.44  -2.90         -226.179862             -0.0010
iter:  16  15:37:58  -4.24  -3.20         -226.179839             -0.0004
iter:  17  15:38:18  -3.97  -3.28         -226.175737             -0.0000
iter:  18  15:38:38  -5.17  -3.43         -226.175256             -0.0001
iter:  19  15:38:57  -4.56  -3.51         -226.176399             -0.0000
iter:  20  15:39:17  -5.23  -3.66         -226.175387             -0.0000
iter:  21  15:39:37  -5.38  -3.76         -226.175128             -0.0000
iter:  22  15:39:56  -6.45  -3.86         -226.175129             -0.0000
iter:  23  15:40:16  -6.75  -3.89         -226.175138             -0.0000
iter:  24  15:40:35  -6.09  -4.02         -226.175104             +0.0000
iter:  25  15:40:55  -6.44  -4.07         -226.175098             -0.0000
iter:  26  15:41:15  -6.75  -4.16         -226.175098             -0.0000
iter:  27  15:41:34  -7.06  -4.20         -226.175098             -0.0000
iter:  28  15:41:54  -6.95  -4.24         -226.175096             -0.0000
iter:  29  15:42:14  -6.86  -4.41         -226.175086             -0.0000
iter:  30  15:42:33  -6.63  -4.43         -226.175092             -0.0000
iter:  31  15:42:53  -7.38  -4.52         -226.175086             -0.0000
iter:  32  15:43:13  -7.38  -4.63         -226.175085             -0.0000
iter:  33  15:43:37  -8.40  -4.71         -226.175085             +0.0000
iter:  34  15:44:01  -8.34  -4.79    -3.04-226.175085             +0.0000
iter:  35  15:44:21  -7.33  -4.85         -226.175087             +0.0000
iter:  36  15:44:45  -8.37  -5.12    -2.18-226.175086             +0.0000
iter:  37  15:45:10  -7.56  -5.21    -2.85-226.175084             +0.0000
iter:  38  15:45:34  -8.57  -5.38    -2.93-226.175084             +0.0000
iter:  39  15:45:58  -9.06  -5.48    -3.22-226.175084             +0.0000
iter:  40  15:46:22  -9.16  -5.59    -3.49-226.175084             +0.0000
iter:  41  15:46:47  -9.84  -5.79    -3.63-226.175084             +0.0000
iter:  42  15:47:11  -9.43  -5.83    -3.58-226.175084             +0.0000
iter:  43  15:47:35 -10.58  -6.07    -4.06-226.175084             +0.0000
iter:  44  15:48:00 -10.90  -6.29    -4.26-226.175084             -0.0000
iter:  45  15:48:24 -11.12  -6.36    -4.32-226.175084             -0.0000
iter:  46  15:48:48 -11.06  -6.50    -4.53-226.175084             -0.0000
iter:  47  15:49:13 -10.99  -6.63    -4.50-226.175084             -0.0000
iter:  48  15:49:37 -11.38  -6.74    -4.64-226.175084             -0.0000
iter:  49  15:50:01 -12.03  -6.85    -5.21-226.175084             -0.0000
iter:  50  15:50:26 -12.14  -6.89    -4.90-226.175084             -0.0000
iter:  51  15:50:50 -12.71  -7.11    -5.21-226.175084             -0.0000
iter:  52  15:51:14 -12.73  -7.22    -4.99-226.175084             -0.0000
iter:  53  15:51:39 -13.53  -7.36    -5.61-226.175084             -0.0000
iter:  54  15:52:03 -12.35  -7.43    -5.27-226.175084             +0.0000
iter:  55  15:52:27 -13.38  -7.70    -5.78-226.175084             +0.0000
iter:  56  15:52:52 -13.83  -7.73    -5.84-226.175084             +0.0000
iter:  57  15:53:16 -13.51  -7.76    -5.55-226.175084             +0.0000
iter:  58  15:53:40 -14.09  -7.85    -6.04-226.175084             -0.0000

Converged after 58 iterations.

Dipole moment: (18.327156, -2.305875, -4.524268) |e|*Ang

Total magnetic moment: (0.000000, 0.000000, -0.000000)
Local magnetic moments:
   0 O  ( 0.000000,  0.000000, -0.001841)
   1 O  ( 0.000000,  0.000000,  0.001790)
   2 O  ( 0.000000,  0.000000,  0.001802)
   3 O  ( 0.000000,  0.000000, -0.001810)
   4 O  ( 0.000000,  0.000000,  0.001813)
   5 O  ( 0.000000,  0.000000, -0.001803)
   6 O  ( 0.000000,  0.000000, -0.001781)
   7 O  ( 0.000000,  0.000000,  0.001832)
   8 O  ( 0.000000,  0.000000,  0.031098)
   9 O  ( 0.000000,  0.000000, -0.031097)
  10 O  ( 0.000000,  0.000000, -0.031096)
  11 O  ( 0.000000,  0.000000,  0.031095)
  12 Mn ( 0.000000,  0.000000,  4.395762)
  13 Mn ( 0.000000,  0.000000, -4.395783)
  14 Mn ( 0.000000,  0.000000, -4.395737)
  15 Mn ( 0.000000,  0.000000,  4.395752)
  16 P  ( 0.000000,  0.000000,  0.000865)
  17 P  ( 0.000000,  0.000000, -0.000864)
  18 P  ( 0.000000,  0.000000, -0.000871)
  19 P  ( 0.000000,  0.000000,  0.000870)
  20 O  ( 0.000000,  0.000000,  0.028419)
  21 O  ( 0.000000,  0.000000, -0.028416)
  22 O  ( 0.000000,  0.000000, -0.028420)
  23 O  ( 0.000000,  0.000000,  0.028419)
  24 Li ( 0.000000,  0.000000,  0.000000)
  25 Li ( 0.000000,  0.000000, -0.000006)
  26 Li ( 0.000000,  0.000000, -0.000000)
  27 Li ( 0.000000,  0.000000,  0.000006)

Energy contributions relative to reference atoms: (reference = -196157.275402)

Kinetic:       +277.621966
Potential:     -240.964847
External:        +0.000000
XC:            -264.720659
Entropy (-ST):   -0.000000
Local:           +1.888456
--------------------------
Free energy:   -226.175084
Extrapolated:  -226.175084

Spin contamination: 9.455314 electrons
Showing only first 2 kpts
                      Up                     Down
 Kpt  Band  Eigenvalues  Occupancy  Eigenvalues  Occupancy
  0    88      6.53044    0.00694      6.53046    0.00694
  0    89      6.56399    0.00694      6.56412    0.00694
  0    90      8.42678    0.00000      8.42674    0.00000
  0    91      8.44832    0.00000      8.44833    0.00000

  1    88      6.56891    0.00694      6.56891    0.00694
  1    89      6.59587    0.00694      6.59605    0.00694
  1    90      8.38312    0.00000      8.38309    0.00000
  1    91      8.40522    0.00000      8.40521    0.00000


Fermi level: 7.60335

Gap: 1.699 eV
Transition (v -> c):
  (s=0, k=74, n=89, [0.08, -0.42, 0.12]) -> (s=0, k=85, n=90, [0.08, 0.08, -0.12])
Writing to born-0.01-20y+.gpw (mode='all')

Timing:                              incl.     excl.
-----------------------------------------------------------
Hamiltonian:                         0.213     0.002   0.0% |
 Atomic:                             0.051     0.051   0.0% |
  XC Correction:                     0.000     0.000   0.0% |
 Calculate atomic Hamiltonians:      0.074     0.074   0.0% |
 Communicate:                        0.002     0.002   0.0% |
 Initialize Hamiltonian:             0.000     0.000   0.0% |
 Poisson:                            0.001     0.001   0.0% |
 XC 3D grid:                         0.083     0.083   0.0% |
LCAO initialization:                71.126     0.645   0.0% |
 LCAO eigensolver:                  19.650     0.002   0.0% |
  Calculate projections:             0.029     0.029   0.0% |
  DenseAtomicCorrection:             0.045     0.045   0.0% |
  Distribute overlap matrix:         0.009     0.009   0.0% |
  Orbital Layouts:                   0.429     0.429   0.0% |
  Potential matrix:                 19.051    19.051   0.6% |
  Sum over cells:                    0.087     0.087   0.0% |
 LCAO to grid:                      49.527    49.527   1.5% ||
 Set positions (LCAO WFS):           1.303     0.191   0.0% |
  Basic WFS set positions:           0.001     0.001   0.0% |
  Basis functions set positions:     0.000     0.000   0.0% |
  P tci:                             0.518     0.518   0.0% |
  ST tci:                            0.380     0.380   0.0% |
  mktci:                             0.213     0.213   0.0% |
PWDescriptor:                        0.023     0.023   0.0% |
SCF-cycle:                        1257.988     1.204   0.0% |
 Davidson:                        1082.081   331.486   9.7% |---|
  Apply H:                          74.948    72.790   2.1% ||
   HMM T:                            2.159     2.159   0.1% |
  Subspace diag:                   156.920     0.164   0.0% |
   calc_h_matrix:                  100.784    26.156   0.8% |
    Apply H:                        74.629    72.450   2.1% ||
     HMM T:                          2.179     2.179   0.1% |
   diagonalize:                      7.934     7.934   0.2% |
   rotate_psi:                      48.038    48.038   1.4% ||
  calc. matrices:                  323.402   177.194   5.2% |-|
   Apply H:                        146.208   142.182   4.2% |-|
    HMM T:                           4.026     4.026   0.1% |
  diagonalize:                      91.224    91.224   2.7% ||
  rotate_psi:                      104.100   104.100   3.1% ||
 Density:                           43.472     0.001   0.0% |
  Atomic density matrices:           0.871     0.871   0.0% |
  Mix:                               6.014     6.014   0.2% |
  Multipole moments:                 0.021     0.021   0.0% |
  Pseudo density:                   36.564    36.562   1.1% |
   Symmetrize density:               0.002     0.002   0.0% |
 Forces:                           116.856   116.856   3.4% ||
 Hamiltonian:                       12.316     0.121   0.0% |
  Atomic:                            2.920     2.919   0.1% |
   XC Correction:                    0.000     0.000   0.0% |
  Calculate atomic Hamiltonians:     4.257     4.257   0.1% |
  Communicate:                       0.090     0.090   0.0% |
  Poisson:                           0.034     0.034   0.0% |
  XC 3D grid:                        4.895     4.895   0.1% |
 Orthonormalize:                     2.060     0.003   0.0% |
  calc_s_matrix:                     0.242     0.242   0.0% |
  inverse-cholesky:                  0.073     0.073   0.0% |
  projections:                       1.313     1.313   0.0% |
  rotate_psi_s:                      0.429     0.429   0.0% |
Set symmetry:                        0.000     0.000   0.0% |
Other:                            2081.569  2081.569  61.0% |-----------------------|
-----------------------------------------------------------
Total:                                      3410.920 100.0%

Memory usage: 13.25 GiB
Date: Thu Mar 25 16:28:21 2021
