
  ___ ___ ___ _ _ _  
 |   |   |_  | | | | 
 | | | | | . | | | | 
 |__ |  _|___|_____|  20.10.1b1
 |___|_|             

User:   madkru@i008.nifl.fysik.dtu.dk
Date:   Wed Mar 24 14:17:26 2021
Arch:   x86_64
Pid:    26969
Python: 3.7.4
gpaw:   /home/niflheim/madkru/venv_folder/gpaw/gpaw (d224efde0f)
_gpaw:  /home/niflheim/madkru/venv_folder/gpaw/build/lib.linux-x86_64-ivybridge-3.7/
        _gpaw.cpython-37m-x86_64-linux-gnu.so (4fd39e8b1e)
ase:    /home/niflheim/madkru/venv_folder/ase/ase (version 3.21.0b1-4d5a73cb29)
numpy:  /home/niflheim/madkru/venv_folder/lib/python3.7/site-packages/numpy (version 1.19.4)
scipy:  /home/niflheim/madkru/venv_folder/lib/python3.7/site-packages/scipy (version 1.5.4)
libxc:  4.3.4
units:  Angstrom and eV
cores: 64
OMP_NUM_THREADS: 1

Input parameters:
  convergence: {bands: occupied,
                density: 0.0001,
                eigenstates: 4e-08,
                energy: 0.0005,
                forces: 1e-06}
  kpts: [6 6 4]
  mode: {ecut: 600.0,
         gammacentered: False,
         name: pw}
  occupations: {fixmagmom: False,
                name: fermi-dirac,
                width: 0.001}
  symmetry: {point_group: False,
             time_reversal: False}

System changes: positions, numbers, cell, pbc, initial_charges, initial_magmoms 

Initialize ...

O-setup:
  name: Oxygen
  id: 9b9d51c344dea68c822856295a461509
  Z: 8.0
  valence: 6
  core: 2
  charge: 0.0
  file: /home/modules/software/GPAW-setups/0.9.20000/O.LDA.gz
  compensation charges: gauss, rc=0.21, lmax=2
  cutoffs: 1.17(filt), 0.83(core),
  valence states:
                energy  radius
    2s(2.00)   -23.752   0.688
    2p(4.00)    -9.195   0.598
    *s           3.459   0.688
    *p          18.016   0.598
    *d           0.000   0.619

  Using partial waves for O as LCAO basis

Mn-setup:
  name: Manganese
  id: 0d715a8018be061a6e9ea6f2d364ac92
  Z: 25.0
  valence: 15
  core: 10
  charge: 0.0
  file: /home/modules/software/GPAW-setups/0.9.20000/Mn.LDA.gz
  compensation charges: gauss, rc=0.38, lmax=2
  cutoffs: 2.14(filt), 0.86(core),
  valence states:
                energy  radius
    3s(2.00)   -85.387   1.275
    4s(2.00)    -5.282   1.275
    3p(6.00)   -54.493   1.281
    4p(0.00)    -1.471   1.281
    3d(5.00)    -7.009   1.138
    *d          20.203   1.138

  Using partial waves for Mn as LCAO basis

P-setup:
  name: Phosphorus
  id: a5561c299094968922a179ab894d2e2d
  Z: 15.0
  valence: 5
  core: 10
  charge: 0.0
  file: /home/modules/software/GPAW-setups/0.9.20000/P.LDA.gz
  compensation charges: gauss, rc=0.30, lmax=2
  cutoffs: 1.69(filt), 1.81(core),
  valence states:
                energy  radius
    3s(2.00)   -14.015   0.953
    3p(3.00)    -5.596   0.953
    *s          13.197   0.953
    *p          21.615   0.953
    *d           0.000   0.953

  Using partial waves for P as LCAO basis

Li-setup:
  name: Lithium
  id: b73562207f97a71b6967473b66fe8b65
  Z: 3.0
  valence: 1
  core: 2
  charge: 0.0
  file: /home/modules/software/GPAW-setups/0.9.20000/Li.LDA.gz
  compensation charges: gauss, rc=0.33, lmax=2
  cutoffs: 1.91(filt), 2.55(core),
  valence states:
                energy  radius
    2s(1.00)    -2.874   1.058
    2p(0.00)    -1.126   1.058
    *s          24.338   1.058

  Using partial waves for Li as LCAO basis

Reference energy: -196157.275402

Spin-polarized calculation.
Magnetic moment: 0.000000

Convergence criteria:
  Maximum total energy change: 0.0005 eV / electron
  Maximum integral of absolute density change: 0.0001 electrons
  Maximum integral of absolute eigenstate change: 4e-08 eV^2
  Maximum change in atomic force: 1e-06 eV / Ang
  Maximum number of iterations: 333

Symmetries present (total): 1

  ( 1  0  0)
  ( 0  1  0)
  ( 0  0  1)

144 k-points: 6 x 6 x 4 Monkhorst-Pack grid
144 k-points in the irreducible part of the Brillouin zone
       k-points in crystal coordinates                weights
   0:    -0.41666667   -0.41666667   -0.37500000          1/144
   1:    -0.41666667   -0.41666667   -0.12500000          1/144
   2:    -0.41666667   -0.41666667    0.12500000          1/144
   3:    -0.41666667   -0.41666667    0.37500000          1/144
   4:    -0.41666667   -0.25000000   -0.37500000          1/144
   5:    -0.41666667   -0.25000000   -0.12500000          1/144
   6:    -0.41666667   -0.25000000    0.12500000          1/144
   7:    -0.41666667   -0.25000000    0.37500000          1/144
   8:    -0.41666667   -0.08333333   -0.37500000          1/144
   9:    -0.41666667   -0.08333333   -0.12500000          1/144
          ...
 143:     0.41666667    0.41666667    0.37500000          1/144

Wave functions: Plane wave expansion
  Cutoff energy: 600.000 eV
  Number of coefficients (min, max): 9132, 9161
  Pulay-stress correction: 0.000000 eV/Ang^3 (de/decut=0.000000)
  Using FFTW library
  ScaLapack parameters: grid=1x1, blocksize=None
  Wavefunction extrapolation:
    Improved wavefunction reuse through dual PAW basis 

  Fermi-Dirac: width=0.0010 eV

Eigensolver
   Davidson(niter=2, smin=None, normalize=True) 

Densities:
  Coarse grid: 60*35*27 grid
  Fine grid: 120*70*54 grid
  Total Charge: 0.000000 

Density mixing:
  Method: difference
  Backend: pulay
  Linear mixing parameter: 0.05
  Mixing with 5 old densities
  Damping of long wave oscillations: 50 

Hamiltonian:
  XC and Coulomb potentials evaluated on a 120*70*54 grid
  Using the LDA Exchange-Correlation functional
 

Memory estimate:
  Process memory now: 12330.10 MiB
  Calculator: 322.47 MiB
    Density: 9.62 MiB
      Arrays: 3.79 MiB
      Localized functions: 4.27 MiB
      Mixer: 1.56 MiB
    Hamiltonian: 2.94 MiB
      Arrays: 2.82 MiB
      XC: 0.00 MiB
      Poisson: 0.00 MiB
      vbar: 0.12 MiB
    Wavefunctions: 309.91 MiB
      Arrays psit_nG: 281.81 MiB
      Eigensolver: 18.27 MiB
      Projections: 2.71 MiB
      Projectors: 4.40 MiB
      PW-descriptor: 2.71 MiB

Total number of cores used: 64
Parallelization over k-points: 16
Domain decomposition: 2 x 2 x 1

Number of atoms: 28
Number of atomic orbitals: 148
Number of bands in calculation: 112
Number of valence electrons: 180
Bands to converge: occupied

... initialized

Initializing position-dependent things.

Density initialized from atomic densities
Creating initial wave functions:
  112 bands from LCAO basis set

                                           
                                           
                                           
                                           
                                           
               O     O  P  O               
            PO           OMn     O         
                  O          MO            
            O        Li O                  
             Mn  Mn          OP            
         O       O Li O                    
         Li     O P         O              
       Li                                  
                                           
                                           
                                           
                                           

Positions:
   0 O     -1.280122   -2.495595   -1.112331    ( 0.0000,  0.0000,  0.0000)
   1 O     -3.023238    2.918858    1.191723    ( 0.0000,  0.0000,  0.0000)
   2 O      1.997451    0.467212    1.441442    ( 0.0000,  0.0000,  0.0000)
   3 O      3.740343   -0.043905   -0.862614    ( 0.0000,  0.0000,  0.0000)
   4 O      1.997419    2.918835    1.441465    ( 0.0000,  0.0000,  0.0000)
   5 O      3.740372   -2.495531   -0.862587    ( 0.0000,  0.0000,  0.0000)
   6 O     -1.280154   -0.043891   -1.112309    ( 0.0000,  0.0000,  0.0000)
   7 O     -3.023210    0.467136    1.191750    ( 0.0000,  0.0000,  0.0000)
   8 O     -4.147405   -1.269737   -0.856207    ( 0.0000,  0.0000,  0.0000)
   9 O     -0.155894    1.692986    1.447725    ( 0.0000,  0.0000,  0.0000)
  10 O      4.864578    1.693016    1.185324    ( 0.0000,  0.0000,  0.0000)
  11 O      0.873163   -1.269706   -1.118625    ( 0.0000,  0.0000,  0.0000)
  12 Mn    -2.427108   -1.269902    0.302197    ( 0.0000,  0.0000,  1.0000)
  13 Mn    -1.866187    1.693156   -2.001927    ( 0.0000,  0.0000, -1.0000)
  14 Mn     3.154299    1.693181    0.026917    ( 0.0000,  0.0000, -1.0000)
  15 Mn     2.583444   -1.269877    2.331074    ( 0.0000,  0.0000,  1.0000)
  16 P     -0.543052   -1.269720   -1.734187    ( 0.0000,  0.0000,  0.0000)
  17 P     -3.760282    1.692974    0.569859    ( 0.0000,  0.0000,  0.0000)
  18 P      1.260300    1.693000    2.063344    ( 0.0000,  0.0000,  0.0000)
  19 P      4.477470   -1.269695   -0.240696    ( 0.0000,  0.0000,  0.0000)
  20 O     -0.544413   -1.269738    1.348523    ( 0.0000,  0.0000,  0.0000)
  21 O     -3.758895    1.692992   -0.955558    ( 0.0000,  0.0000,  0.0000)
  22 O      1.261690    1.693018   -1.019367    ( 0.0000,  0.0000,  0.0000)
  23 O      4.476045   -1.269713    1.284716    ( 0.0000,  0.0000,  0.0000)
  24 Li    -4.662027   -2.751322   -2.139440    ( 0.0000,  0.0000,  0.0000)
  25 Li     0.358703   -2.751277    0.164614    ( 0.0000,  0.0000,  0.0000)
  26 Li    -4.662011    0.211617   -2.139439    ( 0.0000,  0.0000,  0.0000)
  27 Li     0.358720    0.211628    0.164615    ( 0.0000,  0.0000,  0.0000)

Unit cell:
           periodic     x           y           z      points  spacing
  1. axis:    yes   10.041096    0.000054   -0.000022    60     0.1674
  2. axis:    yes    0.000032    5.925857    0.000001    35     0.1693
  3. axis:    yes   -0.000010    0.000001    4.608134    27     0.1707

  Lengths:  10.041096   5.925857   4.608134
  Angles:   89.999974  90.000250  89.999381

Effective grid spacing dv^(1/3) = 0.1691

                     log10-error:           total        iterations:
           time      wfs    density  force  energy       poisson  magmom
iter:   1  14:19:02                       -233.734306             +0.0000
iter:   2  14:19:22  -0.47  -0.95         -231.545231             -0.0002
iter:   3  14:19:42  -0.60  -1.00         -220.818866             -0.0002
iter:   4  14:20:02  -1.21  -1.31         -221.284031             +0.4237
iter:   5  14:20:22  -2.15  -1.38         -222.532939             +0.2442
iter:   6  14:20:41  -2.21  -1.38         -224.190220             +0.0297
iter:   7  14:21:01  -2.16  -1.50         -224.198628             -0.6369
iter:   8  14:21:21  -2.53  -1.63         -225.694649             -1.1459
iter:   9  14:21:41  -2.29  -1.89         -226.415217             -0.2576
iter:  10  14:22:00  -2.12  -2.09         -226.263530             -0.0899
iter:  11  14:22:20  -2.92  -2.26         -226.277986             -0.0367
iter:  12  14:22:40  -2.07  -2.28         -226.409328             +0.0175
iter:  13  14:22:59  -2.57  -2.51         -226.205111             -0.0071
iter:  14  14:23:19  -3.08  -2.83         -226.207735             -0.0033
iter:  15  14:23:39  -3.40  -2.79         -226.178013             -0.0012
iter:  16  14:23:59  -4.12  -3.13         -226.176959             -0.0008
iter:  17  14:24:18  -4.07  -3.25         -226.175452             -0.0004
iter:  18  14:24:38  -5.00  -3.47         -226.175566             -0.0001
iter:  19  14:24:58  -5.35  -3.74         -226.175010             +0.0000
iter:  20  14:25:18  -6.02  -3.83         -226.174929             -0.0000
iter:  21  14:25:38  -5.76  -3.91         -226.174922             -0.0000
iter:  22  14:25:57  -6.40  -3.99         -226.174892             -0.0000
iter:  23  14:26:17  -6.21  -4.03         -226.174852             -0.0000
iter:  24  14:26:37  -6.79  -4.23         -226.174846             -0.0000
iter:  25  14:27:01  -7.58  -4.33         -226.174843             -0.0000
iter:  26  14:27:21  -6.55  -4.36         -226.174844             -0.0000
iter:  27  14:27:41  -7.25  -4.63         -226.174843             -0.0000
iter:  28  14:28:00  -7.12  -4.64         -226.174840             -0.0000
iter:  29  14:28:25  -8.07  -4.80    -1.90-226.174840             -0.0000
iter:  30  14:28:49  -8.10  -4.88    -3.20-226.174840             -0.0000
iter:  31  14:29:14  -8.58  -4.92    -3.38-226.174840             -0.0000
iter:  32  14:29:38  -8.57  -4.97    -2.90-226.174840             -0.0000
iter:  33  14:30:02  -9.03  -5.10    -3.43-226.174840             -0.0000
iter:  34  14:30:27  -8.39  -5.17    -3.20-226.174840             -0.0000
iter:  35  14:30:51  -9.63  -5.27    -3.78-226.174840             -0.0000
iter:  36  14:31:15  -8.77  -5.29    -3.02-226.174840             -0.0000
iter:  37  14:31:40  -9.12  -5.46    -3.42-226.174840             -0.0000
iter:  38  14:32:04  -9.43  -5.58    -3.54-226.174840             -0.0000
iter:  39  14:32:28  -9.41  -5.65    -3.81-226.174839             -0.0000
iter:  40  14:32:53  -9.82  -5.69    -3.77-226.174840             -0.0000
iter:  41  14:33:17  -9.08  -5.84    -3.57-226.174840             -0.0000
iter:  42  14:33:41  -9.91  -5.83    -3.81-226.174839             -0.0000
iter:  43  14:34:06  -9.98  -5.97    -4.02-226.174839             -0.0000
iter:  44  14:34:30  -9.61  -6.03    -3.81-226.174840             -0.0000
iter:  45  14:34:54 -10.01  -6.18    -3.93-226.174839             -0.0000
iter:  46  14:35:19 -10.84  -6.42    -4.81-226.174839             -0.0000
iter:  47  14:35:43 -10.75  -6.47    -4.41-226.174839             -0.0000
iter:  48  14:36:08 -10.64  -6.72    -4.29-226.174839             -0.0000
iter:  49  14:36:32 -11.90  -6.74    -4.69-226.174839             -0.0000
iter:  50  14:36:56 -11.63  -7.05    -4.81-226.174839             -0.0000
iter:  51  14:37:21 -12.07  -7.33    -4.95-226.174839             -0.0000
iter:  52  14:37:45 -12.94  -7.41    -5.10-226.174839             -0.0000
iter:  53  14:38:09 -13.54  -7.57    -5.81-226.174839             -0.0000
iter:  54  14:38:34 -12.79  -7.61    -5.34-226.174839             +0.0000
iter:  55  14:38:58 -12.66  -7.57    -5.15-226.174839             -0.0000
iter:  56  14:39:23 -14.00  -8.02    -5.84-226.174839             +0.0000
iter:  57  14:39:47 -14.35  -8.10    -6.17-226.174839             -0.0000

Converged after 57 iterations.

Dipole moment: (18.337074, -2.307140, -4.524740) |e|*Ang

Total magnetic moment: (0.000000, 0.000000, -0.000000)
Local magnetic moments:
   0 O  ( 0.000000,  0.000000, -0.001414)
   1 O  ( 0.000000,  0.000000,  0.001566)
   2 O  ( 0.000000,  0.000000,  0.001832)
   3 O  ( 0.000000,  0.000000, -0.001836)
   4 O  ( 0.000000,  0.000000,  0.001827)
   5 O  ( 0.000000,  0.000000, -0.001831)
   6 O  ( 0.000000,  0.000000, -0.001419)
   7 O  ( 0.000000,  0.000000,  0.001572)
   8 O  ( 0.000000,  0.000000,  0.030624)
   9 O  ( 0.000000,  0.000000, -0.031061)
  10 O  ( 0.000000,  0.000000, -0.031123)
  11 O  ( 0.000000,  0.000000,  0.031026)
  12 Mn ( 0.000000,  0.000000,  4.395952)
  13 Mn ( 0.000000,  0.000000, -4.395507)
  14 Mn ( 0.000000,  0.000000, -4.395740)
  15 Mn ( 0.000000,  0.000000,  4.395731)
  16 P  ( 0.000000,  0.000000,  0.001081)
  17 P  ( 0.000000,  0.000000, -0.000937)
  18 P  ( 0.000000,  0.000000, -0.000866)
  19 P  ( 0.000000,  0.000000,  0.000732)
  20 O  ( 0.000000,  0.000000,  0.028787)
  21 O  ( 0.000000,  0.000000, -0.028469)
  22 O  ( 0.000000,  0.000000, -0.028387)
  23 O  ( 0.000000,  0.000000,  0.028436)
  24 Li ( 0.000000,  0.000000, -0.000017)
  25 Li ( 0.000000,  0.000000, -0.000003)
  26 Li ( 0.000000,  0.000000, -0.000017)
  27 Li ( 0.000000,  0.000000, -0.000003)

Energy contributions relative to reference atoms: (reference = -196157.275402)

Kinetic:       +277.616419
Potential:     -240.955061
External:        +0.000000
XC:            -264.724744
Entropy (-ST):   -0.000000
Local:           +1.888546
--------------------------
Free energy:   -226.174839
Extrapolated:  -226.174839

Spin contamination: 9.454702 electrons
Showing only first 2 kpts
                      Up                     Down
 Kpt  Band  Eigenvalues  Occupancy  Eigenvalues  Occupancy
  0    88      6.52923    0.00694      6.52930    0.00694
  0    89      6.56235    0.00694      6.56389    0.00694
  0    90      8.42652    0.00000      8.42659    0.00000
  0    91      8.44779    0.00000      8.44880    0.00000

  1    88      6.56833    0.00694      6.56760    0.00694
  1    89      6.59409    0.00694      6.59606    0.00694
  1    90      8.38261    0.00000      8.38370    0.00000
  1    91      8.40472    0.00000      8.40600    0.00000


Fermi level: 7.64233

Gap: 1.699 eV
Transition (v -> c):
  (s=1, k=49, n=89, [-0.08, -0.42, -0.12]) -> (s=0, k=62, n=90, [-0.08, 0.08, 0.12])
Writing to born-0.01-12x+.gpw (mode='all')

Timing:                              incl.     excl.
-----------------------------------------------------------
Hamiltonian:                         0.212     0.002   0.0% |
 Atomic:                             0.049     0.049   0.0% |
  XC Correction:                     0.000     0.000   0.0% |
 Calculate atomic Hamiltonians:      0.074     0.074   0.0% |
 Communicate:                        0.002     0.002   0.0% |
 Initialize Hamiltonian:             0.000     0.000   0.0% |
 Poisson:                            0.001     0.001   0.0% |
 XC 3D grid:                         0.084     0.084   0.0% |
LCAO initialization:                69.795     0.645   0.0% |
 LCAO eigensolver:                  19.611     0.002   0.0% |
  Calculate projections:             0.029     0.029   0.0% |
  DenseAtomicCorrection:             0.045     0.045   0.0% |
  Distribute overlap matrix:         0.093     0.093   0.0% |
  Orbital Layouts:                   0.431     0.431   0.0% |
  Potential matrix:                 18.922    18.922   0.6% |
  Sum over cells:                    0.088     0.088   0.0% |
 LCAO to grid:                      48.194    48.194   1.5% ||
 Set positions (LCAO WFS):           1.345     0.192   0.0% |
  Basic WFS set positions:           0.001     0.001   0.0% |
  Basis functions set positions:     0.000     0.000   0.0% |
  P tci:                             0.521     0.521   0.0% |
  ST tci:                            0.382     0.382   0.0% |
  mktci:                             0.248     0.248   0.0% |
PWDescriptor:                        0.023     0.023   0.0% |
SCF-cycle:                        1269.465     4.644   0.1% |
 Davidson:                        1067.500   326.037  10.2% |---|
  Apply H:                          74.363    72.207   2.2% ||
   HMM T:                            2.157     2.157   0.1% |
  Subspace diag:                   154.897     0.160   0.0% |
   calc_h_matrix:                   99.774    25.680   0.8% |
    Apply H:                        74.094    71.893   2.2% ||
     HMM T:                          2.201     2.201   0.1% |
   diagonalize:                      7.739     7.739   0.2% |
   rotate_psi:                      47.224    47.224   1.5% ||
  calc. matrices:                  319.975   174.242   5.4% |-|
   Apply H:                        145.732   141.668   4.4% |-|
    HMM T:                           4.064     4.064   0.1% |
  diagonalize:                      89.817    89.817   2.8% ||
  rotate_psi:                      102.412   102.412   3.2% ||
 Density:                           43.780     0.001   0.0% |
  Atomic density matrices:           0.885     0.885   0.0% |
  Mix:                               5.937     5.937   0.2% |
  Multipole moments:                 0.021     0.021   0.0% |
  Pseudo density:                   36.936    36.934   1.2% |
   Symmetrize density:               0.002     0.002   0.0% |
 Forces:                           139.346   139.346   4.3% |-|
 Hamiltonian:                       12.123     0.120   0.0% |
  Atomic:                            2.813     2.812   0.1% |
   XC Correction:                    0.000     0.000   0.0% |
  Calculate atomic Hamiltonians:     4.233     4.233   0.1% |
  Communicate:                       0.115     0.115   0.0% |
  Poisson:                           0.033     0.033   0.0% |
  XC 3D grid:                        4.809     4.809   0.1% |
 Orthonormalize:                     2.071     0.003   0.0% |
  calc_s_matrix:                     0.242     0.242   0.0% |
  inverse-cholesky:                  0.075     0.075   0.0% |
  projections:                       1.320     1.320   0.0% |
  rotate_psi_s:                      0.430     0.430   0.0% |
Set symmetry:                        0.000     0.000   0.0% |
Other:                            1871.554  1871.554  58.3% |----------------------|
-----------------------------------------------------------
Total:                                      3211.049 100.0%

Memory usage: 12.05 GiB
Date: Wed Mar 24 15:10:57 2021
