
  ___ ___ ___ _ _ _  
 |   |   |_  | | | | 
 | | | | | . | | | | 
 |__ |  _|___|_____|  20.10.1b1
 |___|_|             

User:   madkru@i013.nifl.fysik.dtu.dk
Date:   Mon Mar 22 08:48:58 2021
Arch:   x86_64
Pid:    27943
Python: 3.7.4
gpaw:   /home/niflheim/madkru/venv_folder/gpaw/gpaw (d0d1ca1c71)
_gpaw:  /home/niflheim/madkru/venv_folder/gpaw/build/lib.linux-x86_64-ivybridge-3.7/
        _gpaw.cpython-37m-x86_64-linux-gnu.so (4fd39e8b1e)
ase:    /home/niflheim/madkru/venv_folder/ase/ase (version 3.21.0b1-7e6c206a91)
numpy:  /home/niflheim/madkru/venv_folder/lib/python3.7/site-packages/numpy (version 1.19.4)
scipy:  /home/niflheim/madkru/venv_folder/lib/python3.7/site-packages/scipy (version 1.5.4)
libxc:  4.3.4
units:  Angstrom and eV
cores: 32
OMP_NUM_THREADS: 1

Input parameters:
  convergence: {bands: occupied,
                density: 0.0001,
                eigenstates: 4e-08,
                energy: 0.0005,
                forces: 1e-06}
  kpts: [6 6 4]
  mode: {ecut: 600.0,
         gammacentered: False,
         name: pw}
  occupations: {fixmagmom: False,
                name: fermi-dirac,
                width: 0.001}
  symmetry: {point_group: False,
             time_reversal: False}

System changes: positions, numbers, cell, pbc, initial_charges, initial_magmoms 

Initialize ...

O-setup:
  name: Oxygen
  id: 9b9d51c344dea68c822856295a461509
  Z: 8.0
  valence: 6
  core: 2
  charge: 0.0
  file: /home/modules/software/GPAW-setups/0.9.20000/O.LDA.gz
  compensation charges: gauss, rc=0.21, lmax=2
  cutoffs: 1.17(filt), 0.83(core),
  valence states:
                energy  radius
    2s(2.00)   -23.752   0.688
    2p(4.00)    -9.195   0.598
    *s           3.459   0.688
    *p          18.016   0.598
    *d           0.000   0.619

  Using partial waves for O as LCAO basis

Mn-setup:
  name: Manganese
  id: 0d715a8018be061a6e9ea6f2d364ac92
  Z: 25.0
  valence: 15
  core: 10
  charge: 0.0
  file: /home/modules/software/GPAW-setups/0.9.20000/Mn.LDA.gz
  compensation charges: gauss, rc=0.38, lmax=2
  cutoffs: 2.14(filt), 0.86(core),
  valence states:
                energy  radius
    3s(2.00)   -85.387   1.275
    4s(2.00)    -5.282   1.275
    3p(6.00)   -54.493   1.281
    4p(0.00)    -1.471   1.281
    3d(5.00)    -7.009   1.138
    *d          20.203   1.138

  Using partial waves for Mn as LCAO basis

P-setup:
  name: Phosphorus
  id: a5561c299094968922a179ab894d2e2d
  Z: 15.0
  valence: 5
  core: 10
  charge: 0.0
  file: /home/modules/software/GPAW-setups/0.9.20000/P.LDA.gz
  compensation charges: gauss, rc=0.30, lmax=2
  cutoffs: 1.69(filt), 1.81(core),
  valence states:
                energy  radius
    3s(2.00)   -14.015   0.953
    3p(3.00)    -5.596   0.953
    *s          13.197   0.953
    *p          21.615   0.953
    *d           0.000   0.953

  Using partial waves for P as LCAO basis

Li-setup:
  name: Lithium
  id: b73562207f97a71b6967473b66fe8b65
  Z: 3.0
  valence: 1
  core: 2
  charge: 0.0
  file: /home/modules/software/GPAW-setups/0.9.20000/Li.LDA.gz
  compensation charges: gauss, rc=0.33, lmax=2
  cutoffs: 1.91(filt), 2.55(core),
  valence states:
                energy  radius
    2s(1.00)    -2.874   1.058
    2p(0.00)    -1.126   1.058
    *s          24.338   1.058

  Using partial waves for Li as LCAO basis

Reference energy: -196157.275402

Spin-polarized calculation.
Magnetic moment: 0.000000

Convergence criteria:
  Maximum total energy change: 0.0005 eV / electron
  Maximum integral of absolute density change: 0.0001 electrons
  Maximum integral of absolute eigenstate change: 4e-08 eV^2
  Maximum change in atomic force: 1e-06 eV / Ang
  Maximum number of iterations: 333

Symmetries present (total): 1

  ( 1  0  0)
  ( 0  1  0)
  ( 0  0  1)

144 k-points: 6 x 6 x 4 Monkhorst-Pack grid
144 k-points in the irreducible part of the Brillouin zone
       k-points in crystal coordinates                weights
   0:    -0.41666667   -0.41666667   -0.37500000          1/144
   1:    -0.41666667   -0.41666667   -0.12500000          1/144
   2:    -0.41666667   -0.41666667    0.12500000          1/144
   3:    -0.41666667   -0.41666667    0.37500000          1/144
   4:    -0.41666667   -0.25000000   -0.37500000          1/144
   5:    -0.41666667   -0.25000000   -0.12500000          1/144
   6:    -0.41666667   -0.25000000    0.12500000          1/144
   7:    -0.41666667   -0.25000000    0.37500000          1/144
   8:    -0.41666667   -0.08333333   -0.37500000          1/144
   9:    -0.41666667   -0.08333333   -0.12500000          1/144
          ...
 143:     0.41666667    0.41666667    0.37500000          1/144

Wave functions: Plane wave expansion
  Cutoff energy: 600.000 eV
  Number of coefficients (min, max): 9132, 9161
  Pulay-stress correction: 0.000000 eV/Ang^3 (de/decut=0.000000)
  Using FFTW library
  ScaLapack parameters: grid=1x1, blocksize=None
  Wavefunction extrapolation:
    Improved wavefunction reuse through dual PAW basis 

  Fermi-Dirac: width=0.0010 eV

Eigensolver
   Davidson(niter=2, smin=None, normalize=True) 

Densities:
  Coarse grid: 60*35*27 grid
  Fine grid: 120*70*54 grid
  Total Charge: 0.000000 

Density mixing:
  Method: difference
  Backend: pulay
  Linear mixing parameter: 0.05
  Mixing with 5 old densities
  Damping of long wave oscillations: 50 

Hamiltonian:
  XC and Coulomb potentials evaluated on a 120*70*54 grid
  Using the LDA Exchange-Correlation functional
 

Memory estimate:
  Process memory now: 13087.33 MiB
  Calculator: 342.26 MiB
    Density: 19.13 MiB
      Arrays: 7.57 MiB
      Localized functions: 8.54 MiB
      Mixer: 3.03 MiB
    Hamiltonian: 5.87 MiB
      Arrays: 5.62 MiB
      XC: 0.00 MiB
      Poisson: 0.00 MiB
      vbar: 0.25 MiB
    Wavefunctions: 317.25 MiB
      Arrays psit_nG: 281.81 MiB
      Eigensolver: 18.27 MiB
      Projections: 5.41 MiB
      Projectors: 8.81 MiB
      PW-descriptor: 2.95 MiB

Total number of cores used: 32
Parallelization over k-points: 16
Domain decomposition: 2 x 1 x 1

Number of atoms: 28
Number of atomic orbitals: 148
Number of bands in calculation: 112
Number of valence electrons: 180
Bands to converge: occupied

... initialized

Initializing position-dependent things.

Density initialized from atomic densities
Creating initial wave functions:
  112 bands from LCAO basis set

                                           
                                           
                                           
                                           
                                           
               O     O  P  O               
            PO           OMn     O         
                  O          MO            
            O        Li O                  
             Mn  Mn          OP            
         O       O Li O                    
         Li     O P         O              
       Li                                  
                                           
                                           
                                           
                                           

Positions:
   0 O     -1.280122   -2.495595   -1.112331    ( 0.0000,  0.0000,  0.0000)
   1 O     -3.023238    2.918858    1.191723    ( 0.0000,  0.0000,  0.0000)
   2 O      1.997451    0.467212    1.441442    ( 0.0000,  0.0000,  0.0000)
   3 O      3.740343   -0.043905   -0.862614    ( 0.0000,  0.0000,  0.0000)
   4 O      1.997419    2.918835    1.441465    ( 0.0000,  0.0000,  0.0000)
   5 O      3.740372   -2.495531   -0.862587    ( 0.0000,  0.0000,  0.0000)
   6 O     -1.290154   -0.043891   -1.112309    ( 0.0000,  0.0000,  0.0000)
   7 O     -3.023210    0.467136    1.191750    ( 0.0000,  0.0000,  0.0000)
   8 O     -4.147405   -1.269737   -0.856207    ( 0.0000,  0.0000,  0.0000)
   9 O     -0.155894    1.692986    1.447725    ( 0.0000,  0.0000,  0.0000)
  10 O      4.864578    1.693016    1.185324    ( 0.0000,  0.0000,  0.0000)
  11 O      0.873163   -1.269706   -1.118625    ( 0.0000,  0.0000,  0.0000)
  12 Mn    -2.437108   -1.269902    0.302197    ( 0.0000,  0.0000,  1.0000)
  13 Mn    -1.866187    1.693156   -2.001927    ( 0.0000,  0.0000, -1.0000)
  14 Mn     3.154299    1.693181    0.026917    ( 0.0000,  0.0000, -1.0000)
  15 Mn     2.583444   -1.269877    2.331074    ( 0.0000,  0.0000,  1.0000)
  16 P     -0.543052   -1.269720   -1.734187    ( 0.0000,  0.0000,  0.0000)
  17 P     -3.760282    1.692974    0.569859    ( 0.0000,  0.0000,  0.0000)
  18 P      1.260300    1.693000    2.063344    ( 0.0000,  0.0000,  0.0000)
  19 P      4.477470   -1.269695   -0.240696    ( 0.0000,  0.0000,  0.0000)
  20 O     -0.544413   -1.269738    1.348523    ( 0.0000,  0.0000,  0.0000)
  21 O     -3.758895    1.692992   -0.955558    ( 0.0000,  0.0000,  0.0000)
  22 O      1.261690    1.693018   -1.019367    ( 0.0000,  0.0000,  0.0000)
  23 O      4.476045   -1.269713    1.284716    ( 0.0000,  0.0000,  0.0000)
  24 Li    -4.662027   -2.751322   -2.139440    ( 0.0000,  0.0000,  0.0000)
  25 Li     0.358703   -2.751277    0.164614    ( 0.0000,  0.0000,  0.0000)
  26 Li    -4.662011    0.211617   -2.139439    ( 0.0000,  0.0000,  0.0000)
  27 Li     0.358720    0.211628    0.164615    ( 0.0000,  0.0000,  0.0000)

Unit cell:
           periodic     x           y           z      points  spacing
  1. axis:    yes   10.041096    0.000054   -0.000022    60     0.1674
  2. axis:    yes    0.000032    5.925857    0.000001    35     0.1693
  3. axis:    yes   -0.000010    0.000001    4.608134    27     0.1707

  Lengths:  10.041096   5.925857   4.608134
  Angles:   89.999974  90.000250  89.999381

Effective grid spacing dv^(1/3) = 0.1691

                     log10-error:           total        iterations:
           time      wfs    density  force  energy       poisson  magmom
iter:   1  08:52:02                       -233.731177             +0.0000
iter:   2  08:52:38  -0.47  -0.95         -231.544867             +0.0029
iter:   3  08:53:14  -0.61  -1.00         -220.830248             +0.0030
iter:   4  08:53:51  -1.21  -1.31         -221.386711             +0.4198
iter:   5  08:54:27  -2.15  -1.38         -222.502870             +0.2389
iter:   6  08:55:03  -2.36  -1.38         -223.666647             +0.1015
iter:   7  08:55:40  -2.05  -1.54         -223.502311             +0.0861
iter:   8  08:56:16  -2.41  -1.91         -225.741844             +0.0345
iter:   9  08:56:52  -2.22  -2.09         -226.346914             -0.0031
iter:  10  08:57:28  -2.32  -2.14         -226.325457             -0.0006
iter:  11  08:58:05  -2.86  -2.30         -226.332801             -0.0002
iter:  12  08:58:41  -2.76  -2.40         -226.204414             +0.0000
iter:  13  08:59:17  -2.85  -2.43         -226.191781             -0.0000
iter:  14  08:59:53  -3.56  -2.86         -226.180530             -0.0000
iter:  15  09:00:30  -3.78  -2.82         -226.175771             +0.0000
iter:  16  09:01:06  -4.71  -3.21         -226.175702             +0.0000
iter:  17  09:01:42  -5.02  -3.22         -226.175820             -0.0000
iter:  18  09:02:18  -4.74  -3.28         -226.175117             -0.0000
iter:  19  09:02:54  -5.61  -3.33         -226.175028             -0.0000
iter:  20  09:03:31  -5.37  -3.44         -226.175173             +0.0000
iter:  21  09:04:07  -5.74  -3.52         -226.175054             -0.0000
iter:  22  09:04:43  -5.13  -3.56         -226.174733             -0.0000
iter:  23  09:05:20  -5.82  -3.78         -226.174752             -0.0000
iter:  24  09:05:56  -6.22  -3.84         -226.174724             -0.0000
iter:  25  09:06:32  -6.58  -4.02         -226.174742             -0.0000
iter:  26  09:07:08  -6.56  -4.13         -226.174715             -0.0000
iter:  27  09:07:45  -6.86  -4.35         -226.174707             -0.0000
iter:  28  09:08:21  -7.16  -4.48         -226.174706             -0.0000
iter:  29  09:09:06  -7.45  -4.61         -226.174700             -0.0000
iter:  30  09:09:52  -7.48  -4.72    -2.55-226.174696             -0.0000
iter:  31  09:10:37  -7.65  -4.87    -2.77-226.174695             -0.0000
iter:  32  09:11:23  -8.29  -5.08    -3.11-226.174695             +0.0000
iter:  33  09:12:08  -8.53  -5.15    -3.42-226.174695             +0.0000
iter:  34  09:12:53  -8.22  -5.19    -2.91-226.174695             +0.0000
iter:  35  09:13:39  -8.99  -5.42    -3.23-226.174695             +0.0000
iter:  36  09:14:24  -9.44  -5.66    -3.55-226.174695             +0.0000
iter:  37  09:15:10  -9.88  -5.72    -3.37-226.174695             -0.0000
iter:  38  09:15:55  -9.82  -5.81    -3.77-226.174695             -0.0000
iter:  39  09:16:41 -10.34  -6.11    -4.04-226.174695             -0.0000
iter:  40  09:17:26 -11.08  -6.23    -4.40-226.174695             -0.0000
iter:  41  09:18:12 -10.56  -6.29    -4.21-226.174695             -0.0000
iter:  42  09:18:57 -11.10  -6.45    -4.25-226.174695             -0.0000
iter:  43  09:19:42 -11.37  -6.70    -4.43-226.174695             -0.0000
iter:  44  09:20:28 -12.36  -6.84    -5.33-226.174695             -0.0000
iter:  45  09:21:13 -12.08  -6.86    -4.62-226.174695             +0.0000
iter:  46  09:21:58 -12.61  -6.93    -5.21-226.174695             -0.0000
iter:  47  09:22:44 -12.66  -6.98    -5.17-226.174695             -0.0000
iter:  48  09:23:29 -12.38  -7.07    -4.91-226.174695             -0.0000
iter:  49  09:24:14 -12.94  -7.20    -5.16-226.174695             -0.0000
iter:  50  09:25:00 -12.68  -7.22    -5.12-226.174695             -0.0000
iter:  51  09:25:45 -13.39  -7.33    -5.86-226.174695             -0.0000
iter:  52  09:26:30 -12.84  -7.38    -5.38-226.174695             -0.0000
iter:  53  09:27:16 -13.97  -7.51    -5.91-226.174695             -0.0000
iter:  54  09:28:01 -13.21  -7.55    -5.37-226.174695             -0.0000
iter:  55  09:28:47 -14.46  -7.67    -6.05-226.174695             -0.0000

Converged after 55 iterations.

Dipole moment: (18.322177, -2.304188, -4.523701) |e|*Ang

Total magnetic moment: (0.000000, 0.000000, -0.000000)
Local magnetic moments:
   0 O  ( 0.000000,  0.000000, -0.001792)
   1 O  ( 0.000000,  0.000000,  0.001746)
   2 O  ( 0.000000,  0.000000,  0.001833)
   3 O  ( 0.000000,  0.000000, -0.001792)
   4 O  ( 0.000000,  0.000000,  0.001825)
   5 O  ( 0.000000,  0.000000, -0.001787)
   6 O  ( 0.000000,  0.000000, -0.001793)
   7 O  ( 0.000000,  0.000000,  0.001797)
   8 O  ( 0.000000,  0.000000,  0.031095)
   9 O  ( 0.000000,  0.000000, -0.031044)
  10 O  ( 0.000000,  0.000000, -0.031155)
  11 O  ( 0.000000,  0.000000,  0.030966)
  12 Mn ( 0.000000,  0.000000,  4.394917)
  13 Mn ( 0.000000,  0.000000, -4.394721)
  14 Mn ( 0.000000,  0.000000, -4.395716)
  15 Mn ( 0.000000,  0.000000,  4.395728)
  16 P  ( 0.000000,  0.000000,  0.000895)
  17 P  ( 0.000000,  0.000000, -0.000849)
  18 P  ( 0.000000,  0.000000, -0.000886)
  19 P  ( 0.000000,  0.000000,  0.000880)
  20 O  ( 0.000000,  0.000000,  0.028376)
  21 O  ( 0.000000,  0.000000, -0.028453)
  22 O  ( 0.000000,  0.000000, -0.028395)
  23 O  ( 0.000000,  0.000000,  0.028463)
  24 Li ( 0.000000,  0.000000,  0.000001)
  25 Li ( 0.000000,  0.000000, -0.000005)
  26 Li ( 0.000000,  0.000000, -0.000000)
  27 Li ( 0.000000,  0.000000,  0.000007)

Energy contributions relative to reference atoms: (reference = -196157.275402)

Kinetic:       +277.358555
Potential:     -240.765485
External:        +0.000000
XC:            -264.656544
Entropy (-ST):   -0.000000
Local:           +1.888779
--------------------------
Free energy:   -226.174695
Extrapolated:  -226.174695

Spin contamination: 9.454201 electrons
Showing only first 2 kpts
                      Up                     Down
 Kpt  Band  Eigenvalues  Occupancy  Eigenvalues  Occupancy
  0    88      6.53046    0.00694      6.53370    0.00694
  0    89      6.56692    0.00694      6.56810    0.00694
  0    90      8.42796    0.00000      8.42781    0.00000
  0    91      8.45230    0.00000      8.45096    0.00000

  1    88      6.56820    0.00694      6.57224    0.00694
  1    89      6.59965    0.00694      6.59994    0.00694
  1    90      8.38432    0.00000      8.38460    0.00000
  1    91      8.40881    0.00000      8.40946    0.00000


Fermi level: 7.55213

Gap: 1.697 eV
Transition (v -> c):
  (s=1, k=93, n=89, [0.08, 0.42, -0.12]) -> (s=1, k=81, n=90, [0.08, -0.08, -0.12])
Writing to born-0.01-6x-.gpw (mode='all')

Timing:                              incl.     excl.
-----------------------------------------------------------
Hamiltonian:                         0.354     0.002   0.0% |
 Atomic:                             0.050     0.050   0.0% |
  XC Correction:                     0.000     0.000   0.0% |
 Calculate atomic Hamiltonians:      0.144     0.144   0.0% |
 Communicate:                        0.002     0.002   0.0% |
 Initialize Hamiltonian:             0.000     0.000   0.0% |
 Poisson:                            0.001     0.001   0.0% |
 XC 3D grid:                         0.155     0.155   0.0% |
LCAO initialization:               141.799     0.648   0.0% |
 LCAO eigensolver:                  38.060     0.002   0.0% |
  Calculate projections:             0.056     0.056   0.0% |
  DenseAtomicCorrection:             0.088     0.088   0.0% |
  Distribute overlap matrix:         0.104     0.104   0.0% |
  Orbital Layouts:                   0.340     0.340   0.0% |
  Potential matrix:                 37.381    37.381   0.7% |
  Sum over cells:                    0.087     0.087   0.0% |
 LCAO to grid:                     100.714   100.714   1.9% ||
 Set positions (LCAO WFS):           2.377     0.373   0.0% |
  Basic WFS set positions:           0.001     0.001   0.0% |
  Basis functions set positions:     0.000     0.000   0.0% |
  P tci:                             1.051     1.051   0.0% |
  ST tci:                            0.703     0.703   0.0% |
  mktci:                             0.248     0.248   0.0% |
PWDescriptor:                        0.024     0.024   0.0% |
SCF-cycle:                        2245.075    10.080   0.2% |
 Davidson:                        1884.665   600.430  11.0% |---|
  Apply H:                         136.017   131.516   2.4% ||
   HMM T:                            4.502     4.502   0.1% |
  Subspace diag:                   280.852     0.170   0.0% |
   calc_h_matrix:                  183.339    49.147   0.9% |
    Apply H:                       134.191   129.832   2.4% ||
     HMM T:                          4.359     4.359   0.1% |
   diagonalize:                      6.505     6.505   0.1% |
   rotate_psi:                      90.838    90.838   1.7% ||
  calc. matrices:                  595.063   330.482   6.1% |-|
   Apply H:                        264.581   256.425   4.7% |-|
    HMM T:                           8.156     8.156   0.2% |
  diagonalize:                      86.793    86.793   1.6% ||
  rotate_psi:                      185.510   185.510   3.4% ||
 Density:                           76.985     0.001   0.0% |
  Atomic density matrices:           1.381     1.381   0.0% |
  Mix:                              10.494    10.494   0.2% |
  Multipole moments:                 0.032     0.032   0.0% |
  Pseudo density:                   65.077    65.076   1.2% |
   Symmetrize density:               0.001     0.001   0.0% |
 Forces:                           249.855   249.855   4.6% |-|
 Hamiltonian:                       19.504     0.127   0.0% |
  Atomic:                            2.728     2.727   0.1% |
   XC Correction:                    0.000     0.000   0.0% |
  Calculate atomic Hamiltonians:     7.857     7.857   0.1% |
  Communicate:                       0.088     0.088   0.0% |
  Poisson:                           0.067     0.067   0.0% |
  XC 3D grid:                        8.637     8.637   0.2% |
 Orthonormalize:                     3.986     0.004   0.0% |
  calc_s_matrix:                     0.479     0.479   0.0% |
  inverse-cholesky:                  0.054     0.054   0.0% |
  projections:                       2.592     2.592   0.0% |
  rotate_psi_s:                      0.857     0.857   0.0% |
Set symmetry:                        0.000     0.000   0.0% |
Other:                            3049.038  3049.038  56.1% |---------------------|
-----------------------------------------------------------
Total:                                      5436.289 100.0%

Memory usage: 12.80 GiB
Date: Mon Mar 22 10:19:34 2021
