
  ___ ___ ___ _ _ _  
 |   |   |_  | | | | 
 | | | | | . | | | | 
 |__ |  _|___|_____|  20.10.1b1
 |___|_|             

User:   madkru@i008.nifl.fysik.dtu.dk
Date:   Thu Mar 25 20:42:05 2021
Arch:   x86_64
Pid:    26969
Python: 3.7.4
gpaw:   /home/niflheim/madkru/venv_folder/gpaw/gpaw (d224efde0f)
_gpaw:  /home/niflheim/madkru/venv_folder/gpaw/build/lib.linux-x86_64-ivybridge-3.7/
        _gpaw.cpython-37m-x86_64-linux-gnu.so (4fd39e8b1e)
ase:    /home/niflheim/madkru/venv_folder/ase/ase (version 3.21.0b1-4d5a73cb29)
numpy:  /home/niflheim/madkru/venv_folder/lib/python3.7/site-packages/numpy (version 1.19.4)
scipy:  /home/niflheim/madkru/venv_folder/lib/python3.7/site-packages/scipy (version 1.5.4)
libxc:  4.3.4
units:  Angstrom and eV
cores: 64
OMP_NUM_THREADS: 1

Input parameters:
  convergence: {bands: occupied,
                density: 0.0001,
                eigenstates: 4e-08,
                energy: 0.0005,
                forces: 1e-06}
  kpts: [6 6 4]
  mode: {ecut: 600.0,
         gammacentered: False,
         name: pw}
  occupations: {fixmagmom: False,
                name: fermi-dirac,
                width: 0.001}
  symmetry: {point_group: False,
             time_reversal: False}

System changes: positions, numbers, cell, pbc, initial_charges, initial_magmoms 

Initialize ...

O-setup:
  name: Oxygen
  id: 9b9d51c344dea68c822856295a461509
  Z: 8.0
  valence: 6
  core: 2
  charge: 0.0
  file: /home/modules/software/GPAW-setups/0.9.20000/O.LDA.gz
  compensation charges: gauss, rc=0.21, lmax=2
  cutoffs: 1.17(filt), 0.83(core),
  valence states:
                energy  radius
    2s(2.00)   -23.752   0.688
    2p(4.00)    -9.195   0.598
    *s           3.459   0.688
    *p          18.016   0.598
    *d           0.000   0.619

  Using partial waves for O as LCAO basis

Mn-setup:
  name: Manganese
  id: 0d715a8018be061a6e9ea6f2d364ac92
  Z: 25.0
  valence: 15
  core: 10
  charge: 0.0
  file: /home/modules/software/GPAW-setups/0.9.20000/Mn.LDA.gz
  compensation charges: gauss, rc=0.38, lmax=2
  cutoffs: 2.14(filt), 0.86(core),
  valence states:
                energy  radius
    3s(2.00)   -85.387   1.275
    4s(2.00)    -5.282   1.275
    3p(6.00)   -54.493   1.281
    4p(0.00)    -1.471   1.281
    3d(5.00)    -7.009   1.138
    *d          20.203   1.138

  Using partial waves for Mn as LCAO basis

P-setup:
  name: Phosphorus
  id: a5561c299094968922a179ab894d2e2d
  Z: 15.0
  valence: 5
  core: 10
  charge: 0.0
  file: /home/modules/software/GPAW-setups/0.9.20000/P.LDA.gz
  compensation charges: gauss, rc=0.30, lmax=2
  cutoffs: 1.69(filt), 1.81(core),
  valence states:
                energy  radius
    3s(2.00)   -14.015   0.953
    3p(3.00)    -5.596   0.953
    *s          13.197   0.953
    *p          21.615   0.953
    *d           0.000   0.953

  Using partial waves for P as LCAO basis

Li-setup:
  name: Lithium
  id: b73562207f97a71b6967473b66fe8b65
  Z: 3.0
  valence: 1
  core: 2
  charge: 0.0
  file: /home/modules/software/GPAW-setups/0.9.20000/Li.LDA.gz
  compensation charges: gauss, rc=0.33, lmax=2
  cutoffs: 1.91(filt), 2.55(core),
  valence states:
                energy  radius
    2s(1.00)    -2.874   1.058
    2p(0.00)    -1.126   1.058
    *s          24.338   1.058

  Using partial waves for Li as LCAO basis

Reference energy: -196157.275402

Spin-polarized calculation.
Magnetic moment: 0.000000

Convergence criteria:
  Maximum total energy change: 0.0005 eV / electron
  Maximum integral of absolute density change: 0.0001 electrons
  Maximum integral of absolute eigenstate change: 4e-08 eV^2
  Maximum change in atomic force: 1e-06 eV / Ang
  Maximum number of iterations: 333

Symmetries present (total): 1

  ( 1  0  0)
  ( 0  1  0)
  ( 0  0  1)

144 k-points: 6 x 6 x 4 Monkhorst-Pack grid
144 k-points in the irreducible part of the Brillouin zone
       k-points in crystal coordinates                weights
   0:    -0.41666667   -0.41666667   -0.37500000          1/144
   1:    -0.41666667   -0.41666667   -0.12500000          1/144
   2:    -0.41666667   -0.41666667    0.12500000          1/144
   3:    -0.41666667   -0.41666667    0.37500000          1/144
   4:    -0.41666667   -0.25000000   -0.37500000          1/144
   5:    -0.41666667   -0.25000000   -0.12500000          1/144
   6:    -0.41666667   -0.25000000    0.12500000          1/144
   7:    -0.41666667   -0.25000000    0.37500000          1/144
   8:    -0.41666667   -0.08333333   -0.37500000          1/144
   9:    -0.41666667   -0.08333333   -0.12500000          1/144
          ...
 143:     0.41666667    0.41666667    0.37500000          1/144

Wave functions: Plane wave expansion
  Cutoff energy: 600.000 eV
  Number of coefficients (min, max): 9132, 9161
  Pulay-stress correction: 0.000000 eV/Ang^3 (de/decut=0.000000)
  Using FFTW library
  ScaLapack parameters: grid=1x1, blocksize=None
  Wavefunction extrapolation:
    Improved wavefunction reuse through dual PAW basis 

  Fermi-Dirac: width=0.0010 eV

Eigensolver
   Davidson(niter=2, smin=None, normalize=True) 

Densities:
  Coarse grid: 60*35*27 grid
  Fine grid: 120*70*54 grid
  Total Charge: 0.000000 

Density mixing:
  Method: difference
  Backend: pulay
  Linear mixing parameter: 0.05
  Mixing with 5 old densities
  Damping of long wave oscillations: 50 

Hamiltonian:
  XC and Coulomb potentials evaluated on a 120*70*54 grid
  Using the LDA Exchange-Correlation functional
 

Memory estimate:
  Process memory now: 13781.38 MiB
  Calculator: 322.47 MiB
    Density: 9.62 MiB
      Arrays: 3.79 MiB
      Localized functions: 4.27 MiB
      Mixer: 1.56 MiB
    Hamiltonian: 2.94 MiB
      Arrays: 2.82 MiB
      XC: 0.00 MiB
      Poisson: 0.00 MiB
      vbar: 0.12 MiB
    Wavefunctions: 309.91 MiB
      Arrays psit_nG: 281.81 MiB
      Eigensolver: 18.27 MiB
      Projections: 2.71 MiB
      Projectors: 4.40 MiB
      PW-descriptor: 2.71 MiB

Total number of cores used: 64
Parallelization over k-points: 16
Domain decomposition: 2 x 2 x 1

Number of atoms: 28
Number of atomic orbitals: 148
Number of bands in calculation: 112
Number of valence electrons: 180
Bands to converge: occupied

... initialized

Initializing position-dependent things.

Density initialized from atomic densities
Creating initial wave functions:
  112 bands from LCAO basis set

                                           
                                           
                                           
                                           
                                           
               O     O  P  O               
            PO           OMn     O         
                  O          MO            
            O        Li O                  
             Mn  Mn          OP            
         O       O Li O                    
         Li     O P         O              
       Li                                  
                                           
                                           
                                           
                                           

Positions:
   0 O     -1.280122   -2.495595   -1.112331    ( 0.0000,  0.0000,  0.0000)
   1 O     -3.023238    2.918858    1.191723    ( 0.0000,  0.0000,  0.0000)
   2 O      1.997451    0.467212    1.441442    ( 0.0000,  0.0000,  0.0000)
   3 O      3.740343   -0.043905   -0.862614    ( 0.0000,  0.0000,  0.0000)
   4 O      1.997419    2.918835    1.441465    ( 0.0000,  0.0000,  0.0000)
   5 O      3.740372   -2.495531   -0.862587    ( 0.0000,  0.0000,  0.0000)
   6 O     -1.280154   -0.043891   -1.112309    ( 0.0000,  0.0000,  0.0000)
   7 O     -3.023210    0.467136    1.191750    ( 0.0000,  0.0000,  0.0000)
   8 O     -4.147405   -1.269737   -0.856207    ( 0.0000,  0.0000,  0.0000)
   9 O     -0.155894    1.692986    1.447725    ( 0.0000,  0.0000,  0.0000)
  10 O      4.864578    1.693016    1.185324    ( 0.0000,  0.0000,  0.0000)
  11 O      0.873163   -1.269706   -1.118625    ( 0.0000,  0.0000,  0.0000)
  12 Mn    -2.437108   -1.269902    0.302197    ( 0.0000,  0.0000,  1.0000)
  13 Mn    -1.866187    1.693156   -2.001927    ( 0.0000,  0.0000, -1.0000)
  14 Mn     3.154299    1.693181    0.026917    ( 0.0000,  0.0000, -1.0000)
  15 Mn     2.583444   -1.269877    2.331074    ( 0.0000,  0.0000,  1.0000)
  16 P     -0.543052   -1.269720   -1.734187    ( 0.0000,  0.0000,  0.0000)
  17 P     -3.760282    1.692974    0.569859    ( 0.0000,  0.0000,  0.0000)
  18 P      1.260300    1.693000    2.063344    ( 0.0000,  0.0000,  0.0000)
  19 P      4.477470   -1.269695   -0.240696    ( 0.0000,  0.0000,  0.0000)
  20 O     -0.544413   -1.269738    1.348523    ( 0.0000,  0.0000,  0.0000)
  21 O     -3.758895    1.692992   -0.955558    ( 0.0000,  0.0000,  0.0000)
  22 O      1.271690    1.693018   -1.019367    ( 0.0000,  0.0000,  0.0000)
  23 O      4.476045   -1.269713    1.284716    ( 0.0000,  0.0000,  0.0000)
  24 Li    -4.662027   -2.751322   -2.139440    ( 0.0000,  0.0000,  0.0000)
  25 Li     0.358703   -2.751277    0.164614    ( 0.0000,  0.0000,  0.0000)
  26 Li    -4.662011    0.211617   -2.139439    ( 0.0000,  0.0000,  0.0000)
  27 Li     0.358720    0.211628    0.164615    ( 0.0000,  0.0000,  0.0000)

Unit cell:
           periodic     x           y           z      points  spacing
  1. axis:    yes   10.041096    0.000054   -0.000022    60     0.1674
  2. axis:    yes    0.000032    5.925857    0.000001    35     0.1693
  3. axis:    yes   -0.000010    0.000001    4.608134    27     0.1707

  Lengths:  10.041096   5.925857   4.608134
  Angles:   89.999974  90.000250  89.999381

Effective grid spacing dv^(1/3) = 0.1691

                     log10-error:           total        iterations:
           time      wfs    density  force  energy       poisson  magmom
iter:   1  20:43:41                       -233.733295             +0.0000
iter:   2  20:44:01  -0.47  -0.95         -231.552580             +0.0023
iter:   3  20:44:20  -0.61  -1.00         -220.820860             +0.0023
iter:   4  20:44:40  -1.19  -1.31         -221.153476             +0.4374
iter:   5  20:45:00  -2.13  -1.39         -222.640287             +0.2455
iter:   6  20:45:20  -2.25  -1.38         -223.673696             +0.2430
iter:   7  20:45:39  -2.14  -1.54         -223.988741             +0.0042
iter:   8  20:45:59  -2.65  -1.72         -225.446576             -0.5988
iter:   9  20:46:19  -2.15  -1.96         -226.340561             -0.4271
iter:  10  20:46:38  -2.84  -2.12         -226.351059             -0.1293
iter:  11  20:46:58  -2.55  -2.16         -226.448288             -0.0103
iter:  12  20:47:18  -2.78  -2.34         -226.279839             -0.0322
iter:  13  20:47:37  -2.68  -2.64         -226.189323             -0.0095
iter:  14  20:47:57  -3.33  -2.81         -226.190737             -0.0068
iter:  15  20:48:17  -3.43  -2.88         -226.177837             -0.0014
iter:  16  20:48:36  -4.68  -3.18         -226.176126             -0.0008
iter:  17  20:48:56  -4.61  -3.29         -226.177461             -0.0002
iter:  18  20:49:16  -5.75  -3.47         -226.177211             -0.0002
iter:  19  20:49:35  -4.28  -3.51         -226.175401             -0.0001
iter:  20  20:49:55  -5.50  -3.61         -226.175305             -0.0000
iter:  21  20:50:15  -5.34  -3.66         -226.175019             +0.0000
iter:  22  20:50:35  -5.56  -3.79         -226.175110             -0.0000
iter:  23  20:50:54  -6.63  -3.84         -226.175053             +0.0000
iter:  24  20:51:14  -5.78  -3.91         -226.175042             +0.0000
iter:  25  20:51:34  -6.20  -4.26         -226.175055             +0.0000
iter:  26  20:51:53  -7.11  -4.37         -226.175030             +0.0000
iter:  27  20:52:13  -7.17  -4.50         -226.175018             +0.0000
iter:  28  20:52:33  -6.92  -4.57         -226.175012             +0.0000
iter:  29  20:52:52  -7.19  -4.92         -226.175009             +0.0000
iter:  30  20:53:17  -8.24  -5.00         -226.175009             +0.0000
iter:  31  20:53:41  -7.80  -5.05    -3.00-226.175009             +0.0000
iter:  32  20:54:05  -8.23  -5.21    -3.18-226.175008             -0.0000
iter:  33  20:54:30  -8.77  -5.27    -3.16-226.175008             -0.0000
iter:  34  20:54:54  -8.74  -5.44    -2.95-226.175009             -0.0000
iter:  35  20:55:18  -9.03  -5.74    -3.81-226.175008             -0.0000
iter:  36  20:55:43  -8.95  -5.82    -3.23-226.175008             -0.0000
iter:  37  20:56:07  -9.65  -6.10    -3.82-226.175008             -0.0000
iter:  38  20:56:31  -9.87  -6.25    -3.77-226.175008             -0.0000
iter:  39  20:56:56 -10.56  -6.31    -3.95-226.175008             -0.0000
iter:  40  20:57:20 -11.27  -6.45    -4.38-226.175008             -0.0000
iter:  41  20:57:44 -11.55  -6.50    -4.37-226.175008             -0.0000
iter:  42  20:58:09 -11.03  -6.54    -4.44-226.175008             +0.0000
iter:  43  20:58:33 -11.41  -6.66    -4.49-226.175008             -0.0000
iter:  44  20:58:57 -12.50  -6.71    -5.15-226.175008             -0.0000
iter:  45  20:59:22 -10.90  -6.75    -4.34-226.175008             -0.0000
iter:  46  20:59:46 -12.11  -6.98    -4.83-226.175008             -0.0000
iter:  47  21:00:10 -12.14  -7.02    -4.63-226.175008             -0.0000
iter:  48  21:00:35 -12.43  -7.22    -5.10-226.175008             -0.0000
iter:  49  21:00:59 -12.58  -7.34    -5.04-226.175008             -0.0000
iter:  50  21:01:23 -12.47  -7.45    -4.90-226.175008             -0.0000
iter:  51  21:01:48 -13.87  -7.65    -5.53-226.175008             -0.0000
iter:  52  21:02:12 -12.91  -7.69    -5.18-226.175008             -0.0000
iter:  53  21:02:36 -13.66  -7.92    -5.45-226.175008             -0.0000
iter:  54  21:03:01 -13.76  -8.06    -5.72-226.175008             -0.0000
iter:  55  21:03:25 -14.28  -8.26    -6.07-226.175008             -0.0000

Converged after 55 iterations.

Dipole moment: (18.332625, -2.308535, -4.523610) |e|*Ang

Total magnetic moment: (0.000000, 0.000000, -0.000000)
Local magnetic moments:
   0 O  ( 0.000000,  0.000000, -0.001869)
   1 O  ( 0.000000,  0.000000,  0.001796)
   2 O  ( 0.000000,  0.000000,  0.001818)
   3 O  ( 0.000000,  0.000000, -0.001863)
   4 O  ( 0.000000,  0.000000,  0.001812)
   5 O  ( 0.000000,  0.000000, -0.001858)
   6 O  ( 0.000000,  0.000000, -0.001874)
   7 O  ( 0.000000,  0.000000,  0.001801)
   8 O  ( 0.000000,  0.000000,  0.031145)
   9 O  ( 0.000000,  0.000000, -0.031146)
  10 O  ( 0.000000,  0.000000, -0.030910)
  11 O  ( 0.000000,  0.000000,  0.031010)
  12 Mn ( 0.000000,  0.000000,  4.395724)
  13 Mn ( 0.000000,  0.000000, -4.395665)
  14 Mn ( 0.000000,  0.000000, -4.395178)
  15 Mn ( 0.000000,  0.000000,  4.395667)
  16 P  ( 0.000000,  0.000000,  0.000874)
  17 P  ( 0.000000,  0.000000, -0.000874)
  18 P  ( 0.000000,  0.000000, -0.001125)
  19 P  ( 0.000000,  0.000000,  0.000834)
  20 O  ( 0.000000,  0.000000,  0.028407)
  21 O  ( 0.000000,  0.000000, -0.028450)
  22 O  ( 0.000000,  0.000000, -0.028462)
  23 O  ( 0.000000,  0.000000,  0.028425)
  24 Li ( 0.000000,  0.000000, -0.000000)
  25 Li ( 0.000000,  0.000000, -0.000003)
  26 Li ( 0.000000,  0.000000, -0.000000)
  27 Li ( 0.000000,  0.000000, -0.000003)

Energy contributions relative to reference atoms: (reference = -196157.275402)

Kinetic:       +277.722701
Potential:     -241.048317
External:        +0.000000
XC:            -264.737312
Entropy (-ST):   -0.000000
Local:           +1.887920
--------------------------
Free energy:   -226.175008
Extrapolated:  -226.175008

Spin contamination: 9.455072 electrons
Showing only first 2 kpts
                      Up                     Down
 Kpt  Band  Eigenvalues  Occupancy  Eigenvalues  Occupancy
  0    88      6.53185    0.00694      6.53306    0.00694
  0    89      6.56566    0.00694      6.57543    0.00694
  0    90      8.42843    0.00000      8.42704    0.00000
  0    91      8.45430    0.00000      8.45099    0.00000

  1    88      6.57034    0.00694      6.57052    0.00694
  1    89      6.59749    0.00694      6.60983    0.00694
  1    90      8.38418    0.00000      8.38344    0.00000
  1    91      8.41032    0.00000      8.40771    0.00000


Fermi level: 7.65894

Gap: 1.691 eV
Transition (v -> c):
  (s=1, k=74, n=89, [0.08, -0.42, 0.12]) -> (s=1, k=61, n=90, [-0.08, 0.08, -0.12])
Writing to born-0.01-22x+.gpw (mode='all')

Timing:                              incl.     excl.
-----------------------------------------------------------
Hamiltonian:                         0.219     0.002   0.0% |
 Atomic:                             0.056     0.056   0.0% |
  XC Correction:                     0.000     0.000   0.0% |
 Calculate atomic Hamiltonians:      0.074     0.074   0.0% |
 Communicate:                        0.002     0.002   0.0% |
 Initialize Hamiltonian:             0.000     0.000   0.0% |
 Poisson:                            0.001     0.001   0.0% |
 XC 3D grid:                         0.084     0.084   0.0% |
LCAO initialization:                70.881     0.659   0.0% |
 LCAO eigensolver:                  19.837     0.002   0.0% |
  Calculate projections:             0.029     0.029   0.0% |
  DenseAtomicCorrection:             0.045     0.045   0.0% |
  Distribute overlap matrix:         0.009     0.009   0.0% |
  Orbital Layouts:                   0.430     0.430   0.0% |
  Potential matrix:                 19.224    19.224   0.6% |
  Sum over cells:                    0.099     0.099   0.0% |
 LCAO to grid:                      49.057    49.057   1.5% ||
 Set positions (LCAO WFS):           1.327     0.193   0.0% |
  Basic WFS set positions:           0.001     0.001   0.0% |
  Basis functions set positions:     0.000     0.000   0.0% |
  P tci:                             0.529     0.529   0.0% |
  ST tci:                            0.385     0.385   0.0% |
  mktci:                             0.218     0.218   0.0% |
PWDescriptor:                        0.023     0.023   0.0% |
SCF-cycle:                        1207.912     3.427   0.1% |
 Davidson:                        1027.888   314.386   9.7% |---|
  Apply H:                          71.498    69.444   2.1% ||
   HMM T:                            2.054     2.054   0.1% |
  Subspace diag:                   149.316     0.157   0.0% |
   calc_h_matrix:                   96.073    24.779   0.8% |
    Apply H:                        71.294    69.221   2.1% ||
     HMM T:                          2.073     2.073   0.1% |
   diagonalize:                      7.503     7.503   0.2% |
   rotate_psi:                      45.583    45.583   1.4% ||
  calc. matrices:                  307.391   168.070   5.2% |-|
   Apply H:                        139.321   135.491   4.2% |-|
    HMM T:                           3.830     3.830   0.1% |
  diagonalize:                      86.589    86.589   2.7% ||
  rotate_psi:                       98.708    98.708   3.0% ||
 Density:                           41.727     0.001   0.0% |
  Atomic density matrices:           0.915     0.915   0.0% |
  Mix:                               5.711     5.711   0.2% |
  Multipole moments:                 0.019     0.019   0.0% |
  Pseudo density:                   35.080    35.078   1.1% |
   Symmetrize density:               0.002     0.002   0.0% |
 Forces:                           121.145   121.145   3.7% ||
 Hamiltonian:                       11.662     0.116   0.0% |
  Atomic:                            2.766     2.765   0.1% |
   XC Correction:                    0.000     0.000   0.0% |
  Calculate atomic Hamiltonians:     4.017     4.017   0.1% |
  Communicate:                       0.088     0.088   0.0% |
  Poisson:                           0.032     0.032   0.0% |
  XC 3D grid:                        4.643     4.643   0.1% |
 Orthonormalize:                     2.063     0.003   0.0% |
  calc_s_matrix:                     0.242     0.242   0.0% |
  inverse-cholesky:                  0.072     0.072   0.0% |
  projections:                       1.316     1.316   0.0% |
  rotate_psi_s:                      0.430     0.430   0.0% |
Set symmetry:                        0.000     0.000   0.0% |
Other:                            1975.522  1975.522  60.7% |-----------------------|
-----------------------------------------------------------
Total:                                      3254.557 100.0%

Memory usage: 13.50 GiB
Date: Thu Mar 25 21:36:20 2021
