
  ___ ___ ___ _ _ _  
 |   |   |_  | | | | 
 | | | | | . | | | | 
 |__ |  _|___|_____|  20.10.1b1
 |___|_|             

User:   madkru@i008.nifl.fysik.dtu.dk
Date:   Thu Mar 25 05:55:38 2021
Arch:   x86_64
Pid:    26969
Python: 3.7.4
gpaw:   /home/niflheim/madkru/venv_folder/gpaw/gpaw (d224efde0f)
_gpaw:  /home/niflheim/madkru/venv_folder/gpaw/build/lib.linux-x86_64-ivybridge-3.7/
        _gpaw.cpython-37m-x86_64-linux-gnu.so (4fd39e8b1e)
ase:    /home/niflheim/madkru/venv_folder/ase/ase (version 3.21.0b1-4d5a73cb29)
numpy:  /home/niflheim/madkru/venv_folder/lib/python3.7/site-packages/numpy (version 1.19.4)
scipy:  /home/niflheim/madkru/venv_folder/lib/python3.7/site-packages/scipy (version 1.5.4)
libxc:  4.3.4
units:  Angstrom and eV
cores: 64
OMP_NUM_THREADS: 1

Input parameters:
  convergence: {bands: occupied,
                density: 0.0001,
                eigenstates: 4e-08,
                energy: 0.0005,
                forces: 1e-06}
  kpts: [6 6 4]
  mode: {ecut: 600.0,
         gammacentered: False,
         name: pw}
  occupations: {fixmagmom: False,
                name: fermi-dirac,
                width: 0.001}
  symmetry: {point_group: False,
             time_reversal: False}

System changes: positions, numbers, cell, pbc, initial_charges, initial_magmoms 

Initialize ...

O-setup:
  name: Oxygen
  id: 9b9d51c344dea68c822856295a461509
  Z: 8.0
  valence: 6
  core: 2
  charge: 0.0
  file: /home/modules/software/GPAW-setups/0.9.20000/O.LDA.gz
  compensation charges: gauss, rc=0.21, lmax=2
  cutoffs: 1.17(filt), 0.83(core),
  valence states:
                energy  radius
    2s(2.00)   -23.752   0.688
    2p(4.00)    -9.195   0.598
    *s           3.459   0.688
    *p          18.016   0.598
    *d           0.000   0.619

  Using partial waves for O as LCAO basis

Mn-setup:
  name: Manganese
  id: 0d715a8018be061a6e9ea6f2d364ac92
  Z: 25.0
  valence: 15
  core: 10
  charge: 0.0
  file: /home/modules/software/GPAW-setups/0.9.20000/Mn.LDA.gz
  compensation charges: gauss, rc=0.38, lmax=2
  cutoffs: 2.14(filt), 0.86(core),
  valence states:
                energy  radius
    3s(2.00)   -85.387   1.275
    4s(2.00)    -5.282   1.275
    3p(6.00)   -54.493   1.281
    4p(0.00)    -1.471   1.281
    3d(5.00)    -7.009   1.138
    *d          20.203   1.138

  Using partial waves for Mn as LCAO basis

P-setup:
  name: Phosphorus
  id: a5561c299094968922a179ab894d2e2d
  Z: 15.0
  valence: 5
  core: 10
  charge: 0.0
  file: /home/modules/software/GPAW-setups/0.9.20000/P.LDA.gz
  compensation charges: gauss, rc=0.30, lmax=2
  cutoffs: 1.69(filt), 1.81(core),
  valence states:
                energy  radius
    3s(2.00)   -14.015   0.953
    3p(3.00)    -5.596   0.953
    *s          13.197   0.953
    *p          21.615   0.953
    *d           0.000   0.953

  Using partial waves for P as LCAO basis

Li-setup:
  name: Lithium
  id: b73562207f97a71b6967473b66fe8b65
  Z: 3.0
  valence: 1
  core: 2
  charge: 0.0
  file: /home/modules/software/GPAW-setups/0.9.20000/Li.LDA.gz
  compensation charges: gauss, rc=0.33, lmax=2
  cutoffs: 1.91(filt), 2.55(core),
  valence states:
                energy  radius
    2s(1.00)    -2.874   1.058
    2p(0.00)    -1.126   1.058
    *s          24.338   1.058

  Using partial waves for Li as LCAO basis

Reference energy: -196157.275402

Spin-polarized calculation.
Magnetic moment: 0.000000

Convergence criteria:
  Maximum total energy change: 0.0005 eV / electron
  Maximum integral of absolute density change: 0.0001 electrons
  Maximum integral of absolute eigenstate change: 4e-08 eV^2
  Maximum change in atomic force: 1e-06 eV / Ang
  Maximum number of iterations: 333

Symmetries present (total): 1

  ( 1  0  0)
  ( 0  1  0)
  ( 0  0  1)

144 k-points: 6 x 6 x 4 Monkhorst-Pack grid
144 k-points in the irreducible part of the Brillouin zone
       k-points in crystal coordinates                weights
   0:    -0.41666667   -0.41666667   -0.37500000          1/144
   1:    -0.41666667   -0.41666667   -0.12500000          1/144
   2:    -0.41666667   -0.41666667    0.12500000          1/144
   3:    -0.41666667   -0.41666667    0.37500000          1/144
   4:    -0.41666667   -0.25000000   -0.37500000          1/144
   5:    -0.41666667   -0.25000000   -0.12500000          1/144
   6:    -0.41666667   -0.25000000    0.12500000          1/144
   7:    -0.41666667   -0.25000000    0.37500000          1/144
   8:    -0.41666667   -0.08333333   -0.37500000          1/144
   9:    -0.41666667   -0.08333333   -0.12500000          1/144
          ...
 143:     0.41666667    0.41666667    0.37500000          1/144

Wave functions: Plane wave expansion
  Cutoff energy: 600.000 eV
  Number of coefficients (min, max): 9132, 9161
  Pulay-stress correction: 0.000000 eV/Ang^3 (de/decut=0.000000)
  Using FFTW library
  ScaLapack parameters: grid=1x1, blocksize=None
  Wavefunction extrapolation:
    Improved wavefunction reuse through dual PAW basis 

  Fermi-Dirac: width=0.0010 eV

Eigensolver
   Davidson(niter=2, smin=None, normalize=True) 

Densities:
  Coarse grid: 60*35*27 grid
  Fine grid: 120*70*54 grid
  Total Charge: 0.000000 

Density mixing:
  Method: difference
  Backend: pulay
  Linear mixing parameter: 0.05
  Mixing with 5 old densities
  Damping of long wave oscillations: 50 

Hamiltonian:
  XC and Coulomb potentials evaluated on a 120*70*54 grid
  Using the LDA Exchange-Correlation functional
 

Memory estimate:
  Process memory now: 13070.09 MiB
  Calculator: 322.47 MiB
    Density: 9.62 MiB
      Arrays: 3.79 MiB
      Localized functions: 4.27 MiB
      Mixer: 1.56 MiB
    Hamiltonian: 2.94 MiB
      Arrays: 2.82 MiB
      XC: 0.00 MiB
      Poisson: 0.00 MiB
      vbar: 0.12 MiB
    Wavefunctions: 309.91 MiB
      Arrays psit_nG: 281.81 MiB
      Eigensolver: 18.27 MiB
      Projections: 2.71 MiB
      Projectors: 4.40 MiB
      PW-descriptor: 2.71 MiB

Total number of cores used: 64
Parallelization over k-points: 16
Domain decomposition: 2 x 2 x 1

Number of atoms: 28
Number of atomic orbitals: 148
Number of bands in calculation: 112
Number of valence electrons: 180
Bands to converge: occupied

... initialized

Initializing position-dependent things.

Density initialized from atomic densities
Creating initial wave functions:
  112 bands from LCAO basis set

                                           
                                           
                                           
                                           
                                           
               O     O  P  O               
            PO           OMn     O         
                  O          MO            
            O        Li O                  
             Mn  Mn          OP            
         O       O Li O                    
         Li     O P         O              
       Li                                  
                                           
                                           
                                           
                                           

Positions:
   0 O     -1.280122   -2.495595   -1.112331    ( 0.0000,  0.0000,  0.0000)
   1 O     -3.023238    2.918858    1.191723    ( 0.0000,  0.0000,  0.0000)
   2 O      1.997451    0.467212    1.441442    ( 0.0000,  0.0000,  0.0000)
   3 O      3.740343   -0.043905   -0.862614    ( 0.0000,  0.0000,  0.0000)
   4 O      1.997419    2.918835    1.441465    ( 0.0000,  0.0000,  0.0000)
   5 O      3.740372   -2.495531   -0.862587    ( 0.0000,  0.0000,  0.0000)
   6 O     -1.280154   -0.043891   -1.112309    ( 0.0000,  0.0000,  0.0000)
   7 O     -3.023210    0.467136    1.191750    ( 0.0000,  0.0000,  0.0000)
   8 O     -4.147405   -1.269737   -0.856207    ( 0.0000,  0.0000,  0.0000)
   9 O     -0.155894    1.692986    1.447725    ( 0.0000,  0.0000,  0.0000)
  10 O      4.864578    1.693016    1.185324    ( 0.0000,  0.0000,  0.0000)
  11 O      0.873163   -1.269706   -1.118625    ( 0.0000,  0.0000,  0.0000)
  12 Mn    -2.437108   -1.269902    0.302197    ( 0.0000,  0.0000,  1.0000)
  13 Mn    -1.866187    1.693156   -2.001927    ( 0.0000,  0.0000, -1.0000)
  14 Mn     3.154299    1.693181    0.026917    ( 0.0000,  0.0000, -1.0000)
  15 Mn     2.583444   -1.269877    2.331074    ( 0.0000,  0.0000,  1.0000)
  16 P     -0.543052   -1.269720   -1.734187    ( 0.0000,  0.0000,  0.0000)
  17 P     -3.760282    1.682974    0.569859    ( 0.0000,  0.0000,  0.0000)
  18 P      1.260300    1.693000    2.063344    ( 0.0000,  0.0000,  0.0000)
  19 P      4.477470   -1.269695   -0.240696    ( 0.0000,  0.0000,  0.0000)
  20 O     -0.544413   -1.269738    1.348523    ( 0.0000,  0.0000,  0.0000)
  21 O     -3.758895    1.692992   -0.955558    ( 0.0000,  0.0000,  0.0000)
  22 O      1.261690    1.693018   -1.019367    ( 0.0000,  0.0000,  0.0000)
  23 O      4.476045   -1.269713    1.284716    ( 0.0000,  0.0000,  0.0000)
  24 Li    -4.662027   -2.751322   -2.139440    ( 0.0000,  0.0000,  0.0000)
  25 Li     0.358703   -2.751277    0.164614    ( 0.0000,  0.0000,  0.0000)
  26 Li    -4.662011    0.211617   -2.139439    ( 0.0000,  0.0000,  0.0000)
  27 Li     0.358720    0.211628    0.164615    ( 0.0000,  0.0000,  0.0000)

Unit cell:
           periodic     x           y           z      points  spacing
  1. axis:    yes   10.041096    0.000054   -0.000022    60     0.1674
  2. axis:    yes    0.000032    5.925857    0.000001    35     0.1693
  3. axis:    yes   -0.000010    0.000001    4.608134    27     0.1707

  Lengths:  10.041096   5.925857   4.608134
  Angles:   89.999974  90.000250  89.999381

Effective grid spacing dv^(1/3) = 0.1691

                     log10-error:           total        iterations:
           time      wfs    density  force  energy       poisson  magmom
iter:   1  05:57:13                       -233.728162             +0.0000
iter:   2  05:57:32  -0.47  -0.95         -231.547880             +0.0016
iter:   3  05:57:52  -0.61  -1.00         -220.800008             +0.0016
iter:   4  05:58:12  -1.19  -1.31         -220.876245             +0.3161
iter:   5  05:58:32  -2.11  -1.40         -222.905610             +0.1702
iter:   6  05:58:51  -2.14  -1.38         -223.711775             +0.2898
iter:   7  05:59:11  -2.17  -1.52         -223.742162             -0.1669
iter:   8  05:59:31  -2.51  -1.66         -225.572428             -0.6083
iter:   9  05:59:51  -2.32  -1.89         -226.446159             -0.2562
iter:  10  06:00:10  -2.24  -2.00         -226.319795             -0.0751
iter:  11  06:00:30  -2.88  -2.11         -226.296597             -0.0307
iter:  12  06:00:50  -2.57  -2.15         -226.237961             -0.0028
iter:  13  06:01:09  -2.94  -2.48         -226.211786             -0.0065
iter:  14  06:01:29  -2.92  -2.77         -226.184729             -0.0009
iter:  15  06:01:49  -3.49  -2.88         -226.177541             -0.0009
iter:  16  06:02:09  -4.27  -3.17         -226.177150             -0.0003
iter:  17  06:02:28  -4.02  -3.25         -226.173428             -0.0000
iter:  18  06:02:48  -5.13  -3.39         -226.172970             -0.0001
iter:  19  06:03:08  -4.43  -3.47         -226.174495             -0.0000
iter:  20  06:03:27  -5.34  -3.61         -226.173361             -0.0000
iter:  21  06:03:47  -4.74  -3.73         -226.172817             -0.0000
iter:  22  06:04:07  -6.15  -4.12         -226.172769             -0.0000
iter:  23  06:04:27  -6.85  -4.33         -226.172773             -0.0000
iter:  24  06:04:46  -7.01  -4.36         -226.172774             +0.0000
iter:  25  06:05:10  -7.74  -4.70         -226.172774             +0.0000
iter:  26  06:05:30  -7.29  -4.75         -226.172775             +0.0000
iter:  27  06:05:50  -7.39  -4.84         -226.172774             +0.0000
iter:  28  06:06:14  -8.47  -4.98    -2.14-226.172774             +0.0000
iter:  29  06:06:39  -8.46  -5.04    -3.15-226.172774             -0.0000
iter:  30  06:07:03  -8.66  -5.10    -2.82-226.172774             +0.0000
iter:  31  06:07:27  -8.46  -5.15    -3.26-226.172773             -0.0000
iter:  32  06:07:51  -9.20  -5.17    -3.84-226.172773             +0.0000
iter:  33  06:08:16  -8.94  -5.21    -3.13-226.172773             -0.0000
iter:  34  06:08:40  -9.44  -5.36    -3.86-226.172773             -0.0000
iter:  35  06:09:04  -8.79  -5.39    -2.80-226.172773             +0.0000
iter:  36  06:09:29  -9.97  -5.79    -3.48-226.172773             +0.0000
iter:  37  06:09:53  -9.61  -6.15    -3.67-226.172773             +0.0000
iter:  38  06:10:17 -10.86  -6.26    -3.98-226.172773             +0.0000
iter:  39  06:10:42  -9.91  -6.33    -3.76-226.172773             +0.0000
iter:  40  06:11:06 -11.13  -6.65    -4.52-226.172773             +0.0000
iter:  41  06:11:30 -11.12  -6.75    -4.65-226.172773             +0.0000
iter:  42  06:11:55 -11.58  -6.83    -4.52-226.172773             +0.0000
iter:  43  06:12:19 -12.38  -6.90    -4.94-226.172773             +0.0000
iter:  44  06:12:44 -13.24  -6.93    -5.00-226.172773             +0.0000
iter:  45  06:13:08 -11.86  -6.98    -4.95-226.172773             +0.0000
iter:  46  06:13:32 -12.36  -7.16    -5.12-226.172773             +0.0000
iter:  47  06:13:57 -12.91  -7.25    -5.55-226.172773             +0.0000
iter:  48  06:14:21 -12.70  -7.32    -4.94-226.172773             +0.0000
iter:  49  06:14:45 -12.53  -7.51    -5.38-226.172773             +0.0000
iter:  50  06:15:10 -12.79  -7.60    -5.23-226.172773             +0.0000
iter:  51  06:15:34 -13.06  -7.76    -5.45-226.172773             +0.0000
iter:  52  06:15:58 -13.47  -7.89    -5.63-226.172773             +0.0000
iter:  53  06:16:23 -14.83  -8.19    -6.10-226.172773             +0.0000

Converged after 53 iterations.

Dipole moment: (18.327095, -2.323658, -4.524242) |e|*Ang

Total magnetic moment: (0.000000, 0.000000, 0.000000)
Local magnetic moments:
   0 O  ( 0.000000,  0.000000, -0.001828)
   1 O  ( 0.000000,  0.000000,  0.001710)
   2 O  ( 0.000000,  0.000000,  0.001816)
   3 O  ( 0.000000,  0.000000, -0.001828)
   4 O  ( 0.000000,  0.000000,  0.001799)
   5 O  ( 0.000000,  0.000000, -0.001785)
   6 O  ( 0.000000,  0.000000, -0.001793)
   7 O  ( 0.000000,  0.000000,  0.001921)
   8 O  ( 0.000000,  0.000000,  0.031097)
   9 O  ( 0.000000,  0.000000, -0.031097)
  10 O  ( 0.000000,  0.000000, -0.031097)
  11 O  ( 0.000000,  0.000000,  0.031096)
  12 Mn ( 0.000000,  0.000000,  4.395745)
  13 Mn ( 0.000000,  0.000000, -4.395764)
  14 Mn ( 0.000000,  0.000000, -4.395735)
  15 Mn ( 0.000000,  0.000000,  4.395751)
  16 P  ( 0.000000,  0.000000,  0.000866)
  17 P  ( 0.000000,  0.000000, -0.000867)
  18 P  ( 0.000000,  0.000000, -0.000871)
  19 P  ( 0.000000,  0.000000,  0.000870)
  20 O  ( 0.000000,  0.000000,  0.028417)
  21 O  ( 0.000000,  0.000000, -0.028417)
  22 O  ( 0.000000,  0.000000, -0.028420)
  23 O  ( 0.000000,  0.000000,  0.028418)
  24 Li ( 0.000000,  0.000000,  0.000008)
  25 Li ( 0.000000,  0.000000,  0.000001)
  26 Li ( 0.000000,  0.000000, -0.000008)
  27 Li ( 0.000000,  0.000000, -0.000001)

Energy contributions relative to reference atoms: (reference = -196157.275402)

Kinetic:       +277.636499
Potential:     -240.975811
External:        +0.000000
XC:            -264.721880
Entropy (-ST):   -0.000000
Local:           +1.888418
--------------------------
Free energy:   -226.172773
Extrapolated:  -226.172773

Spin contamination: 9.455299 electrons
Showing only first 2 kpts
                      Up                     Down
 Kpt  Band  Eigenvalues  Occupancy  Eigenvalues  Occupancy
  0    88      6.53049    0.00694      6.53032    0.00694
  0    89      6.56401    0.00694      6.56419    0.00694
  0    90      8.42675    0.00000      8.42669    0.00000
  0    91      8.44835    0.00000      8.44840    0.00000

  1    88      6.56891    0.00694      6.56893    0.00694
  1    89      6.59599    0.00694      6.59598    0.00694
  1    90      8.38310    0.00000      8.38305    0.00000
  1    91      8.40522    0.00000      8.40526    0.00000


Fermi level: 7.59672

Gap: 1.699 eV
Transition (v -> c):
  (s=1, k=69, n=89, [-0.08, 0.42, -0.12]) -> (s=0, k=81, n=90, [0.08, -0.08, -0.12])
Writing to born-0.01-17y-.gpw (mode='all')

Timing:                              incl.     excl.
-----------------------------------------------------------
Hamiltonian:                         0.226     0.002   0.0% |
 Atomic:                             0.065     0.065   0.0% |
  XC Correction:                     0.000     0.000   0.0% |
 Calculate atomic Hamiltonians:      0.073     0.073   0.0% |
 Communicate:                        0.002     0.002   0.0% |
 Initialize Hamiltonian:             0.000     0.000   0.0% |
 Poisson:                            0.001     0.001   0.0% |
 XC 3D grid:                         0.083     0.083   0.0% |
LCAO initialization:                69.080     0.647   0.0% |
 LCAO eigensolver:                  19.618     0.002   0.0% |
  Calculate projections:             0.029     0.029   0.0% |
  DenseAtomicCorrection:             0.045     0.045   0.0% |
  Distribute overlap matrix:         0.009     0.009   0.0% |
  Orbital Layouts:                   0.432     0.432   0.0% |
  Potential matrix:                 19.013    19.013   0.6% |
  Sum over cells:                    0.088     0.088   0.0% |
 LCAO to grid:                      47.501    47.501   1.6% ||
 Set positions (LCAO WFS):           1.314     0.191   0.0% |
  Basic WFS set positions:           0.001     0.001   0.0% |
  Basis functions set positions:     0.000     0.000   0.0% |
  P tci:                             0.523     0.523   0.0% |
  ST tci:                            0.382     0.382   0.0% |
  mktci:                             0.215     0.215   0.0% |
PWDescriptor:                        0.023     0.023   0.0% |
SCF-cycle:                        1173.958     3.518   0.1% |
 Davidson:                         991.412   303.584  10.0% |---|
  Apply H:                          68.886    66.922   2.2% ||
   HMM T:                            1.965     1.965   0.1% |
  Subspace diag:                   144.119     0.154   0.0% |
   calc_h_matrix:                   92.850    23.919   0.8% |
    Apply H:                        68.931    66.926   2.2% ||
     HMM T:                          2.005     2.005   0.1% |
   diagonalize:                      7.240     7.240   0.2% |
   rotate_psi:                      43.875    43.875   1.4% ||
  calc. matrices:                  296.416   162.024   5.3% |-|
   Apply H:                        134.393   130.710   4.3% |-|
    HMM T:                           3.682     3.682   0.1% |
  diagonalize:                      83.370    83.370   2.7% ||
  rotate_psi:                       95.036    95.036   3.1% ||
 Density:                           40.227     0.001   0.0% |
  Atomic density matrices:           0.811     0.811   0.0% |
  Mix:                               5.473     5.473   0.2% |
  Multipole moments:                 0.020     0.020   0.0% |
  Pseudo density:                   33.922    33.920   1.1% |
   Symmetrize density:               0.001     0.001   0.0% |
 Forces:                           125.457   125.457   4.1% |-|
 Hamiltonian:                       11.281     0.111   0.0% |
  Atomic:                            2.682     2.682   0.1% |
   XC Correction:                    0.000     0.000   0.0% |
  Calculate atomic Hamiltonians:     3.917     3.917   0.1% |
  Communicate:                       0.089     0.089   0.0% |
  Poisson:                           0.031     0.031   0.0% |
  XC 3D grid:                        4.451     4.451   0.1% |
 Orthonormalize:                     2.063     0.003   0.0% |
  calc_s_matrix:                     0.242     0.242   0.0% |
  inverse-cholesky:                  0.072     0.072   0.0% |
  projections:                       1.317     1.317   0.0% |
  rotate_psi_s:                      0.429     0.429   0.0% |
Set symmetry:                        0.000     0.000   0.0% |
Other:                            1796.791  1796.791  59.1% |-----------------------|
-----------------------------------------------------------
Total:                                      3040.078 100.0%

Memory usage: 12.77 GiB
Date: Thu Mar 25 06:46:18 2021
