
  ___ ___ ___ _ _ _  
 |   |   |_  | | | | 
 | | | | | . | | | | 
 |__ |  _|___|_____|  20.10.1b1
 |___|_|             

User:   madkru@i013.nifl.fysik.dtu.dk
Date:   Mon Mar 22 17:52:01 2021
Arch:   x86_64
Pid:    27943
Python: 3.7.4
gpaw:   /home/niflheim/madkru/venv_folder/gpaw/gpaw (d0d1ca1c71)
_gpaw:  /home/niflheim/madkru/venv_folder/gpaw/build/lib.linux-x86_64-ivybridge-3.7/
        _gpaw.cpython-37m-x86_64-linux-gnu.so (4fd39e8b1e)
ase:    /home/niflheim/madkru/venv_folder/ase/ase (version 3.21.0b1-7e6c206a91)
numpy:  /home/niflheim/madkru/venv_folder/lib/python3.7/site-packages/numpy (version 1.19.4)
scipy:  /home/niflheim/madkru/venv_folder/lib/python3.7/site-packages/scipy (version 1.5.4)
libxc:  4.3.4
units:  Angstrom and eV
cores: 32
OMP_NUM_THREADS: 1

Input parameters:
  convergence: {bands: occupied,
                density: 0.0001,
                eigenstates: 4e-08,
                energy: 0.0005,
                forces: 1e-06}
  kpts: [6 6 4]
  mode: {ecut: 600.0,
         gammacentered: False,
         name: pw}
  occupations: {fixmagmom: False,
                name: fermi-dirac,
                width: 0.001}
  symmetry: {point_group: False,
             time_reversal: False}

System changes: positions, numbers, cell, pbc, initial_charges, initial_magmoms 

Initialize ...

O-setup:
  name: Oxygen
  id: 9b9d51c344dea68c822856295a461509
  Z: 8.0
  valence: 6
  core: 2
  charge: 0.0
  file: /home/modules/software/GPAW-setups/0.9.20000/O.LDA.gz
  compensation charges: gauss, rc=0.21, lmax=2
  cutoffs: 1.17(filt), 0.83(core),
  valence states:
                energy  radius
    2s(2.00)   -23.752   0.688
    2p(4.00)    -9.195   0.598
    *s           3.459   0.688
    *p          18.016   0.598
    *d           0.000   0.619

  Using partial waves for O as LCAO basis

Mn-setup:
  name: Manganese
  id: 0d715a8018be061a6e9ea6f2d364ac92
  Z: 25.0
  valence: 15
  core: 10
  charge: 0.0
  file: /home/modules/software/GPAW-setups/0.9.20000/Mn.LDA.gz
  compensation charges: gauss, rc=0.38, lmax=2
  cutoffs: 2.14(filt), 0.86(core),
  valence states:
                energy  radius
    3s(2.00)   -85.387   1.275
    4s(2.00)    -5.282   1.275
    3p(6.00)   -54.493   1.281
    4p(0.00)    -1.471   1.281
    3d(5.00)    -7.009   1.138
    *d          20.203   1.138

  Using partial waves for Mn as LCAO basis

P-setup:
  name: Phosphorus
  id: a5561c299094968922a179ab894d2e2d
  Z: 15.0
  valence: 5
  core: 10
  charge: 0.0
  file: /home/modules/software/GPAW-setups/0.9.20000/P.LDA.gz
  compensation charges: gauss, rc=0.30, lmax=2
  cutoffs: 1.69(filt), 1.81(core),
  valence states:
                energy  radius
    3s(2.00)   -14.015   0.953
    3p(3.00)    -5.596   0.953
    *s          13.197   0.953
    *p          21.615   0.953
    *d           0.000   0.953

  Using partial waves for P as LCAO basis

Li-setup:
  name: Lithium
  id: b73562207f97a71b6967473b66fe8b65
  Z: 3.0
  valence: 1
  core: 2
  charge: 0.0
  file: /home/modules/software/GPAW-setups/0.9.20000/Li.LDA.gz
  compensation charges: gauss, rc=0.33, lmax=2
  cutoffs: 1.91(filt), 2.55(core),
  valence states:
                energy  radius
    2s(1.00)    -2.874   1.058
    2p(0.00)    -1.126   1.058
    *s          24.338   1.058

  Using partial waves for Li as LCAO basis

Reference energy: -196157.275402

Spin-polarized calculation.
Magnetic moment: 0.000000

Convergence criteria:
  Maximum total energy change: 0.0005 eV / electron
  Maximum integral of absolute density change: 0.0001 electrons
  Maximum integral of absolute eigenstate change: 4e-08 eV^2
  Maximum change in atomic force: 1e-06 eV / Ang
  Maximum number of iterations: 333

Symmetries present (total): 1

  ( 1  0  0)
  ( 0  1  0)
  ( 0  0  1)

144 k-points: 6 x 6 x 4 Monkhorst-Pack grid
144 k-points in the irreducible part of the Brillouin zone
       k-points in crystal coordinates                weights
   0:    -0.41666667   -0.41666667   -0.37500000          1/144
   1:    -0.41666667   -0.41666667   -0.12500000          1/144
   2:    -0.41666667   -0.41666667    0.12500000          1/144
   3:    -0.41666667   -0.41666667    0.37500000          1/144
   4:    -0.41666667   -0.25000000   -0.37500000          1/144
   5:    -0.41666667   -0.25000000   -0.12500000          1/144
   6:    -0.41666667   -0.25000000    0.12500000          1/144
   7:    -0.41666667   -0.25000000    0.37500000          1/144
   8:    -0.41666667   -0.08333333   -0.37500000          1/144
   9:    -0.41666667   -0.08333333   -0.12500000          1/144
          ...
 143:     0.41666667    0.41666667    0.37500000          1/144

Wave functions: Plane wave expansion
  Cutoff energy: 600.000 eV
  Number of coefficients (min, max): 9132, 9161
  Pulay-stress correction: 0.000000 eV/Ang^3 (de/decut=0.000000)
  Using FFTW library
  ScaLapack parameters: grid=1x1, blocksize=None
  Wavefunction extrapolation:
    Improved wavefunction reuse through dual PAW basis 

  Fermi-Dirac: width=0.0010 eV

Eigensolver
   Davidson(niter=2, smin=None, normalize=True) 

Densities:
  Coarse grid: 60*35*27 grid
  Fine grid: 120*70*54 grid
  Total Charge: 0.000000 

Density mixing:
  Method: difference
  Backend: pulay
  Linear mixing parameter: 0.05
  Mixing with 5 old densities
  Damping of long wave oscillations: 50 

Hamiltonian:
  XC and Coulomb potentials evaluated on a 120*70*54 grid
  Using the LDA Exchange-Correlation functional
 

Memory estimate:
  Process memory now: 13356.08 MiB
  Calculator: 342.26 MiB
    Density: 19.13 MiB
      Arrays: 7.57 MiB
      Localized functions: 8.54 MiB
      Mixer: 3.03 MiB
    Hamiltonian: 5.87 MiB
      Arrays: 5.62 MiB
      XC: 0.00 MiB
      Poisson: 0.00 MiB
      vbar: 0.25 MiB
    Wavefunctions: 317.25 MiB
      Arrays psit_nG: 281.81 MiB
      Eigensolver: 18.27 MiB
      Projections: 5.41 MiB
      Projectors: 8.81 MiB
      PW-descriptor: 2.95 MiB

Total number of cores used: 32
Parallelization over k-points: 16
Domain decomposition: 2 x 1 x 1

Number of atoms: 28
Number of atomic orbitals: 148
Number of bands in calculation: 112
Number of valence electrons: 180
Bands to converge: occupied

... initialized

Initializing position-dependent things.

Density initialized from atomic densities
Creating initial wave functions:
  112 bands from LCAO basis set

                                           
                                           
                                           
                                           
                                           
               O     O  P  O               
            PO           OMn     O         
                  O          MO            
            O        Li O                  
             Mn  Mn          OP            
         O       O Li O                    
         Li     O P         O              
       Li                                  
                                           
                                           
                                           
                                           

Positions:
   0 O     -1.280122   -2.495595   -1.112331    ( 0.0000,  0.0000,  0.0000)
   1 O     -3.023238    2.918858    1.191723    ( 0.0000,  0.0000,  0.0000)
   2 O      1.997451    0.467212    1.441442    ( 0.0000,  0.0000,  0.0000)
   3 O      3.740343   -0.043905   -0.862614    ( 0.0000,  0.0000,  0.0000)
   4 O      1.997419    2.918835    1.441465    ( 0.0000,  0.0000,  0.0000)
   5 O      3.740372   -2.495531   -0.862587    ( 0.0000,  0.0000,  0.0000)
   6 O     -1.280154   -0.043891   -1.112309    ( 0.0000,  0.0000,  0.0000)
   7 O     -3.023210    0.467136    1.201750    ( 0.0000,  0.0000,  0.0000)
   8 O     -4.147405   -1.269737   -0.856207    ( 0.0000,  0.0000,  0.0000)
   9 O     -0.155894    1.692986    1.447725    ( 0.0000,  0.0000,  0.0000)
  10 O      4.864578    1.693016    1.185324    ( 0.0000,  0.0000,  0.0000)
  11 O      0.873163   -1.269706   -1.118625    ( 0.0000,  0.0000,  0.0000)
  12 Mn    -2.437108   -1.269902    0.302197    ( 0.0000,  0.0000,  1.0000)
  13 Mn    -1.866187    1.693156   -2.001927    ( 0.0000,  0.0000, -1.0000)
  14 Mn     3.154299    1.693181    0.026917    ( 0.0000,  0.0000, -1.0000)
  15 Mn     2.583444   -1.269877    2.331074    ( 0.0000,  0.0000,  1.0000)
  16 P     -0.543052   -1.269720   -1.734187    ( 0.0000,  0.0000,  0.0000)
  17 P     -3.760282    1.692974    0.569859    ( 0.0000,  0.0000,  0.0000)
  18 P      1.260300    1.693000    2.063344    ( 0.0000,  0.0000,  0.0000)
  19 P      4.477470   -1.269695   -0.240696    ( 0.0000,  0.0000,  0.0000)
  20 O     -0.544413   -1.269738    1.348523    ( 0.0000,  0.0000,  0.0000)
  21 O     -3.758895    1.692992   -0.955558    ( 0.0000,  0.0000,  0.0000)
  22 O      1.261690    1.693018   -1.019367    ( 0.0000,  0.0000,  0.0000)
  23 O      4.476045   -1.269713    1.284716    ( 0.0000,  0.0000,  0.0000)
  24 Li    -4.662027   -2.751322   -2.139440    ( 0.0000,  0.0000,  0.0000)
  25 Li     0.358703   -2.751277    0.164614    ( 0.0000,  0.0000,  0.0000)
  26 Li    -4.662011    0.211617   -2.139439    ( 0.0000,  0.0000,  0.0000)
  27 Li     0.358720    0.211628    0.164615    ( 0.0000,  0.0000,  0.0000)

Unit cell:
           periodic     x           y           z      points  spacing
  1. axis:    yes   10.041096    0.000054   -0.000022    60     0.1674
  2. axis:    yes    0.000032    5.925857    0.000001    35     0.1693
  3. axis:    yes   -0.000010    0.000001    4.608134    27     0.1707

  Lengths:  10.041096   5.925857   4.608134
  Angles:   89.999974  90.000250  89.999381

Effective grid spacing dv^(1/3) = 0.1691

                     log10-error:           total        iterations:
           time      wfs    density  force  energy       poisson  magmom
iter:   1  17:55:08                       -233.734931             +0.0000
iter:   2  17:55:44  -0.47  -0.95         -231.547663             +0.0025
iter:   3  17:56:20  -0.61  -1.00         -220.810661             +0.0025
iter:   4  17:56:56  -1.21  -1.31         -221.163607             +0.0004
iter:   5  17:57:32  -2.15  -1.38         -222.641669             +0.0006
iter:   6  17:58:09  -2.48  -1.37         -223.327003             +0.0002
iter:   7  17:58:45  -1.83  -1.55         -222.985609             +0.0002
iter:   8  17:59:21  -2.09  -1.93         -226.020513             +0.0000
iter:   9  17:59:57  -2.20  -2.07         -226.320631             -0.0000
iter:  10  18:00:33  -2.24  -2.15         -226.400490             -0.0000
iter:  11  18:01:10  -3.18  -2.30         -226.386149             -0.0000
iter:  12  18:01:46  -2.72  -2.34         -226.205722             -0.0000
iter:  13  18:02:22  -3.02  -2.51         -226.204945             -0.0000
iter:  14  18:02:58  -3.38  -2.77         -226.199753             -0.0000
iter:  15  18:03:34  -3.12  -2.84         -226.181918             +0.0000
iter:  16  18:04:10  -3.63  -2.90         -226.177385             +0.0000
iter:  17  18:04:47  -4.74  -3.37         -226.176990             -0.0000
iter:  18  18:05:23  -4.64  -3.43         -226.175980             -0.0000
iter:  19  18:05:59  -4.76  -3.55         -226.175066             +0.0000
iter:  20  18:06:35  -5.33  -3.57         -226.174906             +0.0000
iter:  21  18:07:11  -5.52  -3.69         -226.174819             +0.0000
iter:  22  18:07:48  -6.33  -3.95         -226.174836             +0.0000
iter:  23  18:08:24  -6.35  -3.99         -226.174841             +0.0000
iter:  24  18:09:00  -6.93  -4.36         -226.174825             +0.0000
iter:  25  18:09:36  -7.28  -4.48         -226.174818             +0.0000
iter:  26  18:10:12  -7.05  -4.57         -226.174811             +0.0000
iter:  27  18:10:57  -7.78  -4.67         -226.174810             +0.0000
iter:  28  18:11:34  -7.07  -4.71         -226.174809             +0.0000
iter:  29  18:12:19  -7.63  -4.87    -2.20-226.174809             +0.0000
iter:  30  18:13:04  -8.09  -5.00    -3.22-226.174809             -0.0000
iter:  31  18:13:50  -7.94  -5.06    -3.00-226.174809             -0.0000
iter:  32  18:14:35  -8.74  -5.13    -3.00-226.174809             +0.0000
iter:  33  18:15:20  -8.34  -5.25    -3.00-226.174809             +0.0000
iter:  34  18:16:06  -8.86  -5.47    -3.50-226.174809             +0.0000
iter:  35  18:16:51  -9.60  -5.49    -3.75-226.174809             +0.0000
iter:  36  18:17:37  -8.85  -5.52    -3.59-226.174809             +0.0000
iter:  37  18:18:22  -9.26  -5.72    -3.80-226.174809             +0.0000
iter:  38  18:19:07 -10.33  -5.87    -4.21-226.174809             +0.0000
iter:  39  18:19:53  -9.65  -5.91    -3.39-226.174809             +0.0000
iter:  40  18:20:38 -10.07  -6.30    -4.23-226.174809             +0.0000
iter:  41  18:21:23 -11.04  -6.54    -4.88-226.174809             +0.0000
iter:  42  18:22:09 -10.80  -6.58    -4.15-226.174809             +0.0000
iter:  43  18:22:54 -11.05  -6.91    -4.69-226.174809             +0.0000
iter:  44  18:23:40 -12.14  -7.21    -5.15-226.174809             +0.0000
iter:  45  18:24:25 -12.28  -7.26    -5.22-226.174809             +0.0000
iter:  46  18:25:11 -12.93  -7.40    -4.94-226.174809             +0.0000
iter:  47  18:25:56 -14.01  -7.77    -6.21-226.174809             +0.0000

Converged after 47 iterations.

Dipole moment: (18.326427, -2.308856, -4.522124) |e|*Ang

Total magnetic moment: (0.000000, 0.000000, 0.000000)
Local magnetic moments:
   0 O  ( 0.000000,  0.000000, -0.001666)
   1 O  ( 0.000000,  0.000000,  0.001792)
   2 O  ( 0.000000,  0.000000,  0.001806)
   3 O  ( 0.000000,  0.000000, -0.001820)
   4 O  ( 0.000000,  0.000000,  0.001796)
   5 O  ( 0.000000,  0.000000, -0.001817)
   6 O  ( 0.000000,  0.000000, -0.001861)
   7 O  ( 0.000000,  0.000000,  0.001533)
   8 O  ( 0.000000,  0.000000,  0.031042)
   9 O  ( 0.000000,  0.000000, -0.031117)
  10 O  ( 0.000000,  0.000000, -0.031189)
  11 O  ( 0.000000,  0.000000,  0.031103)
  12 Mn ( 0.000000,  0.000000,  4.396203)
  13 Mn ( 0.000000,  0.000000, -4.395224)
  14 Mn ( 0.000000,  0.000000, -4.395754)
  15 Mn ( 0.000000,  0.000000,  4.395731)
  16 P  ( 0.000000,  0.000000,  0.000858)
  17 P  ( 0.000000,  0.000000, -0.001077)
  18 P  ( 0.000000,  0.000000, -0.000884)
  19 P  ( 0.000000,  0.000000,  0.000862)
  20 O  ( 0.000000,  0.000000,  0.028395)
  21 O  ( 0.000000,  0.000000, -0.028414)
  22 O  ( 0.000000,  0.000000, -0.028425)
  23 O  ( 0.000000,  0.000000,  0.028406)
  24 Li ( 0.000000,  0.000000, -0.000001)
  25 Li ( 0.000000,  0.000000, -0.000001)
  26 Li ( 0.000000,  0.000000, -0.000008)
  27 Li ( 0.000000,  0.000000,  0.000001)

Energy contributions relative to reference atoms: (reference = -196157.275402)

Kinetic:       +277.375396
Potential:     -240.774750
External:        +0.000000
XC:            -264.664689
Entropy (-ST):   -0.000000
Local:           +1.889234
--------------------------
Free energy:   -226.174809
Extrapolated:  -226.174809

Spin contamination: 9.455143 electrons
Showing only first 2 kpts
                      Up                     Down
 Kpt  Band  Eigenvalues  Occupancy  Eigenvalues  Occupancy
  0    88      6.52896    0.00694      6.53320    0.00694
  0    89      6.56269    0.00694      6.56614    0.00694
  0    90      8.42866    0.00000      8.42733    0.00000
  0    91      8.45088    0.00000      8.44883    0.00000

  1    88      6.56767    0.00694      6.57174    0.00694
  1    89      6.59483    0.00694      6.59843    0.00694
  1    90      8.38469    0.00000      8.38341    0.00000
  1    91      8.40724    0.00000      8.40561    0.00000


Fermi level: 7.64084

Gap: 1.697 eV
Transition (v -> c):
  (s=1, k=70, n=89, [-0.08, 0.42, 0.12]) -> (s=1, k=81, n=90, [0.08, -0.08, -0.12])
Writing to born-0.01-7z+.gpw (mode='all')

Timing:                              incl.     excl.
-----------------------------------------------------------
Hamiltonian:                         0.361     0.002   0.0% |
 Atomic:                             0.050     0.050   0.0% |
  XC Correction:                     0.000     0.000   0.0% |
 Calculate atomic Hamiltonians:      0.150     0.150   0.0% |
 Communicate:                        0.002     0.002   0.0% |
 Initialize Hamiltonian:             0.000     0.000   0.0% |
 Poisson:                            0.001     0.001   0.0% |
 XC 3D grid:                         0.156     0.156   0.0% |
LCAO initialization:               140.738     0.645   0.0% |
 LCAO eigensolver:                  38.091     0.002   0.0% |
  Calculate projections:             0.056     0.056   0.0% |
  DenseAtomicCorrection:             0.088     0.088   0.0% |
  Distribute overlap matrix:         0.006     0.006   0.0% |
  Orbital Layouts:                   0.340     0.340   0.0% |
  Potential matrix:                 37.499    37.499   0.7% |
  Sum over cells:                    0.098     0.098   0.0% |
 LCAO to grid:                      99.624    99.624   1.8% ||
 Set positions (LCAO WFS):           2.377     0.372   0.0% |
  Basic WFS set positions:           0.001     0.001   0.0% |
  Basis functions set positions:     0.000     0.000   0.0% |
  P tci:                             1.058     1.058   0.0% |
  ST tci:                            0.698     0.698   0.0% |
  mktci:                             0.248     0.248   0.0% |
PWDescriptor:                        0.024     0.024   0.0% |
SCF-cycle:                        1892.220    15.790   0.3% |
 Davidson:                        1606.641   514.211   9.5% |---|
  Apply H:                         114.637   110.777   2.0% ||
   HMM T:                            3.860     3.860   0.1% |
  Subspace diag:                   238.705     0.147   0.0% |
   calc_h_matrix:                  155.313    42.027   0.8% |
    Apply H:                       113.286   109.589   2.0% ||
     HMM T:                          3.697     3.697   0.1% |
   diagonalize:                      5.533     5.533   0.1% |
   rotate_psi:                      77.713    77.713   1.4% ||
  calc. matrices:                  505.926   282.773   5.2% |-|
   Apply H:                        223.154   216.219   4.0% |-|
    HMM T:                           6.934     6.934   0.1% |
  diagonalize:                      74.331    74.331   1.4% ||
  rotate_psi:                      158.830   158.830   2.9% ||
 Density:                           64.632     0.001   0.0% |
  Atomic density matrices:           1.166     1.166   0.0% |
  Mix:                               8.910     8.910   0.2% |
  Multipole moments:                 0.028     0.028   0.0% |
  Pseudo density:                   54.528    54.526   1.0% |
   Symmetrize density:               0.001     0.001   0.0% |
 Forces:                           184.563   184.563   3.4% ||
 Hamiltonian:                       16.612     0.103   0.0% |
  Atomic:                            2.326     2.325   0.0% |
   XC Correction:                    0.000     0.000   0.0% |
  Calculate atomic Hamiltonians:     6.702     6.702   0.1% |
  Communicate:                       0.074     0.074   0.0% |
  Poisson:                           0.053     0.053   0.0% |
  XC 3D grid:                        7.354     7.354   0.1% |
 Orthonormalize:                     3.982     0.004   0.0% |
  calc_s_matrix:                     0.479     0.479   0.0% |
  inverse-cholesky:                  0.053     0.053   0.0% |
  projections:                       2.594     2.594   0.0% |
  rotate_psi_s:                      0.852     0.852   0.0% |
Set symmetry:                        0.000     0.000   0.0% |
Other:                            3401.657  3401.657  62.6% |------------------------|
-----------------------------------------------------------
Total:                                      5434.999 100.0%

Memory usage: 13.07 GiB
Date: Mon Mar 22 19:22:36 2021
