
  ___ ___ ___ _ _ _  
 |   |   |_  | | | | 
 | | | | | . | | | | 
 |__ |  _|___|_____|  21.1.1b1
 |___|_|             

User:   madkru@c177.nifl.fysik.dtu.dk
Date:   Thu May  6 13:04:27 2021
Arch:   x86_64
Pid:    96181
Python: 3.8.6
gpaw:   /home/niflheim2/cmr/WIP/stacking/venv/gpaw/gpaw (393e8a163a)
_gpaw:  /home/niflheim2/cmr/WIP/stacking/venv/gpaw/build/lib.linux-x86_64-skylake-3.8/
        _gpaw.cpython-38-x86_64-linux-gnu.so (393e8a163a)
ase:    /home/niflheim2/cmr/WIP/stacking/venv/ase/ase (version 3.22.0b1-5e85d35a81)
numpy:  /home/modules/software/SciPy-bundle/2020.11-intel-2020b/lib/python3.8/site-packages/numpy (version 1.19.4)
scipy:  /home/modules/software/SciPy-bundle/2020.11-intel-2020b/lib/python3.8/site-packages/scipy (version 1.5.4)
libxc:  4.3.4
units:  Angstrom and eV
cores: 40
OpenMP: False
OMP_NUM_THREADS: 1

Input parameters:
  convergence: {density: 1e-09}
  experimental: {magmoms: [[0. 0. 0.]
 [0. 0. 0.]
 [0. 0. 0.]
 ...
 [0. 0. 0.]
 [0. 0. 0.]
 [0. 0. 0.]],
                 soc: True}
  kpts: [4 4 6]
  maxiter: 5000
  mixer: {backend: pulay,
          beta: 0.05,
          method: difference,
          nmaxold: 3,
          weight: 100}
  mode: {ecut: 600.0,
         gammacentered: False,
         name: pw}
  occupations: {fixmagmom: False,
                name: fermi-dirac,
                width: 0.001}
  symmetry: off

System changes: positions, numbers, cell, pbc, initial_charges, initial_magmoms 

Initialize ...

O-setup:
  name: Oxygen
  id: 9b9d51c344dea68c822856295a461509
  Z: 8.0
  valence: 6
  core: 2
  charge: 0.0
  file: /home/modules/software/GPAW-setups/0.9.20000/O.LDA.gz
  compensation charges: gauss, rc=0.21, lmax=2
  cutoffs: 1.17(filt), 0.83(core),
  valence states:
                energy  radius
    2s(2.00)   -23.752   0.688
    2p(4.00)    -9.195   0.598
    *s           3.459   0.688
    *p          18.016   0.598
    *d           0.000   0.619

  Using partial waves for O as LCAO basis

Mn-setup:
  name: Manganese
  id: 0d715a8018be061a6e9ea6f2d364ac92
  Z: 25.0
  valence: 15
  core: 10
  charge: 0.0
  file: /home/modules/software/GPAW-setups/0.9.20000/Mn.LDA.gz
  compensation charges: gauss, rc=0.38, lmax=2
  cutoffs: 2.14(filt), 0.86(core),
  valence states:
                energy  radius
    3s(2.00)   -85.387   1.275
    4s(2.00)    -5.282   1.275
    3p(6.00)   -54.493   1.281
    4p(0.00)    -1.471   1.281
    3d(5.00)    -7.009   1.138
    *d          20.203   1.138

  Using partial waves for Mn as LCAO basis

P-setup:
  name: Phosphorus
  id: a5561c299094968922a179ab894d2e2d
  Z: 15.0
  valence: 5
  core: 10
  charge: 0.0
  file: /home/modules/software/GPAW-setups/0.9.20000/P.LDA.gz
  compensation charges: gauss, rc=0.30, lmax=2
  cutoffs: 1.69(filt), 1.81(core),
  valence states:
                energy  radius
    3s(2.00)   -14.015   0.953
    3p(3.00)    -5.596   0.953
    *s          13.197   0.953
    *p          21.615   0.953
    *d           0.000   0.953

  Using partial waves for P as LCAO basis

Li-setup:
  name: Lithium
  id: b73562207f97a71b6967473b66fe8b65
  Z: 3.0
  valence: 1
  core: 2
  charge: 0.0
  file: /home/modules/software/GPAW-setups/0.9.20000/Li.LDA.gz
  compensation charges: gauss, rc=0.33, lmax=2
  cutoffs: 1.91(filt), 2.55(core),
  valence states:
                energy  radius
    2s(1.00)    -2.874   1.058
    2p(0.00)    -1.126   1.058
    *s          24.338   1.058

  Using partial waves for Li as LCAO basis

Reference energy: -196157.275402

Non-collinear calculation.
Magnetic moment: (0.000000, 0.000000, 0.000000)

Convergence criteria:
  Maximum total energy change: 0.0005 eV / electron
  Maximum integral of absolute density change: 1e-09 electrons
  Maximum integral of absolute eigenstate change: 4e-08 eV^2
  Maximum number of iterations: 5000

Symmetries present (total): 1

  ( 1  0  0)
  ( 0  1  0)
  ( 0  0  1)

96 k-points: 4 x 4 x 6 Monkhorst-Pack grid
96 k-points in the irreducible part of the Brillouin zone
       k-points in crystal coordinates                weights
   0:    -0.37500000   -0.37500000   -0.41666667          1/96
   1:    -0.37500000   -0.37500000   -0.25000000          1/96
   2:    -0.37500000   -0.37500000   -0.08333333          1/96
   3:    -0.37500000   -0.37500000    0.08333333          1/96
   4:    -0.37500000   -0.37500000    0.25000000          1/96
   5:    -0.37500000   -0.37500000    0.41666667          1/96
   6:    -0.37500000   -0.12500000   -0.41666667          1/96
   7:    -0.37500000   -0.12500000   -0.25000000          1/96
   8:    -0.37500000   -0.12500000   -0.08333333          1/96
   9:    -0.37500000   -0.12500000    0.08333333          1/96
          ...
  95:     0.37500000    0.37500000    0.41666667          1/96

Wave functions: Plane wave expansion
  Cutoff energy: 600.000 eV
  Number of coefficients (min, max): 9124, 9168
  Pulay-stress correction: 0.000000 eV/Ang^3 (de/decut=0.000000)
  Using FFTW library
  ScaLapack parameters: grid=1x1, blocksize=None
  Wavefunction extrapolation:
    Improved wavefunction reuse through dual PAW basis 

  Fermi-Dirac: width=0.0010 eV

Eigensolver
   Davidson(niter=2) 

Densities:
  Coarse grid: 60*35*27 grid
  Fine grid: 120*70*54 grid
  Total Charge: 0.000000 

Density mixing:
  Method: difference
  Backend: pulay
  Linear mixing parameter: 0.05
  Mixing with 3 old densities
  Damping of long wave oscillations: 100 

Hamiltonian:
  XC and Coulomb potentials evaluated on a 120*70*54 grid
  Using the LDA Exchange-Correlation functional
 

Memory estimate:
  Process memory now: 206.09 MiB
  Calculator: 155.08 MiB
    Density: 36.11 MiB
      Arrays: 11.25 MiB
      Localized functions: 17.07 MiB
      Mixer: 7.79 MiB
    Hamiltonian: 7.85 MiB
      Arrays: 7.35 MiB
      XC: 0.00 MiB
      Poisson: 0.00 MiB
      vbar: 0.49 MiB
    Wavefunctions: 111.13 MiB
      Arrays psit_nG: 62.67 MiB
      Eigensolver: 39.70 MiB
      Projections: 2.41 MiB
      Projectors: 3.91 MiB
      PW-descriptor: 2.44 MiB

Total number of cores used: 40
Parallelization over k-points: 40

Number of atoms: 28
Number of atomic orbitals: 148
Number of bands in calculation: 224
Number of valence electrons: 180
Bands to converge: occupied

... initialized

Initializing position-dependent things.

Density initialized from atomic densities
Creating initial wave functions:
  148 bands from LCAO basis set
  76 bands from random numbers

                                           
                                           
                                           
                                           
                                           
               O     O  P  O               
            PO           OMn     O         
                  O          MO            
            O        Li O                  
             Mn  On          OP            
         O         Li O                    
         Li     O P         O              
       Li                                  
                                           
                                           
                                           
                                           

Positions:
   0 O      3.385959    0.254817    1.041299    ( 0.0000,  0.0000,  0.0000)
   1 O      1.634581    5.671080    3.345351    ( 0.0000,  0.0000,  0.0000)
   2 O      6.663529    3.219426    3.595072    ( 0.0000,  0.0000,  0.0000)
   3 O      8.398160    2.706513    1.291014    ( 0.0000,  0.0000,  0.0000)
   4 O      6.663500    5.669246    3.595087    ( 0.0000,  0.0000, -3.0000)
   5 O      8.398189    0.256691    1.291035    ( 0.0000,  0.0000,  3.0000)
   6 O      3.385927    2.708326    1.041327    ( 0.0000,  0.0000,  3.0000)
   7 O      1.634607    3.217555    3.345386    ( 0.0000,  0.0000, -3.0000)
   8 O      0.511531    1.481587    1.297064    ( 0.0000,  0.0000,  0.0000)
   9 O      4.509067    4.444296    3.600992    ( 0.0000,  0.0000,  0.0000)
  10 O      9.523514    4.444341    3.338600    ( 0.0000,  0.0000,  0.0000)
  11 O      5.538125    1.481603    1.034646    ( 0.0000,  0.0000,  0.0000)
  12 Mn     2.226791    1.481423    2.418776    ( 0.0000,  0.0000,  0.0000)
  13 Mn     2.793811    4.444465    0.114649    ( 5.0000,  0.0000,  0.0000)
  14 Mn     7.818203    4.444505    2.143498    (-5.0000,  0.0000,  0.0000)
  15 Mn     7.243438    1.481433    4.447654    (-5.0000,  0.0000,  0.0000)
  16 P      4.122928    1.481595    0.408323    ( 5.0000,  0.0000,  0.0000)
  17 P      0.897635    4.444294    2.712369    ( 0.0000,  0.0000,  0.0000)
  18 P      5.926279    4.444315    4.205848    ( 0.0000,  0.0000,  0.0000)
  19 P      9.135387    1.481625    1.901809    ( 0.0000,  0.0000,  0.0000)
  20 O      4.119993    1.481583    3.498829    ( 0.0000,  0.0000,  0.0000)
  21 O      0.900592    4.444305    1.194749    ( 0.0000,  0.0000,  0.0000)
  22 O      5.926095    4.444340    1.130933    ( 0.0000,  0.0000,  0.0000)
  23 O      9.135535    1.481600    3.435017    ( 0.0000,  0.0000,  0.0000)
  24 Li    -0.005355    0.013006   -0.032946    ( 0.0000,  0.0000,  0.0000)
  25 Li     5.025921   -0.012989    2.271091    ( 0.0000,  0.0000,  0.0000)
  26 Li    -0.005314    2.949921   -0.032923    ( 0.0000,  0.0000,  0.0000)
  27 Li     5.025919    2.975959    2.271142    ( 0.0000,  0.0000,  0.0000)

Unit cell:
           periodic     x           y           z      points  spacing
  1. axis:    yes   10.041096    0.000054   -0.000022    60     0.1674
  2. axis:    yes    0.000032    5.925857    0.000001    35     0.1693
  3. axis:    yes   -0.000010    0.000001    4.608134    27     0.1707

  Lengths:  10.041096   5.925857   4.608134
  Angles:   89.999974  90.000250  89.999381

Effective grid spacing dv^(1/3) = 0.1691

                     log10-error:    total        iterations:
           time      wfs    density  energy       poisson
iter:   1  13:07:21                -258.013953            -1.0,+0.0,+0.0
iter:   2  13:07:56  -0.45  -0.90  -262.899407            +0.6,-0.0,+0.2
iter:   3  13:08:31  -0.89  -0.95  -257.210866            +0.0,-0.0,-0.0
iter:   4  13:09:06  -0.70  -0.98  -233.034371            -0.0,-0.0,-0.0
iter:   5  13:09:41  -0.41  -1.09  -236.744665            -0.0,+0.0,-0.0
iter:   6  13:10:15  -1.57  -1.26  -223.561091            -0.0,+0.0,-0.0
iter:   7  13:10:50  -2.14  -1.36  -223.048357            +0.1,+0.0,-0.0
iter:   8  13:11:25  -3.32  -1.36  -222.843510            -0.0,-0.0,-0.0
iter:   9  13:12:00  -1.92  -1.39  -225.345092            -0.1,-0.0,-0.0
iter:  10  13:12:35  -2.18  -1.36  -222.544476            -0.2,-0.0,-0.0
iter:  11  13:13:09  -2.45  -1.52  -222.450615            +0.0,-0.0,-0.0
iter:  12  13:13:44  -2.65  -1.68  -222.374991            -0.0,-0.0,-0.0
iter:  13  13:14:19  -2.64  -1.90  -222.594033            -0.2,-0.0,-0.1
iter:  14  13:14:53  -3.18  -2.02  -222.619605            -0.5,-0.1,-0.1
iter:  15  13:15:28  -3.12  -2.03  -222.774063            +0.8,-0.0,-0.1
iter:  16  13:16:03  -2.87  -2.00  -223.666184            +0.3,-0.0,-0.2
iter:  17  13:16:37  -3.20  -1.97  -223.647007            +1.7,-0.0,-0.2
iter:  18  13:17:12  -3.07  -1.99  -224.419136            +3.3,-0.1,-0.2
iter:  19  13:17:46  -3.24  -1.98  -224.615435            +4.1,-0.1,-0.2
iter:  20  13:18:21  -3.02  -1.99  -224.512785            +4.0,-0.1,-0.2
iter:  21  13:18:55  -2.13  -2.07  -224.882013            +3.9,-0.1,-0.2
iter:  22  13:19:30  -2.98  -1.99  -224.323870            +4.0,-0.1,-0.2
iter:  23  13:20:04  -3.13  -2.26  -224.325740            +4.0,-0.2,-0.2
iter:  24  13:20:39  -3.39  -2.29  -224.269189            +3.9,-0.1,-0.2
iter:  25  13:21:14  -2.76  -2.32  -224.396009            +3.7,-0.1,-0.1
iter:  26  13:21:48  -3.46  -2.38  -224.256830            +4.0,-0.1,-0.1
iter:  27  13:22:23  -3.65  -2.43  -224.360117            +4.0,-0.3,-0.1
iter:  28  13:22:57  -3.91  -2.42  -224.298443            +3.8,-0.1,-0.1
iter:  29  13:23:32  -3.65  -2.49  -224.507364            +3.6,-0.3,+0.0
iter:  30  13:24:07  -3.71  -2.44  -224.435575            +3.4,-0.2,+0.0
iter:  31  13:24:41  -2.83  -2.44  -224.438841            +3.8,-0.4,+0.2
iter:  32  13:25:16  -3.26  -2.37  -224.885645            +3.0,-0.5,+0.2
iter:  33  13:25:50  -3.78  -2.37  -224.905542            +3.2,-0.7,+0.3
iter:  34  13:26:25  -3.30  -2.33  -224.987664            +3.2,-1.0,+0.6
iter:  35  13:26:59  -3.41  -2.36  -225.412008            +2.5,-1.1,+0.8
iter:  36  13:27:34  -2.94  -2.36  -224.622396            +4.0,-1.1,+0.7
iter:  37  13:28:09  -3.42  -2.37  -224.971006            +3.5,-1.4,+0.9
iter:  38  13:28:43  -3.06  -2.38  -225.617460            +2.4,-1.4,+0.9
iter:  39  13:29:18  -2.87  -2.32  -225.044033            +3.8,-1.8,+1.1
iter:  40  13:29:52  -2.97  -2.41  -224.787665            +3.7,-0.7,+1.3
iter:  41  13:30:27  -3.28  -2.47  -225.126043            +3.2,-1.0,+1.6
iter:  42  13:31:02  -3.14  -2.59  -224.596125            +4.1,-1.0,+1.7
iter:  43  13:31:36  -3.31  -2.79  -225.086367            +4.6,-1.2,+2.4
iter:  44  13:32:11  -2.68  -2.69  -224.282356            +4.8,-1.2,+0.3
iter:  45  13:32:45  -3.58  -2.51  -224.546731            +4.5,-1.6,+0.4
iter:  46  13:33:20  -3.53  -2.58  -224.804494            +4.0,-1.7,+0.6
iter:  47  13:33:54  -3.84  -2.79  -224.875968            +4.3,-1.9,+0.9
iter:  48  13:34:29  -3.29  -2.94  -224.651995            +4.4,-1.7,+0.0
iter:  49  13:35:04  -3.88  -2.68  -224.736077            +4.2,-1.8,+0.2
iter:  50  13:35:38  -4.02  -2.74  -224.927282            +4.1,-2.2,+0.2
iter:  51  13:36:13  -3.69  -3.23  -224.663912            +4.2,-1.6,+0.2
iter:  52  13:36:47  -3.45  -2.71  -224.323368            +4.2,-0.8,+0.2
iter:  53  13:37:22  -2.99  -2.64  -225.161246            +4.0,-2.6,+0.3
iter:  54  13:37:56  -2.22  -2.85  -223.824519            +4.2,+1.5,+0.4
iter:  55  13:38:31  -2.76  -2.61  -224.456769            +3.5,-0.3,+0.4
iter:  56  13:39:05  -3.79  -2.67  -224.646005            +3.3,-0.3,+0.6
iter:  57  13:39:40  -3.69  -2.77  -224.953583            +2.8,-0.3,+0.8
iter:  58  13:40:14  -3.41  -3.17  -224.582595            +3.8,-0.5,+0.7
iter:  59  13:40:49  -3.60  -2.59  -224.478324            +4.4,-0.5,+0.8
iter:  60  13:41:23  -3.43  -2.52  -224.711174            +3.4,-0.5,+0.8
iter:  61  13:41:58  -3.25  -2.74  -224.487989            +4.7,-0.6,+0.9
iter:  62  13:42:32  -3.42  -2.50  -224.381305            +5.4,-0.7,+1.0
iter:  63  13:43:07  -3.19  -2.55  -224.572240            +4.2,-0.6,+0.8
iter:  64  13:43:41  -3.27  -2.51  -224.663781            +3.7,-0.6,+0.8
iter:  65  13:44:15  -3.41  -2.52  -224.564224            +4.4,-0.6,+0.9
iter:  66  13:44:50  -2.97  -2.41  -224.465491            +5.2,-0.7,+1.1
iter:  67  13:45:24  -2.97  -2.61  -224.624454            +3.8,-0.6,+0.9
iter:  68  13:45:58  -3.56  -2.68  -224.614006            +4.5,-0.8,+1.3
iter:  69  13:46:33  -3.08  -2.69  -224.447004            +5.7,-0.7,+1.2
iter:  70  13:47:07  -3.54  -2.74  -224.707046            +5.4,-1.1,+1.6
iter:  71  13:47:41  -3.91  -2.78  -224.786006            +5.5,-1.0,+1.7
iter:  72  13:48:16  -3.75  -2.84  -224.886261            +5.5,-1.4,+1.8
iter:  73  13:48:50  -3.44  -2.78  -225.114811            +5.6,-0.9,+2.4
iter:  74  13:49:24  -3.01  -2.77  -224.376817            +5.7,-0.2,+1.1
iter:  75  13:49:59  -2.85  -2.75  -223.862426            +5.8,-0.6,-0.4
iter:  76  13:50:33  -3.21  -2.66  -224.299111            +5.9,-0.5,+0.6
iter:  77  13:51:07  -4.03  -2.67  -224.366790            +6.0,-0.6,+0.5
iter:  78  13:51:42  -3.55  -2.74  -224.375174            +5.9,-0.4,+0.5
iter:  79  13:52:16  -3.78  -2.75  -224.466224            +6.2,-0.1,+0.7
iter:  80  13:52:50  -3.51  -2.83  -224.318014            +5.6,-0.2,+0.6
iter:  81  13:53:24  -3.63  -2.66  -224.313313            +5.4,-0.2,+0.6
iter:  82  13:53:59  -3.58  -2.62  -224.455736            +5.9,-0.2,+0.8
iter:  83  13:54:33  -3.43  -2.64  -224.468826            +6.0,-0.3,+0.9
iter:  84  13:55:07  -4.02  -2.78  -224.432590            +6.0,-0.3,+0.8
iter:  85  13:55:41  -3.98  -2.70  -224.368607            +6.0,-0.3,+0.7
iter:  86  13:56:15  -3.85  -2.71  -224.532047            +6.0,-0.4,+1.1
iter:  87  13:56:49  -3.46  -2.89  -224.351802            +6.0,-0.4,+0.5
iter:  88  13:57:24  -3.75  -2.75  -224.360367            +6.2,-0.5,+0.2
iter:  89  13:57:58  -4.13  -2.83  -224.350078            +5.9,-0.5,+0.4
iter:  90  13:58:32  -3.81  -2.76  -224.316007            +5.5,-0.5,+0.6
iter:  91  13:59:06  -3.62  -2.74  -224.422342            +6.2,-0.6,+0.5
iter:  92  13:59:40  -3.72  -2.92  -224.367731            +5.7,-0.7,+0.6
iter:  93  14:00:14  -3.44  -2.95  -224.258679            +4.9,-0.9,+0.6
iter:  94  14:00:49  -3.16  -2.98  -224.482498            +6.2,-0.7,+0.7
iter:  95  14:01:23  -3.33  -3.06  -224.394168            +5.2,-0.9,+1.0
iter:  96  14:01:57  -3.37  -3.22  -224.319630            +4.3,-0.9,+0.9
iter:  97  14:02:31  -3.51  -3.19  -224.618343            +4.9,-1.3,+1.3
iter:  98  14:03:05  -3.95  -3.01  -224.505953            +5.0,-0.9,+1.2
iter:  99  14:03:40  -3.79  -3.23  -224.675162            +5.1,-0.8,+1.7
iter: 100  14:04:14  -3.38  -2.88  -224.465613            +5.0,-1.2,+0.8
iter: 101  14:04:48  -3.45  -3.21  -224.242871            +5.0,-1.1,-0.0
iter: 102  14:05:22  -3.63  -3.00  -224.567592            +5.0,-1.8,+0.0
iter: 103  14:05:56  -3.37  -2.90  -224.271011            +5.0,-0.8,+0.2
iter: 104  14:06:31  -3.51  -2.87  -224.143185            +5.0,-0.2,+0.3
iter: 105  14:07:05  -3.70  -2.78  -224.349415            +4.9,-1.0,+0.4
iter: 106  14:07:39  -3.22  -2.85  -224.938887            +4.9,-2.2,+0.5
iter: 107  14:08:13  -2.96  -2.64  -224.241893            +4.9,-0.5,+0.4
iter: 108  14:08:47  -3.24  -2.78  -224.023405            +4.9,+0.5,+0.6
iter: 109  14:09:22  -3.53  -2.89  -224.226076            +4.9,-0.4,+0.5
iter: 110  14:09:56  -4.34  -2.78  -224.278440            +4.9,-0.3,+0.7
iter: 111  14:10:30  -3.69  -2.72  -224.161680            +4.9,-0.3,+0.3
iter: 112  14:11:04  -3.72  -2.87  -224.319722            +4.9,-0.6,+0.8
iter: 113  14:11:38  -4.00  -3.01  -224.419765            +4.9,-0.9,+1.0
iter: 114  14:12:12  -3.42  -3.21  -224.204004            +4.9,-0.1,+0.7
iter: 115  14:12:47  -4.19  -3.06  -224.321233            +4.8,-0.2,+1.0
iter: 116  14:13:21  -3.79  -3.15  -224.234316            +4.8,-0.4,+0.5
iter: 117  14:13:55  -4.00  -3.01  -224.370156            +4.8,-0.4,+1.0
iter: 118  14:14:29  -4.53  -3.21  -224.384377            +4.7,-0.6,+1.0
iter: 119  14:15:03  -3.83  -3.32  -224.512657            +4.7,-0.3,+1.5
iter: 120  14:15:38  -3.28  -3.12  -224.197582            +4.7,-0.4,+0.3
iter: 121  14:16:12  -2.90  -3.12  -224.194700            +4.6,-0.5,-1.3
iter: 122  14:16:46  -3.04  -2.54  -224.193227            +4.6,-0.6,+0.1
iter: 123  14:17:20  -4.34  -3.10  -224.223510            +4.5,-0.6,+0.0
iter: 124  14:17:54  -4.17  -2.99  -224.228161            +4.7,-0.8,+0.0
iter: 125  14:18:28  -3.85  -3.16  -224.166666            +4.9,-0.6,+0.2
iter: 126  14:19:03  -3.76  -3.02  -224.343376            +4.7,-1.1,+0.3
iter: 127  14:19:37  -4.39  -3.43  -224.385045            +4.7,-1.1,+0.4
iter: 128  14:20:11  -3.57  -3.13  -224.346292            +4.6,-1.2,+0.3
iter: 129  14:20:45  -3.63  -3.13  -224.577287            +4.6,-1.6,+0.5
iter: 130  14:21:19  -4.01  -2.90  -224.586538            +4.6,-1.6,+0.5
iter: 131  14:21:53  -3.57  -2.85  -225.141622            +4.5,-2.4,+0.7
iter: 132  14:22:27  -3.38  -2.50  -224.555023            +4.5,-1.5,+0.6
iter: 133  14:23:02  -3.95  -2.85  -224.563364            +4.4,-1.3,+0.8
iter: 134  14:23:36  -3.34  -2.76  -224.990556            +4.5,-2.2,+0.6
iter: 135  14:24:10  -2.76  -2.55  -224.014907            +4.3,-0.0,+0.8
iter: 136  14:24:44  -3.66  -2.94  -224.186969            +4.3,+0.1,+0.9
iter: 137  14:25:18  -3.42  -3.01  -224.216103            +4.3,+0.2,+0.7
iter: 138  14:25:52  -3.94  -3.21  -224.313092            +4.2,+0.1,+0.8
iter: 139  14:26:27  -3.80  -3.21  -224.400046            +3.7,+0.1,+0.6
iter: 140  14:27:01  -3.51  -2.97  -224.233404            +4.5,+0.1,+0.8
iter: 141  14:27:35  -3.50  -3.18  -224.307380            +5.0,+0.1,+1.2
iter: 142  14:28:09  -3.57  -3.02  -224.145403            +4.7,+0.1,+0.5
iter: 143  14:28:43  -3.74  -3.07  -224.124353            +4.7,+0.2,+0.1
iter: 144  14:29:18  -4.07  -3.13  -224.229167            +4.4,+0.2,+0.1
iter: 145  14:29:52  -3.80  -3.07  -224.342636            +3.9,+0.4,+0.2
iter: 146  14:30:26  -4.95  -3.01  -224.337841            +4.0,+0.4,+0.2
iter: 147  14:31:00  -4.11  -3.02  -224.394821            +3.7,+0.3,+0.2
iter: 148  14:31:34  -3.83  -3.03  -224.318563            +4.2,+0.5,+0.3
iter: 149  14:32:09  -3.50  -3.08  -224.199613            +4.8,+0.5,+0.4
iter: 150  14:32:43  -3.10  -3.18  -224.526410            +3.5,+0.7,+0.5
iter: 151  14:33:17  -2.33  -2.97  -223.823973            +7.0,+0.9,+0.5
iter: 152  14:33:51  -2.29  -2.53  -224.613857            +3.6,+0.8,+0.7
iter: 153  14:34:25  -3.55  -2.90  -224.616530            +3.9,+1.0,+1.0
iter: 154  14:35:00  -3.22  -2.92  -224.512324            +3.6,+0.9,+0.2
iter: 155  14:35:34  -3.70  -3.02  -224.793544            +3.2,+1.1,+0.3
iter: 156  14:36:08  -3.92  -2.68  -224.543206            +3.6,+0.9,+0.3
iter: 157  14:36:42  -3.78  -3.02  -224.468598            +3.8,+0.7,+0.5
iter: 158  14:37:16  -3.34  -3.01  -224.824488            +3.2,+1.2,+0.9
iter: 159  14:37:51  -3.06  -2.66  -224.219067            +4.3,+0.4,+1.1
iter: 160  14:38:25  -3.34  -2.92  -223.974425            +5.1,-0.0,+0.9
iter: 161  14:38:59  -3.01  -2.87  -224.690774            +3.6,+0.6,+1.6
iter: 162  14:39:33  -3.17  -2.78  -225.471780            +3.0,+0.7,+2.4
iter: 163  14:40:07  -2.98  -2.47  -224.475758            +3.9,+0.6,+1.1
iter: 164  14:40:42  -2.71  -2.89  -223.596845            +5.0,+0.8,-0.1
iter: 165  14:41:16  -2.54  -2.84  -224.991776            +3.1,+0.6,+1.8
iter: 166  14:41:50  -2.68  -2.54  -224.304674            +3.7,+0.7,-0.5
iter: 167  14:42:24  -3.21  -2.83  -225.048483            +2.7,+0.7,-0.6
iter: 168  14:42:59  -2.43  -2.55  -224.130232            +5.6,+1.0,-0.8
iter: 169  14:43:33  -3.65  -2.72  -224.189885            +5.1,+0.8,-0.8
iter: 170  14:44:07  -3.31  -2.91  -224.288420            +4.9,+0.6,-1.2
iter: 171  14:44:41  -4.22  -2.96  -224.361539            +4.9,+0.8,-1.2
iter: 172  14:45:16  -3.81  -2.91  -224.684417            +4.8,+1.1,-1.5
iter: 173  14:45:50  -3.22  -2.67  -224.347706            +4.4,+0.7,-0.7
iter: 174  14:46:24  -3.36  -3.03  -224.216864            +4.4,+0.4,-0.2
iter: 175  14:46:59  -3.75  -3.01  -224.315526            +4.4,+0.9,-0.2
iter: 176  14:47:33  -3.53  -3.05  -224.466562            +4.2,+1.3,-0.4
iter: 177  14:48:07  -3.76  -3.32  -224.336088            +4.2,+0.7,-0.3
iter: 178  14:48:41  -3.86  -3.10  -224.315641            +4.1,+0.2,-0.4
iter: 179  14:49:16  -3.49  -3.06  -224.441997            +4.2,+1.1,-0.5
iter: 180  14:49:50  -3.70  -3.36  -224.379093            +3.9,+0.5,-0.5
iter: 181  14:50:24  -3.28  -3.25  -224.295201            +4.0,-0.5,-0.6
iter: 182  14:50:58  -3.39  -3.08  -224.459116            +3.6,+0.4,-0.4
iter: 183  14:51:33  -4.16  -3.30  -224.466098            +3.5,+0.3,-0.3
iter: 184  14:52:07  -3.78  -3.12  -224.467631            +3.5,+0.3,-0.5
iter: 185  14:52:41  -3.58  -3.11  -224.867573            +2.9,+0.4,-0.6
iter: 186  14:53:15  -3.25  -2.63  -224.387092            +3.8,+0.5,-0.5
iter: 187  14:53:50  -3.70  -3.17  -224.202023            +4.1,+0.5,-0.6
iter: 188  14:54:24  -3.07  -3.19  -224.994812            +2.7,+0.6,-0.5
iter: 189  14:54:58  -2.58  -2.58  -223.835658            +5.3,+0.8,-0.9
iter: 190  14:55:32  -3.39  -2.81  -224.281356            +4.5,+1.0,-0.6
iter: 191  14:56:07  -3.74  -3.29  -224.406492            +4.0,+0.8,-0.4
iter: 192  14:56:41  -3.65  -3.50  -224.723329            +3.4,+1.2,-0.3
iter: 193  14:57:15  -3.22  -2.80  -224.275348            +4.6,+0.8,-0.6
iter: 194  14:57:49  -3.48  -3.21  -224.156314            +5.3,+0.7,-0.5
iter: 195  14:58:24  -3.66  -2.92  -224.404297            +4.7,+1.0,-0.8
iter: 196  14:58:58  -3.95  -3.23  -224.465606            +4.4,+1.0,-0.9
iter: 197  14:59:32  -3.70  -3.09  -224.847232            +4.0,+1.4,-1.3
iter: 198  15:00:06  -3.23  -2.68  -224.315938            +4.5,+0.5,-0.6
iter: 199  15:00:41  -3.38  -2.92  -224.125196            +4.6,-0.2,-0.3
iter: 200  15:01:15  -3.26  -2.86  -224.401996            +4.5,+0.9,-0.6
iter: 201  15:01:49  -3.72  -2.96  -224.513530            +4.5,+1.3,-0.8
iter: 202  15:02:23  -3.43  -3.05  -224.279588            +4.5,+0.4,-0.5
iter: 203  15:02:58  -3.34  -2.89  -224.150902            +4.4,-0.3,-0.3
iter: 204  15:03:32  -3.30  -2.89  -224.369088            +4.4,+0.7,-0.7
iter: 205  15:04:07  -3.89  -3.09  -224.477460            +4.2,+1.0,-0.8
iter: 206  15:04:41  -3.55  -3.17  -224.286477            +4.5,+0.3,-0.8
iter: 207  15:05:15  -4.01  -2.96  -224.301313            +4.6,+0.1,-1.0
iter: 208  15:05:49  -3.56  -2.93  -224.245450            +4.5,+0.1,-0.4
iter: 209  15:06:24  -4.25  -2.86  -224.310359            +4.5,+0.2,-0.6
iter: 210  15:06:58  -3.95  -2.86  -224.277139            +4.4,+0.2,-0.3
iter: 211  15:07:32  -4.31  -2.86  -224.211080            +4.5,+0.3,-0.2
iter: 212  15:08:07  -3.76  -2.97  -224.363321            +4.1,+0.3,-0.4
iter: 213  15:08:41  -3.90  -2.93  -224.436811            +3.7,+0.3,-0.5
iter: 214  15:09:15  -3.92  -2.85  -224.341936            +4.2,+0.2,-0.5
iter: 215  15:09:50  -3.72  -2.95  -224.273165            +4.5,+0.2,-0.6
iter: 216  15:10:24  -4.17  -3.07  -224.335062            +4.3,+0.2,-0.7
iter: 217  15:10:59  -3.89  -3.08  -224.318234            +4.3,+0.2,-0.6
iter: 218  15:11:33  -4.04  -2.98  -224.372048            +4.2,+0.3,-0.9
iter: 219  15:12:07  -3.89  -2.92  -224.263303            +4.3,+0.2,-0.4
iter: 220  15:12:41  -3.84  -3.00  -224.216012            +4.4,+0.2,-0.0
iter: 221  15:13:16  -4.26  -3.03  -224.253499            +4.2,+0.3,-0.1
iter: 222  15:13:50  -4.27  -3.07  -224.284916            +4.1,+0.3,-0.1
iter: 223  15:14:24  -4.24  -3.20  -224.328075            +3.8,+0.3,-0.2
iter: 224  15:14:59  -4.07  -3.22  -224.261922            +4.2,+0.3,-0.2
iter: 225  15:15:33  -3.72  -3.31  -224.173988            +4.7,+0.4,-0.2
iter: 226  15:16:07  -3.32  -3.44  -224.370531            +3.7,+0.5,-0.2
iter: 227  15:16:42  -2.69  -3.18  -224.002560            +5.9,+0.5,-0.2
iter: 228  15:17:16  -2.67  -2.62  -224.418895            +3.7,+0.6,-0.2
iter: 229  15:17:50  -4.24  -3.05  -224.363072            +3.9,+0.6,-0.1
iter: 230  15:18:25  -4.18  -3.17  -224.442190            +3.7,+0.6,-0.2
iter: 231  15:18:59  -3.83  -3.00  -224.316756            +4.2,+0.8,-0.2
iter: 232  15:19:33  -3.65  -3.23  -224.241274            +4.7,+1.0,-0.3
iter: 233  15:20:08  -4.29  -3.07  -224.241733            +4.5,+0.9,-0.2
iter: 234  15:20:42  -3.83  -3.22  -224.338439            +4.4,+1.2,+0.1
iter: 235  15:21:16  -3.93  -3.00  -224.333875            +4.1,+0.9,-0.0
iter: 236  15:21:51  -3.91  -3.10  -224.313623            +4.0,+0.8,-0.1
iter: 237  15:22:25  -3.64  -2.97  -224.535144            +3.7,+1.2,-0.1
iter: 238  15:22:59  -4.01  -2.86  -224.420406            +4.1,+1.2,-0.1
iter: 239  15:23:34  -3.90  -2.84  -224.497017            +4.3,+1.6,-0.2
iter: 240  15:24:08  -3.59  -2.68  -224.428441            +3.9,+1.1,-0.1
iter: 241  15:24:42  -3.80  -2.87  -224.382221            +3.9,+0.8,-0.2
iter: 242  15:25:16  -3.75  -3.03  -224.530699            +3.6,+1.1,-0.2
iter: 243  15:25:51  -3.38  -2.90  -224.596980            +4.0,+1.4,-0.3
iter: 244  15:26:25  -3.72  -2.60  -224.803870            +3.5,+1.4,-0.3
iter: 245  15:26:59  -3.42  -2.53  -224.648024            +4.0,+1.6,-0.4
iter: 246  15:27:33  -2.85  -2.72  -224.688363            +4.2,+2.0,-0.5
iter: 247  15:28:08  -3.69  -2.85  -224.922601            +3.7,+2.0,-0.6
iter: 248  15:28:42  -3.52  -2.59  -224.743835            +4.3,+2.2,-0.6
iter: 249  15:29:16  -3.46  -2.84  -224.761701            +4.7,+2.5,-0.6
iter: 250  15:29:51  -3.43  -2.76  -225.129696            +4.5,+2.6,-0.7
iter: 251  15:30:25  -3.71  -2.59  -225.388487            +4.3,+3.1,-0.5
iter: 252  15:30:59  -3.52  -2.53  -225.982500            +4.0,+3.8,-0.5
iter: 253  15:31:34  -3.16  -2.49  -226.274115            +3.9,+5.0,-0.6
iter: 254  15:32:08  -3.84  -2.45  -226.363130            +3.9,+4.8,-0.6
iter: 255  15:32:42  -3.12  -2.41  -226.290466            +3.9,+4.8,-0.6
iter: 256  15:33:16  -4.19  -2.59  -226.272021            +3.8,+4.8,-0.6
iter: 257  15:33:51  -2.69  -2.63  -226.172015            +3.8,+4.7,-0.6
iter: 258  15:34:25  -4.13  -2.82  -226.165123            +3.8,+4.7,-0.6
iter: 259  15:34:59  -3.41  -2.83  -226.147568            +3.8,+4.7,-0.6
iter: 260  15:35:34  -4.42  -3.13  -226.147510            +3.8,+4.7,-0.6
iter: 261  15:36:08  -3.92  -3.17  -226.145392            +3.6,+4.6,-0.6
iter: 262  15:36:42  -5.42  -3.24  -226.144482            +3.7,+4.6,-0.6
iter: 263  15:37:17  -4.57  -3.29  -226.145047            +3.6,+4.6,-0.6
iter: 264  15:37:51  -5.04  -3.40  -226.144913            +3.6,+4.6,-0.6
iter: 265  15:38:25  -5.69  -3.43  -226.145392            +3.6,+4.5,-0.6
iter: 266  15:38:59  -4.28  -3.46  -226.146846            +3.3,+4.6,-0.6
iter: 267  15:39:34  -5.45  -3.50  -226.147967            +3.3,+4.5,-0.6
iter: 268  15:40:08  -4.44  -3.52  -226.152397            +3.3,+4.2,-0.5
iter: 269  15:40:42  -4.64  -3.65  -226.154528            +3.3,+3.9,-0.5
iter: 270  15:41:17  -5.42  -3.72  -226.155058            +3.3,+3.9,-0.5
iter: 271  15:41:51  -4.93  -3.76  -226.155932            +3.2,+3.9,-0.5
iter: 272  15:42:25  -5.65  -4.09  -226.156611            +3.1,+3.8,-0.5
iter: 273  15:43:00  -5.23  -4.11  -226.156324            +3.1,+3.9,-0.5
iter: 274  15:43:34  -4.66  -4.10  -226.158463            +3.1,+3.7,-0.5
iter: 275  15:44:08  -3.91  -4.15  -226.152956            +3.1,+4.2,-0.5
iter: 276  15:44:43  -5.26  -4.21  -226.153059            +3.1,+4.2,-0.5
iter: 277  15:45:17  -5.66  -4.31  -226.154289            +3.0,+4.2,-0.5
iter: 278  15:45:51  -6.08  -4.44  -226.154721            +3.0,+4.2,-0.4
iter: 279  15:46:26  -5.50  -4.54  -226.155540            +3.0,+4.2,-0.4
iter: 280  15:47:00  -5.64  -4.66  -226.156020            +2.9,+4.1,-0.4
iter: 281  15:47:35  -5.38  -4.70  -226.156021            +2.9,+4.2,-0.3
iter: 282  15:48:09  -4.44  -4.74  -226.157452            +2.9,+4.0,-0.7
iter: 283  15:48:43  -2.81  -4.76  -226.118142            +2.9,+6.2,+0.4
iter: 284  15:49:17  -2.43  -3.79  -226.157603            +2.9,+2.4,-0.5
iter: 285  15:49:52  -3.65  -4.06  -226.161544            +2.8,+3.5,-0.8
iter: 286  15:50:26  -4.40  -4.24  -226.166543            +2.8,+3.1,-0.6
iter: 287  15:51:00  -4.09  -4.34  -226.168208            +2.8,+2.7,-0.5
iter: 288  15:51:35  -4.89  -4.21  -226.168129            +2.8,+2.9,-0.6
iter: 289  15:52:09  -5.95  -4.30  -226.167715            +2.8,+2.8,-0.6
iter: 290  15:52:44  -5.59  -4.27  -226.168978            +2.7,+2.9,-0.6
iter: 291  15:53:18  -6.14  -4.29  -226.169584            +2.7,+2.8,-0.6
iter: 292  15:53:52  -5.56  -4.30  -226.169094            +2.7,+2.9,-0.6
iter: 293  15:54:27  -5.42  -4.26  -226.170365            +2.7,+2.8,-0.6
iter: 294  15:55:01  -4.95  -4.32  -226.171608            +2.6,+2.6,-0.5
iter: 295  15:55:35  -5.47  -4.38  -226.171436            +2.7,+2.6,-0.5
iter: 296  15:56:10  -6.01  -4.42  -226.172459            +2.6,+2.6,-0.5
iter: 297  15:56:44  -5.60  -4.48  -226.173574            +2.5,+2.6,-0.5
iter: 298  15:57:19  -6.00  -4.45  -226.173474            +2.4,+2.6,-0.5
iter: 299  15:57:53  -5.74  -4.39  -226.174272            +2.4,+2.5,-0.5
iter: 300  15:58:27  -4.81  -4.45  -226.175380            +2.4,+2.3,-0.5
iter: 301  15:59:02  -5.78  -4.46  -226.175115            +2.4,+2.2,-0.5
iter: 302  15:59:36  -5.96  -4.49  -226.176538            +2.4,+2.2,-0.5
iter: 303  16:00:10  -5.79  -4.56  -226.177336            +2.3,+2.2,-0.5
iter: 304  16:00:45  -6.46  -4.55  -226.177284            +2.2,+2.2,-0.5
iter: 305  16:01:19  -5.93  -4.51  -226.177897            +2.2,+2.2,-0.5
iter: 306  16:01:53  -5.12  -4.51  -226.178541            +2.2,+2.0,-0.4
iter: 307  16:02:28  -6.58  -4.54  -226.178519            +2.2,+2.0,-0.4
iter: 308  16:03:02  -5.63  -4.59  -226.177007            +2.3,+2.0,-0.4
iter: 309  16:03:37  -5.25  -4.55  -226.178979            +2.2,+2.0,-0.4
iter: 310  16:04:11  -6.44  -4.44  -226.179256            +2.2,+2.0,-0.4
iter: 311  16:04:45  -5.06  -4.50  -226.179856            +2.0,+2.0,-0.4
iter: 312  16:05:20  -6.13  -4.49  -226.180059            +2.1,+2.0,-0.4
iter: 313  16:05:54  -6.53  -4.63  -226.180316            +2.0,+2.0,-0.4
iter: 314  16:06:29  -4.53  -4.53  -226.179939            +2.1,+1.7,-0.3
iter: 315  16:07:03  -5.10  -4.15  -226.181264            +2.0,+1.8,-0.4
iter: 316  16:07:37  -6.79  -4.64  -226.181408            +2.0,+1.8,-0.4
iter: 317  16:08:12  -4.70  -4.69  -226.180981            +1.7,+1.8,-0.4
iter: 318  16:08:46  -5.39  -4.27  -226.182323            +1.9,+1.8,-0.4
iter: 319  16:09:20  -6.59  -4.52  -226.182434            +1.9,+1.8,-0.4
iter: 320  16:09:55  -4.73  -4.60  -226.183396            +1.9,+1.7,-0.3
iter: 321  16:10:29  -5.56  -4.76  -226.183482            +1.9,+1.7,-0.3
iter: 322  16:11:03  -6.36  -4.66  -226.183713            +1.9,+1.7,-0.3
iter: 323  16:11:38  -6.06  -4.58  -226.184406            +1.8,+1.7,-0.3
iter: 324  16:12:12  -6.39  -4.50  -226.184594            +1.8,+1.7,-0.3
iter: 325  16:12:46  -6.48  -4.48  -226.184677            +1.7,+1.7,-0.3
iter: 326  16:13:20  -6.01  -4.53  -226.184823            +1.7,+1.7,-0.3
iter: 327  16:13:55  -5.80  -4.67  -226.184981            +1.7,+1.7,-0.3
iter: 328  16:14:29  -4.45  -4.73  -226.185404            +1.7,+1.7,-0.2
iter: 329  16:15:03  -5.92  -4.56  -226.185493            +1.7,+1.7,-0.2
iter: 330  16:15:37  -6.11  -4.61  -226.185770            +1.7,+1.7,-0.2
iter: 331  16:16:12  -5.78  -4.64  -226.185895            +1.6,+1.7,-0.2
iter: 332  16:16:46  -5.81  -4.60  -226.186035            +1.6,+1.7,-0.2
iter: 333  16:17:20  -5.31  -4.82  -226.186232            +1.6,+1.6,-0.2
iter: 334  16:17:55  -4.82  -4.80  -226.186056            +1.6,+1.4,-0.2
iter: 335  16:18:29  -6.10  -4.55  -226.186281            +1.6,+1.5,-0.2
iter: 336  16:19:03  -6.22  -4.60  -226.186685            +1.6,+1.5,-0.2
iter: 337  16:19:37  -5.77  -4.80  -226.186880            +1.5,+1.5,-0.2
iter: 338  16:20:12  -7.09  -4.78  -226.186979            +1.5,+1.5,-0.2
iter: 339  16:20:46  -6.53  -4.81  -226.187311            +1.5,+1.4,-0.2
iter: 340  16:21:20  -6.25  -4.86  -226.187531            +1.5,+1.4,-0.2
iter: 341  16:21:54  -6.87  -4.84  -226.187513            +1.5,+1.4,-0.2
iter: 342  16:22:29  -6.56  -4.79  -226.187750            +1.5,+1.4,-0.2
iter: 343  16:23:03  -6.06  -4.89  -226.187994            +1.4,+1.4,-0.2
iter: 344  16:23:37  -6.87  -4.91  -226.187952            +1.4,+1.4,-0.2
iter: 345  16:24:11  -6.88  -4.87  -226.188180            +1.4,+1.3,-0.2
iter: 346  16:24:46  -6.38  -5.07  -226.188430            +1.4,+1.3,-0.2
iter: 347  16:25:20  -6.89  -4.89  -226.188431            +1.4,+1.3,-0.2
iter: 348  16:25:54  -6.77  -4.82  -226.188596            +1.4,+1.3,-0.2
iter: 349  16:26:28  -6.14  -4.90  -226.188839            +1.3,+1.3,-0.2
iter: 350  16:27:02  -6.88  -5.09  -226.188823            +1.3,+1.3,-0.2
iter: 351  16:27:37  -7.09  -5.06  -226.188953            +1.3,+1.3,-0.2
iter: 352  16:28:11  -6.40  -5.10  -226.189168            +1.3,+1.2,-0.2
iter: 353  16:28:45  -7.01  -4.87  -226.189187            +1.3,+1.2,-0.2
