
  ___ ___ ___ _ _ _  
 |   |   |_  | | | | 
 | | | | | . | | | | 
 |__ |  _|___|_____|  20.10.1b1
 |___|_|             

User:   madkru@i008.nifl.fysik.dtu.dk
Date:   Wed Mar 24 20:46:42 2021
Arch:   x86_64
Pid:    26969
Python: 3.7.4
gpaw:   /home/niflheim/madkru/venv_folder/gpaw/gpaw (d224efde0f)
_gpaw:  /home/niflheim/madkru/venv_folder/gpaw/build/lib.linux-x86_64-ivybridge-3.7/
        _gpaw.cpython-37m-x86_64-linux-gnu.so (4fd39e8b1e)
ase:    /home/niflheim/madkru/venv_folder/ase/ase (version 3.21.0b1-4d5a73cb29)
numpy:  /home/niflheim/madkru/venv_folder/lib/python3.7/site-packages/numpy (version 1.19.4)
scipy:  /home/niflheim/madkru/venv_folder/lib/python3.7/site-packages/scipy (version 1.5.4)
libxc:  4.3.4
units:  Angstrom and eV
cores: 64
OMP_NUM_THREADS: 1

Input parameters:
  convergence: {bands: occupied,
                density: 0.0001,
                eigenstates: 4e-08,
                energy: 0.0005,
                forces: 1e-06}
  kpts: [6 6 4]
  mode: {ecut: 600.0,
         gammacentered: False,
         name: pw}
  occupations: {fixmagmom: False,
                name: fermi-dirac,
                width: 0.001}
  symmetry: {point_group: False,
             time_reversal: False}

System changes: positions, numbers, cell, pbc, initial_charges, initial_magmoms 

Initialize ...

O-setup:
  name: Oxygen
  id: 9b9d51c344dea68c822856295a461509
  Z: 8.0
  valence: 6
  core: 2
  charge: 0.0
  file: /home/modules/software/GPAW-setups/0.9.20000/O.LDA.gz
  compensation charges: gauss, rc=0.21, lmax=2
  cutoffs: 1.17(filt), 0.83(core),
  valence states:
                energy  radius
    2s(2.00)   -23.752   0.688
    2p(4.00)    -9.195   0.598
    *s           3.459   0.688
    *p          18.016   0.598
    *d           0.000   0.619

  Using partial waves for O as LCAO basis

Mn-setup:
  name: Manganese
  id: 0d715a8018be061a6e9ea6f2d364ac92
  Z: 25.0
  valence: 15
  core: 10
  charge: 0.0
  file: /home/modules/software/GPAW-setups/0.9.20000/Mn.LDA.gz
  compensation charges: gauss, rc=0.38, lmax=2
  cutoffs: 2.14(filt), 0.86(core),
  valence states:
                energy  radius
    3s(2.00)   -85.387   1.275
    4s(2.00)    -5.282   1.275
    3p(6.00)   -54.493   1.281
    4p(0.00)    -1.471   1.281
    3d(5.00)    -7.009   1.138
    *d          20.203   1.138

  Using partial waves for Mn as LCAO basis

P-setup:
  name: Phosphorus
  id: a5561c299094968922a179ab894d2e2d
  Z: 15.0
  valence: 5
  core: 10
  charge: 0.0
  file: /home/modules/software/GPAW-setups/0.9.20000/P.LDA.gz
  compensation charges: gauss, rc=0.30, lmax=2
  cutoffs: 1.69(filt), 1.81(core),
  valence states:
                energy  radius
    3s(2.00)   -14.015   0.953
    3p(3.00)    -5.596   0.953
    *s          13.197   0.953
    *p          21.615   0.953
    *d           0.000   0.953

  Using partial waves for P as LCAO basis

Li-setup:
  name: Lithium
  id: b73562207f97a71b6967473b66fe8b65
  Z: 3.0
  valence: 1
  core: 2
  charge: 0.0
  file: /home/modules/software/GPAW-setups/0.9.20000/Li.LDA.gz
  compensation charges: gauss, rc=0.33, lmax=2
  cutoffs: 1.91(filt), 2.55(core),
  valence states:
                energy  radius
    2s(1.00)    -2.874   1.058
    2p(0.00)    -1.126   1.058
    *s          24.338   1.058

  Using partial waves for Li as LCAO basis

Reference energy: -196157.275402

Spin-polarized calculation.
Magnetic moment: 0.000000

Convergence criteria:
  Maximum total energy change: 0.0005 eV / electron
  Maximum integral of absolute density change: 0.0001 electrons
  Maximum integral of absolute eigenstate change: 4e-08 eV^2
  Maximum change in atomic force: 1e-06 eV / Ang
  Maximum number of iterations: 333

Symmetries present (total): 1

  ( 1  0  0)
  ( 0  1  0)
  ( 0  0  1)

144 k-points: 6 x 6 x 4 Monkhorst-Pack grid
144 k-points in the irreducible part of the Brillouin zone
       k-points in crystal coordinates                weights
   0:    -0.41666667   -0.41666667   -0.37500000          1/144
   1:    -0.41666667   -0.41666667   -0.12500000          1/144
   2:    -0.41666667   -0.41666667    0.12500000          1/144
   3:    -0.41666667   -0.41666667    0.37500000          1/144
   4:    -0.41666667   -0.25000000   -0.37500000          1/144
   5:    -0.41666667   -0.25000000   -0.12500000          1/144
   6:    -0.41666667   -0.25000000    0.12500000          1/144
   7:    -0.41666667   -0.25000000    0.37500000          1/144
   8:    -0.41666667   -0.08333333   -0.37500000          1/144
   9:    -0.41666667   -0.08333333   -0.12500000          1/144
          ...
 143:     0.41666667    0.41666667    0.37500000          1/144

Wave functions: Plane wave expansion
  Cutoff energy: 600.000 eV
  Number of coefficients (min, max): 9132, 9161
  Pulay-stress correction: 0.000000 eV/Ang^3 (de/decut=0.000000)
  Using FFTW library
  ScaLapack parameters: grid=1x1, blocksize=None
  Wavefunction extrapolation:
    Improved wavefunction reuse through dual PAW basis 

  Fermi-Dirac: width=0.0010 eV

Eigensolver
   Davidson(niter=2, smin=None, normalize=True) 

Densities:
  Coarse grid: 60*35*27 grid
  Fine grid: 120*70*54 grid
  Total Charge: 0.000000 

Density mixing:
  Method: difference
  Backend: pulay
  Linear mixing parameter: 0.05
  Mixing with 5 old densities
  Damping of long wave oscillations: 50 

Hamiltonian:
  XC and Coulomb potentials evaluated on a 120*70*54 grid
  Using the LDA Exchange-Correlation functional
 

Memory estimate:
  Process memory now: 12624.29 MiB
  Calculator: 322.47 MiB
    Density: 9.62 MiB
      Arrays: 3.79 MiB
      Localized functions: 4.27 MiB
      Mixer: 1.56 MiB
    Hamiltonian: 2.94 MiB
      Arrays: 2.82 MiB
      XC: 0.00 MiB
      Poisson: 0.00 MiB
      vbar: 0.12 MiB
    Wavefunctions: 309.91 MiB
      Arrays psit_nG: 281.81 MiB
      Eigensolver: 18.27 MiB
      Projections: 2.71 MiB
      Projectors: 4.40 MiB
      PW-descriptor: 2.71 MiB

Total number of cores used: 64
Parallelization over k-points: 16
Domain decomposition: 2 x 2 x 1

Number of atoms: 28
Number of atomic orbitals: 148
Number of bands in calculation: 112
Number of valence electrons: 180
Bands to converge: occupied

... initialized

Initializing position-dependent things.

Density initialized from atomic densities
Creating initial wave functions:
  112 bands from LCAO basis set

                                           
                                           
                                           
                                           
                                           
               O     O  P  O               
            PO           OMn     O         
                  O          MO            
            O        Li O                  
             Mn  Mn          OP            
         O       O Li O                    
         Li     O P         O              
       Li                                  
                                           
                                           
                                           
                                           

Positions:
   0 O     -1.280122   -2.495595   -1.112331    ( 0.0000,  0.0000,  0.0000)
   1 O     -3.023238    2.918858    1.191723    ( 0.0000,  0.0000,  0.0000)
   2 O      1.997451    0.467212    1.441442    ( 0.0000,  0.0000,  0.0000)
   3 O      3.740343   -0.043905   -0.862614    ( 0.0000,  0.0000,  0.0000)
   4 O      1.997419    2.918835    1.441465    ( 0.0000,  0.0000,  0.0000)
   5 O      3.740372   -2.495531   -0.862587    ( 0.0000,  0.0000,  0.0000)
   6 O     -1.280154   -0.043891   -1.112309    ( 0.0000,  0.0000,  0.0000)
   7 O     -3.023210    0.467136    1.191750    ( 0.0000,  0.0000,  0.0000)
   8 O     -4.147405   -1.269737   -0.856207    ( 0.0000,  0.0000,  0.0000)
   9 O     -0.155894    1.692986    1.447725    ( 0.0000,  0.0000,  0.0000)
  10 O      4.864578    1.693016    1.185324    ( 0.0000,  0.0000,  0.0000)
  11 O      0.873163   -1.269706   -1.118625    ( 0.0000,  0.0000,  0.0000)
  12 Mn    -2.437108   -1.269902    0.302197    ( 0.0000,  0.0000,  1.0000)
  13 Mn    -1.866187    1.693156   -2.001927    ( 0.0000,  0.0000, -1.0000)
  14 Mn     3.154299    1.683181    0.026917    ( 0.0000,  0.0000, -1.0000)
  15 Mn     2.583444   -1.269877    2.331074    ( 0.0000,  0.0000,  1.0000)
  16 P     -0.543052   -1.269720   -1.734187    ( 0.0000,  0.0000,  0.0000)
  17 P     -3.760282    1.692974    0.569859    ( 0.0000,  0.0000,  0.0000)
  18 P      1.260300    1.693000    2.063344    ( 0.0000,  0.0000,  0.0000)
  19 P      4.477470   -1.269695   -0.240696    ( 0.0000,  0.0000,  0.0000)
  20 O     -0.544413   -1.269738    1.348523    ( 0.0000,  0.0000,  0.0000)
  21 O     -3.758895    1.692992   -0.955558    ( 0.0000,  0.0000,  0.0000)
  22 O      1.261690    1.693018   -1.019367    ( 0.0000,  0.0000,  0.0000)
  23 O      4.476045   -1.269713    1.284716    ( 0.0000,  0.0000,  0.0000)
  24 Li    -4.662027   -2.751322   -2.139440    ( 0.0000,  0.0000,  0.0000)
  25 Li     0.358703   -2.751277    0.164614    ( 0.0000,  0.0000,  0.0000)
  26 Li    -4.662011    0.211617   -2.139439    ( 0.0000,  0.0000,  0.0000)
  27 Li     0.358720    0.211628    0.164615    ( 0.0000,  0.0000,  0.0000)

Unit cell:
           periodic     x           y           z      points  spacing
  1. axis:    yes   10.041096    0.000054   -0.000022    60     0.1674
  2. axis:    yes    0.000032    5.925857    0.000001    35     0.1693
  3. axis:    yes   -0.000010    0.000001    4.608134    27     0.1707

  Lengths:  10.041096   5.925857   4.608134
  Angles:   89.999974  90.000250  89.999381

Effective grid spacing dv^(1/3) = 0.1691

                     log10-error:           total        iterations:
           time      wfs    density  force  energy       poisson  magmom
iter:   1  20:48:15                       -233.730043             +0.0000
iter:   2  20:48:35  -0.47  -0.95         -231.549892             +0.0038
iter:   3  20:48:55  -0.61  -1.00         -220.808356             +0.0039
iter:   4  20:49:14  -1.19  -1.31         -221.021699             +0.3533
iter:   5  20:49:34  -2.14  -1.39         -222.749103             +0.1928
iter:   6  20:49:54  -2.22  -1.38         -223.625201             +0.2170
iter:   7  20:50:14  -2.18  -1.53         -223.854407             -0.1125
iter:   8  20:50:34  -2.59  -1.70         -225.645527             -0.7315
iter:   9  20:50:53  -2.24  -1.92         -226.390704             -0.0287
iter:  10  20:51:13  -2.11  -2.04         -226.312196             -0.0378
iter:  11  20:51:33  -2.96  -2.20         -226.319476             -0.0112
iter:  12  20:51:53  -2.46  -2.22         -226.206875             +0.0051
iter:  13  20:52:12  -3.36  -2.68         -226.211676             -0.0020
iter:  14  20:52:32  -2.90  -2.80         -226.199148             -0.0042
iter:  15  20:52:52  -3.78  -2.88         -226.181978             -0.0010
iter:  16  20:53:12  -3.95  -3.17         -226.176634             -0.0001
iter:  17  20:53:31  -5.10  -3.34         -226.176713             -0.0001
iter:  18  20:53:51  -4.18  -3.39         -226.176069             -0.0000
iter:  19  20:54:11  -4.95  -3.55         -226.175079             -0.0000
iter:  20  20:54:31  -5.47  -3.81         -226.174953             -0.0000
iter:  21  20:54:50  -6.05  -3.88         -226.175033             -0.0000
iter:  22  20:55:10  -5.56  -4.02         -226.174961             -0.0000
iter:  23  20:55:30  -6.14  -4.05         -226.174906             -0.0000
iter:  24  20:55:50  -6.02  -4.26         -226.174938             -0.0000
iter:  25  20:56:09  -5.95  -4.23         -226.174895             -0.0000
iter:  26  20:56:29  -7.20  -4.67         -226.174894             -0.0000
iter:  27  20:56:49  -7.10  -4.72         -226.174895             +0.0000
iter:  28  20:57:13  -7.55  -4.77         -226.174894             +0.0000
iter:  29  20:57:38  -7.78  -4.91    -3.00-226.174895             +0.0000
iter:  30  20:58:02  -8.22  -4.92    -2.61-226.174895             +0.0000
iter:  31  20:58:26  -7.69  -4.98    -3.08-226.174894             +0.0000
iter:  32  20:58:51  -8.54  -5.25    -3.12-226.174894             +0.0000
iter:  33  20:59:15  -8.55  -5.41    -3.58-226.174894             +0.0000
iter:  34  20:59:39  -8.58  -5.56    -3.19-226.174894             +0.0000
iter:  35  21:00:04  -9.67  -5.77    -3.51-226.174894             +0.0000
iter:  36  21:00:28 -10.30  -5.93    -4.14-226.174894             -0.0000
iter:  37  21:00:52 -10.12  -5.98    -3.85-226.174894             -0.0000
iter:  38  21:01:17 -10.62  -6.08    -4.47-226.174894             -0.0000
iter:  39  21:01:41 -10.30  -6.14    -3.90-226.174894             +0.0000
iter:  40  21:02:05 -10.80  -6.34    -4.41-226.174894             +0.0000
iter:  41  21:02:30 -11.26  -6.39    -4.63-226.174894             +0.0000
iter:  42  21:02:54 -11.75  -6.48    -4.86-226.174894             -0.0000
iter:  43  21:03:19 -12.12  -6.57    -4.92-226.174894             +0.0000
iter:  44  21:03:43 -11.84  -6.66    -4.66-226.174894             +0.0000
iter:  45  21:04:07 -12.28  -6.76    -4.46-226.174894             +0.0000
iter:  46  21:04:32 -12.56  -6.98    -5.31-226.174894             +0.0000
iter:  47  21:04:56 -11.69  -7.06    -4.75-226.174894             +0.0000
iter:  48  21:05:20 -12.63  -7.37    -5.37-226.174894             +0.0000
iter:  49  21:05:45 -12.76  -7.48    -5.00-226.174894             +0.0000
iter:  50  21:06:09 -13.50  -7.85    -5.73-226.174894             +0.0000
iter:  51  21:06:33 -13.46  -7.94    -5.72-226.174894             +0.0000
iter:  52  21:06:58 -14.63  -8.05    -6.20-226.174894             +0.0000

Converged after 52 iterations.

Dipole moment: (18.327107, -2.319939, -4.524290) |e|*Ang

Total magnetic moment: (0.000000, 0.000000, 0.000000)
Local magnetic moments:
   0 O  ( 0.000000,  0.000000, -0.001810)
   1 O  ( 0.000000,  0.000000,  0.001794)
   2 O  ( 0.000000,  0.000000,  0.001387)
   3 O  ( 0.000000,  0.000000, -0.002342)
   4 O  ( 0.000000,  0.000000,  0.002231)
   5 O  ( 0.000000,  0.000000, -0.001279)
   6 O  ( 0.000000,  0.000000, -0.001811)
   7 O  ( 0.000000,  0.000000,  0.001829)
   8 O  ( 0.000000,  0.000000,  0.031097)
   9 O  ( 0.000000,  0.000000, -0.031097)
  10 O  ( 0.000000,  0.000000, -0.031098)
  11 O  ( 0.000000,  0.000000,  0.031096)
  12 Mn ( 0.000000,  0.000000,  4.395765)
  13 Mn ( 0.000000,  0.000000, -4.395783)
  14 Mn ( 0.000000,  0.000000, -4.395674)
  15 Mn ( 0.000000,  0.000000,  4.395742)
  16 P  ( 0.000000,  0.000000,  0.000866)
  17 P  ( 0.000000,  0.000000, -0.000864)
  18 P  ( 0.000000,  0.000000, -0.000873)
  19 P  ( 0.000000,  0.000000,  0.000866)
  20 O  ( 0.000000,  0.000000,  0.028417)
  21 O  ( 0.000000,  0.000000, -0.028416)
  22 O  ( 0.000000,  0.000000, -0.028423)
  23 O  ( 0.000000,  0.000000,  0.028418)
  24 Li ( 0.000000,  0.000000,  0.000005)
  25 Li ( 0.000000,  0.000000, -0.000007)
  26 Li ( 0.000000,  0.000000, -0.000006)
  27 Li ( 0.000000,  0.000000,  0.000007)

Energy contributions relative to reference atoms: (reference = -196157.275402)

Kinetic:       +277.628355
Potential:     -240.970092
External:        +0.000000
XC:            -264.721562
Entropy (-ST):   -0.000000
Local:           +1.888405
--------------------------
Free energy:   -226.174894
Extrapolated:  -226.174894

Spin contamination: 9.455300 electrons
Showing only first 2 kpts
                      Up                     Down
 Kpt  Band  Eigenvalues  Occupancy  Eigenvalues  Occupancy
  0    88      6.53043    0.00694      6.53050    0.00694
  0    89      6.56418    0.00694      6.56450    0.00694
  0    90      8.42682    0.00000      8.42669    0.00000
  0    91      8.44828    0.00000      8.44827    0.00000

  1    88      6.56891    0.00694      6.56924    0.00694
  1    89      6.59607    0.00694      6.59625    0.00694
  1    90      8.38313    0.00000      8.38302    0.00000
  1    91      8.40520    0.00000      8.40516    0.00000


Fermi level: 7.63095

Gap: 1.699 eV
Transition (v -> c):
  (s=1, k=94, n=89, [0.08, 0.42, 0.12]) -> (s=0, k=58, n=90, [-0.08, -0.08, 0.12])
Writing to born-0.01-14y-.gpw (mode='all')

Timing:                              incl.     excl.
-----------------------------------------------------------
Hamiltonian:                         0.218     0.002   0.0% |
 Atomic:                             0.055     0.055   0.0% |
  XC Correction:                     0.000     0.000   0.0% |
 Calculate atomic Hamiltonians:      0.075     0.075   0.0% |
 Communicate:                        0.002     0.002   0.0% |
 Initialize Hamiltonian:             0.000     0.000   0.0% |
 Poisson:                            0.001     0.001   0.0% |
 XC 3D grid:                         0.083     0.083   0.0% |
LCAO initialization:                71.361     0.644   0.0% |
 LCAO eigensolver:                  19.722     0.002   0.0% |
  Calculate projections:             0.029     0.029   0.0% |
  DenseAtomicCorrection:             0.045     0.045   0.0% |
  Distribute overlap matrix:         0.008     0.008   0.0% |
  Orbital Layouts:                   0.429     0.429   0.0% |
  Potential matrix:                 19.117    19.117   0.6% |
  Sum over cells:                    0.092     0.092   0.0% |
 LCAO to grid:                      49.679    49.679   1.6% ||
 Set positions (LCAO WFS):           1.316     0.195   0.0% |
  Basic WFS set positions:           0.001     0.001   0.0% |
  Basis functions set positions:     0.000     0.000   0.0% |
  P tci:                             0.524     0.524   0.0% |
  ST tci:                            0.382     0.382   0.0% |
  mktci:                             0.215     0.215   0.0% |
PWDescriptor:                        0.024     0.024   0.0% |
SCF-cycle:                        1143.341     1.194   0.0% |
 Davidson:                         973.316   297.873   9.5% |---|
  Apply H:                          67.753    65.802   2.1% ||
   HMM T:                            1.951     1.951   0.1% |
  Subspace diag:                   141.234     0.147   0.0% |
   calc_h_matrix:                   90.839    23.469   0.8% |
    Apply H:                        67.370    65.397   2.1% ||
     HMM T:                          1.974     1.974   0.1% |
   diagonalize:                      7.093     7.093   0.2% |
   rotate_psi:                      43.156    43.156   1.4% ||
  calc. matrices:                  291.414   158.994   5.1% |-|
   Apply H:                        132.420   128.767   4.1% |-|
    HMM T:                           3.653     3.653   0.1% |
  diagonalize:                      81.614    81.614   2.6% ||
  rotate_psi:                       93.427    93.427   3.0% ||
 Density:                           39.385     0.001   0.0% |
  Atomic density matrices:           0.790     0.790   0.0% |
  Mix:                               5.366     5.366   0.2% |
  Multipole moments:                 0.018     0.018   0.0% |
  Pseudo density:                   33.209    33.208   1.1% |
   Symmetrize density:               0.001     0.001   0.0% |
 Forces:                           116.306   116.306   3.7% ||
 Hamiltonian:                       11.076     0.109   0.0% |
  Atomic:                            2.641     2.641   0.1% |
   XC Correction:                    0.000     0.000   0.0% |
  Calculate atomic Hamiltonians:     3.850     3.850   0.1% |
  Communicate:                       0.092     0.092   0.0% |
  Poisson:                           0.030     0.030   0.0% |
  XC 3D grid:                        4.354     4.354   0.1% |
 Orthonormalize:                     2.064     0.003   0.0% |
  calc_s_matrix:                     0.242     0.242   0.0% |
  inverse-cholesky:                  0.073     0.073   0.0% |
  projections:                       1.316     1.316   0.0% |
  rotate_psi_s:                      0.430     0.430   0.0% |
Set symmetry:                        0.000     0.000   0.0% |
Other:                            1909.002  1909.002  61.1% |-----------------------|
-----------------------------------------------------------
Total:                                      3123.946 100.0%

Memory usage: 12.37 GiB
Date: Wed Mar 24 21:38:45 2021
