
  ___ ___ ___ _ _ _  
 |   |   |_  | | | | 
 | | | | | . | | | | 
 |__ |  _|___|_____|  20.10.1b1
 |___|_|             

User:   madkru@i013.nifl.fysik.dtu.dk
Date:   Sun Mar 21 23:31:03 2021
Arch:   x86_64
Pid:    27943
Python: 3.7.4
gpaw:   /home/niflheim/madkru/venv_folder/gpaw/gpaw (d0d1ca1c71)
_gpaw:  /home/niflheim/madkru/venv_folder/gpaw/build/lib.linux-x86_64-ivybridge-3.7/
        _gpaw.cpython-37m-x86_64-linux-gnu.so (4fd39e8b1e)
ase:    /home/niflheim/madkru/venv_folder/ase/ase (version 3.21.0b1-7e6c206a91)
numpy:  /home/niflheim/madkru/venv_folder/lib/python3.7/site-packages/numpy (version 1.19.4)
scipy:  /home/niflheim/madkru/venv_folder/lib/python3.7/site-packages/scipy (version 1.5.4)
libxc:  4.3.4
units:  Angstrom and eV
cores: 32
OMP_NUM_THREADS: 1

Input parameters:
  convergence: {bands: occupied,
                density: 0.0001,
                eigenstates: 4e-08,
                energy: 0.0005,
                forces: 1e-06}
  kpts: [6 6 4]
  mode: {ecut: 600.0,
         gammacentered: False,
         name: pw}
  occupations: {fixmagmom: False,
                name: fermi-dirac,
                width: 0.001}
  symmetry: {point_group: False,
             time_reversal: False}

System changes: positions, numbers, cell, pbc, initial_charges, initial_magmoms 

Initialize ...

O-setup:
  name: Oxygen
  id: 9b9d51c344dea68c822856295a461509
  Z: 8.0
  valence: 6
  core: 2
  charge: 0.0
  file: /home/modules/software/GPAW-setups/0.9.20000/O.LDA.gz
  compensation charges: gauss, rc=0.21, lmax=2
  cutoffs: 1.17(filt), 0.83(core),
  valence states:
                energy  radius
    2s(2.00)   -23.752   0.688
    2p(4.00)    -9.195   0.598
    *s           3.459   0.688
    *p          18.016   0.598
    *d           0.000   0.619

  Using partial waves for O as LCAO basis

Mn-setup:
  name: Manganese
  id: 0d715a8018be061a6e9ea6f2d364ac92
  Z: 25.0
  valence: 15
  core: 10
  charge: 0.0
  file: /home/modules/software/GPAW-setups/0.9.20000/Mn.LDA.gz
  compensation charges: gauss, rc=0.38, lmax=2
  cutoffs: 2.14(filt), 0.86(core),
  valence states:
                energy  radius
    3s(2.00)   -85.387   1.275
    4s(2.00)    -5.282   1.275
    3p(6.00)   -54.493   1.281
    4p(0.00)    -1.471   1.281
    3d(5.00)    -7.009   1.138
    *d          20.203   1.138

  Using partial waves for Mn as LCAO basis

P-setup:
  name: Phosphorus
  id: a5561c299094968922a179ab894d2e2d
  Z: 15.0
  valence: 5
  core: 10
  charge: 0.0
  file: /home/modules/software/GPAW-setups/0.9.20000/P.LDA.gz
  compensation charges: gauss, rc=0.30, lmax=2
  cutoffs: 1.69(filt), 1.81(core),
  valence states:
                energy  radius
    3s(2.00)   -14.015   0.953
    3p(3.00)    -5.596   0.953
    *s          13.197   0.953
    *p          21.615   0.953
    *d           0.000   0.953

  Using partial waves for P as LCAO basis

Li-setup:
  name: Lithium
  id: b73562207f97a71b6967473b66fe8b65
  Z: 3.0
  valence: 1
  core: 2
  charge: 0.0
  file: /home/modules/software/GPAW-setups/0.9.20000/Li.LDA.gz
  compensation charges: gauss, rc=0.33, lmax=2
  cutoffs: 1.91(filt), 2.55(core),
  valence states:
                energy  radius
    2s(1.00)    -2.874   1.058
    2p(0.00)    -1.126   1.058
    *s          24.338   1.058

  Using partial waves for Li as LCAO basis

Reference energy: -196157.275402

Spin-polarized calculation.
Magnetic moment: 0.000000

Convergence criteria:
  Maximum total energy change: 0.0005 eV / electron
  Maximum integral of absolute density change: 0.0001 electrons
  Maximum integral of absolute eigenstate change: 4e-08 eV^2
  Maximum change in atomic force: 1e-06 eV / Ang
  Maximum number of iterations: 333

Symmetries present (total): 1

  ( 1  0  0)
  ( 0  1  0)
  ( 0  0  1)

144 k-points: 6 x 6 x 4 Monkhorst-Pack grid
144 k-points in the irreducible part of the Brillouin zone
       k-points in crystal coordinates                weights
   0:    -0.41666667   -0.41666667   -0.37500000          1/144
   1:    -0.41666667   -0.41666667   -0.12500000          1/144
   2:    -0.41666667   -0.41666667    0.12500000          1/144
   3:    -0.41666667   -0.41666667    0.37500000          1/144
   4:    -0.41666667   -0.25000000   -0.37500000          1/144
   5:    -0.41666667   -0.25000000   -0.12500000          1/144
   6:    -0.41666667   -0.25000000    0.12500000          1/144
   7:    -0.41666667   -0.25000000    0.37500000          1/144
   8:    -0.41666667   -0.08333333   -0.37500000          1/144
   9:    -0.41666667   -0.08333333   -0.12500000          1/144
          ...
 143:     0.41666667    0.41666667    0.37500000          1/144

Wave functions: Plane wave expansion
  Cutoff energy: 600.000 eV
  Number of coefficients (min, max): 9132, 9161
  Pulay-stress correction: 0.000000 eV/Ang^3 (de/decut=0.000000)
  Using FFTW library
  ScaLapack parameters: grid=1x1, blocksize=None
  Wavefunction extrapolation:
    Improved wavefunction reuse through dual PAW basis 

  Fermi-Dirac: width=0.0010 eV

Eigensolver
   Davidson(niter=2, smin=None, normalize=True) 

Densities:
  Coarse grid: 60*35*27 grid
  Fine grid: 120*70*54 grid
  Total Charge: 0.000000 

Density mixing:
  Method: difference
  Backend: pulay
  Linear mixing parameter: 0.05
  Mixing with 5 old densities
  Damping of long wave oscillations: 50 

Hamiltonian:
  XC and Coulomb potentials evaluated on a 120*70*54 grid
  Using the LDA Exchange-Correlation functional
 

Memory estimate:
  Process memory now: 12804.77 MiB
  Calculator: 342.26 MiB
    Density: 19.13 MiB
      Arrays: 7.57 MiB
      Localized functions: 8.54 MiB
      Mixer: 3.03 MiB
    Hamiltonian: 5.87 MiB
      Arrays: 5.62 MiB
      XC: 0.00 MiB
      Poisson: 0.00 MiB
      vbar: 0.25 MiB
    Wavefunctions: 317.25 MiB
      Arrays psit_nG: 281.81 MiB
      Eigensolver: 18.27 MiB
      Projections: 5.41 MiB
      Projectors: 8.81 MiB
      PW-descriptor: 2.95 MiB

Total number of cores used: 32
Parallelization over k-points: 16
Domain decomposition: 2 x 1 x 1

Number of atoms: 28
Number of atomic orbitals: 148
Number of bands in calculation: 112
Number of valence electrons: 180
Bands to converge: occupied

... initialized

Initializing position-dependent things.

Density initialized from atomic densities
Creating initial wave functions:
  112 bands from LCAO basis set

                                           
                                           
                                           
                                           
                                           
               O     O  P  O               
            PO           OMn     O         
                  O          MO            
            O        Li O                  
             Mn  Mn          OP            
         O       O Li O                    
         Li     O P         O              
       Li                                  
                                           
                                           
                                           
                                           

Positions:
   0 O     -1.280122   -2.495595   -1.112331    ( 0.0000,  0.0000,  0.0000)
   1 O     -3.023238    2.918858    1.191723    ( 0.0000,  0.0000,  0.0000)
   2 O      1.997451    0.467212    1.441442    ( 0.0000,  0.0000,  0.0000)
   3 O      3.740343   -0.043905   -0.862614    ( 0.0000,  0.0000,  0.0000)
   4 O      2.007419    2.918835    1.441465    ( 0.0000,  0.0000,  0.0000)
   5 O      3.740372   -2.495531   -0.862587    ( 0.0000,  0.0000,  0.0000)
   6 O     -1.280154   -0.043891   -1.112309    ( 0.0000,  0.0000,  0.0000)
   7 O     -3.023210    0.467136    1.191750    ( 0.0000,  0.0000,  0.0000)
   8 O     -4.147405   -1.269737   -0.856207    ( 0.0000,  0.0000,  0.0000)
   9 O     -0.155894    1.692986    1.447725    ( 0.0000,  0.0000,  0.0000)
  10 O      4.864578    1.693016    1.185324    ( 0.0000,  0.0000,  0.0000)
  11 O      0.873163   -1.269706   -1.118625    ( 0.0000,  0.0000,  0.0000)
  12 Mn    -2.437108   -1.269902    0.302197    ( 0.0000,  0.0000,  1.0000)
  13 Mn    -1.866187    1.693156   -2.001927    ( 0.0000,  0.0000, -1.0000)
  14 Mn     3.154299    1.693181    0.026917    ( 0.0000,  0.0000, -1.0000)
  15 Mn     2.583444   -1.269877    2.331074    ( 0.0000,  0.0000,  1.0000)
  16 P     -0.543052   -1.269720   -1.734187    ( 0.0000,  0.0000,  0.0000)
  17 P     -3.760282    1.692974    0.569859    ( 0.0000,  0.0000,  0.0000)
  18 P      1.260300    1.693000    2.063344    ( 0.0000,  0.0000,  0.0000)
  19 P      4.477470   -1.269695   -0.240696    ( 0.0000,  0.0000,  0.0000)
  20 O     -0.544413   -1.269738    1.348523    ( 0.0000,  0.0000,  0.0000)
  21 O     -3.758895    1.692992   -0.955558    ( 0.0000,  0.0000,  0.0000)
  22 O      1.261690    1.693018   -1.019367    ( 0.0000,  0.0000,  0.0000)
  23 O      4.476045   -1.269713    1.284716    ( 0.0000,  0.0000,  0.0000)
  24 Li    -4.662027   -2.751322   -2.139440    ( 0.0000,  0.0000,  0.0000)
  25 Li     0.358703   -2.751277    0.164614    ( 0.0000,  0.0000,  0.0000)
  26 Li    -4.662011    0.211617   -2.139439    ( 0.0000,  0.0000,  0.0000)
  27 Li     0.358720    0.211628    0.164615    ( 0.0000,  0.0000,  0.0000)

Unit cell:
           periodic     x           y           z      points  spacing
  1. axis:    yes   10.041096    0.000054   -0.000022    60     0.1674
  2. axis:    yes    0.000032    5.925857    0.000001    35     0.1693
  3. axis:    yes   -0.000010    0.000001    4.608134    27     0.1707

  Lengths:  10.041096   5.925857   4.608134
  Angles:   89.999974  90.000250  89.999381

Effective grid spacing dv^(1/3) = 0.1691

                     log10-error:           total        iterations:
           time      wfs    density  force  energy       poisson  magmom
iter:   1  23:34:10                       -233.731165             +0.0000
iter:   2  23:34:46  -0.47  -0.95         -231.544832             +0.0009
iter:   3  23:35:22  -0.61  -1.00         -220.803547             +0.0009
iter:   4  23:35:59  -1.17  -1.31         -220.749724             -0.0744
iter:   5  23:36:35  -2.11  -1.41         -222.820390             -0.0005
iter:   6  23:37:11  -2.15  -1.39         -222.898190             -0.0631
iter:   7  23:37:47  -2.06  -1.56         -223.487584             -0.1193
iter:   8  23:38:23  -2.41  -1.81         -225.679088             -0.2081
iter:   9  23:39:00  -2.19  -1.93         -226.470526             -0.0751
iter:  10  23:39:36  -2.57  -2.00         -226.407892             -0.0214
iter:  11  23:40:12  -3.17  -2.03         -226.324934             -0.0079
iter:  12  23:40:48  -2.27  -2.12         -226.271881             -0.0042
iter:  13  23:41:24  -3.31  -2.49         -226.199159             -0.0028
iter:  14  23:42:00  -2.82  -2.58         -226.204299             -0.0004
iter:  15  23:42:37  -3.64  -2.94         -226.178851             -0.0001
iter:  16  23:43:13  -4.39  -2.97         -226.176998             -0.0001
iter:  17  23:43:49  -4.55  -3.02         -226.175948             +0.0000
iter:  18  23:44:25  -3.97  -3.18         -226.177927             -0.0000
iter:  19  23:45:01  -4.24  -3.16         -226.174950             +0.0000
iter:  20  23:45:37  -4.80  -3.71         -226.175148             +0.0000
iter:  21  23:46:13  -5.23  -3.51         -226.174832             +0.0000
iter:  22  23:46:50  -6.27  -3.82         -226.174778             +0.0000
iter:  23  23:47:26  -5.47  -3.86         -226.174751             +0.0000
iter:  24  23:48:02  -6.62  -3.92         -226.174732             +0.0000
iter:  25  23:48:38  -6.40  -3.97         -226.174707             +0.0000
iter:  26  23:49:14  -6.36  -4.07         -226.174737             +0.0000
iter:  27  23:49:50  -6.61  -4.09         -226.174700             +0.0000
iter:  28  23:50:27  -6.85  -4.17         -226.174693             +0.0000
iter:  29  23:51:03  -6.88  -4.22         -226.174696             +0.0000
iter:  30  23:51:39  -7.32  -4.29         -226.174697             +0.0000
iter:  31  23:52:15  -6.66  -4.33         -226.174694             +0.0000
iter:  32  23:53:00  -8.00  -4.71         -226.174692             +0.0000
iter:  33  23:53:46  -7.68  -4.84    -2.63-226.174692             +0.0000
iter:  34  23:54:31  -8.25  -4.98    -2.87-226.174692             +0.0000
iter:  35  23:55:16  -7.90  -5.04    -2.91-226.174692             +0.0000
iter:  36  23:56:02  -8.65  -5.20    -3.10-226.174692             +0.0000
iter:  37  23:56:47  -8.26  -5.30    -2.83-226.174692             +0.0000
iter:  38  23:57:32  -9.28  -5.51    -3.41-226.174692             +0.0000
iter:  39  23:58:18  -9.90  -5.60    -3.75-226.174692             +0.0000
iter:  40  23:59:03 -10.23  -5.70    -3.82-226.174692             +0.0000
iter:  41  23:59:48 -10.24  -5.75    -4.13-226.174692             +0.0000
iter:  42  00:00:34 -10.12  -5.81    -3.86-226.174692             +0.0000
iter:  43  00:01:19 -10.14  -5.89    -3.82-226.174692             +0.0000
iter:  44  00:02:04 -10.99  -6.19    -4.34-226.174692             +0.0000
iter:  45  00:02:50 -10.35  -6.25    -3.89-226.174692             +0.0000
iter:  46  00:03:35 -10.99  -6.42    -4.37-226.174692             +0.0000
iter:  47  00:04:20 -11.58  -6.47    -4.39-226.174692             +0.0000
iter:  48  00:05:06 -11.97  -6.52    -4.64-226.174692             +0.0000
iter:  49  00:05:51 -11.37  -6.56    -4.64-226.174692             +0.0000
iter:  50  00:06:37 -11.57  -6.78    -4.77-226.174692             +0.0000
iter:  51  00:07:22 -12.48  -6.90    -4.97-226.174692             +0.0000
iter:  52  00:08:07 -12.20  -7.06    -4.92-226.174692             +0.0000
iter:  53  00:08:53 -12.50  -7.29    -5.02-226.174692             +0.0000
iter:  54  00:09:38 -12.88  -7.43    -5.45-226.174692             +0.0000
iter:  55  00:10:24 -13.29  -7.48    -5.59-226.174692             +0.0000
iter:  56  00:11:09 -13.50  -7.56    -5.71-226.174692             +0.0000
iter:  57  00:11:54 -13.71  -7.70    -5.38-226.174692             +0.0000
iter:  58  00:12:40 -14.34  -7.76    -5.67-226.174692             +0.0000
iter:  59  00:13:25 -13.88  -7.83    -5.85-226.174692             +0.0000
iter:  60  00:14:10 -14.70  -7.92    -6.01-226.174692             +0.0000

Converged after 60 iterations.

Dipole moment: (18.326216, -2.309172, -4.524796) |e|*Ang

Total magnetic moment: (0.000000, 0.000000, 0.000000)
Local magnetic moments:
   0 O  ( 0.000000,  0.000000, -0.001832)
   1 O  ( 0.000000,  0.000000,  0.001791)
   2 O  ( 0.000000,  0.000000,  0.001794)
   3 O  ( 0.000000,  0.000000, -0.001746)
   4 O  ( 0.000000,  0.000000,  0.001784)
   5 O  ( 0.000000,  0.000000, -0.001787)
   6 O  ( 0.000000,  0.000000, -0.001834)
   7 O  ( 0.000000,  0.000000,  0.001797)
   8 O  ( 0.000000,  0.000000,  0.031157)
   9 O  ( 0.000000,  0.000000, -0.030967)
  10 O  ( 0.000000,  0.000000, -0.031093)
  11 O  ( 0.000000,  0.000000,  0.031042)
  12 Mn ( 0.000000,  0.000000,  4.395745)
  13 Mn ( 0.000000,  0.000000, -4.395759)
  14 Mn ( 0.000000,  0.000000, -4.394888)
  15 Mn ( 0.000000,  0.000000,  4.394691)
  16 P  ( 0.000000,  0.000000,  0.000881)
  17 P  ( 0.000000,  0.000000, -0.000874)
  18 P  ( 0.000000,  0.000000, -0.000901)
  19 P  ( 0.000000,  0.000000,  0.000855)
  20 O  ( 0.000000,  0.000000,  0.028392)
  21 O  ( 0.000000,  0.000000, -0.028461)
  22 O  ( 0.000000,  0.000000, -0.028379)
  23 O  ( 0.000000,  0.000000,  0.028456)
  24 Li ( 0.000000,  0.000000,  0.000000)
  25 Li ( 0.000000,  0.000000, -0.000007)
  26 Li ( 0.000000,  0.000000, -0.000001)
  27 Li ( 0.000000,  0.000000,  0.000005)

Energy contributions relative to reference atoms: (reference = -196157.275402)

Kinetic:       +277.358594
Potential:     -240.765536
External:        +0.000000
XC:            -264.656544
Entropy (-ST):   -0.000000
Local:           +1.888794
--------------------------
Free energy:   -226.174692
Extrapolated:  -226.174692

Spin contamination: 9.454184 electrons
Showing only first 2 kpts
                      Up                     Down
 Kpt  Band  Eigenvalues  Occupancy  Eigenvalues  Occupancy
  0    88      6.53376    0.00694      6.53023    0.00694
  0    89      6.56813    0.00694      6.56731    0.00694
  0    90      8.42782    0.00000      8.42780    0.00000
  0    91      8.45101    0.00000      8.45244    0.00000

  1    88      6.57225    0.00694      6.56803    0.00694
  1    89      6.60003    0.00694      6.60003    0.00694
  1    90      8.38469    0.00000      8.38418    0.00000
  1    91      8.40949    0.00000      8.40893    0.00000


Fermi level: 7.62766

Gap: 1.697 eV
Transition (v -> c):
  (s=0, k=73, n=89, [0.08, -0.42, -0.12]) -> (s=0, k=85, n=90, [0.08, 0.08, -0.12])
Writing to born-0.01-4x+.gpw (mode='all')

Timing:                              incl.     excl.
-----------------------------------------------------------
Hamiltonian:                         0.358     0.002   0.0% |
 Atomic:                             0.050     0.050   0.0% |
  XC Correction:                     0.000     0.000   0.0% |
 Calculate atomic Hamiltonians:      0.146     0.146   0.0% |
 Communicate:                        0.002     0.002   0.0% |
 Initialize Hamiltonian:             0.000     0.000   0.0% |
 Poisson:                            0.001     0.001   0.0% |
 XC 3D grid:                         0.156     0.156   0.0% |
LCAO initialization:               141.995     0.654   0.0% |
 LCAO eigensolver:                  37.996     0.002   0.0% |
  Calculate projections:             0.056     0.056   0.0% |
  DenseAtomicCorrection:             0.088     0.088   0.0% |
  Distribute overlap matrix:         0.008     0.008   0.0% |
  Orbital Layouts:                   0.340     0.340   0.0% |
  Potential matrix:                 37.402    37.402   0.7% |
  Sum over cells:                    0.099     0.099   0.0% |
 LCAO to grid:                     100.952   100.952   1.8% ||
 Set positions (LCAO WFS):           2.393     0.375   0.0% |
  Basic WFS set positions:           0.001     0.001   0.0% |
  Basis functions set positions:     0.000     0.000   0.0% |
  P tci:                             1.061     1.061   0.0% |
  ST tci:                            0.704     0.704   0.0% |
  mktci:                             0.251     0.251   0.0% |
PWDescriptor:                        0.023     0.023   0.0% |
SCF-cycle:                        2443.260    12.113   0.2% |
 Davidson:                        2054.438   655.057  11.7% |----|
  Apply H:                         146.995   142.663   2.5% ||
   HMM T:                            4.332     4.332   0.1% |
  Subspace diag:                   305.495     0.182   0.0% |
   calc_h_matrix:                  199.292    53.538   1.0% |
    Apply H:                       145.754   141.508   2.5% ||
     HMM T:                          4.247     4.247   0.1% |
   diagonalize:                      7.059     7.059   0.1% |
   rotate_psi:                      98.962    98.962   1.8% ||
  calc. matrices:                  649.738   360.637   6.4% |--|
   Apply H:                        289.100   281.011   5.0% |-|
    HMM T:                           8.090     8.090   0.1% |
  diagonalize:                      94.739    94.739   1.7% ||
  rotate_psi:                      202.414   202.414   3.6% ||
 Density:                           83.619     0.002   0.0% |
  Atomic density matrices:           1.490     1.490   0.0% |
  Mix:                              11.451    11.451   0.2% |
  Multipole moments:                 0.034     0.034   0.0% |
  Pseudo density:                   70.642    70.640   1.3% ||
   Symmetrize density:               0.002     0.002   0.0% |
 Forces:                           267.794   267.794   4.8% |-|
 Hamiltonian:                       21.310     0.134   0.0% |
  Atomic:                            2.976     2.976   0.1% |
   XC Correction:                    0.000     0.000   0.0% |
  Calculate atomic Hamiltonians:     8.592     8.592   0.2% |
  Communicate:                       0.107     0.107   0.0% |
  Poisson:                           0.073     0.073   0.0% |
  XC 3D grid:                        9.429     9.429   0.2% |
 Orthonormalize:                     3.986     0.003   0.0% |
  calc_s_matrix:                     0.478     0.478   0.0% |
  inverse-cholesky:                  0.054     0.054   0.0% |
  projections:                       2.599     2.599   0.0% |
  rotate_psi_s:                      0.852     0.852   0.0% |
Set symmetry:                        0.000     0.000   0.0% |
Other:                            3014.843  3014.843  53.8% |---------------------|
-----------------------------------------------------------
Total:                                      5600.479 100.0%

Memory usage: 12.53 GiB
Date: Mon Mar 22 01:04:24 2021
