
  ___ ___ ___ _ _ _  
 |   |   |_  | | | | 
 | | | | | . | | | | 
 |__ |  _|___|_____|  20.10.1b1
 |___|_|             

User:   madkru@i008.nifl.fysik.dtu.dk
Date:   Wed Mar 24 21:15:47 2021
Arch:   x86_64
Pid:    26969
Python: 3.7.4
gpaw:   /home/niflheim/madkru/venv_folder/gpaw/gpaw (d224efde0f)
_gpaw:  /home/niflheim/madkru/venv_folder/gpaw/build/lib.linux-x86_64-ivybridge-3.7/
        _gpaw.cpython-37m-x86_64-linux-gnu.so (4fd39e8b1e)
ase:    /home/niflheim/madkru/venv_folder/ase/ase (version 3.21.0b1-4d5a73cb29)
numpy:  /home/niflheim/madkru/venv_folder/lib/python3.7/site-packages/numpy (version 1.19.4)
scipy:  /home/niflheim/madkru/venv_folder/lib/python3.7/site-packages/scipy (version 1.5.4)
libxc:  4.3.4
units:  Angstrom and eV
cores: 64
OMP_NUM_THREADS: 1

Input parameters:
  convergence: {bands: occupied,
                density: 0.0001,
                eigenstates: 4e-08,
                energy: 0.0005,
                forces: 1e-06}
  kpts: [6 6 4]
  mode: {ecut: 600.0,
         gammacentered: False,
         name: pw}
  occupations: {fixmagmom: False,
                name: fermi-dirac,
                width: 0.001}
  symmetry: {point_group: False,
             time_reversal: False}

System changes: positions, numbers, cell, pbc, initial_charges, initial_magmoms 

Initialize ...

O-setup:
  name: Oxygen
  id: 9b9d51c344dea68c822856295a461509
  Z: 8.0
  valence: 6
  core: 2
  charge: 0.0
  file: /home/modules/software/GPAW-setups/0.9.20000/O.LDA.gz
  compensation charges: gauss, rc=0.21, lmax=2
  cutoffs: 1.17(filt), 0.83(core),
  valence states:
                energy  radius
    2s(2.00)   -23.752   0.688
    2p(4.00)    -9.195   0.598
    *s           3.459   0.688
    *p          18.016   0.598
    *d           0.000   0.619

  Using partial waves for O as LCAO basis

Mn-setup:
  name: Manganese
  id: 0d715a8018be061a6e9ea6f2d364ac92
  Z: 25.0
  valence: 15
  core: 10
  charge: 0.0
  file: /home/modules/software/GPAW-setups/0.9.20000/Mn.LDA.gz
  compensation charges: gauss, rc=0.38, lmax=2
  cutoffs: 2.14(filt), 0.86(core),
  valence states:
                energy  radius
    3s(2.00)   -85.387   1.275
    4s(2.00)    -5.282   1.275
    3p(6.00)   -54.493   1.281
    4p(0.00)    -1.471   1.281
    3d(5.00)    -7.009   1.138
    *d          20.203   1.138

  Using partial waves for Mn as LCAO basis

P-setup:
  name: Phosphorus
  id: a5561c299094968922a179ab894d2e2d
  Z: 15.0
  valence: 5
  core: 10
  charge: 0.0
  file: /home/modules/software/GPAW-setups/0.9.20000/P.LDA.gz
  compensation charges: gauss, rc=0.30, lmax=2
  cutoffs: 1.69(filt), 1.81(core),
  valence states:
                energy  radius
    3s(2.00)   -14.015   0.953
    3p(3.00)    -5.596   0.953
    *s          13.197   0.953
    *p          21.615   0.953
    *d           0.000   0.953

  Using partial waves for P as LCAO basis

Li-setup:
  name: Lithium
  id: b73562207f97a71b6967473b66fe8b65
  Z: 3.0
  valence: 1
  core: 2
  charge: 0.0
  file: /home/modules/software/GPAW-setups/0.9.20000/Li.LDA.gz
  compensation charges: gauss, rc=0.33, lmax=2
  cutoffs: 1.91(filt), 2.55(core),
  valence states:
                energy  radius
    2s(1.00)    -2.874   1.058
    2p(0.00)    -1.126   1.058
    *s          24.338   1.058

  Using partial waves for Li as LCAO basis

Reference energy: -196157.275402

Spin-polarized calculation.
Magnetic moment: 0.000000

Convergence criteria:
  Maximum total energy change: 0.0005 eV / electron
  Maximum integral of absolute density change: 0.0001 electrons
  Maximum integral of absolute eigenstate change: 4e-08 eV^2
  Maximum change in atomic force: 1e-06 eV / Ang
  Maximum number of iterations: 333

Symmetries present (total): 1

  ( 1  0  0)
  ( 0  1  0)
  ( 0  0  1)

144 k-points: 6 x 6 x 4 Monkhorst-Pack grid
144 k-points in the irreducible part of the Brillouin zone
       k-points in crystal coordinates                weights
   0:    -0.41666667   -0.41666667   -0.37500000          1/144
   1:    -0.41666667   -0.41666667   -0.12500000          1/144
   2:    -0.41666667   -0.41666667    0.12500000          1/144
   3:    -0.41666667   -0.41666667    0.37500000          1/144
   4:    -0.41666667   -0.25000000   -0.37500000          1/144
   5:    -0.41666667   -0.25000000   -0.12500000          1/144
   6:    -0.41666667   -0.25000000    0.12500000          1/144
   7:    -0.41666667   -0.25000000    0.37500000          1/144
   8:    -0.41666667   -0.08333333   -0.37500000          1/144
   9:    -0.41666667   -0.08333333   -0.12500000          1/144
          ...
 143:     0.41666667    0.41666667    0.37500000          1/144

Wave functions: Plane wave expansion
  Cutoff energy: 600.000 eV
  Number of coefficients (min, max): 9132, 9161
  Pulay-stress correction: 0.000000 eV/Ang^3 (de/decut=0.000000)
  Using FFTW library
  ScaLapack parameters: grid=1x1, blocksize=None
  Wavefunction extrapolation:
    Improved wavefunction reuse through dual PAW basis 

  Fermi-Dirac: width=0.0010 eV

Eigensolver
   Davidson(niter=2, smin=None, normalize=True) 

Densities:
  Coarse grid: 60*35*27 grid
  Fine grid: 120*70*54 grid
  Total Charge: 0.000000 

Density mixing:
  Method: difference
  Backend: pulay
  Linear mixing parameter: 0.05
  Mixing with 5 old densities
  Damping of long wave oscillations: 50 

Hamiltonian:
  XC and Coulomb potentials evaluated on a 120*70*54 grid
  Using the LDA Exchange-Correlation functional
 

Memory estimate:
  Process memory now: 12663.97 MiB
  Calculator: 322.47 MiB
    Density: 9.62 MiB
      Arrays: 3.79 MiB
      Localized functions: 4.27 MiB
      Mixer: 1.56 MiB
    Hamiltonian: 2.94 MiB
      Arrays: 2.82 MiB
      XC: 0.00 MiB
      Poisson: 0.00 MiB
      vbar: 0.12 MiB
    Wavefunctions: 309.91 MiB
      Arrays psit_nG: 281.81 MiB
      Eigensolver: 18.27 MiB
      Projections: 2.71 MiB
      Projectors: 4.40 MiB
      PW-descriptor: 2.71 MiB

Total number of cores used: 64
Parallelization over k-points: 16
Domain decomposition: 2 x 2 x 1

Number of atoms: 28
Number of atomic orbitals: 148
Number of bands in calculation: 112
Number of valence electrons: 180
Bands to converge: occupied

... initialized

Initializing position-dependent things.

Density initialized from atomic densities
Creating initial wave functions:
  112 bands from LCAO basis set

                                           
                                           
                                           
                                           
                                           
               O     O  P  O               
            PO           OMn     O         
                  O          MO            
            O        Li O                  
             Mn  Mn          OP            
         O       O Li O                    
         Li     O P         O              
       Li                                  
                                           
                                           
                                           
                                           

Positions:
   0 O     -1.280122   -2.495595   -1.112331    ( 0.0000,  0.0000,  0.0000)
   1 O     -3.023238    2.918858    1.191723    ( 0.0000,  0.0000,  0.0000)
   2 O      1.997451    0.467212    1.441442    ( 0.0000,  0.0000,  0.0000)
   3 O      3.740343   -0.043905   -0.862614    ( 0.0000,  0.0000,  0.0000)
   4 O      1.997419    2.918835    1.441465    ( 0.0000,  0.0000,  0.0000)
   5 O      3.740372   -2.495531   -0.862587    ( 0.0000,  0.0000,  0.0000)
   6 O     -1.280154   -0.043891   -1.112309    ( 0.0000,  0.0000,  0.0000)
   7 O     -3.023210    0.467136    1.191750    ( 0.0000,  0.0000,  0.0000)
   8 O     -4.147405   -1.269737   -0.856207    ( 0.0000,  0.0000,  0.0000)
   9 O     -0.155894    1.692986    1.447725    ( 0.0000,  0.0000,  0.0000)
  10 O      4.864578    1.693016    1.185324    ( 0.0000,  0.0000,  0.0000)
  11 O      0.873163   -1.269706   -1.118625    ( 0.0000,  0.0000,  0.0000)
  12 Mn    -2.437108   -1.269902    0.302197    ( 0.0000,  0.0000,  1.0000)
  13 Mn    -1.866187    1.693156   -2.001927    ( 0.0000,  0.0000, -1.0000)
  14 Mn     3.154299    1.703181    0.026917    ( 0.0000,  0.0000, -1.0000)
  15 Mn     2.583444   -1.269877    2.331074    ( 0.0000,  0.0000,  1.0000)
  16 P     -0.543052   -1.269720   -1.734187    ( 0.0000,  0.0000,  0.0000)
  17 P     -3.760282    1.692974    0.569859    ( 0.0000,  0.0000,  0.0000)
  18 P      1.260300    1.693000    2.063344    ( 0.0000,  0.0000,  0.0000)
  19 P      4.477470   -1.269695   -0.240696    ( 0.0000,  0.0000,  0.0000)
  20 O     -0.544413   -1.269738    1.348523    ( 0.0000,  0.0000,  0.0000)
  21 O     -3.758895    1.692992   -0.955558    ( 0.0000,  0.0000,  0.0000)
  22 O      1.261690    1.693018   -1.019367    ( 0.0000,  0.0000,  0.0000)
  23 O      4.476045   -1.269713    1.284716    ( 0.0000,  0.0000,  0.0000)
  24 Li    -4.662027   -2.751322   -2.139440    ( 0.0000,  0.0000,  0.0000)
  25 Li     0.358703   -2.751277    0.164614    ( 0.0000,  0.0000,  0.0000)
  26 Li    -4.662011    0.211617   -2.139439    ( 0.0000,  0.0000,  0.0000)
  27 Li     0.358720    0.211628    0.164615    ( 0.0000,  0.0000,  0.0000)

Unit cell:
           periodic     x           y           z      points  spacing
  1. axis:    yes   10.041096    0.000054   -0.000022    60     0.1674
  2. axis:    yes    0.000032    5.925857    0.000001    35     0.1693
  3. axis:    yes   -0.000010    0.000001    4.608134    27     0.1707

  Lengths:  10.041096   5.925857   4.608134
  Angles:   89.999974  90.000250  89.999381

Effective grid spacing dv^(1/3) = 0.1691

                     log10-error:           total        iterations:
           time      wfs    density  force  energy       poisson  magmom
iter:   1  21:17:23                       -233.730034             +0.0000
iter:   2  21:17:43  -0.47  -0.95         -231.549875             +0.0038
iter:   3  21:18:03  -0.61  -1.00         -220.808266             +0.0039
iter:   4  21:18:23  -1.19  -1.31         -221.019393             +0.3521
iter:   5  21:18:42  -2.14  -1.39         -222.751693             +0.1921
iter:   6  21:19:02  -2.23  -1.38         -223.619927             +0.2166
iter:   7  21:19:22  -2.18  -1.53         -223.853034             -0.1117
iter:   8  21:19:42  -2.58  -1.70         -225.641243             -0.7489
iter:   9  21:20:01  -2.26  -1.92         -226.405235             -0.0156
iter:  10  21:20:21  -2.12  -2.04         -226.311419             -0.0283
iter:  11  21:20:41  -2.96  -2.19         -226.315589             -0.0080
iter:  12  21:21:01  -2.49  -2.21         -226.207866             +0.0058
iter:  13  21:21:20  -3.30  -2.66         -226.215574             -0.0012
iter:  14  21:21:40  -2.87  -2.79         -226.198007             -0.0036
iter:  15  21:22:00  -3.79  -2.89         -226.181359             -0.0007
iter:  16  21:22:19  -4.03  -3.19         -226.176644             -0.0000
iter:  17  21:22:39  -5.09  -3.32         -226.176956             -0.0000
iter:  18  21:22:59  -4.00  -3.38         -226.176974             -0.0000
iter:  19  21:23:19  -4.75  -3.41         -226.175156             -0.0000
iter:  20  21:23:38  -5.16  -3.78         -226.174921             -0.0000
iter:  21  21:23:58  -5.44  -3.92         -226.175091             +0.0000
iter:  22  21:24:18  -5.48  -3.90         -226.174961             +0.0000
iter:  23  21:24:38  -5.51  -4.13         -226.174952             +0.0000
iter:  24  21:24:57  -5.87  -4.08         -226.174902             +0.0000
iter:  25  21:25:17  -7.12  -4.51         -226.174898             +0.0000
iter:  26  21:25:37  -7.33  -4.60         -226.174895             +0.0000
iter:  27  21:26:01  -7.42  -4.70         -226.174895             +0.0000
iter:  28  21:26:25  -8.48  -4.74    -3.34-226.174894             +0.0000
iter:  29  21:26:50  -7.74  -4.79    -2.77-226.174894             +0.0000
iter:  30  21:27:14  -8.29  -4.99    -3.23-226.174895             +0.0000
iter:  31  21:27:39  -7.74  -5.14    -2.86-226.174895             +0.0000
iter:  32  21:28:03  -9.01  -5.26    -3.32-226.174894             +0.0000
iter:  33  21:28:27  -8.09  -5.33    -3.02-226.174894             +0.0000
iter:  34  21:28:52  -8.54  -5.60    -3.19-226.174894             +0.0000
iter:  35  21:29:16  -9.60  -5.75    -3.55-226.174894             +0.0000
iter:  36  21:29:41 -10.12  -5.89    -3.78-226.174894             +0.0000
iter:  37  21:30:05 -10.22  -5.99    -3.96-226.174894             -0.0000
iter:  38  21:30:29 -10.40  -6.02    -4.25-226.174894             -0.0000
iter:  39  21:30:54 -10.23  -6.08    -4.02-226.174894             -0.0000
iter:  40  21:31:18 -11.19  -6.16    -4.85-226.174894             -0.0000
iter:  41  21:31:42 -10.01  -6.20    -3.91-226.174894             +0.0000
iter:  42  21:32:07 -10.93  -6.70    -4.26-226.174894             +0.0000
iter:  43  21:32:31 -11.96  -7.00    -5.13-226.174894             -0.0000
iter:  44  21:32:56 -11.57  -7.03    -4.73-226.174894             -0.0000
iter:  45  21:33:20 -12.06  -7.15    -4.76-226.174894             -0.0000
iter:  46  21:33:44 -12.28  -7.20    -5.14-226.174894             -0.0000
iter:  47  21:34:09 -12.57  -7.28    -5.36-226.174894             -0.0000
iter:  48  21:34:33 -12.64  -7.36    -5.14-226.174894             -0.0000
iter:  49  21:34:58 -13.71  -7.47    -5.87-226.174894             -0.0000
iter:  50  21:35:22 -13.42  -7.49    -5.56-226.174894             -0.0000
iter:  51  21:35:46 -13.16  -7.58    -5.57-226.174894             -0.0000
iter:  52  21:36:11 -14.07  -7.65    -5.77-226.174894             -0.0000
iter:  53  21:36:35 -13.89  -7.72    -5.88-226.174894             -0.0000
iter:  54  21:37:00 -13.87  -7.79    -5.66-226.174894             -0.0000
iter:  55  21:37:24 -13.82  -8.02    -6.00-226.174894             -0.0000

Converged after 55 iterations.

Dipole moment: (18.327107, -2.294557, -4.524290) |e|*Ang

Total magnetic moment: (0.000000, 0.000000, -0.000000)
Local magnetic moments:
   0 O  ( 0.000000,  0.000000, -0.001806)
   1 O  ( 0.000000,  0.000000,  0.001823)
   2 O  ( 0.000000,  0.000000,  0.002236)
   3 O  ( 0.000000,  0.000000, -0.001284)
   4 O  ( 0.000000,  0.000000,  0.001381)
   5 O  ( 0.000000,  0.000000, -0.002336)
   6 O  ( 0.000000,  0.000000, -0.001816)
   7 O  ( 0.000000,  0.000000,  0.001799)
   8 O  ( 0.000000,  0.000000,  0.031097)
   9 O  ( 0.000000,  0.000000, -0.031097)
  10 O  ( 0.000000,  0.000000, -0.031098)
  11 O  ( 0.000000,  0.000000,  0.031096)
  12 Mn ( 0.000000,  0.000000,  4.395765)
  13 Mn ( 0.000000,  0.000000, -4.395783)
  14 Mn ( 0.000000,  0.000000, -4.395674)
  15 Mn ( 0.000000,  0.000000,  4.395742)
  16 P  ( 0.000000,  0.000000,  0.000866)
  17 P  ( 0.000000,  0.000000, -0.000864)
  18 P  ( 0.000000,  0.000000, -0.000873)
  19 P  ( 0.000000,  0.000000,  0.000866)
  20 O  ( 0.000000,  0.000000,  0.028417)
  21 O  ( 0.000000,  0.000000, -0.028416)
  22 O  ( 0.000000,  0.000000, -0.028423)
  23 O  ( 0.000000,  0.000000,  0.028418)
  24 Li ( 0.000000,  0.000000, -0.000006)
  25 Li ( 0.000000,  0.000000,  0.000007)
  26 Li ( 0.000000,  0.000000,  0.000005)
  27 Li ( 0.000000,  0.000000, -0.000007)

Energy contributions relative to reference atoms: (reference = -196157.275402)

Kinetic:       +277.628285
Potential:     -240.970057
External:        +0.000000
XC:            -264.721536
Entropy (-ST):   -0.000000
Local:           +1.888414
--------------------------
Free energy:   -226.174894
Extrapolated:  -226.174894

Spin contamination: 9.455300 electrons
Showing only first 2 kpts
                      Up                     Down
 Kpt  Band  Eigenvalues  Occupancy  Eigenvalues  Occupancy
  0    88      6.53056    0.00694      6.53052    0.00694
  0    89      6.56397    0.00694      6.56371    0.00694
  0    90      8.42666    0.00000      8.42678    0.00000
  0    91      8.44835    0.00000      8.44841    0.00000

  1    88      6.56899    0.00694      6.56870    0.00694
  1    89      6.59596    0.00694      6.59589    0.00694
  1    90      8.38307    0.00000      8.38310    0.00000
  1    91      8.40520    0.00000      8.40529    0.00000


Fermi level: 7.62968

Gap: 1.699 eV
Transition (v -> c):
  (s=1, k=69, n=89, [-0.08, 0.42, -0.12]) -> (s=0, k=81, n=90, [0.08, -0.08, -0.12])
Writing to born-0.01-14y+.gpw (mode='all')

Timing:                              incl.     excl.
-----------------------------------------------------------
Hamiltonian:                         0.221     0.002   0.0% |
 Atomic:                             0.058     0.058   0.0% |
  XC Correction:                     0.000     0.000   0.0% |
 Calculate atomic Hamiltonians:      0.075     0.075   0.0% |
 Communicate:                        0.002     0.002   0.0% |
 Initialize Hamiltonian:             0.000     0.000   0.0% |
 Poisson:                            0.001     0.001   0.0% |
 XC 3D grid:                         0.084     0.084   0.0% |
LCAO initialization:                73.627     0.647   0.0% |
 LCAO eigensolver:                  19.758     0.002   0.0% |
  Calculate projections:             0.029     0.029   0.0% |
  DenseAtomicCorrection:             0.046     0.046   0.0% |
  Distribute overlap matrix:         0.202     0.202   0.0% |
  Orbital Layouts:                   0.435     0.435   0.0% |
  Potential matrix:                 18.956    18.956   0.6% |
  Sum over cells:                    0.088     0.088   0.0% |
 LCAO to grid:                      51.879    51.879   1.6% ||
 Set positions (LCAO WFS):           1.344     0.192   0.0% |
  Basic WFS set positions:           0.001     0.001   0.0% |
  Basis functions set positions:     0.000     0.000   0.0% |
  P tci:                             0.521     0.521   0.0% |
  ST tci:                            0.381     0.381   0.0% |
  mktci:                             0.247     0.247   0.0% |
PWDescriptor:                        0.023     0.023   0.0% |
SCF-cycle:                        1221.998     1.053   0.0% |
 Davidson:                        1030.277   314.784   9.7% |---|
  Apply H:                          71.573    69.638   2.1% ||
   HMM T:                            1.934     1.934   0.1% |
  Subspace diag:                   149.575     0.159   0.0% |
   calc_h_matrix:                   96.369    24.816   0.8% |
    Apply H:                        71.554    69.443   2.1% ||
     HMM T:                          2.111     2.111   0.1% |
   diagonalize:                      7.494     7.494   0.2% |
   rotate_psi:                      45.553    45.553   1.4% ||
  calc. matrices:                  308.719   168.505   5.2% |-|
   Apply H:                        140.214   136.610   4.2% |-|
    HMM T:                           3.604     3.604   0.1% |
  diagonalize:                      86.848    86.848   2.7% ||
  rotate_psi:                       98.779    98.779   3.0% ||
 Density:                           41.678     0.001   0.0% |
  Atomic density matrices:           0.934     0.934   0.0% |
  Mix:                               5.694     5.694   0.2% |
  Multipole moments:                 0.020     0.020   0.0% |
  Pseudo density:                   35.028    35.027   1.1% |
   Symmetrize density:               0.001     0.001   0.0% |
 Forces:                           135.174   135.174   4.2% |-|
 Hamiltonian:                       11.750     0.117   0.0% |
  Atomic:                            2.800     2.800   0.1% |
   XC Correction:                    0.000     0.000   0.0% |
  Calculate atomic Hamiltonians:     4.086     4.086   0.1% |
  Communicate:                       0.098     0.098   0.0% |
  Poisson:                           0.032     0.032   0.0% |
  XC 3D grid:                        4.617     4.617   0.1% |
 Orthonormalize:                     2.066     0.003   0.0% |
  calc_s_matrix:                     0.242     0.242   0.0% |
  inverse-cholesky:                  0.073     0.073   0.0% |
  projections:                       1.317     1.317   0.0% |
  rotate_psi_s:                      0.431     0.431   0.0% |
Set symmetry:                        0.000     0.000   0.0% |
Other:                            1946.830  1946.830  60.0% |-----------------------|
-----------------------------------------------------------
Total:                                      3242.700 100.0%

Memory usage: 12.37 GiB
Date: Wed Mar 24 22:09:50 2021
