
  ___ ___ ___ _ _ _  
 |   |   |_  | | | | 
 | | | | | . | | | | 
 |__ |  _|___|_____|  20.10.1b1
 |___|_|             

User:   madkru@i008.nifl.fysik.dtu.dk
Date:   Wed Mar 24 18:46:21 2021
Arch:   x86_64
Pid:    26969
Python: 3.7.4
gpaw:   /home/niflheim/madkru/venv_folder/gpaw/gpaw (d224efde0f)
_gpaw:  /home/niflheim/madkru/venv_folder/gpaw/build/lib.linux-x86_64-ivybridge-3.7/
        _gpaw.cpython-37m-x86_64-linux-gnu.so (4fd39e8b1e)
ase:    /home/niflheim/madkru/venv_folder/ase/ase (version 3.21.0b1-4d5a73cb29)
numpy:  /home/niflheim/madkru/venv_folder/lib/python3.7/site-packages/numpy (version 1.19.4)
scipy:  /home/niflheim/madkru/venv_folder/lib/python3.7/site-packages/scipy (version 1.5.4)
libxc:  4.3.4
units:  Angstrom and eV
cores: 64
OMP_NUM_THREADS: 1

Input parameters:
  convergence: {bands: occupied,
                density: 0.0001,
                eigenstates: 4e-08,
                energy: 0.0005,
                forces: 1e-06}
  kpts: [6 6 4]
  mode: {ecut: 600.0,
         gammacentered: False,
         name: pw}
  occupations: {fixmagmom: False,
                name: fermi-dirac,
                width: 0.001}
  symmetry: {point_group: False,
             time_reversal: False}

System changes: positions, numbers, cell, pbc, initial_charges, initial_magmoms 

Initialize ...

O-setup:
  name: Oxygen
  id: 9b9d51c344dea68c822856295a461509
  Z: 8.0
  valence: 6
  core: 2
  charge: 0.0
  file: /home/modules/software/GPAW-setups/0.9.20000/O.LDA.gz
  compensation charges: gauss, rc=0.21, lmax=2
  cutoffs: 1.17(filt), 0.83(core),
  valence states:
                energy  radius
    2s(2.00)   -23.752   0.688
    2p(4.00)    -9.195   0.598
    *s           3.459   0.688
    *p          18.016   0.598
    *d           0.000   0.619

  Using partial waves for O as LCAO basis

Mn-setup:
  name: Manganese
  id: 0d715a8018be061a6e9ea6f2d364ac92
  Z: 25.0
  valence: 15
  core: 10
  charge: 0.0
  file: /home/modules/software/GPAW-setups/0.9.20000/Mn.LDA.gz
  compensation charges: gauss, rc=0.38, lmax=2
  cutoffs: 2.14(filt), 0.86(core),
  valence states:
                energy  radius
    3s(2.00)   -85.387   1.275
    4s(2.00)    -5.282   1.275
    3p(6.00)   -54.493   1.281
    4p(0.00)    -1.471   1.281
    3d(5.00)    -7.009   1.138
    *d          20.203   1.138

  Using partial waves for Mn as LCAO basis

P-setup:
  name: Phosphorus
  id: a5561c299094968922a179ab894d2e2d
  Z: 15.0
  valence: 5
  core: 10
  charge: 0.0
  file: /home/modules/software/GPAW-setups/0.9.20000/P.LDA.gz
  compensation charges: gauss, rc=0.30, lmax=2
  cutoffs: 1.69(filt), 1.81(core),
  valence states:
                energy  radius
    3s(2.00)   -14.015   0.953
    3p(3.00)    -5.596   0.953
    *s          13.197   0.953
    *p          21.615   0.953
    *d           0.000   0.953

  Using partial waves for P as LCAO basis

Li-setup:
  name: Lithium
  id: b73562207f97a71b6967473b66fe8b65
  Z: 3.0
  valence: 1
  core: 2
  charge: 0.0
  file: /home/modules/software/GPAW-setups/0.9.20000/Li.LDA.gz
  compensation charges: gauss, rc=0.33, lmax=2
  cutoffs: 1.91(filt), 2.55(core),
  valence states:
                energy  radius
    2s(1.00)    -2.874   1.058
    2p(0.00)    -1.126   1.058
    *s          24.338   1.058

  Using partial waves for Li as LCAO basis

Reference energy: -196157.275402

Spin-polarized calculation.
Magnetic moment: 0.000000

Convergence criteria:
  Maximum total energy change: 0.0005 eV / electron
  Maximum integral of absolute density change: 0.0001 electrons
  Maximum integral of absolute eigenstate change: 4e-08 eV^2
  Maximum change in atomic force: 1e-06 eV / Ang
  Maximum number of iterations: 333

Symmetries present (total): 1

  ( 1  0  0)
  ( 0  1  0)
  ( 0  0  1)

144 k-points: 6 x 6 x 4 Monkhorst-Pack grid
144 k-points in the irreducible part of the Brillouin zone
       k-points in crystal coordinates                weights
   0:    -0.41666667   -0.41666667   -0.37500000          1/144
   1:    -0.41666667   -0.41666667   -0.12500000          1/144
   2:    -0.41666667   -0.41666667    0.12500000          1/144
   3:    -0.41666667   -0.41666667    0.37500000          1/144
   4:    -0.41666667   -0.25000000   -0.37500000          1/144
   5:    -0.41666667   -0.25000000   -0.12500000          1/144
   6:    -0.41666667   -0.25000000    0.12500000          1/144
   7:    -0.41666667   -0.25000000    0.37500000          1/144
   8:    -0.41666667   -0.08333333   -0.37500000          1/144
   9:    -0.41666667   -0.08333333   -0.12500000          1/144
          ...
 143:     0.41666667    0.41666667    0.37500000          1/144

Wave functions: Plane wave expansion
  Cutoff energy: 600.000 eV
  Number of coefficients (min, max): 9132, 9161
  Pulay-stress correction: 0.000000 eV/Ang^3 (de/decut=0.000000)
  Using FFTW library
  ScaLapack parameters: grid=1x1, blocksize=None
  Wavefunction extrapolation:
    Improved wavefunction reuse through dual PAW basis 

  Fermi-Dirac: width=0.0010 eV

Eigensolver
   Davidson(niter=2, smin=None, normalize=True) 

Densities:
  Coarse grid: 60*35*27 grid
  Fine grid: 120*70*54 grid
  Total Charge: 0.000000 

Density mixing:
  Method: difference
  Backend: pulay
  Linear mixing parameter: 0.05
  Mixing with 5 old densities
  Damping of long wave oscillations: 50 

Hamiltonian:
  XC and Coulomb potentials evaluated on a 120*70*54 grid
  Using the LDA Exchange-Correlation functional
 

Memory estimate:
  Process memory now: 12528.05 MiB
  Calculator: 322.47 MiB
    Density: 9.62 MiB
      Arrays: 3.79 MiB
      Localized functions: 4.27 MiB
      Mixer: 1.56 MiB
    Hamiltonian: 2.94 MiB
      Arrays: 2.82 MiB
      XC: 0.00 MiB
      Poisson: 0.00 MiB
      vbar: 0.12 MiB
    Wavefunctions: 309.91 MiB
      Arrays psit_nG: 281.81 MiB
      Eigensolver: 18.27 MiB
      Projections: 2.71 MiB
      Projectors: 4.40 MiB
      PW-descriptor: 2.71 MiB

Total number of cores used: 64
Parallelization over k-points: 16
Domain decomposition: 2 x 2 x 1

Number of atoms: 28
Number of atomic orbitals: 148
Number of bands in calculation: 112
Number of valence electrons: 180
Bands to converge: occupied

... initialized

Initializing position-dependent things.

Density initialized from atomic densities
Creating initial wave functions:
  112 bands from LCAO basis set

                                           
                                           
                                           
                                           
                                           
               O     O  P  O               
            PO           OMn     O         
                  O          MO            
            O        Li O                  
             Mn  Mn          OP            
         O       O Li O                    
         Li     O P         O              
       Li                                  
                                           
                                           
                                           
                                           

Positions:
   0 O     -1.280122   -2.495595   -1.112331    ( 0.0000,  0.0000,  0.0000)
   1 O     -3.023238    2.918858    1.191723    ( 0.0000,  0.0000,  0.0000)
   2 O      1.997451    0.467212    1.441442    ( 0.0000,  0.0000,  0.0000)
   3 O      3.740343   -0.043905   -0.862614    ( 0.0000,  0.0000,  0.0000)
   4 O      1.997419    2.918835    1.441465    ( 0.0000,  0.0000,  0.0000)
   5 O      3.740372   -2.495531   -0.862587    ( 0.0000,  0.0000,  0.0000)
   6 O     -1.280154   -0.043891   -1.112309    ( 0.0000,  0.0000,  0.0000)
   7 O     -3.023210    0.467136    1.191750    ( 0.0000,  0.0000,  0.0000)
   8 O     -4.147405   -1.269737   -0.856207    ( 0.0000,  0.0000,  0.0000)
   9 O     -0.155894    1.692986    1.447725    ( 0.0000,  0.0000,  0.0000)
  10 O      4.864578    1.693016    1.185324    ( 0.0000,  0.0000,  0.0000)
  11 O      0.873163   -1.269706   -1.118625    ( 0.0000,  0.0000,  0.0000)
  12 Mn    -2.437108   -1.269902    0.302197    ( 0.0000,  0.0000,  1.0000)
  13 Mn    -1.866187    1.693156   -2.011927    ( 0.0000,  0.0000, -1.0000)
  14 Mn     3.154299    1.693181    0.026917    ( 0.0000,  0.0000, -1.0000)
  15 Mn     2.583444   -1.269877    2.331074    ( 0.0000,  0.0000,  1.0000)
  16 P     -0.543052   -1.269720   -1.734187    ( 0.0000,  0.0000,  0.0000)
  17 P     -3.760282    1.692974    0.569859    ( 0.0000,  0.0000,  0.0000)
  18 P      1.260300    1.693000    2.063344    ( 0.0000,  0.0000,  0.0000)
  19 P      4.477470   -1.269695   -0.240696    ( 0.0000,  0.0000,  0.0000)
  20 O     -0.544413   -1.269738    1.348523    ( 0.0000,  0.0000,  0.0000)
  21 O     -3.758895    1.692992   -0.955558    ( 0.0000,  0.0000,  0.0000)
  22 O      1.261690    1.693018   -1.019367    ( 0.0000,  0.0000,  0.0000)
  23 O      4.476045   -1.269713    1.284716    ( 0.0000,  0.0000,  0.0000)
  24 Li    -4.662027   -2.751322   -2.139440    ( 0.0000,  0.0000,  0.0000)
  25 Li     0.358703   -2.751277    0.164614    ( 0.0000,  0.0000,  0.0000)
  26 Li    -4.662011    0.211617   -2.139439    ( 0.0000,  0.0000,  0.0000)
  27 Li     0.358720    0.211628    0.164615    ( 0.0000,  0.0000,  0.0000)

Unit cell:
           periodic     x           y           z      points  spacing
  1. axis:    yes   10.041096    0.000054   -0.000022    60     0.1674
  2. axis:    yes    0.000032    5.925857    0.000001    35     0.1693
  3. axis:    yes   -0.000010    0.000001    4.608134    27     0.1707

  Lengths:  10.041096   5.925857   4.608134
  Angles:   89.999974  90.000250  89.999381

Effective grid spacing dv^(1/3) = 0.1691

                     log10-error:           total        iterations:
           time      wfs    density  force  energy       poisson  magmom
iter:   1  18:47:54                       -233.732748             +0.0000
iter:   2  18:48:14  -0.47  -0.95         -231.543691             +0.0039
iter:   3  18:48:33  -0.60  -1.00         -220.819532             +0.0040
iter:   4  18:48:53  -1.22  -1.30         -221.534654             -0.3166
iter:   5  18:49:13  -2.15  -1.37         -222.408891             -0.1826
iter:   6  18:49:32  -2.32  -1.38         -223.940059             -0.0697
iter:   7  18:49:52  -2.14  -1.53         -224.400803             -0.0446
iter:   8  18:50:12  -2.63  -1.71         -225.898319             -0.0166
iter:   9  18:50:31  -2.32  -1.96         -226.374558             +0.0030
iter:  10  18:50:51  -2.60  -2.10         -226.288930             +0.0002
iter:  11  18:51:11  -2.58  -2.17         -226.307234             +0.0000
iter:  12  18:51:30  -2.97  -2.33         -226.225271             +0.0001
iter:  13  18:51:50  -3.41  -2.62         -226.186521             -0.0000
iter:  14  18:52:10  -3.05  -2.70         -226.196445             +0.0000
iter:  15  18:52:29  -3.82  -3.00         -226.178067             -0.0000
iter:  16  18:52:49  -3.88  -3.10         -226.176293             -0.0000
iter:  17  18:53:09  -4.73  -3.43         -226.175713             -0.0000
iter:  18  18:53:28  -5.46  -3.46         -226.175571             +0.0000
iter:  19  18:53:48  -4.98  -3.52         -226.175120             +0.0000
iter:  20  18:54:07  -5.45  -3.75         -226.175108             +0.0000
iter:  21  18:54:27  -5.87  -3.94         -226.175047             +0.0000
iter:  22  18:54:47  -6.21  -4.07         -226.175062             +0.0000
iter:  23  18:55:06  -6.65  -4.13         -226.175053             -0.0000
iter:  24  18:55:26  -6.98  -4.18         -226.175055             -0.0000
iter:  25  18:55:50  -7.54  -4.31         -226.175050             -0.0000
iter:  26  18:56:10  -7.18  -4.38         -226.175042             -0.0000
iter:  27  18:56:30  -6.67  -4.42         -226.175039             -0.0000
iter:  28  18:56:54  -7.56  -4.63    -2.06-226.175040             -0.0000
iter:  29  18:57:13  -7.08  -4.67         -226.175038             -0.0000
iter:  30  18:57:38  -7.74  -4.85    -2.29-226.175038             -0.0000
iter:  31  18:58:02  -7.78  -4.88    -2.76-226.175037             +0.0000
iter:  32  18:58:26  -9.09  -5.06    -3.43-226.175037             -0.0000
iter:  33  18:58:51  -8.46  -5.07    -2.79-226.175038             -0.0000
iter:  34  18:59:15  -7.93  -5.26    -2.90-226.175038             -0.0000
iter:  35  18:59:39  -8.89  -5.42    -3.23-226.175037             -0.0000
iter:  36  19:00:03  -9.33  -5.65    -3.61-226.175037             +0.0000
iter:  37  19:00:28  -9.34  -5.75    -3.44-226.175037             +0.0000
iter:  38  19:00:52  -9.27  -5.80    -3.67-226.175037             +0.0000
iter:  39  19:01:16 -10.62  -6.34    -4.41-226.175037             +0.0000
iter:  40  19:01:41 -10.85  -6.38    -4.33-226.175037             +0.0000
iter:  41  19:02:05 -10.35  -6.46    -4.24-226.175037             +0.0000
iter:  42  19:02:29 -10.55  -6.49    -4.28-226.175037             +0.0000
iter:  43  19:02:54 -11.87  -6.81    -5.33-226.175037             +0.0000
iter:  44  19:03:18 -11.87  -6.86    -4.82-226.175037             +0.0000
iter:  45  19:03:42 -11.68  -7.03    -4.77-226.175037             +0.0000
iter:  46  19:04:07 -11.99  -7.06    -4.89-226.175037             +0.0000
iter:  47  19:04:31 -12.97  -7.26    -5.56-226.175037             +0.0000
iter:  48  19:04:55 -12.79  -7.32    -5.31-226.175037             +0.0000
iter:  49  19:05:20 -12.78  -7.64    -5.25-226.175037             +0.0000
iter:  50  19:05:44 -13.47  -7.60    -5.73-226.175037             +0.0000
iter:  51  19:06:08 -13.64  -7.74    -5.90-226.175037             +0.0000
iter:  52  19:06:33 -14.04  -7.82    -5.71-226.175037             +0.0000
iter:  53  19:06:57 -13.40  -7.88    -5.52-226.175037             +0.0000
iter:  54  19:07:21 -13.59  -7.90    -5.60-226.175037             +0.0000
iter:  55  19:07:46 -14.35  -8.31    -6.34-226.175037             +0.0000

Converged after 55 iterations.

Dipole moment: (18.322283, -2.308832, -4.537158) |e|*Ang

Total magnetic moment: (0.000000, 0.000000, 0.000000)
Local magnetic moments:
   0 O  ( 0.000000,  0.000000, -0.001566)
   1 O  ( 0.000000,  0.000000,  0.001404)
   2 O  ( 0.000000,  0.000000,  0.001771)
   3 O  ( 0.000000,  0.000000, -0.001806)
   4 O  ( 0.000000,  0.000000,  0.001766)
   5 O  ( 0.000000,  0.000000, -0.001801)
   6 O  ( 0.000000,  0.000000, -0.001571)
   7 O  ( 0.000000,  0.000000,  0.001409)
   8 O  ( 0.000000,  0.000000,  0.031066)
   9 O  ( 0.000000,  0.000000, -0.031315)
  10 O  ( 0.000000,  0.000000, -0.031105)
  11 O  ( 0.000000,  0.000000,  0.031187)
  12 Mn ( 0.000000,  0.000000,  4.395414)
  13 Mn ( 0.000000,  0.000000, -4.395618)
  14 Mn ( 0.000000,  0.000000, -4.395766)
  15 Mn ( 0.000000,  0.000000,  4.395753)
  16 P  ( 0.000000,  0.000000,  0.001075)
  17 P  ( 0.000000,  0.000000, -0.000886)
  18 P  ( 0.000000,  0.000000, -0.001006)
  19 P  ( 0.000000,  0.000000,  0.000870)
  20 O  ( 0.000000,  0.000000,  0.028486)
  21 O  ( 0.000000,  0.000000, -0.028162)
  22 O  ( 0.000000,  0.000000, -0.028412)
  23 O  ( 0.000000,  0.000000,  0.028402)
  24 Li ( 0.000000,  0.000000, -0.000004)
  25 Li ( 0.000000,  0.000000, -0.000004)
  26 Li ( 0.000000,  0.000000, -0.000004)
  27 Li ( 0.000000,  0.000000, -0.000004)

Energy contributions relative to reference atoms: (reference = -196157.275402)

Kinetic:       +277.680446
Potential:     -241.010174
External:        +0.000000
XC:            -264.733579
Entropy (-ST):   -0.000000
Local:           +1.888269
--------------------------
Free energy:   -226.175037
Extrapolated:  -226.175037

Spin contamination: 9.454690 electrons
Showing only first 2 kpts
                      Up                     Down
 Kpt  Band  Eigenvalues  Occupancy  Eigenvalues  Occupancy
  0    88      6.53036    0.00694      6.52989    0.00694
  0    89      6.56400    0.00694      6.56360    0.00694
  0    90      8.42885    0.00000      8.42725    0.00000
  0    91      8.45312    0.00000      8.44866    0.00000

  1    88      6.56893    0.00694      6.56918    0.00694
  1    89      6.59633    0.00694      6.59640    0.00694
  1    90      8.38429    0.00000      8.38357    0.00000
  1    91      8.40730    0.00000      8.40550    0.00000


Fermi level: 7.63914

Gap: 1.698 eV
Transition (v -> c):
  (s=1, k=50, n=89, [-0.08, -0.42, 0.12]) -> (s=1, k=81, n=90, [0.08, -0.08, -0.12])
Writing to born-0.01-13z-.gpw (mode='all')

Timing:                              incl.     excl.
-----------------------------------------------------------
Hamiltonian:                         0.223     0.002   0.0% |
 Atomic:                             0.063     0.063   0.0% |
  XC Correction:                     0.000     0.000   0.0% |
 Calculate atomic Hamiltonians:      0.073     0.073   0.0% |
 Communicate:                        0.002     0.002   0.0% |
 Initialize Hamiltonian:             0.000     0.000   0.0% |
 Poisson:                            0.001     0.001   0.0% |
 XC 3D grid:                         0.082     0.082   0.0% |
LCAO initialization:                70.905     0.642   0.0% |
 LCAO eigensolver:                  19.713     0.002   0.0% |
  Calculate projections:             0.029     0.029   0.0% |
  DenseAtomicCorrection:             0.045     0.045   0.0% |
  Distribute overlap matrix:         0.008     0.008   0.0% |
  Orbital Layouts:                   0.429     0.429   0.0% |
  Potential matrix:                 19.114    19.114   0.6% |
  Sum over cells:                    0.086     0.086   0.0% |
 LCAO to grid:                      49.185    49.185   1.6% ||
 Set positions (LCAO WFS):           1.365     0.232   0.0% |
  Basic WFS set positions:           0.001     0.001   0.0% |
  Basis functions set positions:     0.000     0.000   0.0% |
  P tci:                             0.519     0.519   0.0% |
  ST tci:                            0.399     0.399   0.0% |
  mktci:                             0.213     0.213   0.0% |
PWDescriptor:                        0.023     0.023   0.0% |
SCF-cycle:                        1212.894     1.054   0.0% |
 Davidson:                        1026.325   314.801  10.0% |---|
  Apply H:                          71.102    69.029   2.2% ||
   HMM T:                            2.072     2.072   0.1% |
  Subspace diag:                   149.023     0.153   0.0% |
   calc_h_matrix:                   95.737    24.815   0.8% |
    Apply H:                        70.922    68.846   2.2% ||
     HMM T:                          2.076     2.076   0.1% |
   diagonalize:                      7.490     7.490   0.2% |
   rotate_psi:                      45.644    45.644   1.4% ||
  calc. matrices:                  306.261   167.956   5.3% |-|
   Apply H:                        138.305   134.461   4.3% |-|
    HMM T:                           3.844     3.844   0.1% |
  diagonalize:                      86.354    86.354   2.7% ||
  rotate_psi:                       98.784    98.784   3.1% ||
 Density:                           41.110     0.001   0.0% |
  Atomic density matrices:           0.825     0.825   0.0% |
  Mix:                               5.673     5.673   0.2% |
  Multipole moments:                 0.020     0.020   0.0% |
  Pseudo density:                   34.591    34.590   1.1% |
   Symmetrize density:               0.001     0.001   0.0% |
 Forces:                           130.665   130.665   4.1% |-|
 Hamiltonian:                       11.680     0.114   0.0% |
  Atomic:                            2.776     2.775   0.1% |
   XC Correction:                    0.000     0.000   0.0% |
  Calculate atomic Hamiltonians:     4.053     4.053   0.1% |
  Communicate:                       0.094     0.094   0.0% |
  Poisson:                           0.032     0.032   0.0% |
  XC 3D grid:                        4.611     4.611   0.1% |
 Orthonormalize:                     2.060     0.003   0.0% |
  calc_s_matrix:                     0.241     0.241   0.0% |
  inverse-cholesky:                  0.072     0.072   0.0% |
  projections:                       1.314     1.314   0.0% |
  rotate_psi_s:                      0.429     0.429   0.0% |
Set symmetry:                        0.000     0.000   0.0% |
Other:                            1869.872  1869.872  59.3% |-----------------------|
-----------------------------------------------------------
Total:                                      3153.917 100.0%

Memory usage: 12.27 GiB
Date: Wed Mar 24 19:38:55 2021
