
  ___ ___ ___ _ _ _  
 |   |   |_  | | | | 
 | | | | | . | | | | 
 |__ |  _|___|_____|  20.10.1b1
 |___|_|             

User:   madkru@i008.nifl.fysik.dtu.dk
Date:   Wed Mar 24 22:17:18 2021
Arch:   x86_64
Pid:    26969
Python: 3.7.4
gpaw:   /home/niflheim/madkru/venv_folder/gpaw/gpaw (d224efde0f)
_gpaw:  /home/niflheim/madkru/venv_folder/gpaw/build/lib.linux-x86_64-ivybridge-3.7/
        _gpaw.cpython-37m-x86_64-linux-gnu.so (4fd39e8b1e)
ase:    /home/niflheim/madkru/venv_folder/ase/ase (version 3.21.0b1-4d5a73cb29)
numpy:  /home/niflheim/madkru/venv_folder/lib/python3.7/site-packages/numpy (version 1.19.4)
scipy:  /home/niflheim/madkru/venv_folder/lib/python3.7/site-packages/scipy (version 1.5.4)
libxc:  4.3.4
units:  Angstrom and eV
cores: 64
OMP_NUM_THREADS: 1

Input parameters:
  convergence: {bands: occupied,
                density: 0.0001,
                eigenstates: 4e-08,
                energy: 0.0005,
                forces: 1e-06}
  kpts: [6 6 4]
  mode: {ecut: 600.0,
         gammacentered: False,
         name: pw}
  occupations: {fixmagmom: False,
                name: fermi-dirac,
                width: 0.001}
  symmetry: {point_group: False,
             time_reversal: False}

System changes: positions, numbers, cell, pbc, initial_charges, initial_magmoms 

Initialize ...

O-setup:
  name: Oxygen
  id: 9b9d51c344dea68c822856295a461509
  Z: 8.0
  valence: 6
  core: 2
  charge: 0.0
  file: /home/modules/software/GPAW-setups/0.9.20000/O.LDA.gz
  compensation charges: gauss, rc=0.21, lmax=2
  cutoffs: 1.17(filt), 0.83(core),
  valence states:
                energy  radius
    2s(2.00)   -23.752   0.688
    2p(4.00)    -9.195   0.598
    *s           3.459   0.688
    *p          18.016   0.598
    *d           0.000   0.619

  Using partial waves for O as LCAO basis

Mn-setup:
  name: Manganese
  id: 0d715a8018be061a6e9ea6f2d364ac92
  Z: 25.0
  valence: 15
  core: 10
  charge: 0.0
  file: /home/modules/software/GPAW-setups/0.9.20000/Mn.LDA.gz
  compensation charges: gauss, rc=0.38, lmax=2
  cutoffs: 2.14(filt), 0.86(core),
  valence states:
                energy  radius
    3s(2.00)   -85.387   1.275
    4s(2.00)    -5.282   1.275
    3p(6.00)   -54.493   1.281
    4p(0.00)    -1.471   1.281
    3d(5.00)    -7.009   1.138
    *d          20.203   1.138

  Using partial waves for Mn as LCAO basis

P-setup:
  name: Phosphorus
  id: a5561c299094968922a179ab894d2e2d
  Z: 15.0
  valence: 5
  core: 10
  charge: 0.0
  file: /home/modules/software/GPAW-setups/0.9.20000/P.LDA.gz
  compensation charges: gauss, rc=0.30, lmax=2
  cutoffs: 1.69(filt), 1.81(core),
  valence states:
                energy  radius
    3s(2.00)   -14.015   0.953
    3p(3.00)    -5.596   0.953
    *s          13.197   0.953
    *p          21.615   0.953
    *d           0.000   0.953

  Using partial waves for P as LCAO basis

Li-setup:
  name: Lithium
  id: b73562207f97a71b6967473b66fe8b65
  Z: 3.0
  valence: 1
  core: 2
  charge: 0.0
  file: /home/modules/software/GPAW-setups/0.9.20000/Li.LDA.gz
  compensation charges: gauss, rc=0.33, lmax=2
  cutoffs: 1.91(filt), 2.55(core),
  valence states:
                energy  radius
    2s(1.00)    -2.874   1.058
    2p(0.00)    -1.126   1.058
    *s          24.338   1.058

  Using partial waves for Li as LCAO basis

Reference energy: -196157.275402

Spin-polarized calculation.
Magnetic moment: 0.000000

Convergence criteria:
  Maximum total energy change: 0.0005 eV / electron
  Maximum integral of absolute density change: 0.0001 electrons
  Maximum integral of absolute eigenstate change: 4e-08 eV^2
  Maximum change in atomic force: 1e-06 eV / Ang
  Maximum number of iterations: 333

Symmetries present (total): 1

  ( 1  0  0)
  ( 0  1  0)
  ( 0  0  1)

144 k-points: 6 x 6 x 4 Monkhorst-Pack grid
144 k-points in the irreducible part of the Brillouin zone
       k-points in crystal coordinates                weights
   0:    -0.41666667   -0.41666667   -0.37500000          1/144
   1:    -0.41666667   -0.41666667   -0.12500000          1/144
   2:    -0.41666667   -0.41666667    0.12500000          1/144
   3:    -0.41666667   -0.41666667    0.37500000          1/144
   4:    -0.41666667   -0.25000000   -0.37500000          1/144
   5:    -0.41666667   -0.25000000   -0.12500000          1/144
   6:    -0.41666667   -0.25000000    0.12500000          1/144
   7:    -0.41666667   -0.25000000    0.37500000          1/144
   8:    -0.41666667   -0.08333333   -0.37500000          1/144
   9:    -0.41666667   -0.08333333   -0.12500000          1/144
          ...
 143:     0.41666667    0.41666667    0.37500000          1/144

Wave functions: Plane wave expansion
  Cutoff energy: 600.000 eV
  Number of coefficients (min, max): 9132, 9161
  Pulay-stress correction: 0.000000 eV/Ang^3 (de/decut=0.000000)
  Using FFTW library
  ScaLapack parameters: grid=1x1, blocksize=None
  Wavefunction extrapolation:
    Improved wavefunction reuse through dual PAW basis 

  Fermi-Dirac: width=0.0010 eV

Eigensolver
   Davidson(niter=2, smin=None, normalize=True) 

Densities:
  Coarse grid: 60*35*27 grid
  Fine grid: 120*70*54 grid
  Total Charge: 0.000000 

Density mixing:
  Method: difference
  Backend: pulay
  Linear mixing parameter: 0.05
  Mixing with 5 old densities
  Damping of long wave oscillations: 50 

Hamiltonian:
  XC and Coulomb potentials evaluated on a 120*70*54 grid
  Using the LDA Exchange-Correlation functional
 

Memory estimate:
  Process memory now: 12713.82 MiB
  Calculator: 322.47 MiB
    Density: 9.62 MiB
      Arrays: 3.79 MiB
      Localized functions: 4.27 MiB
      Mixer: 1.56 MiB
    Hamiltonian: 2.94 MiB
      Arrays: 2.82 MiB
      XC: 0.00 MiB
      Poisson: 0.00 MiB
      vbar: 0.12 MiB
    Wavefunctions: 309.91 MiB
      Arrays psit_nG: 281.81 MiB
      Eigensolver: 18.27 MiB
      Projections: 2.71 MiB
      Projectors: 4.40 MiB
      PW-descriptor: 2.71 MiB

Total number of cores used: 64
Parallelization over k-points: 16
Domain decomposition: 2 x 2 x 1

Number of atoms: 28
Number of atomic orbitals: 148
Number of bands in calculation: 112
Number of valence electrons: 180
Bands to converge: occupied

... initialized

Initializing position-dependent things.

Density initialized from atomic densities
Creating initial wave functions:
  112 bands from LCAO basis set

                                           
                                           
                                           
                                           
                                           
               O     O  P  O               
            PO           OMn     O         
                  O          MO            
            O        Li O                  
             Mn  Mn          OP            
         O       O Li O                    
         Li     O P         O              
       Li                                  
                                           
                                           
                                           
                                           

Positions:
   0 O     -1.280122   -2.495595   -1.112331    ( 0.0000,  0.0000,  0.0000)
   1 O     -3.023238    2.918858    1.191723    ( 0.0000,  0.0000,  0.0000)
   2 O      1.997451    0.467212    1.441442    ( 0.0000,  0.0000,  0.0000)
   3 O      3.740343   -0.043905   -0.862614    ( 0.0000,  0.0000,  0.0000)
   4 O      1.997419    2.918835    1.441465    ( 0.0000,  0.0000,  0.0000)
   5 O      3.740372   -2.495531   -0.862587    ( 0.0000,  0.0000,  0.0000)
   6 O     -1.280154   -0.043891   -1.112309    ( 0.0000,  0.0000,  0.0000)
   7 O     -3.023210    0.467136    1.191750    ( 0.0000,  0.0000,  0.0000)
   8 O     -4.147405   -1.269737   -0.856207    ( 0.0000,  0.0000,  0.0000)
   9 O     -0.155894    1.692986    1.447725    ( 0.0000,  0.0000,  0.0000)
  10 O      4.864578    1.693016    1.185324    ( 0.0000,  0.0000,  0.0000)
  11 O      0.873163   -1.269706   -1.118625    ( 0.0000,  0.0000,  0.0000)
  12 Mn    -2.437108   -1.269902    0.302197    ( 0.0000,  0.0000,  1.0000)
  13 Mn    -1.866187    1.693156   -2.001927    ( 0.0000,  0.0000, -1.0000)
  14 Mn     3.154299    1.693181    0.036917    ( 0.0000,  0.0000, -1.0000)
  15 Mn     2.583444   -1.269877    2.331074    ( 0.0000,  0.0000,  1.0000)
  16 P     -0.543052   -1.269720   -1.734187    ( 0.0000,  0.0000,  0.0000)
  17 P     -3.760282    1.692974    0.569859    ( 0.0000,  0.0000,  0.0000)
  18 P      1.260300    1.693000    2.063344    ( 0.0000,  0.0000,  0.0000)
  19 P      4.477470   -1.269695   -0.240696    ( 0.0000,  0.0000,  0.0000)
  20 O     -0.544413   -1.269738    1.348523    ( 0.0000,  0.0000,  0.0000)
  21 O     -3.758895    1.692992   -0.955558    ( 0.0000,  0.0000,  0.0000)
  22 O      1.261690    1.693018   -1.019367    ( 0.0000,  0.0000,  0.0000)
  23 O      4.476045   -1.269713    1.284716    ( 0.0000,  0.0000,  0.0000)
  24 Li    -4.662027   -2.751322   -2.139440    ( 0.0000,  0.0000,  0.0000)
  25 Li     0.358703   -2.751277    0.164614    ( 0.0000,  0.0000,  0.0000)
  26 Li    -4.662011    0.211617   -2.139439    ( 0.0000,  0.0000,  0.0000)
  27 Li     0.358720    0.211628    0.164615    ( 0.0000,  0.0000,  0.0000)

Unit cell:
           periodic     x           y           z      points  spacing
  1. axis:    yes   10.041096    0.000054   -0.000022    60     0.1674
  2. axis:    yes    0.000032    5.925857    0.000001    35     0.1693
  3. axis:    yes   -0.000010    0.000001    4.608134    27     0.1707

  Lengths:  10.041096   5.925857   4.608134
  Angles:   89.999974  90.000250  89.999381

Effective grid spacing dv^(1/3) = 0.1691

                     log10-error:           total        iterations:
           time      wfs    density  force  energy       poisson  magmom
iter:   1  22:18:51                       -233.732773             +0.0000
iter:   2  22:19:11  -0.47  -0.95         -231.543675             +0.0039
iter:   3  22:19:30  -0.61  -1.00         -220.799680             +0.0040
iter:   4  22:19:50  -1.19  -1.31         -220.940244             -0.2626
iter:   5  22:20:10  -2.13  -1.39         -222.852617             -0.1369
iter:   6  22:20:30  -2.23  -1.38         -224.060247             -0.0623
iter:   7  22:20:49  -2.17  -1.51         -223.957204             -0.0324
iter:   8  22:21:09  -2.51  -1.65         -225.512107             -0.2377
iter:   9  22:21:29  -2.16  -1.89         -226.370154             +0.4444
iter:  10  22:21:48  -2.36  -2.02         -226.317263             +0.0983
iter:  11  22:22:08  -3.06  -2.09         -226.298452             +0.0058
iter:  12  22:22:28  -2.39  -2.12         -226.255259             -0.0040
iter:  13  22:22:47  -3.52  -2.61         -226.233015             +0.0017
iter:  14  22:23:07  -2.79  -2.70         -226.183395             +0.0051
iter:  15  22:23:27  -4.07  -2.99         -226.181566             +0.0012
iter:  16  22:23:46  -4.57  -3.06         -226.177860             -0.0009
iter:  17  22:24:06  -5.06  -3.14         -226.176728             -0.0002
iter:  18  22:24:26  -4.07  -3.19         -226.176099             +0.0002
iter:  19  22:24:45  -5.38  -3.46         -226.175648             -0.0001
iter:  20  22:25:05  -5.16  -3.53         -226.175232             +0.0002
iter:  21  22:25:24  -5.61  -3.62         -226.175237             +0.0000
iter:  22  22:25:44  -5.64  -3.77         -226.175283             +0.0000
iter:  23  22:26:04  -6.54  -3.91         -226.175191             -0.0000
iter:  24  22:26:23  -5.55  -3.95         -226.175038             -0.0000
iter:  25  22:26:43  -6.32  -4.27         -226.175058             -0.0000
iter:  26  22:27:07  -7.45  -4.32         -226.175053             -0.0000
iter:  27  22:27:27  -6.10  -4.35         -226.175051             +0.0000
iter:  28  22:27:47  -6.48  -4.60         -226.175040             -0.0000
iter:  29  22:28:11  -7.45  -4.68    -2.02-226.175039             -0.0000
iter:  30  22:28:35  -7.72  -4.79    -3.02-226.175039             +0.0000
iter:  31  22:29:00  -7.75  -4.89    -2.80-226.175038             +0.0000
iter:  32  22:29:19  -7.33  -4.99         -226.175041             +0.0000
iter:  33  22:29:44  -7.53  -4.97    -2.74-226.175038             +0.0000
iter:  34  22:30:08  -8.43  -5.24    -3.39-226.175038             +0.0000
iter:  35  22:30:32  -8.71  -5.30    -3.22-226.175038             +0.0000
iter:  36  22:30:57  -8.84  -5.41    -3.22-226.175038             +0.0000
iter:  37  22:31:21  -9.42  -5.53    -3.65-226.175038             +0.0000
iter:  38  22:31:45  -9.35  -5.59    -3.62-226.175038             +0.0000
iter:  39  22:32:09  -9.13  -5.64    -3.43-226.175038             +0.0000
iter:  40  22:32:34  -9.91  -5.74    -4.09-226.175038             +0.0000
iter:  41  22:32:58  -9.01  -5.77    -3.30-226.175038             -0.0000
iter:  42  22:33:23  -9.72  -6.08    -3.63-226.175038             +0.0000
iter:  43  22:33:47 -11.15  -6.30    -4.77-226.175038             +0.0000
iter:  44  22:34:11 -10.93  -6.33    -4.14-226.175038             -0.0000
iter:  45  22:34:36 -10.74  -6.44    -4.25-226.175038             -0.0000
iter:  46  22:35:00 -10.89  -6.52    -4.20-226.175038             -0.0000
iter:  47  22:35:24 -11.53  -6.73    -4.55-226.175038             -0.0000
iter:  48  22:35:48 -11.47  -6.81    -4.39-226.175038             -0.0000
iter:  49  22:36:13 -12.03  -6.89    -4.71-226.175038             -0.0000
iter:  50  22:36:37 -12.96  -7.32    -5.28-226.175038             -0.0000
iter:  51  22:37:01 -12.57  -7.40    -5.40-226.175038             -0.0000
iter:  52  22:37:26 -12.76  -7.54    -5.21-226.175038             -0.0000
iter:  53  22:37:50 -13.66  -7.59    -5.45-226.175038             -0.0000
iter:  54  22:38:14 -13.93  -7.63    -6.01-226.175038             -0.0000

Converged after 54 iterations.

Dipole moment: (18.327773, -2.308832, -4.721386) |e|*Ang

Total magnetic moment: (0.000000, 0.000000, -0.000000)
Local magnetic moments:
   0 O  ( 0.000000,  0.000000, -0.001806)
   1 O  ( 0.000000,  0.000000,  0.001770)
   2 O  ( 0.000000,  0.000000,  0.001406)
   3 O  ( 0.000000,  0.000000, -0.001566)
   4 O  ( 0.000000,  0.000000,  0.001400)
   5 O  ( 0.000000,  0.000000, -0.001561)
   6 O  ( 0.000000,  0.000000, -0.001811)
   7 O  ( 0.000000,  0.000000,  0.001775)
   8 O  ( 0.000000,  0.000000,  0.031189)
   9 O  ( 0.000000,  0.000000, -0.031107)
  10 O  ( 0.000000,  0.000000, -0.031314)
  11 O  ( 0.000000,  0.000000,  0.031064)
  12 Mn ( 0.000000,  0.000000,  4.395765)
  13 Mn ( 0.000000,  0.000000, -4.395811)
  14 Mn ( 0.000000,  0.000000, -4.395572)
  15 Mn ( 0.000000,  0.000000,  4.395401)
  16 P  ( 0.000000,  0.000000,  0.000866)
  17 P  ( 0.000000,  0.000000, -0.000999)
  18 P  ( 0.000000,  0.000000, -0.000893)
  19 P  ( 0.000000,  0.000000,  0.001079)
  20 O  ( 0.000000,  0.000000,  0.028400)
  21 O  ( 0.000000,  0.000000, -0.028408)
  22 O  ( 0.000000,  0.000000, -0.028166)
  23 O  ( 0.000000,  0.000000,  0.028488)
  24 Li ( 0.000000,  0.000000, -0.000004)
  25 Li ( 0.000000,  0.000000, -0.000003)
  26 Li ( 0.000000,  0.000000, -0.000004)
  27 Li ( 0.000000,  0.000000, -0.000003)

Energy contributions relative to reference atoms: (reference = -196157.275402)

Kinetic:       +277.680566
Potential:     -241.010299
External:        +0.000000
XC:            -264.733586
Entropy (-ST):   -0.000000
Local:           +1.888280
--------------------------
Free energy:   -226.175038
Extrapolated:  -226.175038

Spin contamination: 9.454688 electrons
Showing only first 2 kpts
                      Up                     Down
 Kpt  Band  Eigenvalues  Occupancy  Eigenvalues  Occupancy
  0    88      6.53042    0.00694      6.52981    0.00694
  0    89      6.56395    0.00694      6.56373    0.00694
  0    90      8.42989    0.00000      8.42708    0.00000
  0    91      8.45200    0.00000      8.44883    0.00000

  1    88      6.56918    0.00694      6.56863    0.00694
  1    89      6.59609    0.00694      6.59695    0.00694
  1    90      8.38470    0.00000      8.38333    0.00000
  1    91      8.40690    0.00000      8.40575    0.00000


Fermi level: 7.59303

Gap: 1.698 eV
Transition (v -> c):
  (s=1, k=94, n=89, [0.08, 0.42, 0.12]) -> (s=1, k=61, n=90, [-0.08, 0.08, -0.12])
Writing to born-0.01-14z+.gpw (mode='all')

Timing:                              incl.     excl.
-----------------------------------------------------------
Hamiltonian:                         0.215     0.002   0.0% |
 Atomic:                             0.053     0.053   0.0% |
  XC Correction:                     0.000     0.000   0.0% |
 Calculate atomic Hamiltonians:      0.075     0.075   0.0% |
 Communicate:                        0.002     0.002   0.0% |
 Initialize Hamiltonian:             0.000     0.000   0.0% |
 Poisson:                            0.001     0.001   0.0% |
 XC 3D grid:                         0.083     0.083   0.0% |
LCAO initialization:                70.498     0.679   0.0% |
 LCAO eigensolver:                  19.658     0.002   0.0% |
  Calculate projections:             0.029     0.029   0.0% |
  DenseAtomicCorrection:             0.045     0.045   0.0% |
  Distribute overlap matrix:         0.086     0.086   0.0% |
  Orbital Layouts:                   0.430     0.430   0.0% |
  Potential matrix:                 18.978    18.978   0.6% |
  Sum over cells:                    0.088     0.088   0.0% |
 LCAO to grid:                      48.855    48.855   1.5% ||
 Set positions (LCAO WFS):           1.306     0.191   0.0% |
  Basic WFS set positions:           0.001     0.001   0.0% |
  Basis functions set positions:     0.000     0.000   0.0% |
  P tci:                             0.516     0.516   0.0% |
  ST tci:                            0.383     0.383   0.0% |
  mktci:                             0.214     0.214   0.0% |
PWDescriptor:                        0.023     0.023   0.0% |
SCF-cycle:                        1184.280     1.079   0.0% |
 Davidson:                        1007.718   308.894   9.6% |---|
  Apply H:                          69.779    67.768   2.1% ||
   HMM T:                            2.010     2.010   0.1% |
  Subspace diag:                   146.326     0.151   0.0% |
   calc_h_matrix:                   94.097    24.355   0.8% |
    Apply H:                        69.743    67.721   2.1% ||
     HMM T:                          2.022     2.022   0.1% |
   diagonalize:                      7.352     7.352   0.2% |
   rotate_psi:                      44.725    44.725   1.4% ||
  calc. matrices:                  301.118   165.050   5.1% |-|
   Apply H:                        136.068   132.313   4.1% |-|
    HMM T:                           3.755     3.755   0.1% |
  diagonalize:                      84.791    84.791   2.6% ||
  rotate_psi:                       96.811    96.811   3.0% ||
 Density:                           40.792     0.001   0.0% |
  Atomic density matrices:           0.836     0.836   0.0% |
  Mix:                               5.589     5.589   0.2% |
  Multipole moments:                 0.019     0.019   0.0% |
  Pseudo density:                   34.346    34.344   1.1% |
   Symmetrize density:               0.002     0.002   0.0% |
 Forces:                           121.139   121.139   3.8% |-|
 Hamiltonian:                       11.484     0.115   0.0% |
  Atomic:                            2.686     2.686   0.1% |
   XC Correction:                    0.000     0.000   0.0% |
  Calculate atomic Hamiltonians:     4.004     4.004   0.1% |
  Communicate:                       0.106     0.106   0.0% |
  Poisson:                           0.032     0.032   0.0% |
  XC 3D grid:                        4.542     4.542   0.1% |
 Orthonormalize:                     2.067     0.003   0.0% |
  calc_s_matrix:                     0.242     0.242   0.0% |
  inverse-cholesky:                  0.073     0.073   0.0% |
  projections:                       1.319     1.319   0.0% |
  rotate_psi_s:                      0.430     0.430   0.0% |
Set symmetry:                        0.000     0.000   0.0% |
Other:                            1961.095  1961.095  61.0% |-----------------------|
-----------------------------------------------------------
Total:                                      3216.112 100.0%

Memory usage: 12.42 GiB
Date: Wed Mar 24 23:10:54 2021
