
  ___ ___ ___ _ _ _  
 |   |   |_  | | | | 
 | | | | | . | | | | 
 |__ |  _|___|_____|  20.10.1b1
 |___|_|             

User:   madkru@i008.nifl.fysik.dtu.dk
Date:   Fri Mar 26 03:58:35 2021
Arch:   x86_64
Pid:    26969
Python: 3.7.4
gpaw:   /home/niflheim/madkru/venv_folder/gpaw/gpaw (d224efde0f)
_gpaw:  /home/niflheim/madkru/venv_folder/gpaw/build/lib.linux-x86_64-ivybridge-3.7/
        _gpaw.cpython-37m-x86_64-linux-gnu.so (4fd39e8b1e)
ase:    /home/niflheim/madkru/venv_folder/ase/ase (version 3.21.0b1-4d5a73cb29)
numpy:  /home/niflheim/madkru/venv_folder/lib/python3.7/site-packages/numpy (version 1.19.4)
scipy:  /home/niflheim/madkru/venv_folder/lib/python3.7/site-packages/scipy (version 1.5.4)
libxc:  4.3.4
units:  Angstrom and eV
cores: 64
OMP_NUM_THREADS: 1

Input parameters:
  convergence: {bands: occupied,
                density: 0.0001,
                eigenstates: 4e-08,
                energy: 0.0005,
                forces: 1e-06}
  kpts: [6 6 4]
  mode: {ecut: 600.0,
         gammacentered: False,
         name: pw}
  occupations: {fixmagmom: False,
                name: fermi-dirac,
                width: 0.001}
  symmetry: {point_group: False,
             time_reversal: False}

System changes: positions, numbers, cell, pbc, initial_charges, initial_magmoms 

Initialize ...

O-setup:
  name: Oxygen
  id: 9b9d51c344dea68c822856295a461509
  Z: 8.0
  valence: 6
  core: 2
  charge: 0.0
  file: /home/modules/software/GPAW-setups/0.9.20000/O.LDA.gz
  compensation charges: gauss, rc=0.21, lmax=2
  cutoffs: 1.17(filt), 0.83(core),
  valence states:
                energy  radius
    2s(2.00)   -23.752   0.688
    2p(4.00)    -9.195   0.598
    *s           3.459   0.688
    *p          18.016   0.598
    *d           0.000   0.619

  Using partial waves for O as LCAO basis

Mn-setup:
  name: Manganese
  id: 0d715a8018be061a6e9ea6f2d364ac92
  Z: 25.0
  valence: 15
  core: 10
  charge: 0.0
  file: /home/modules/software/GPAW-setups/0.9.20000/Mn.LDA.gz
  compensation charges: gauss, rc=0.38, lmax=2
  cutoffs: 2.14(filt), 0.86(core),
  valence states:
                energy  radius
    3s(2.00)   -85.387   1.275
    4s(2.00)    -5.282   1.275
    3p(6.00)   -54.493   1.281
    4p(0.00)    -1.471   1.281
    3d(5.00)    -7.009   1.138
    *d          20.203   1.138

  Using partial waves for Mn as LCAO basis

P-setup:
  name: Phosphorus
  id: a5561c299094968922a179ab894d2e2d
  Z: 15.0
  valence: 5
  core: 10
  charge: 0.0
  file: /home/modules/software/GPAW-setups/0.9.20000/P.LDA.gz
  compensation charges: gauss, rc=0.30, lmax=2
  cutoffs: 1.69(filt), 1.81(core),
  valence states:
                energy  radius
    3s(2.00)   -14.015   0.953
    3p(3.00)    -5.596   0.953
    *s          13.197   0.953
    *p          21.615   0.953
    *d           0.000   0.953

  Using partial waves for P as LCAO basis

Li-setup:
  name: Lithium
  id: b73562207f97a71b6967473b66fe8b65
  Z: 3.0
  valence: 1
  core: 2
  charge: 0.0
  file: /home/modules/software/GPAW-setups/0.9.20000/Li.LDA.gz
  compensation charges: gauss, rc=0.33, lmax=2
  cutoffs: 1.91(filt), 2.55(core),
  valence states:
                energy  radius
    2s(1.00)    -2.874   1.058
    2p(0.00)    -1.126   1.058
    *s          24.338   1.058

  Using partial waves for Li as LCAO basis

Reference energy: -196157.275402

Spin-polarized calculation.
Magnetic moment: 0.000000

Convergence criteria:
  Maximum total energy change: 0.0005 eV / electron
  Maximum integral of absolute density change: 0.0001 electrons
  Maximum integral of absolute eigenstate change: 4e-08 eV^2
  Maximum change in atomic force: 1e-06 eV / Ang
  Maximum number of iterations: 333

Symmetries present (total): 1

  ( 1  0  0)
  ( 0  1  0)
  ( 0  0  1)

144 k-points: 6 x 6 x 4 Monkhorst-Pack grid
144 k-points in the irreducible part of the Brillouin zone
       k-points in crystal coordinates                weights
   0:    -0.41666667   -0.41666667   -0.37500000          1/144
   1:    -0.41666667   -0.41666667   -0.12500000          1/144
   2:    -0.41666667   -0.41666667    0.12500000          1/144
   3:    -0.41666667   -0.41666667    0.37500000          1/144
   4:    -0.41666667   -0.25000000   -0.37500000          1/144
   5:    -0.41666667   -0.25000000   -0.12500000          1/144
   6:    -0.41666667   -0.25000000    0.12500000          1/144
   7:    -0.41666667   -0.25000000    0.37500000          1/144
   8:    -0.41666667   -0.08333333   -0.37500000          1/144
   9:    -0.41666667   -0.08333333   -0.12500000          1/144
          ...
 143:     0.41666667    0.41666667    0.37500000          1/144

Wave functions: Plane wave expansion
  Cutoff energy: 600.000 eV
  Number of coefficients (min, max): 9132, 9161
  Pulay-stress correction: 0.000000 eV/Ang^3 (de/decut=0.000000)
  Using FFTW library
  ScaLapack parameters: grid=1x1, blocksize=None
  Wavefunction extrapolation:
    Improved wavefunction reuse through dual PAW basis 

  Fermi-Dirac: width=0.0010 eV

Eigensolver
   Davidson(niter=2, smin=None, normalize=True) 

Densities:
  Coarse grid: 60*35*27 grid
  Fine grid: 120*70*54 grid
  Total Charge: 0.000000 

Density mixing:
  Method: difference
  Backend: pulay
  Linear mixing parameter: 0.05
  Mixing with 5 old densities
  Damping of long wave oscillations: 50 

Hamiltonian:
  XC and Coulomb potentials evaluated on a 120*70*54 grid
  Using the LDA Exchange-Correlation functional
 

Memory estimate:
  Process memory now: 14136.95 MiB
  Calculator: 322.47 MiB
    Density: 9.62 MiB
      Arrays: 3.79 MiB
      Localized functions: 4.27 MiB
      Mixer: 1.56 MiB
    Hamiltonian: 2.94 MiB
      Arrays: 2.82 MiB
      XC: 0.00 MiB
      Poisson: 0.00 MiB
      vbar: 0.12 MiB
    Wavefunctions: 309.91 MiB
      Arrays psit_nG: 281.81 MiB
      Eigensolver: 18.27 MiB
      Projections: 2.71 MiB
      Projectors: 4.40 MiB
      PW-descriptor: 2.71 MiB

Total number of cores used: 64
Parallelization over k-points: 16
Domain decomposition: 2 x 2 x 1

Number of atoms: 28
Number of atomic orbitals: 148
Number of bands in calculation: 112
Number of valence electrons: 180
Bands to converge: occupied

... initialized

Initializing position-dependent things.

Density initialized from atomic densities
Creating initial wave functions:
  112 bands from LCAO basis set

                                           
                                           
                                           
                                           
                                           
               O     O  P  O               
            PO           OMn     O         
                  O          MO            
            O        Li O                  
             Mn  Mn          OP            
         O       O Li O                    
         Li     O P         O              
       Li                                  
                                           
                                           
                                           
                                           

Positions:
   0 O     -1.280122   -2.495595   -1.112331    ( 0.0000,  0.0000,  0.0000)
   1 O     -3.023238    2.918858    1.191723    ( 0.0000,  0.0000,  0.0000)
   2 O      1.997451    0.467212    1.441442    ( 0.0000,  0.0000,  0.0000)
   3 O      3.740343   -0.043905   -0.862614    ( 0.0000,  0.0000,  0.0000)
   4 O      1.997419    2.918835    1.441465    ( 0.0000,  0.0000,  0.0000)
   5 O      3.740372   -2.495531   -0.862587    ( 0.0000,  0.0000,  0.0000)
   6 O     -1.280154   -0.043891   -1.112309    ( 0.0000,  0.0000,  0.0000)
   7 O     -3.023210    0.467136    1.191750    ( 0.0000,  0.0000,  0.0000)
   8 O     -4.147405   -1.269737   -0.856207    ( 0.0000,  0.0000,  0.0000)
   9 O     -0.155894    1.692986    1.447725    ( 0.0000,  0.0000,  0.0000)
  10 O      4.864578    1.693016    1.185324    ( 0.0000,  0.0000,  0.0000)
  11 O      0.873163   -1.269706   -1.118625    ( 0.0000,  0.0000,  0.0000)
  12 Mn    -2.437108   -1.269902    0.302197    ( 0.0000,  0.0000,  1.0000)
  13 Mn    -1.866187    1.693156   -2.001927    ( 0.0000,  0.0000, -1.0000)
  14 Mn     3.154299    1.693181    0.026917    ( 0.0000,  0.0000, -1.0000)
  15 Mn     2.583444   -1.269877    2.331074    ( 0.0000,  0.0000,  1.0000)
  16 P     -0.543052   -1.269720   -1.734187    ( 0.0000,  0.0000,  0.0000)
  17 P     -3.760282    1.692974    0.569859    ( 0.0000,  0.0000,  0.0000)
  18 P      1.260300    1.693000    2.063344    ( 0.0000,  0.0000,  0.0000)
  19 P      4.477470   -1.269695   -0.240696    ( 0.0000,  0.0000,  0.0000)
  20 O     -0.544413   -1.269738    1.348523    ( 0.0000,  0.0000,  0.0000)
  21 O     -3.758895    1.692992   -0.955558    ( 0.0000,  0.0000,  0.0000)
  22 O      1.261690    1.693018   -1.019367    ( 0.0000,  0.0000,  0.0000)
  23 O      4.476045   -1.269713    1.284716    ( 0.0000,  0.0000,  0.0000)
  24 Li    -4.662027   -2.741322   -2.139440    ( 0.0000,  0.0000,  0.0000)
  25 Li     0.358703   -2.751277    0.164614    ( 0.0000,  0.0000,  0.0000)
  26 Li    -4.662011    0.211617   -2.139439    ( 0.0000,  0.0000,  0.0000)
  27 Li     0.358720    0.211628    0.164615    ( 0.0000,  0.0000,  0.0000)

Unit cell:
           periodic     x           y           z      points  spacing
  1. axis:    yes   10.041096    0.000054   -0.000022    60     0.1674
  2. axis:    yes    0.000032    5.925857    0.000001    35     0.1693
  3. axis:    yes   -0.000010    0.000001    4.608134    27     0.1707

  Lengths:  10.041096   5.925857   4.608134
  Angles:   89.999974  90.000250  89.999381

Effective grid spacing dv^(1/3) = 0.1691

                     log10-error:           total        iterations:
           time      wfs    density  force  energy       poisson  magmom
iter:   1  04:00:09                       -233.730244             +0.0000
iter:   2  04:00:29  -0.47  -0.95         -231.549995             -0.0053
iter:   3  04:00:49  -0.60  -1.00         -220.821182             -0.0055
iter:   4  04:01:09  -1.21  -1.31         -221.321812             -0.4210
iter:   5  04:01:28  -2.15  -1.38         -222.516028             -0.2410
iter:   6  04:01:48  -2.32  -1.38         -223.719486             -0.0801
iter:   7  04:02:08  -2.13  -1.54         -224.114583             +0.1274
iter:   8  04:02:28  -2.61  -1.74         -225.799860             +0.5543
iter:   9  04:02:48  -2.24  -1.98         -226.359520             +0.0529
iter:  10  04:03:08  -2.73  -2.10         -226.306940             +0.0364
iter:  11  04:03:28  -2.52  -2.18         -226.326193             +0.0100
iter:  12  04:03:47  -2.84  -2.36         -226.229473             +0.0119
iter:  13  04:04:07  -2.97  -2.57         -226.190601             +0.0033
iter:  14  04:04:27  -3.47  -2.70         -226.196432             +0.0022
iter:  15  04:04:47  -3.66  -2.98         -226.176920             -0.0002
iter:  16  04:05:07  -3.73  -3.11         -226.177995             +0.0003
iter:  17  04:05:26  -4.69  -3.32         -226.177697             +0.0002
iter:  18  04:05:46  -3.82  -3.36         -226.177778             +0.0001
iter:  19  04:06:06  -4.43  -3.51         -226.175244             +0.0000
iter:  20  04:06:26  -5.93  -4.02         -226.175218             +0.0000
iter:  21  04:06:45  -5.53  -4.11         -226.175323             +0.0000
iter:  22  04:07:05  -5.57  -4.09         -226.175209             -0.0000
iter:  23  04:07:25  -7.08  -4.47         -226.175214             -0.0000
iter:  24  04:07:45  -6.57  -4.53         -226.175225             -0.0000
iter:  25  04:08:05  -6.59  -4.56         -226.175213             -0.0000
iter:  26  04:08:29  -7.75  -4.93         -226.175213             -0.0000
iter:  27  04:08:53  -7.93  -4.98    -2.95-226.175213             +0.0000
iter:  28  04:09:18  -7.75  -5.08    -2.76-226.175213             +0.0000
iter:  29  04:09:42  -8.33  -5.33    -2.97-226.175213             +0.0000
iter:  30  04:10:07  -8.53  -5.41    -3.07-226.175213             +0.0000
iter:  31  04:10:31  -9.44  -5.78    -3.66-226.175213             +0.0000
iter:  32  04:10:55  -9.80  -5.83    -4.16-226.175213             +0.0000
iter:  33  04:11:20  -9.73  -5.88    -3.81-226.175213             +0.0000
iter:  34  04:11:44 -10.27  -6.16    -4.33-226.175213             +0.0000
iter:  35  04:12:09 -11.13  -6.26    -4.45-226.175213             +0.0000
iter:  36  04:12:33 -10.45  -6.29    -4.02-226.175213             -0.0000
iter:  37  04:12:57 -11.44  -6.42    -4.37-226.175213             +0.0000
iter:  38  04:13:22 -12.02  -6.49    -4.70-226.175213             +0.0000
iter:  39  04:13:46 -11.86  -6.54    -4.77-226.175213             +0.0000
iter:  40  04:14:10 -11.65  -6.62    -4.69-226.175213             +0.0000
iter:  41  04:14:35 -12.08  -6.70    -5.05-226.175213             +0.0000
iter:  42  04:14:59 -11.53  -6.74    -4.38-226.175213             +0.0000
iter:  43  04:15:24 -12.15  -6.81    -4.93-226.175213             +0.0000
iter:  44  04:15:48 -12.75  -6.89    -5.17-226.175213             +0.0000
iter:  45  04:16:12 -11.43  -6.94    -4.50-226.175213             +0.0000
iter:  46  04:16:37 -12.57  -7.20    -5.06-226.175213             +0.0000
iter:  47  04:17:01 -13.01  -7.28    -5.52-226.175213             +0.0000
iter:  48  04:17:25 -13.14  -7.32    -5.46-226.175213             +0.0000
iter:  49  04:17:50 -13.14  -7.53    -5.37-226.175213             +0.0000
iter:  50  04:18:14 -13.33  -7.60    -5.46-226.175213             +0.0000
iter:  51  04:18:39 -13.55  -7.79    -5.51-226.175213             +0.0000
iter:  52  04:19:03 -13.55  -7.89    -5.45-226.175213             +0.0000
iter:  53  04:19:27 -14.30  -8.07    -5.98-226.175213             +0.0000
iter:  54  04:19:52 -14.63  -8.13    -6.19-226.175213             +0.0000

Converged after 54 iterations.

Dipole moment: (18.326532, -2.302797, -4.524383) |e|*Ang

Total magnetic moment: (0.000000, 0.000000, 0.000000)
Local magnetic moments:
   0 O  ( 0.000000,  0.000000, -0.001788)
   1 O  ( 0.000000,  0.000000,  0.001870)
   2 O  ( 0.000000,  0.000000,  0.001828)
   3 O  ( 0.000000,  0.000000, -0.001777)
   4 O  ( 0.000000,  0.000000,  0.001824)
   5 O  ( 0.000000,  0.000000, -0.001742)
   6 O  ( 0.000000,  0.000000, -0.001796)
   7 O  ( 0.000000,  0.000000,  0.001846)
   8 O  ( 0.000000,  0.000000,  0.031036)
   9 O  ( 0.000000,  0.000000, -0.031074)
  10 O  ( 0.000000,  0.000000, -0.031157)
  11 O  ( 0.000000,  0.000000,  0.031118)
  12 Mn ( 0.000000,  0.000000,  4.395689)
  13 Mn ( 0.000000,  0.000000, -4.395803)
  14 Mn ( 0.000000,  0.000000, -4.395812)
  15 Mn ( 0.000000,  0.000000,  4.395731)
  16 P  ( 0.000000,  0.000000,  0.000862)
  17 P  ( 0.000000,  0.000000, -0.000866)
  18 P  ( 0.000000,  0.000000, -0.000875)
  19 P  ( 0.000000,  0.000000,  0.000869)
  20 O  ( 0.000000,  0.000000,  0.028431)
  21 O  ( 0.000000,  0.000000, -0.028440)
  22 O  ( 0.000000,  0.000000, -0.028407)
  23 O  ( 0.000000,  0.000000,  0.028395)
  24 Li ( 0.000000,  0.000000,  0.000013)
  25 Li ( 0.000000,  0.000000,  0.000000)
  26 Li ( 0.000000,  0.000000, -0.000002)
  27 Li ( 0.000000,  0.000000,  0.000000)

Energy contributions relative to reference atoms: (reference = -196157.275402)

Kinetic:       +277.625250
Potential:     -240.967470
External:        +0.000000
XC:            -264.721436
Entropy (-ST):   -0.000000
Local:           +1.888442
--------------------------
Free energy:   -226.175213
Extrapolated:  -226.175213

Spin contamination: 9.455313 electrons
Showing only first 2 kpts
                      Up                     Down
 Kpt  Band  Eigenvalues  Occupancy  Eigenvalues  Occupancy
  0    88      6.52899    0.00694      6.53199    0.00694
  0    89      6.56262    0.00694      6.56557    0.00694
  0    90      8.42808    0.00000      8.42540    0.00000
  0    91      8.44979    0.00000      8.44693    0.00000

  1    88      6.56741    0.00694      6.57046    0.00694
  1    89      6.59449    0.00694      6.59760    0.00694
  1    90      8.38442    0.00000      8.38173    0.00000
  1    91      8.40662    0.00000      8.40386    0.00000


Fermi level: 7.59559

Gap: 1.697 eV
Transition (v -> c):
  (s=1, k=50, n=89, [-0.08, -0.42, 0.12]) -> (s=1, k=82, n=90, [0.08, -0.08, 0.12])
Writing to born-0.01-24y+.gpw (mode='all')

Timing:                              incl.     excl.
-----------------------------------------------------------
Hamiltonian:                         0.211     0.002   0.0% |
 Atomic:                             0.050     0.050   0.0% |
  XC Correction:                     0.000     0.000   0.0% |
 Calculate atomic Hamiltonians:      0.074     0.074   0.0% |
 Communicate:                        0.001     0.001   0.0% |
 Initialize Hamiltonian:             0.000     0.000   0.0% |
 Poisson:                            0.001     0.001   0.0% |
 XC 3D grid:                         0.084     0.084   0.0% |
LCAO initialization:                71.159     0.648   0.0% |
 LCAO eigensolver:                  19.652     0.002   0.0% |
  Calculate projections:             0.029     0.029   0.0% |
  DenseAtomicCorrection:             0.045     0.045   0.0% |
  Distribute overlap matrix:         0.078     0.078   0.0% |
  Orbital Layouts:                   0.433     0.433   0.0% |
  Potential matrix:                 18.975    18.975   0.6% |
  Sum over cells:                    0.089     0.089   0.0% |
 LCAO to grid:                      49.499    49.499   1.5% ||
 Set positions (LCAO WFS):           1.359     0.226   0.0% |
  Basic WFS set positions:           0.001     0.001   0.0% |
  Basis functions set positions:     0.000     0.000   0.0% |
  P tci:                             0.529     0.529   0.0% |
  ST tci:                            0.386     0.386   0.0% |
  mktci:                             0.217     0.217   0.0% |
PWDescriptor:                        0.024     0.024   0.0% |
SCF-cycle:                        1203.860     1.402   0.0% |
 Davidson:                        1012.222   308.829   9.6% |---|
  Apply H:                          70.518    68.515   2.1% ||
   HMM T:                            2.003     2.003   0.1% |
  Subspace diag:                   147.178     0.156   0.0% |
   calc_h_matrix:                   94.935    24.364   0.8% |
    Apply H:                        70.571    68.522   2.1% ||
     HMM T:                          2.049     2.049   0.1% |
   diagonalize:                      7.356     7.356   0.2% |
   rotate_psi:                      44.731    44.731   1.4% ||
  calc. matrices:                  303.561   165.379   5.2% |-|
   Apply H:                        138.181   134.387   4.2% |-|
    HMM T:                           3.794     3.794   0.1% |
  diagonalize:                      85.178    85.178   2.7% ||
  rotate_psi:                       96.959    96.959   3.0% ||
 Density:                           41.276     0.001   0.0% |
  Atomic density matrices:           0.806     0.806   0.0% |
  Mix:                               5.588     5.588   0.2% |
  Multipole moments:                 0.019     0.019   0.0% |
  Pseudo density:                   34.862    34.860   1.1% |
   Symmetrize density:               0.002     0.002   0.0% |
 Forces:                           135.422   135.422   4.2% |-|
 Hamiltonian:                       11.470     0.113   0.0% |
  Atomic:                            2.745     2.744   0.1% |
   XC Correction:                    0.000     0.000   0.0% |
  Calculate atomic Hamiltonians:     3.942     3.942   0.1% |
  Communicate:                       0.081     0.081   0.0% |
  Poisson:                           0.032     0.032   0.0% |
  XC 3D grid:                        4.556     4.556   0.1% |
 Orthonormalize:                     2.067     0.003   0.0% |
  calc_s_matrix:                     0.242     0.242   0.0% |
  inverse-cholesky:                  0.073     0.073   0.0% |
  projections:                       1.317     1.317   0.0% |
  rotate_psi_s:                      0.431     0.431   0.0% |
Set symmetry:                        0.000     0.000   0.0% |
Other:                            1934.092  1934.092  60.3% |-----------------------|
-----------------------------------------------------------
Total:                                      3209.346 100.0%

Memory usage: 13.85 GiB
Date: Fri Mar 26 04:52:05 2021
