
  ___ ___ ___ _ _ _  
 |   |   |_  | | | | 
 | | | | | . | | | | 
 |__ |  _|___|_____|  20.10.1b1
 |___|_|             

User:   madkru@i008.nifl.fysik.dtu.dk
Date:   Thu Mar 25 15:00:31 2021
Arch:   x86_64
Pid:    26969
Python: 3.7.4
gpaw:   /home/niflheim/madkru/venv_folder/gpaw/gpaw (d224efde0f)
_gpaw:  /home/niflheim/madkru/venv_folder/gpaw/build/lib.linux-x86_64-ivybridge-3.7/
        _gpaw.cpython-37m-x86_64-linux-gnu.so (4fd39e8b1e)
ase:    /home/niflheim/madkru/venv_folder/ase/ase (version 3.21.0b1-4d5a73cb29)
numpy:  /home/niflheim/madkru/venv_folder/lib/python3.7/site-packages/numpy (version 1.19.4)
scipy:  /home/niflheim/madkru/venv_folder/lib/python3.7/site-packages/scipy (version 1.5.4)
libxc:  4.3.4
units:  Angstrom and eV
cores: 64
OMP_NUM_THREADS: 1

Input parameters:
  convergence: {bands: occupied,
                density: 0.0001,
                eigenstates: 4e-08,
                energy: 0.0005,
                forces: 1e-06}
  kpts: [6 6 4]
  mode: {ecut: 600.0,
         gammacentered: False,
         name: pw}
  occupations: {fixmagmom: False,
                name: fermi-dirac,
                width: 0.001}
  symmetry: {point_group: False,
             time_reversal: False}

System changes: positions, numbers, cell, pbc, initial_charges, initial_magmoms 

Initialize ...

O-setup:
  name: Oxygen
  id: 9b9d51c344dea68c822856295a461509
  Z: 8.0
  valence: 6
  core: 2
  charge: 0.0
  file: /home/modules/software/GPAW-setups/0.9.20000/O.LDA.gz
  compensation charges: gauss, rc=0.21, lmax=2
  cutoffs: 1.17(filt), 0.83(core),
  valence states:
                energy  radius
    2s(2.00)   -23.752   0.688
    2p(4.00)    -9.195   0.598
    *s           3.459   0.688
    *p          18.016   0.598
    *d           0.000   0.619

  Using partial waves for O as LCAO basis

Mn-setup:
  name: Manganese
  id: 0d715a8018be061a6e9ea6f2d364ac92
  Z: 25.0
  valence: 15
  core: 10
  charge: 0.0
  file: /home/modules/software/GPAW-setups/0.9.20000/Mn.LDA.gz
  compensation charges: gauss, rc=0.38, lmax=2
  cutoffs: 2.14(filt), 0.86(core),
  valence states:
                energy  radius
    3s(2.00)   -85.387   1.275
    4s(2.00)    -5.282   1.275
    3p(6.00)   -54.493   1.281
    4p(0.00)    -1.471   1.281
    3d(5.00)    -7.009   1.138
    *d          20.203   1.138

  Using partial waves for Mn as LCAO basis

P-setup:
  name: Phosphorus
  id: a5561c299094968922a179ab894d2e2d
  Z: 15.0
  valence: 5
  core: 10
  charge: 0.0
  file: /home/modules/software/GPAW-setups/0.9.20000/P.LDA.gz
  compensation charges: gauss, rc=0.30, lmax=2
  cutoffs: 1.69(filt), 1.81(core),
  valence states:
                energy  radius
    3s(2.00)   -14.015   0.953
    3p(3.00)    -5.596   0.953
    *s          13.197   0.953
    *p          21.615   0.953
    *d           0.000   0.953

  Using partial waves for P as LCAO basis

Li-setup:
  name: Lithium
  id: b73562207f97a71b6967473b66fe8b65
  Z: 3.0
  valence: 1
  core: 2
  charge: 0.0
  file: /home/modules/software/GPAW-setups/0.9.20000/Li.LDA.gz
  compensation charges: gauss, rc=0.33, lmax=2
  cutoffs: 1.91(filt), 2.55(core),
  valence states:
                energy  radius
    2s(1.00)    -2.874   1.058
    2p(0.00)    -1.126   1.058
    *s          24.338   1.058

  Using partial waves for Li as LCAO basis

Reference energy: -196157.275402

Spin-polarized calculation.
Magnetic moment: 0.000000

Convergence criteria:
  Maximum total energy change: 0.0005 eV / electron
  Maximum integral of absolute density change: 0.0001 electrons
  Maximum integral of absolute eigenstate change: 4e-08 eV^2
  Maximum change in atomic force: 1e-06 eV / Ang
  Maximum number of iterations: 333

Symmetries present (total): 1

  ( 1  0  0)
  ( 0  1  0)
  ( 0  0  1)

144 k-points: 6 x 6 x 4 Monkhorst-Pack grid
144 k-points in the irreducible part of the Brillouin zone
       k-points in crystal coordinates                weights
   0:    -0.41666667   -0.41666667   -0.37500000          1/144
   1:    -0.41666667   -0.41666667   -0.12500000          1/144
   2:    -0.41666667   -0.41666667    0.12500000          1/144
   3:    -0.41666667   -0.41666667    0.37500000          1/144
   4:    -0.41666667   -0.25000000   -0.37500000          1/144
   5:    -0.41666667   -0.25000000   -0.12500000          1/144
   6:    -0.41666667   -0.25000000    0.12500000          1/144
   7:    -0.41666667   -0.25000000    0.37500000          1/144
   8:    -0.41666667   -0.08333333   -0.37500000          1/144
   9:    -0.41666667   -0.08333333   -0.12500000          1/144
          ...
 143:     0.41666667    0.41666667    0.37500000          1/144

Wave functions: Plane wave expansion
  Cutoff energy: 600.000 eV
  Number of coefficients (min, max): 9132, 9161
  Pulay-stress correction: 0.000000 eV/Ang^3 (de/decut=0.000000)
  Using FFTW library
  ScaLapack parameters: grid=1x1, blocksize=None
  Wavefunction extrapolation:
    Improved wavefunction reuse through dual PAW basis 

  Fermi-Dirac: width=0.0010 eV

Eigensolver
   Davidson(niter=2, smin=None, normalize=True) 

Densities:
  Coarse grid: 60*35*27 grid
  Fine grid: 120*70*54 grid
  Total Charge: 0.000000 

Density mixing:
  Method: difference
  Backend: pulay
  Linear mixing parameter: 0.05
  Mixing with 5 old densities
  Damping of long wave oscillations: 50 

Hamiltonian:
  XC and Coulomb potentials evaluated on a 120*70*54 grid
  Using the LDA Exchange-Correlation functional
 

Memory estimate:
  Process memory now: 13519.42 MiB
  Calculator: 322.47 MiB
    Density: 9.62 MiB
      Arrays: 3.79 MiB
      Localized functions: 4.27 MiB
      Mixer: 1.56 MiB
    Hamiltonian: 2.94 MiB
      Arrays: 2.82 MiB
      XC: 0.00 MiB
      Poisson: 0.00 MiB
      vbar: 0.12 MiB
    Wavefunctions: 309.91 MiB
      Arrays psit_nG: 281.81 MiB
      Eigensolver: 18.27 MiB
      Projections: 2.71 MiB
      Projectors: 4.40 MiB
      PW-descriptor: 2.71 MiB

Total number of cores used: 64
Parallelization over k-points: 16
Domain decomposition: 2 x 2 x 1

Number of atoms: 28
Number of atomic orbitals: 148
Number of bands in calculation: 112
Number of valence electrons: 180
Bands to converge: occupied

... initialized

Initializing position-dependent things.

Density initialized from atomic densities
Creating initial wave functions:
  112 bands from LCAO basis set

                                           
                                           
                                           
                                           
                                           
               O     O  P  O               
            PO           OMn     O         
                  O          MO            
            O        Li O                  
             Mn  Mn          OP            
         O       O Li O                    
         Li     O P         O              
       Li                                  
                                           
                                           
                                           
                                           

Positions:
   0 O     -1.280122   -2.495595   -1.112331    ( 0.0000,  0.0000,  0.0000)
   1 O     -3.023238    2.918858    1.191723    ( 0.0000,  0.0000,  0.0000)
   2 O      1.997451    0.467212    1.441442    ( 0.0000,  0.0000,  0.0000)
   3 O      3.740343   -0.043905   -0.862614    ( 0.0000,  0.0000,  0.0000)
   4 O      1.997419    2.918835    1.441465    ( 0.0000,  0.0000,  0.0000)
   5 O      3.740372   -2.495531   -0.862587    ( 0.0000,  0.0000,  0.0000)
   6 O     -1.280154   -0.043891   -1.112309    ( 0.0000,  0.0000,  0.0000)
   7 O     -3.023210    0.467136    1.191750    ( 0.0000,  0.0000,  0.0000)
   8 O     -4.147405   -1.269737   -0.856207    ( 0.0000,  0.0000,  0.0000)
   9 O     -0.155894    1.692986    1.447725    ( 0.0000,  0.0000,  0.0000)
  10 O      4.864578    1.693016    1.185324    ( 0.0000,  0.0000,  0.0000)
  11 O      0.873163   -1.269706   -1.118625    ( 0.0000,  0.0000,  0.0000)
  12 Mn    -2.437108   -1.269902    0.302197    ( 0.0000,  0.0000,  1.0000)
  13 Mn    -1.866187    1.693156   -2.001927    ( 0.0000,  0.0000, -1.0000)
  14 Mn     3.154299    1.693181    0.026917    ( 0.0000,  0.0000, -1.0000)
  15 Mn     2.583444   -1.269877    2.331074    ( 0.0000,  0.0000,  1.0000)
  16 P     -0.543052   -1.269720   -1.734187    ( 0.0000,  0.0000,  0.0000)
  17 P     -3.760282    1.692974    0.569859    ( 0.0000,  0.0000,  0.0000)
  18 P      1.260300    1.693000    2.063344    ( 0.0000,  0.0000,  0.0000)
  19 P      4.477470   -1.269695   -0.240696    ( 0.0000,  0.0000,  0.0000)
  20 O     -0.544413   -1.279738    1.348523    ( 0.0000,  0.0000,  0.0000)
  21 O     -3.758895    1.692992   -0.955558    ( 0.0000,  0.0000,  0.0000)
  22 O      1.261690    1.693018   -1.019367    ( 0.0000,  0.0000,  0.0000)
  23 O      4.476045   -1.269713    1.284716    ( 0.0000,  0.0000,  0.0000)
  24 Li    -4.662027   -2.751322   -2.139440    ( 0.0000,  0.0000,  0.0000)
  25 Li     0.358703   -2.751277    0.164614    ( 0.0000,  0.0000,  0.0000)
  26 Li    -4.662011    0.211617   -2.139439    ( 0.0000,  0.0000,  0.0000)
  27 Li     0.358720    0.211628    0.164615    ( 0.0000,  0.0000,  0.0000)

Unit cell:
           periodic     x           y           z      points  spacing
  1. axis:    yes   10.041096    0.000054   -0.000022    60     0.1674
  2. axis:    yes    0.000032    5.925857    0.000001    35     0.1693
  3. axis:    yes   -0.000010    0.000001    4.608134    27     0.1707

  Lengths:  10.041096   5.925857   4.608134
  Angles:   89.999974  90.000250  89.999381

Effective grid spacing dv^(1/3) = 0.1691

                     log10-error:           total        iterations:
           time      wfs    density  force  energy       poisson  magmom
iter:   1  15:02:09                       -233.730163             +0.0000
iter:   2  15:02:28  -0.47  -0.95         -231.549862             +0.0020
iter:   3  15:02:48  -0.61  -1.00         -220.803103             +0.0021
iter:   4  15:03:08  -1.19  -1.31         -220.897647             +0.3150
iter:   5  15:03:28  -2.12  -1.40         -222.885173             +0.1696
iter:   6  15:03:48  -2.19  -1.38         -223.664734             +0.2168
iter:   7  15:04:07  -2.17  -1.53         -223.834328             -0.2031
iter:   8  15:04:27  -2.48  -1.67         -225.591187             -0.5376
iter:   9  15:04:47  -2.36  -1.90         -226.443826             -0.2104
iter:  10  15:05:06  -2.23  -2.00         -226.317571             -0.0574
iter:  11  15:05:26  -2.82  -2.12         -226.298717             -0.0284
iter:  12  15:05:46  -2.61  -2.17         -226.244820             -0.0081
iter:  13  15:06:06  -2.87  -2.48         -226.213596             -0.0062
iter:  14  15:06:25  -2.96  -2.79         -226.187820             -0.0023
iter:  15  15:06:45  -3.44  -2.90         -226.179863             -0.0010
iter:  16  15:07:05  -4.24  -3.20         -226.179829             -0.0004
iter:  17  15:07:25  -3.98  -3.28         -226.175719             -0.0000
iter:  18  15:07:44  -5.17  -3.43         -226.175259             -0.0001
iter:  19  15:08:04  -4.56  -3.51         -226.176454             -0.0000
iter:  20  15:08:24  -5.22  -3.66         -226.175409             -0.0000
iter:  21  15:08:43  -5.35  -3.76         -226.175135             -0.0000
iter:  22  15:09:03  -6.44  -3.87         -226.175137             -0.0000
iter:  23  15:09:23  -6.77  -3.90         -226.175147             -0.0000
iter:  24  15:09:43  -6.09  -4.02         -226.175113             +0.0000
iter:  25  15:10:02  -6.31  -4.07         -226.175112             -0.0000
iter:  26  15:10:22  -6.67  -4.16         -226.175108             -0.0000
iter:  27  15:10:42  -7.11  -4.22         -226.175103             -0.0000
iter:  28  15:11:01  -7.17  -4.26         -226.175101             -0.0000
iter:  29  15:11:26  -7.50  -4.45         -226.175096             -0.0000
iter:  30  15:11:45  -6.42  -4.48         -226.175100             +0.0000
iter:  31  15:12:10  -7.59  -4.70    -2.29-226.175097             +0.0000
iter:  32  15:12:34  -7.74  -4.78    -2.54-226.175094             -0.0000
iter:  33  15:12:58  -8.45  -4.93    -2.69-226.175094             -0.0000
iter:  34  15:13:23  -7.55  -5.04    -2.79-226.175093             +0.0000
iter:  35  15:13:47  -8.60  -5.22    -3.32-226.175093             -0.0000
iter:  36  15:14:12  -7.89  -5.30    -2.86-226.175093             -0.0000
iter:  37  15:14:36  -8.36  -5.40    -3.05-226.175093             -0.0000
iter:  38  15:15:00  -9.71  -5.67    -4.11-226.175093             -0.0000
iter:  39  15:15:25  -9.16  -5.72    -3.55-226.175093             +0.0000
iter:  40  15:15:49  -9.97  -5.91    -3.96-226.175093             -0.0000
iter:  41  15:16:13  -9.81  -6.02    -3.86-226.175093             -0.0000
iter:  42  15:16:38 -10.70  -6.14    -4.11-226.175093             -0.0000
iter:  43  15:17:02  -9.77  -6.22    -4.01-226.175093             -0.0000
iter:  44  15:17:26 -10.88  -6.44    -4.60-226.175093             -0.0000
iter:  45  15:17:51 -10.64  -6.48    -4.14-226.175093             -0.0000
iter:  46  15:18:15 -11.26  -6.56    -4.67-226.175093             -0.0000
iter:  47  15:18:40 -11.15  -6.62    -4.35-226.175093             -0.0000
iter:  48  15:19:04 -11.94  -7.05    -4.92-226.175093             -0.0000
iter:  49  15:19:28 -11.55  -7.11    -4.81-226.175093             -0.0000
iter:  50  15:19:53 -12.86  -7.30    -5.05-226.175093             -0.0000
iter:  51  15:20:17 -12.30  -7.40    -5.16-226.175093             -0.0000
iter:  52  15:20:42 -12.41  -7.49    -5.18-226.175093             -0.0000
iter:  53  15:21:06 -13.66  -7.71    -5.70-226.175093             -0.0000
iter:  54  15:21:30 -13.02  -7.75    -5.34-226.175093             -0.0000
iter:  55  15:21:55 -13.54  -8.03    -5.69-226.175093             -0.0000
iter:  56  15:22:19 -14.34  -8.31    -5.98-226.175093             -0.0000
iter:  57  15:22:44 -15.00  -8.35    -6.49-226.175093             -0.0000

Converged after 57 iterations.

Dipole moment: (18.327158, -2.308240, -4.524268) |e|*Ang

Total magnetic moment: (0.000000, 0.000000, -0.000000)
Local magnetic moments:
   0 O  ( 0.000000,  0.000000, -0.001775)
   1 O  ( 0.000000,  0.000000,  0.001827)
   2 O  ( 0.000000,  0.000000,  0.001818)
   3 O  ( 0.000000,  0.000000, -0.001808)
   4 O  ( 0.000000,  0.000000,  0.001796)
   5 O  ( 0.000000,  0.000000, -0.001805)
   6 O  ( 0.000000,  0.000000, -0.001847)
   7 O  ( 0.000000,  0.000000,  0.001795)
   8 O  ( 0.000000,  0.000000,  0.031098)
   9 O  ( 0.000000,  0.000000, -0.031097)
  10 O  ( 0.000000,  0.000000, -0.031096)
  11 O  ( 0.000000,  0.000000,  0.031095)
  12 Mn ( 0.000000,  0.000000,  4.395762)
  13 Mn ( 0.000000,  0.000000, -4.395783)
  14 Mn ( 0.000000,  0.000000, -4.395737)
  15 Mn ( 0.000000,  0.000000,  4.395752)
  16 P  ( 0.000000,  0.000000,  0.000865)
  17 P  ( 0.000000,  0.000000, -0.000864)
  18 P  ( 0.000000,  0.000000, -0.000871)
  19 P  ( 0.000000,  0.000000,  0.000870)
  20 O  ( 0.000000,  0.000000,  0.028419)
  21 O  ( 0.000000,  0.000000, -0.028416)
  22 O  ( 0.000000,  0.000000, -0.028420)
  23 O  ( 0.000000,  0.000000,  0.028419)
  24 Li ( 0.000000,  0.000000, -0.000000)
  25 Li ( 0.000000,  0.000000,  0.000006)
  26 Li ( 0.000000,  0.000000,  0.000000)
  27 Li ( 0.000000,  0.000000, -0.000006)

Energy contributions relative to reference atoms: (reference = -196157.275402)

Kinetic:       +277.621910
Potential:     -240.964793
External:        +0.000000
XC:            -264.720657
Entropy (-ST):   -0.000000
Local:           +1.888448
--------------------------
Free energy:   -226.175093
Extrapolated:  -226.175093

Spin contamination: 9.455314 electrons
Showing only first 2 kpts
                      Up                     Down
 Kpt  Band  Eigenvalues  Occupancy  Eigenvalues  Occupancy
  0    88      6.53056    0.00694      6.53052    0.00694
  0    89      6.56416    0.00694      6.56408    0.00694
  0    90      8.42675    0.00000      8.42674    0.00000
  0    91      8.44834    0.00000      8.44838    0.00000

  1    88      6.56900    0.00694      6.56894    0.00694
  1    89      6.59617    0.00694      6.59606    0.00694
  1    90      8.38309    0.00000      8.38306    0.00000
  1    91      8.40522    0.00000      8.40528    0.00000


Fermi level: 7.60367

Gap: 1.699 eV
Transition (v -> c):
  (s=0, k=49, n=89, [-0.08, -0.42, -0.12]) -> (s=0, k=81, n=90, [0.08, -0.08, -0.12])
Writing to born-0.01-20y-.gpw (mode='all')

Timing:                              incl.     excl.
-----------------------------------------------------------
Hamiltonian:                         0.220     0.002   0.0% |
 Atomic:                             0.057     0.057   0.0% |
  XC Correction:                     0.000     0.000   0.0% |
 Calculate atomic Hamiltonians:      0.075     0.075   0.0% |
 Communicate:                        0.002     0.002   0.0% |
 Initialize Hamiltonian:             0.000     0.000   0.0% |
 Poisson:                            0.001     0.001   0.0% |
 XC 3D grid:                         0.084     0.084   0.0% |
LCAO initialization:                71.181     0.651   0.0% |
 LCAO eigensolver:                  19.834     0.002   0.0% |
  Calculate projections:             0.029     0.029   0.0% |
  DenseAtomicCorrection:             0.045     0.045   0.0% |
  Distribute overlap matrix:         0.009     0.009   0.0% |
  Orbital Layouts:                   0.431     0.431   0.0% |
  Potential matrix:                 19.219    19.219   0.6% |
  Sum over cells:                    0.099     0.099   0.0% |
 LCAO to grid:                      49.342    49.342   1.5% ||
 Set positions (LCAO WFS):           1.354     0.194   0.0% |
  Basic WFS set positions:           0.001     0.001   0.0% |
  Basis functions set positions:     0.000     0.000   0.0% |
  P tci:                             0.524     0.524   0.0% |
  ST tci:                            0.385     0.385   0.0% |
  mktci:                             0.250     0.250   0.0% |
PWDescriptor:                        0.023     0.023   0.0% |
SCF-cycle:                        1259.888     4.617   0.1% |
 Davidson:                        1067.002   325.796  10.0% |---|
  Apply H:                          74.302    72.137   2.2% ||
   HMM T:                            2.165     2.165   0.1% |
  Subspace diag:                   155.087     0.165   0.0% |
   calc_h_matrix:                   99.927    25.696   0.8% |
    Apply H:                        74.231    72.036   2.2% ||
     HMM T:                          2.195     2.195   0.1% |
   diagonalize:                      7.785     7.785   0.2% |
   rotate_psi:                      47.210    47.210   1.4% ||
  calc. matrices:                  319.975   174.332   5.3% |-|
   Apply H:                        145.643   141.591   4.3% |-|
    HMM T:                           4.052     4.052   0.1% |
  diagonalize:                      89.689    89.689   2.7% ||
  rotate_psi:                      102.153   102.153   3.1% ||
 Density:                           43.307     0.001   0.0% |
  Atomic density matrices:           1.057     1.057   0.0% |
  Mix:                               5.856     5.856   0.2% |
  Multipole moments:                 0.021     0.021   0.0% |
  Pseudo density:                   36.372    36.370   1.1% |
   Symmetrize density:               0.002     0.002   0.0% |
 Forces:                           130.756   130.756   4.0% |-|
 Hamiltonian:                       12.143     0.121   0.0% |
  Atomic:                            2.896     2.896   0.1% |
   XC Correction:                    0.000     0.000   0.0% |
  Calculate atomic Hamiltonians:     4.192     4.192   0.1% |
  Communicate:                       0.111     0.111   0.0% |
  Poisson:                           0.033     0.033   0.0% |
  XC 3D grid:                        4.790     4.790   0.1% |
 Orthonormalize:                     2.063     0.003   0.0% |
  calc_s_matrix:                     0.242     0.242   0.0% |
  inverse-cholesky:                  0.072     0.072   0.0% |
  projections:                       1.315     1.315   0.0% |
  rotate_psi_s:                      0.430     0.430   0.0% |
Set symmetry:                        0.000     0.000   0.0% |
Other:                            1937.630  1937.630  59.3% |-----------------------|
-----------------------------------------------------------
Total:                                      3268.943 100.0%

Memory usage: 13.21 GiB
Date: Thu Mar 25 15:55:00 2021
