
  ___ ___ ___ _ _ _  
 |   |   |_  | | | | 
 | | | | | . | | | | 
 |__ |  _|___|_____|  20.10.1b1
 |___|_|             

User:   madkru@i013.nifl.fysik.dtu.dk
Date:   Sun Mar 21 07:41:25 2021
Arch:   x86_64
Pid:    27943
Python: 3.7.4
gpaw:   /home/niflheim/madkru/venv_folder/gpaw/gpaw (d0d1ca1c71)
_gpaw:  /home/niflheim/madkru/venv_folder/gpaw/build/lib.linux-x86_64-ivybridge-3.7/
        _gpaw.cpython-37m-x86_64-linux-gnu.so (4fd39e8b1e)
ase:    /home/niflheim/madkru/venv_folder/ase/ase (version 3.21.0b1-7e6c206a91)
numpy:  /home/niflheim/madkru/venv_folder/lib/python3.7/site-packages/numpy (version 1.19.4)
scipy:  /home/niflheim/madkru/venv_folder/lib/python3.7/site-packages/scipy (version 1.5.4)
libxc:  4.3.4
units:  Angstrom and eV
cores: 32
OMP_NUM_THREADS: 1

Input parameters:
  convergence: {bands: occupied,
                density: 0.0001,
                eigenstates: 4e-08,
                energy: 0.0005,
                forces: 1e-06}
  kpts: [6 6 4]
  mode: {ecut: 600.0,
         gammacentered: False,
         name: pw}
  occupations: {fixmagmom: False,
                name: fermi-dirac,
                width: 0.001}
  symmetry: {point_group: False,
             time_reversal: False}

System changes: positions, numbers, cell, pbc, initial_charges, initial_magmoms 

Initialize ...

O-setup:
  name: Oxygen
  id: 9b9d51c344dea68c822856295a461509
  Z: 8.0
  valence: 6
  core: 2
  charge: 0.0
  file: /home/modules/software/GPAW-setups/0.9.20000/O.LDA.gz
  compensation charges: gauss, rc=0.21, lmax=2
  cutoffs: 1.17(filt), 0.83(core),
  valence states:
                energy  radius
    2s(2.00)   -23.752   0.688
    2p(4.00)    -9.195   0.598
    *s           3.459   0.688
    *p          18.016   0.598
    *d           0.000   0.619

  Using partial waves for O as LCAO basis

Mn-setup:
  name: Manganese
  id: 0d715a8018be061a6e9ea6f2d364ac92
  Z: 25.0
  valence: 15
  core: 10
  charge: 0.0
  file: /home/modules/software/GPAW-setups/0.9.20000/Mn.LDA.gz
  compensation charges: gauss, rc=0.38, lmax=2
  cutoffs: 2.14(filt), 0.86(core),
  valence states:
                energy  radius
    3s(2.00)   -85.387   1.275
    4s(2.00)    -5.282   1.275
    3p(6.00)   -54.493   1.281
    4p(0.00)    -1.471   1.281
    3d(5.00)    -7.009   1.138
    *d          20.203   1.138

  Using partial waves for Mn as LCAO basis

P-setup:
  name: Phosphorus
  id: a5561c299094968922a179ab894d2e2d
  Z: 15.0
  valence: 5
  core: 10
  charge: 0.0
  file: /home/modules/software/GPAW-setups/0.9.20000/P.LDA.gz
  compensation charges: gauss, rc=0.30, lmax=2
  cutoffs: 1.69(filt), 1.81(core),
  valence states:
                energy  radius
    3s(2.00)   -14.015   0.953
    3p(3.00)    -5.596   0.953
    *s          13.197   0.953
    *p          21.615   0.953
    *d           0.000   0.953

  Using partial waves for P as LCAO basis

Li-setup:
  name: Lithium
  id: b73562207f97a71b6967473b66fe8b65
  Z: 3.0
  valence: 1
  core: 2
  charge: 0.0
  file: /home/modules/software/GPAW-setups/0.9.20000/Li.LDA.gz
  compensation charges: gauss, rc=0.33, lmax=2
  cutoffs: 1.91(filt), 2.55(core),
  valence states:
                energy  radius
    2s(1.00)    -2.874   1.058
    2p(0.00)    -1.126   1.058
    *s          24.338   1.058

  Using partial waves for Li as LCAO basis

Reference energy: -196157.275402

Spin-polarized calculation.
Magnetic moment: 0.000000

Convergence criteria:
  Maximum total energy change: 0.0005 eV / electron
  Maximum integral of absolute density change: 0.0001 electrons
  Maximum integral of absolute eigenstate change: 4e-08 eV^2
  Maximum change in atomic force: 1e-06 eV / Ang
  Maximum number of iterations: 333

Symmetries present (total): 1

  ( 1  0  0)
  ( 0  1  0)
  ( 0  0  1)

144 k-points: 6 x 6 x 4 Monkhorst-Pack grid
144 k-points in the irreducible part of the Brillouin zone
       k-points in crystal coordinates                weights
   0:    -0.41666667   -0.41666667   -0.37500000          1/144
   1:    -0.41666667   -0.41666667   -0.12500000          1/144
   2:    -0.41666667   -0.41666667    0.12500000          1/144
   3:    -0.41666667   -0.41666667    0.37500000          1/144
   4:    -0.41666667   -0.25000000   -0.37500000          1/144
   5:    -0.41666667   -0.25000000   -0.12500000          1/144
   6:    -0.41666667   -0.25000000    0.12500000          1/144
   7:    -0.41666667   -0.25000000    0.37500000          1/144
   8:    -0.41666667   -0.08333333   -0.37500000          1/144
   9:    -0.41666667   -0.08333333   -0.12500000          1/144
          ...
 143:     0.41666667    0.41666667    0.37500000          1/144

Wave functions: Plane wave expansion
  Cutoff energy: 600.000 eV
  Number of coefficients (min, max): 9132, 9161
  Pulay-stress correction: 0.000000 eV/Ang^3 (de/decut=0.000000)
  Using FFTW library
  ScaLapack parameters: grid=1x1, blocksize=None
  Wavefunction extrapolation:
    Improved wavefunction reuse through dual PAW basis 

  Fermi-Dirac: width=0.0010 eV

Eigensolver
   Davidson(niter=2, smin=None, normalize=True) 

Densities:
  Coarse grid: 60*35*27 grid
  Fine grid: 120*70*54 grid
  Total Charge: 0.000000 

Density mixing:
  Method: difference
  Backend: pulay
  Linear mixing parameter: 0.05
  Mixing with 5 old densities
  Damping of long wave oscillations: 50 

Hamiltonian:
  XC and Coulomb potentials evaluated on a 120*70*54 grid
  Using the LDA Exchange-Correlation functional
 

Memory estimate:
  Process memory now: 12339.07 MiB
  Calculator: 342.26 MiB
    Density: 19.13 MiB
      Arrays: 7.57 MiB
      Localized functions: 8.54 MiB
      Mixer: 3.03 MiB
    Hamiltonian: 5.87 MiB
      Arrays: 5.62 MiB
      XC: 0.00 MiB
      Poisson: 0.00 MiB
      vbar: 0.25 MiB
    Wavefunctions: 317.25 MiB
      Arrays psit_nG: 281.81 MiB
      Eigensolver: 18.27 MiB
      Projections: 5.41 MiB
      Projectors: 8.81 MiB
      PW-descriptor: 2.95 MiB

Total number of cores used: 32
Parallelization over k-points: 16
Domain decomposition: 2 x 1 x 1

Number of atoms: 28
Number of atomic orbitals: 148
Number of bands in calculation: 112
Number of valence electrons: 180
Bands to converge: occupied

... initialized

Initializing position-dependent things.

Density initialized from atomic densities
Creating initial wave functions:
  112 bands from LCAO basis set

                                           
                                           
                                           
                                           
                                           
               O     O  P  O               
            PO           OMn     O         
                  O          MO            
            O        Li O                  
             Mn  Mn          OP            
         O       O Li O                    
         Li     O P         O              
       Li                                  
                                           
                                           
                                           
                                           

Positions:
   0 O     -1.280122   -2.495595   -1.112331    ( 0.0000,  0.0000,  0.0000)
   1 O     -3.033238    2.918858    1.191723    ( 0.0000,  0.0000,  0.0000)
   2 O      1.997451    0.467212    1.441442    ( 0.0000,  0.0000,  0.0000)
   3 O      3.740343   -0.043905   -0.862614    ( 0.0000,  0.0000,  0.0000)
   4 O      1.997419    2.918835    1.441465    ( 0.0000,  0.0000,  0.0000)
   5 O      3.740372   -2.495531   -0.862587    ( 0.0000,  0.0000,  0.0000)
   6 O     -1.280154   -0.043891   -1.112309    ( 0.0000,  0.0000,  0.0000)
   7 O     -3.023210    0.467136    1.191750    ( 0.0000,  0.0000,  0.0000)
   8 O     -4.147405   -1.269737   -0.856207    ( 0.0000,  0.0000,  0.0000)
   9 O     -0.155894    1.692986    1.447725    ( 0.0000,  0.0000,  0.0000)
  10 O      4.864578    1.693016    1.185324    ( 0.0000,  0.0000,  0.0000)
  11 O      0.873163   -1.269706   -1.118625    ( 0.0000,  0.0000,  0.0000)
  12 Mn    -2.437108   -1.269902    0.302197    ( 0.0000,  0.0000,  1.0000)
  13 Mn    -1.866187    1.693156   -2.001927    ( 0.0000,  0.0000, -1.0000)
  14 Mn     3.154299    1.693181    0.026917    ( 0.0000,  0.0000, -1.0000)
  15 Mn     2.583444   -1.269877    2.331074    ( 0.0000,  0.0000,  1.0000)
  16 P     -0.543052   -1.269720   -1.734187    ( 0.0000,  0.0000,  0.0000)
  17 P     -3.760282    1.692974    0.569859    ( 0.0000,  0.0000,  0.0000)
  18 P      1.260300    1.693000    2.063344    ( 0.0000,  0.0000,  0.0000)
  19 P      4.477470   -1.269695   -0.240696    ( 0.0000,  0.0000,  0.0000)
  20 O     -0.544413   -1.269738    1.348523    ( 0.0000,  0.0000,  0.0000)
  21 O     -3.758895    1.692992   -0.955558    ( 0.0000,  0.0000,  0.0000)
  22 O      1.261690    1.693018   -1.019367    ( 0.0000,  0.0000,  0.0000)
  23 O      4.476045   -1.269713    1.284716    ( 0.0000,  0.0000,  0.0000)
  24 Li    -4.662027   -2.751322   -2.139440    ( 0.0000,  0.0000,  0.0000)
  25 Li     0.358703   -2.751277    0.164614    ( 0.0000,  0.0000,  0.0000)
  26 Li    -4.662011    0.211617   -2.139439    ( 0.0000,  0.0000,  0.0000)
  27 Li     0.358720    0.211628    0.164615    ( 0.0000,  0.0000,  0.0000)

Unit cell:
           periodic     x           y           z      points  spacing
  1. axis:    yes   10.041096    0.000054   -0.000022    60     0.1674
  2. axis:    yes    0.000032    5.925857    0.000001    35     0.1693
  3. axis:    yes   -0.000010    0.000001    4.608134    27     0.1707

  Lengths:  10.041096   5.925857   4.608134
  Angles:   89.999974  90.000250  89.999381

Effective grid spacing dv^(1/3) = 0.1691

                     log10-error:           total        iterations:
           time      wfs    density  force  energy       poisson  magmom
iter:   1  07:44:23                       -233.728704             +0.0000
iter:   2  07:44:59  -0.47  -0.95         -231.554468             +0.0026
iter:   3  07:45:35  -0.60  -1.00         -220.815045             +0.0028
iter:   4  07:46:11  -1.21  -1.30         -221.326604             +0.4138
iter:   5  07:46:48  -2.15  -1.38         -222.465533             +0.2346
iter:   6  07:47:24  -2.25  -1.38         -224.075026             +0.0023
iter:   7  07:48:00  -2.19  -1.52         -224.283079             -0.4326
iter:   8  07:48:36  -2.54  -1.65         -225.781966             -0.8538
iter:   9  07:49:12  -2.31  -1.91         -226.390733             -0.3927
iter:  10  07:49:48  -2.43  -2.11         -226.279893             -0.1196
iter:  11  07:50:24  -2.79  -2.21         -226.290976             -0.0417
iter:  12  07:51:00  -2.90  -2.32         -226.220270             -0.0254
iter:  13  07:51:36  -3.52  -2.90         -226.185667             -0.0080
iter:  14  07:52:13  -3.51  -3.02         -226.178174             -0.0042
iter:  15  07:52:49  -4.43  -3.05         -226.177195             -0.0032
iter:  16  07:53:25  -4.31  -3.09         -226.175472             -0.0021
iter:  17  07:54:01  -4.77  -3.26         -226.175575             -0.0006
iter:  18  07:54:37  -5.75  -3.47         -226.175283             +0.0001
iter:  19  07:55:13  -5.79  -3.54         -226.175123             +0.0000
iter:  20  07:55:49  -5.16  -3.61         -226.174858             +0.0000
iter:  21  07:56:25  -5.52  -3.84         -226.174759             +0.0000
iter:  22  07:57:01  -6.18  -3.92         -226.174715             +0.0000
iter:  23  07:57:37  -6.24  -3.97         -226.174704             +0.0000
iter:  24  07:58:13  -7.05  -4.06         -226.174711             +0.0000
iter:  25  07:58:49  -7.20  -4.14         -226.174707             +0.0000
iter:  26  07:59:25  -6.64  -4.19         -226.174696             +0.0000
iter:  27  08:00:02  -6.62  -4.25         -226.174690             +0.0000
iter:  28  08:00:38  -7.31  -4.39         -226.174692             +0.0000
iter:  29  08:01:14  -7.27  -4.42         -226.174688             +0.0000
iter:  30  08:01:59  -8.37  -4.58         -226.174688             +0.0000
iter:  31  08:02:44  -7.71  -4.61    -2.57-226.174689             +0.0000
iter:  32  08:03:29  -8.14  -4.83    -2.64-226.174688             +0.0000
iter:  33  08:04:15  -8.09  -4.99    -3.08-226.174687             +0.0000
iter:  34  08:05:00  -8.77  -5.04    -3.49-226.174687             +0.0000
iter:  35  08:05:45  -8.34  -5.08    -2.81-226.174687             -0.0000
iter:  36  08:06:31  -9.08  -5.46    -3.50-226.174687             +0.0000
iter:  37  08:07:16  -9.23  -5.51    -3.71-226.174687             +0.0000
iter:  38  08:08:01 -10.22  -5.59    -4.10-226.174687             +0.0000
iter:  39  08:08:46  -9.79  -5.63    -3.67-226.174687             +0.0000
iter:  40  08:09:31 -10.58  -5.83    -4.40-226.174687             +0.0000
iter:  41  08:10:17  -9.21  -5.87    -3.86-226.174687             +0.0000
iter:  42  08:11:02 -10.11  -6.00    -3.79-226.174687             +0.0000
iter:  43  08:11:47 -11.35  -6.22    -4.61-226.174687             +0.0000
iter:  44  08:12:32 -10.63  -6.27    -4.05-226.174687             +0.0000
iter:  45  08:13:17 -10.61  -6.39    -4.24-226.174687             +0.0000
iter:  46  08:14:03 -11.80  -6.48    -4.69-226.174687             +0.0000
iter:  47  08:14:48 -10.94  -6.53    -4.34-226.174687             +0.0000
iter:  48  08:15:33 -10.61  -6.57    -4.28-226.174687             +0.0000
iter:  49  08:16:18 -11.77  -6.86    -4.77-226.174687             +0.0000
iter:  50  08:17:03 -12.68  -7.08    -5.51-226.174687             +0.0000
iter:  51  08:17:48 -11.84  -7.12    -4.79-226.174687             +0.0000
iter:  52  08:18:34 -12.24  -7.01    -4.99-226.174687             +0.0000
iter:  53  08:19:19 -12.19  -7.21    -4.92-226.174687             +0.0000
iter:  54  08:20:04 -12.34  -7.34    -5.07-226.174687             +0.0000
iter:  55  08:20:49 -12.65  -7.42    -5.02-226.174687             +0.0000
iter:  56  08:21:34 -13.46  -8.01    -5.92-226.174687             +0.0000
iter:  57  08:22:19 -14.68  -8.06    -6.03-226.174687             +0.0000

Converged after 57 iterations.

Dipole moment: (18.331483, -2.305185, -4.523245) |e|*Ang

Total magnetic moment: (0.000000, 0.000000, 0.000000)
Local magnetic moments:
   0 O  ( 0.000000,  0.000000, -0.001826)
   1 O  ( 0.000000,  0.000000,  0.001828)
   2 O  ( 0.000000,  0.000000,  0.001827)
   3 O  ( 0.000000,  0.000000, -0.001788)
   4 O  ( 0.000000,  0.000000,  0.001822)
   5 O  ( 0.000000,  0.000000, -0.001780)
   6 O  ( 0.000000,  0.000000, -0.001876)
   7 O  ( 0.000000,  0.000000,  0.001828)
   8 O  ( 0.000000,  0.000000,  0.031151)
   9 O  ( 0.000000,  0.000000, -0.031100)
  10 O  ( 0.000000,  0.000000, -0.031226)
  11 O  ( 0.000000,  0.000000,  0.031036)
  12 Mn ( 0.000000,  0.000000,  4.396805)
  13 Mn ( 0.000000,  0.000000, -4.396603)
  14 Mn ( 0.000000,  0.000000, -4.395755)
  15 Mn ( 0.000000,  0.000000,  4.395771)
  16 P  ( 0.000000,  0.000000,  0.000881)
  17 P  ( 0.000000,  0.000000, -0.000837)
  18 P  ( 0.000000,  0.000000, -0.000861)
  19 P  ( 0.000000,  0.000000,  0.000855)
  20 O  ( 0.000000,  0.000000,  0.028380)
  21 O  ( 0.000000,  0.000000, -0.028458)
  22 O  ( 0.000000,  0.000000, -0.028376)
  23 O  ( 0.000000,  0.000000,  0.028444)
  24 Li ( 0.000000,  0.000000,  0.000007)
  25 Li ( 0.000000,  0.000000, -0.000000)
  26 Li ( 0.000000,  0.000000, -0.000005)
  27 Li ( 0.000000,  0.000000,  0.000001)

Energy contributions relative to reference atoms: (reference = -196157.275402)

Kinetic:       +277.894819
Potential:     -241.171720
External:        +0.000000
XC:            -264.785879
Entropy (-ST):   -0.000000
Local:           +1.888093
--------------------------
Free energy:   -226.174687
Extrapolated:  -226.174687

Spin contamination: 9.456413 electrons
Showing only first 2 kpts
                      Up                     Down
 Kpt  Band  Eigenvalues  Occupancy  Eigenvalues  Occupancy
  0    88      6.52634    0.00694      6.52756    0.00694
  0    89      6.56102    0.00694      6.56431    0.00694
  0    90      8.42410    0.00000      8.42291    0.00000
  0    91      8.44701    0.00000      8.44720    0.00000

  1    88      6.56483    0.00694      6.56508    0.00694
  1    89      6.59292    0.00694      6.59710    0.00694
  1    90      8.37873    0.00000      8.37953    0.00000
  1    91      8.40362    0.00000      8.40404    0.00000


Fermi level: 7.67140

Gap: 1.695 eV
Transition (v -> c):
  (s=1, k=49, n=89, [-0.08, -0.42, -0.12]) -> (s=0, k=58, n=90, [-0.08, -0.08, 0.12])
Writing to born-0.01-1x-.gpw (mode='all')

Timing:                              incl.     excl.
-----------------------------------------------------------
Hamiltonian:                         0.351     0.002   0.0% |
 Atomic:                             0.050     0.050   0.0% |
  XC Correction:                     0.000     0.000   0.0% |
 Calculate atomic Hamiltonians:      0.140     0.140   0.0% |
 Communicate:                        0.002     0.002   0.0% |
 Initialize Hamiltonian:             0.000     0.000   0.0% |
 Poisson:                            0.001     0.001   0.0% |
 XC 3D grid:                         0.155     0.155   0.0% |
LCAO initialization:               131.375     0.646   0.0% |
 LCAO eigensolver:                  37.564     0.002   0.0% |
  Calculate projections:             0.056     0.056   0.0% |
  DenseAtomicCorrection:             0.087     0.087   0.0% |
  Distribute overlap matrix:         0.222     0.222   0.0% |
  Orbital Layouts:                   0.341     0.341   0.0% |
  Potential matrix:                 36.769    36.769   0.7% |
  Sum over cells:                    0.086     0.086   0.0% |
 LCAO to grid:                      90.701    90.701   1.6% ||
 Set positions (LCAO WFS):           2.465     0.500   0.0% |
  Basic WFS set positions:           0.001     0.001   0.0% |
  Basis functions set positions:     0.000     0.000   0.0% |
  P tci:                             1.048     1.048   0.0% |
  ST tci:                            0.700     0.700   0.0% |
  mktci:                             0.215     0.215   0.0% |
PWDescriptor:                        0.023     0.023   0.0% |
SCF-cycle:                        2320.635    22.651   0.4% |
 Davidson:                        1937.591   622.713  11.3% |----|
  Apply H:                         135.392   131.308   2.4% ||
   HMM T:                            4.084     4.084   0.1% |
  Subspace diag:                   286.250     0.179   0.0% |
   calc_h_matrix:                  185.475    50.793   0.9% |
    Apply H:                       134.683   130.568   2.4% ||
     HMM T:                          4.114     4.114   0.1% |
   diagonalize:                      6.622     6.622   0.1% |
   rotate_psi:                      93.973    93.973   1.7% ||
  calc. matrices:                  611.560   342.465   6.2% |-|
   Apply H:                        269.095   261.089   4.7% |-|
    HMM T:                           8.006     8.006   0.1% |
  diagonalize:                      89.651    89.651   1.6% ||
  rotate_psi:                      192.026   192.026   3.5% ||
 Density:                           78.867     0.001   0.0% |
  Atomic density matrices:           1.423     1.423   0.0% |
  Mix:                              11.108    11.108   0.2% |
  Multipole moments:                 0.035     0.035   0.0% |
  Pseudo density:                   66.299    66.298   1.2% |
   Symmetrize density:               0.002     0.002   0.0% |
 Forces:                           257.422   257.422   4.7% |-|
 Hamiltonian:                       20.109     0.127   0.0% |
  Atomic:                            2.834     2.834   0.1% |
   XC Correction:                    0.000     0.000   0.0% |
  Calculate atomic Hamiltonians:     8.036     8.036   0.1% |
  Communicate:                       0.096     0.096   0.0% |
  Poisson:                           0.059     0.059   0.0% |
  XC 3D grid:                        8.956     8.956   0.2% |
 Orthonormalize:                     3.995     0.004   0.0% |
  calc_s_matrix:                     0.478     0.478   0.0% |
  inverse-cholesky:                  0.053     0.053   0.0% |
  projections:                       2.608     2.608   0.0% |
  rotate_psi_s:                      0.853     0.853   0.0% |
Set symmetry:                        0.000     0.000   0.0% |
Other:                            3054.398  3054.398  55.5% |---------------------|
-----------------------------------------------------------
Total:                                      5506.783 100.0%

Memory usage: 12.05 GiB
Date: Sun Mar 21 09:13:12 2021
