
  ___ ___ ___ _ _ _  
 |   |   |_  | | | | 
 | | | | | . | | | | 
 |__ |  _|___|_____|  20.10.1b1
 |___|_|             

User:   madkru@i008.nifl.fysik.dtu.dk
Date:   Wed Mar 24 10:10:48 2021
Arch:   x86_64
Pid:    26969
Python: 3.7.4
gpaw:   /home/niflheim/madkru/venv_folder/gpaw/gpaw (d0d1ca1c71)
_gpaw:  /home/niflheim/madkru/venv_folder/gpaw/build/lib.linux-x86_64-ivybridge-3.7/
        _gpaw.cpython-37m-x86_64-linux-gnu.so (4fd39e8b1e)
ase:    /home/niflheim/madkru/venv_folder/ase/ase (version 3.21.0b1-7e6c206a91)
numpy:  /home/niflheim/madkru/venv_folder/lib/python3.7/site-packages/numpy (version 1.19.4)
scipy:  /home/niflheim/madkru/venv_folder/lib/python3.7/site-packages/scipy (version 1.5.4)
libxc:  4.3.4
units:  Angstrom and eV
cores: 64
OMP_NUM_THREADS: 1

Input parameters:
  convergence: {bands: occupied,
                density: 0.0001,
                eigenstates: 4e-08,
                energy: 0.0005,
                forces: 1e-06}
  kpts: [6 6 4]
  mode: {ecut: 600.0,
         gammacentered: False,
         name: pw}
  occupations: {fixmagmom: False,
                name: fermi-dirac,
                width: 0.001}
  symmetry: {point_group: False,
             time_reversal: False}

System changes: positions, numbers, cell, pbc, initial_charges, initial_magmoms 

Initialize ...

O-setup:
  name: Oxygen
  id: 9b9d51c344dea68c822856295a461509
  Z: 8.0
  valence: 6
  core: 2
  charge: 0.0
  file: /home/modules/software/GPAW-setups/0.9.20000/O.LDA.gz
  compensation charges: gauss, rc=0.21, lmax=2
  cutoffs: 1.17(filt), 0.83(core),
  valence states:
                energy  radius
    2s(2.00)   -23.752   0.688
    2p(4.00)    -9.195   0.598
    *s           3.459   0.688
    *p          18.016   0.598
    *d           0.000   0.619

  Using partial waves for O as LCAO basis

Mn-setup:
  name: Manganese
  id: 0d715a8018be061a6e9ea6f2d364ac92
  Z: 25.0
  valence: 15
  core: 10
  charge: 0.0
  file: /home/modules/software/GPAW-setups/0.9.20000/Mn.LDA.gz
  compensation charges: gauss, rc=0.38, lmax=2
  cutoffs: 2.14(filt), 0.86(core),
  valence states:
                energy  radius
    3s(2.00)   -85.387   1.275
    4s(2.00)    -5.282   1.275
    3p(6.00)   -54.493   1.281
    4p(0.00)    -1.471   1.281
    3d(5.00)    -7.009   1.138
    *d          20.203   1.138

  Using partial waves for Mn as LCAO basis

P-setup:
  name: Phosphorus
  id: a5561c299094968922a179ab894d2e2d
  Z: 15.0
  valence: 5
  core: 10
  charge: 0.0
  file: /home/modules/software/GPAW-setups/0.9.20000/P.LDA.gz
  compensation charges: gauss, rc=0.30, lmax=2
  cutoffs: 1.69(filt), 1.81(core),
  valence states:
                energy  radius
    3s(2.00)   -14.015   0.953
    3p(3.00)    -5.596   0.953
    *s          13.197   0.953
    *p          21.615   0.953
    *d           0.000   0.953

  Using partial waves for P as LCAO basis

Li-setup:
  name: Lithium
  id: b73562207f97a71b6967473b66fe8b65
  Z: 3.0
  valence: 1
  core: 2
  charge: 0.0
  file: /home/modules/software/GPAW-setups/0.9.20000/Li.LDA.gz
  compensation charges: gauss, rc=0.33, lmax=2
  cutoffs: 1.91(filt), 2.55(core),
  valence states:
                energy  radius
    2s(1.00)    -2.874   1.058
    2p(0.00)    -1.126   1.058
    *s          24.338   1.058

  Using partial waves for Li as LCAO basis

Reference energy: -196157.275402

Spin-polarized calculation.
Magnetic moment: 0.000000

Convergence criteria:
  Maximum total energy change: 0.0005 eV / electron
  Maximum integral of absolute density change: 0.0001 electrons
  Maximum integral of absolute eigenstate change: 4e-08 eV^2
  Maximum change in atomic force: 1e-06 eV / Ang
  Maximum number of iterations: 333

Symmetries present (total): 1

  ( 1  0  0)
  ( 0  1  0)
  ( 0  0  1)

144 k-points: 6 x 6 x 4 Monkhorst-Pack grid
144 k-points in the irreducible part of the Brillouin zone
       k-points in crystal coordinates                weights
   0:    -0.41666667   -0.41666667   -0.37500000          1/144
   1:    -0.41666667   -0.41666667   -0.12500000          1/144
   2:    -0.41666667   -0.41666667    0.12500000          1/144
   3:    -0.41666667   -0.41666667    0.37500000          1/144
   4:    -0.41666667   -0.25000000   -0.37500000          1/144
   5:    -0.41666667   -0.25000000   -0.12500000          1/144
   6:    -0.41666667   -0.25000000    0.12500000          1/144
   7:    -0.41666667   -0.25000000    0.37500000          1/144
   8:    -0.41666667   -0.08333333   -0.37500000          1/144
   9:    -0.41666667   -0.08333333   -0.12500000          1/144
          ...
 143:     0.41666667    0.41666667    0.37500000          1/144

Wave functions: Plane wave expansion
  Cutoff energy: 600.000 eV
  Number of coefficients (min, max): 9132, 9161
  Pulay-stress correction: 0.000000 eV/Ang^3 (de/decut=0.000000)
  Using FFTW library
  ScaLapack parameters: grid=1x1, blocksize=None
  Wavefunction extrapolation:
    Improved wavefunction reuse through dual PAW basis 

  Fermi-Dirac: width=0.0010 eV

Eigensolver
   Davidson(niter=2, smin=None, normalize=True) 

Densities:
  Coarse grid: 60*35*27 grid
  Fine grid: 120*70*54 grid
  Total Charge: 0.000000 

Density mixing:
  Method: difference
  Backend: pulay
  Linear mixing parameter: 0.05
  Mixing with 5 old densities
  Damping of long wave oscillations: 50 

Hamiltonian:
  XC and Coulomb potentials evaluated on a 120*70*54 grid
  Using the LDA Exchange-Correlation functional
 

Memory estimate:
  Process memory now: 12116.58 MiB
  Calculator: 322.47 MiB
    Density: 9.62 MiB
      Arrays: 3.79 MiB
      Localized functions: 4.27 MiB
      Mixer: 1.56 MiB
    Hamiltonian: 2.94 MiB
      Arrays: 2.82 MiB
      XC: 0.00 MiB
      Poisson: 0.00 MiB
      vbar: 0.12 MiB
    Wavefunctions: 309.91 MiB
      Arrays psit_nG: 281.81 MiB
      Eigensolver: 18.27 MiB
      Projections: 2.71 MiB
      Projectors: 4.40 MiB
      PW-descriptor: 2.71 MiB

Total number of cores used: 64
Parallelization over k-points: 16
Domain decomposition: 2 x 2 x 1

Number of atoms: 28
Number of atomic orbitals: 148
Number of bands in calculation: 112
Number of valence electrons: 180
Bands to converge: occupied

... initialized

Initializing position-dependent things.

Density initialized from atomic densities
Creating initial wave functions:
  112 bands from LCAO basis set

                                           
                                           
                                           
                                           
                                           
               O     O  P  O               
            PO           OMn     O         
                  O          MO            
            O        Li O                  
             Mn  Mn          OP            
         O       O Li O                    
         Li     O P         O              
       Li                                  
                                           
                                           
                                           
                                           

Positions:
   0 O     -1.280122   -2.495595   -1.112331    ( 0.0000,  0.0000,  0.0000)
   1 O     -3.023238    2.918858    1.191723    ( 0.0000,  0.0000,  0.0000)
   2 O      1.997451    0.467212    1.441442    ( 0.0000,  0.0000,  0.0000)
   3 O      3.740343   -0.043905   -0.862614    ( 0.0000,  0.0000,  0.0000)
   4 O      1.997419    2.918835    1.441465    ( 0.0000,  0.0000,  0.0000)
   5 O      3.740372   -2.495531   -0.862587    ( 0.0000,  0.0000,  0.0000)
   6 O     -1.280154   -0.043891   -1.112309    ( 0.0000,  0.0000,  0.0000)
   7 O     -3.023210    0.467136    1.191750    ( 0.0000,  0.0000,  0.0000)
   8 O     -4.147405   -1.269737   -0.856207    ( 0.0000,  0.0000,  0.0000)
   9 O     -0.155894    1.692986    1.447725    ( 0.0000,  0.0000,  0.0000)
  10 O      4.864578    1.693016    1.195324    ( 0.0000,  0.0000,  0.0000)
  11 O      0.873163   -1.269706   -1.118625    ( 0.0000,  0.0000,  0.0000)
  12 Mn    -2.437108   -1.269902    0.302197    ( 0.0000,  0.0000,  1.0000)
  13 Mn    -1.866187    1.693156   -2.001927    ( 0.0000,  0.0000, -1.0000)
  14 Mn     3.154299    1.693181    0.026917    ( 0.0000,  0.0000, -1.0000)
  15 Mn     2.583444   -1.269877    2.331074    ( 0.0000,  0.0000,  1.0000)
  16 P     -0.543052   -1.269720   -1.734187    ( 0.0000,  0.0000,  0.0000)
  17 P     -3.760282    1.692974    0.569859    ( 0.0000,  0.0000,  0.0000)
  18 P      1.260300    1.693000    2.063344    ( 0.0000,  0.0000,  0.0000)
  19 P      4.477470   -1.269695   -0.240696    ( 0.0000,  0.0000,  0.0000)
  20 O     -0.544413   -1.269738    1.348523    ( 0.0000,  0.0000,  0.0000)
  21 O     -3.758895    1.692992   -0.955558    ( 0.0000,  0.0000,  0.0000)
  22 O      1.261690    1.693018   -1.019367    ( 0.0000,  0.0000,  0.0000)
  23 O      4.476045   -1.269713    1.284716    ( 0.0000,  0.0000,  0.0000)
  24 Li    -4.662027   -2.751322   -2.139440    ( 0.0000,  0.0000,  0.0000)
  25 Li     0.358703   -2.751277    0.164614    ( 0.0000,  0.0000,  0.0000)
  26 Li    -4.662011    0.211617   -2.139439    ( 0.0000,  0.0000,  0.0000)
  27 Li     0.358720    0.211628    0.164615    ( 0.0000,  0.0000,  0.0000)

Unit cell:
           periodic     x           y           z      points  spacing
  1. axis:    yes   10.041096    0.000054   -0.000022    60     0.1674
  2. axis:    yes    0.000032    5.925857    0.000001    35     0.1693
  3. axis:    yes   -0.000010    0.000001    4.608134    27     0.1707

  Lengths:  10.041096   5.925857   4.608134
  Angles:   89.999974  90.000250  89.999381

Effective grid spacing dv^(1/3) = 0.1691

                     log10-error:           total        iterations:
           time      wfs    density  force  energy       poisson  magmom
iter:   1  10:12:20                       -233.731297             +0.0000
iter:   2  10:12:39  -0.47  -0.95         -231.549353             +0.0012
iter:   3  10:12:59  -0.61  -1.00         -220.787216             +0.0012
iter:   4  10:13:19  -1.17  -1.31         -220.685020             +0.1637
iter:   5  10:13:39  -2.16  -1.41         -222.333989             +0.0475
iter:   6  10:13:58  -2.05  -1.41         -223.345250             +0.2936
iter:   7  10:14:18  -2.06  -1.54         -223.793008             +0.5715
iter:   8  10:14:38  -2.48  -1.75         -225.402124             -0.4981
iter:   9  10:14:57  -2.50  -1.90         -226.377516             -0.1538
iter:  10  10:15:17  -1.91  -1.93         -226.373236             +0.0085
iter:  11  10:15:37  -2.78  -2.12         -226.361974             -0.0078
iter:  12  10:15:57  -2.11  -2.15         -226.297770             -0.0057
iter:  13  10:16:16  -3.10  -2.52         -226.210358             -0.0022
iter:  14  10:16:36  -2.88  -2.66         -226.190646             +0.0002
iter:  15  10:16:56  -3.63  -2.87         -226.179519             -0.0001
iter:  16  10:17:15  -4.29  -3.12         -226.176265             -0.0000
iter:  17  10:17:35  -4.26  -3.28         -226.175318             -0.0000
iter:  18  10:17:55  -5.36  -3.45         -226.174880             -0.0000
iter:  19  10:18:15  -5.42  -3.52         -226.174862             -0.0000
iter:  20  10:18:34  -5.44  -3.59         -226.174914             -0.0000
iter:  21  10:18:54  -5.55  -3.70         -226.175153             -0.0000
iter:  22  10:19:14  -6.39  -3.77         -226.175079             +0.0000
iter:  23  10:19:33  -5.02  -3.86         -226.174766             -0.0000
iter:  24  10:19:53  -6.34  -4.33         -226.174702             +0.0000
iter:  25  10:20:13  -6.47  -4.42         -226.174749             -0.0000
iter:  26  10:20:33  -7.03  -4.50         -226.174745             -0.0000
iter:  27  10:20:52  -7.05  -4.68         -226.174747             +0.0000
iter:  28  10:21:17  -7.74  -4.85         -226.174745             +0.0000
iter:  29  10:21:41  -8.04  -4.95    -3.11-226.174744             +0.0000
iter:  30  10:22:06  -7.98  -5.01    -2.51-226.174745             -0.0000
iter:  31  10:22:30  -7.88  -5.25    -2.82-226.174745             -0.0000
iter:  32  10:22:55  -9.34  -5.56    -3.47-226.174744             -0.0000
iter:  33  10:23:19  -8.84  -5.64    -3.38-226.174744             -0.0000
iter:  34  10:23:43  -9.11  -5.74    -3.41-226.174744             -0.0000
iter:  35  10:24:08  -9.81  -6.01    -3.71-226.174744             -0.0000
iter:  36  10:24:32  -9.90  -6.14    -3.81-226.174744             -0.0000
iter:  37  10:24:56 -10.17  -6.30    -4.02-226.174744             -0.0000
iter:  38  10:25:21 -10.83  -6.50    -4.23-226.174744             -0.0000
iter:  39  10:25:45 -11.84  -6.65    -5.21-226.174744             -0.0000
iter:  40  10:26:10 -11.27  -6.69    -3.96-226.174744             +0.0000
iter:  41  10:26:34 -11.77  -7.07    -4.75-226.174744             +0.0000
iter:  42  10:26:58 -12.10  -7.27    -4.71-226.174744             +0.0000
iter:  43  10:27:23 -12.94  -7.41    -5.31-226.174744             +0.0000
iter:  44  10:27:47 -13.66  -7.60    -5.64-226.174744             +0.0000
iter:  45  10:28:11 -13.21  -7.65    -5.56-226.174744             +0.0000
iter:  46  10:28:36 -14.23  -7.75    -6.01-226.174744             +0.0000

Converged after 46 iterations.

Dipole moment: (18.327707, -2.306081, -4.520966) |e|*Ang

Total magnetic moment: (0.000000, 0.000000, 0.000000)
Local magnetic moments:
   0 O  ( 0.000000,  0.000000, -0.001811)
   1 O  ( 0.000000,  0.000000,  0.001868)
   2 O  ( 0.000000,  0.000000,  0.001831)
   3 O  ( 0.000000,  0.000000, -0.001782)
   4 O  ( 0.000000,  0.000000,  0.001825)
   5 O  ( 0.000000,  0.000000, -0.001777)
   6 O  ( 0.000000,  0.000000, -0.001816)
   7 O  ( 0.000000,  0.000000,  0.001873)
   8 O  ( 0.000000,  0.000000,  0.031120)
   9 O  ( 0.000000,  0.000000, -0.031132)
  10 O  ( 0.000000,  0.000000, -0.031094)
  11 O  ( 0.000000,  0.000000,  0.031088)
  12 Mn ( 0.000000,  0.000000,  4.395830)
  13 Mn ( 0.000000,  0.000000, -4.395648)
  14 Mn ( 0.000000,  0.000000, -4.396386)
  15 Mn ( 0.000000,  0.000000,  4.395785)
  16 P  ( 0.000000,  0.000000,  0.000874)
  17 P  ( 0.000000,  0.000000, -0.000790)
  18 P  ( 0.000000,  0.000000, -0.000861)
  19 P  ( 0.000000,  0.000000,  0.000882)
  20 O  ( 0.000000,  0.000000,  0.028426)
  21 O  ( 0.000000,  0.000000, -0.028292)
  22 O  ( 0.000000,  0.000000, -0.028484)
  23 O  ( 0.000000,  0.000000,  0.028435)
  24 Li ( 0.000000,  0.000000, -0.000007)
  25 Li ( 0.000000,  0.000000,  0.000001)
  26 Li ( 0.000000,  0.000000, -0.000007)
  27 Li ( 0.000000,  0.000000,  0.000001)

Energy contributions relative to reference atoms: (reference = -196157.275402)

Kinetic:       +277.267166
Potential:     -240.685288
External:        +0.000000
XC:            -264.646335
Entropy (-ST):   -0.000000
Local:           +1.889712
--------------------------
Free energy:   -226.174744
Extrapolated:  -226.174744

Spin contamination: 9.455563 electrons
Showing only first 2 kpts
                      Up                     Down
 Kpt  Band  Eigenvalues  Occupancy  Eigenvalues  Occupancy
  0    88      6.52967    0.00694      6.52368    0.00694
  0    89      6.56332    0.00694      6.55785    0.00694
  0    90      8.42444    0.00000      8.42582    0.00000
  0    91      8.44595    0.00000      8.44752    0.00000

  1    88      6.56823    0.00694      6.56250    0.00694
  1    89      6.59532    0.00694      6.58948    0.00694
  1    90      8.38116    0.00000      8.38217    0.00000
  1    91      8.40320    0.00000      8.40442    0.00000


Fermi level: 7.62919

Gap: 1.698 eV
Transition (v -> c):
  (s=0, k=94, n=89, [0.08, 0.42, 0.12]) -> (s=0, k=62, n=90, [-0.08, 0.08, 0.12])
Writing to born-0.01-10z+.gpw (mode='all')

Timing:                              incl.     excl.
-----------------------------------------------------------
Hamiltonian:                         0.216     0.002   0.0% |
 Atomic:                             0.058     0.058   0.0% |
  XC Correction:                     0.000     0.000   0.0% |
 Calculate atomic Hamiltonians:      0.070     0.070   0.0% |
 Communicate:                        0.002     0.002   0.0% |
 Initialize Hamiltonian:             0.000     0.000   0.0% |
 Poisson:                            0.001     0.001   0.0% |
 XC 3D grid:                         0.084     0.084   0.0% |
LCAO initialization:                67.310     0.649   0.0% |
 LCAO eigensolver:                  19.434     0.002   0.0% |
  Calculate projections:             0.029     0.029   0.0% |
  DenseAtomicCorrection:             0.045     0.045   0.0% |
  Distribute overlap matrix:         0.008     0.008   0.0% |
  Orbital Layouts:                   0.433     0.433   0.0% |
  Potential matrix:                 18.819    18.819   0.6% |
  Sum over cells:                    0.098     0.098   0.0% |
 LCAO to grid:                      45.892    45.892   1.5% ||
 Set positions (LCAO WFS):           1.334     0.191   0.0% |
  Basic WFS set positions:           0.001     0.001   0.0% |
  Basis functions set positions:     0.000     0.000   0.0% |
  P tci:                             0.546     0.546   0.0% |
  ST tci:                            0.382     0.382   0.0% |
  mktci:                             0.214     0.214   0.0% |
PWDescriptor:                        0.023     0.023   0.0% |
SCF-cycle:                         999.218     3.146   0.1% |
 Davidson:                         860.911   263.144   8.8% |---|
  Apply H:                          59.901    58.149   2.0% ||
   HMM T:                            1.752     1.752   0.1% |
  Subspace diag:                   125.106     0.130   0.0% |
   calc_h_matrix:                   80.609    20.747   0.7% |
    Apply H:                        59.862    58.069   2.0% ||
     HMM T:                          1.793     1.793   0.1% |
   diagonalize:                      6.263     6.263   0.2% |
   rotate_psi:                      38.104    38.104   1.3% ||
  calc. matrices:                  257.839   140.700   4.7% |-|
   Apply H:                        117.139   113.870   3.8% |-|
    HMM T:                           3.269     3.269   0.1% |
  diagonalize:                      72.373    72.373   2.4% ||
  rotate_psi:                       82.548    82.548   2.8% ||
 Density:                           34.775     0.001   0.0% |
  Atomic density matrices:           0.684     0.684   0.0% |
  Mix:                               4.805     4.805   0.2% |
  Multipole moments:                 0.017     0.017   0.0% |
  Pseudo density:                   29.268    29.266   1.0% |
   Symmetrize density:               0.001     0.001   0.0% |
 Forces:                            88.623    88.623   3.0% ||
 Hamiltonian:                        9.706     0.098   0.0% |
  Atomic:                            2.279     2.278   0.1% |
   XC Correction:                    0.000     0.000   0.0% |
  Calculate atomic Hamiltonians:     3.350     3.350   0.1% |
  Communicate:                       0.072     0.072   0.0% |
  Poisson:                           0.027     0.027   0.0% |
  XC 3D grid:                        3.880     3.880   0.1% |
 Orthonormalize:                     2.057     0.003   0.0% |
  calc_s_matrix:                     0.242     0.242   0.0% |
  inverse-cholesky:                  0.072     0.072   0.0% |
  projections:                       1.311     1.311   0.0% |
  rotate_psi_s:                      0.428     0.428   0.0% |
Set symmetry:                        0.000     0.000   0.0% |
Other:                            1906.775  1906.775  64.1% |-------------------------|
-----------------------------------------------------------
Total:                                      2973.541 100.0%

Memory usage: 11.85 GiB
Date: Wed Mar 24 11:00:21 2021
