
  ___ ___ ___ _ _ _  
 |   |   |_  | | | | 
 | | | | | . | | | | 
 |__ |  _|___|_____|  20.10.1b1
 |___|_|             

User:   madkru@i008.nifl.fysik.dtu.dk
Date:   Thu Mar 25 05:26:26 2021
Arch:   x86_64
Pid:    26969
Python: 3.7.4
gpaw:   /home/niflheim/madkru/venv_folder/gpaw/gpaw (d224efde0f)
_gpaw:  /home/niflheim/madkru/venv_folder/gpaw/build/lib.linux-x86_64-ivybridge-3.7/
        _gpaw.cpython-37m-x86_64-linux-gnu.so (4fd39e8b1e)
ase:    /home/niflheim/madkru/venv_folder/ase/ase (version 3.21.0b1-4d5a73cb29)
numpy:  /home/niflheim/madkru/venv_folder/lib/python3.7/site-packages/numpy (version 1.19.4)
scipy:  /home/niflheim/madkru/venv_folder/lib/python3.7/site-packages/scipy (version 1.5.4)
libxc:  4.3.4
units:  Angstrom and eV
cores: 64
OMP_NUM_THREADS: 1

Input parameters:
  convergence: {bands: occupied,
                density: 0.0001,
                eigenstates: 4e-08,
                energy: 0.0005,
                forces: 1e-06}
  kpts: [6 6 4]
  mode: {ecut: 600.0,
         gammacentered: False,
         name: pw}
  occupations: {fixmagmom: False,
                name: fermi-dirac,
                width: 0.001}
  symmetry: {point_group: False,
             time_reversal: False}

System changes: positions, numbers, cell, pbc, initial_charges, initial_magmoms 

Initialize ...

O-setup:
  name: Oxygen
  id: 9b9d51c344dea68c822856295a461509
  Z: 8.0
  valence: 6
  core: 2
  charge: 0.0
  file: /home/modules/software/GPAW-setups/0.9.20000/O.LDA.gz
  compensation charges: gauss, rc=0.21, lmax=2
  cutoffs: 1.17(filt), 0.83(core),
  valence states:
                energy  radius
    2s(2.00)   -23.752   0.688
    2p(4.00)    -9.195   0.598
    *s           3.459   0.688
    *p          18.016   0.598
    *d           0.000   0.619

  Using partial waves for O as LCAO basis

Mn-setup:
  name: Manganese
  id: 0d715a8018be061a6e9ea6f2d364ac92
  Z: 25.0
  valence: 15
  core: 10
  charge: 0.0
  file: /home/modules/software/GPAW-setups/0.9.20000/Mn.LDA.gz
  compensation charges: gauss, rc=0.38, lmax=2
  cutoffs: 2.14(filt), 0.86(core),
  valence states:
                energy  radius
    3s(2.00)   -85.387   1.275
    4s(2.00)    -5.282   1.275
    3p(6.00)   -54.493   1.281
    4p(0.00)    -1.471   1.281
    3d(5.00)    -7.009   1.138
    *d          20.203   1.138

  Using partial waves for Mn as LCAO basis

P-setup:
  name: Phosphorus
  id: a5561c299094968922a179ab894d2e2d
  Z: 15.0
  valence: 5
  core: 10
  charge: 0.0
  file: /home/modules/software/GPAW-setups/0.9.20000/P.LDA.gz
  compensation charges: gauss, rc=0.30, lmax=2
  cutoffs: 1.69(filt), 1.81(core),
  valence states:
                energy  radius
    3s(2.00)   -14.015   0.953
    3p(3.00)    -5.596   0.953
    *s          13.197   0.953
    *p          21.615   0.953
    *d           0.000   0.953

  Using partial waves for P as LCAO basis

Li-setup:
  name: Lithium
  id: b73562207f97a71b6967473b66fe8b65
  Z: 3.0
  valence: 1
  core: 2
  charge: 0.0
  file: /home/modules/software/GPAW-setups/0.9.20000/Li.LDA.gz
  compensation charges: gauss, rc=0.33, lmax=2
  cutoffs: 1.91(filt), 2.55(core),
  valence states:
                energy  radius
    2s(1.00)    -2.874   1.058
    2p(0.00)    -1.126   1.058
    *s          24.338   1.058

  Using partial waves for Li as LCAO basis

Reference energy: -196157.275402

Spin-polarized calculation.
Magnetic moment: 0.000000

Convergence criteria:
  Maximum total energy change: 0.0005 eV / electron
  Maximum integral of absolute density change: 0.0001 electrons
  Maximum integral of absolute eigenstate change: 4e-08 eV^2
  Maximum change in atomic force: 1e-06 eV / Ang
  Maximum number of iterations: 333

Symmetries present (total): 1

  ( 1  0  0)
  ( 0  1  0)
  ( 0  0  1)

144 k-points: 6 x 6 x 4 Monkhorst-Pack grid
144 k-points in the irreducible part of the Brillouin zone
       k-points in crystal coordinates                weights
   0:    -0.41666667   -0.41666667   -0.37500000          1/144
   1:    -0.41666667   -0.41666667   -0.12500000          1/144
   2:    -0.41666667   -0.41666667    0.12500000          1/144
   3:    -0.41666667   -0.41666667    0.37500000          1/144
   4:    -0.41666667   -0.25000000   -0.37500000          1/144
   5:    -0.41666667   -0.25000000   -0.12500000          1/144
   6:    -0.41666667   -0.25000000    0.12500000          1/144
   7:    -0.41666667   -0.25000000    0.37500000          1/144
   8:    -0.41666667   -0.08333333   -0.37500000          1/144
   9:    -0.41666667   -0.08333333   -0.12500000          1/144
          ...
 143:     0.41666667    0.41666667    0.37500000          1/144

Wave functions: Plane wave expansion
  Cutoff energy: 600.000 eV
  Number of coefficients (min, max): 9132, 9161
  Pulay-stress correction: 0.000000 eV/Ang^3 (de/decut=0.000000)
  Using FFTW library
  ScaLapack parameters: grid=1x1, blocksize=None
  Wavefunction extrapolation:
    Improved wavefunction reuse through dual PAW basis 

  Fermi-Dirac: width=0.0010 eV

Eigensolver
   Davidson(niter=2, smin=None, normalize=True) 

Densities:
  Coarse grid: 60*35*27 grid
  Fine grid: 120*70*54 grid
  Total Charge: 0.000000 

Density mixing:
  Method: difference
  Backend: pulay
  Linear mixing parameter: 0.05
  Mixing with 5 old densities
  Damping of long wave oscillations: 50 

Hamiltonian:
  XC and Coulomb potentials evaluated on a 120*70*54 grid
  Using the LDA Exchange-Correlation functional
 

Memory estimate:
  Process memory now: 13034.52 MiB
  Calculator: 322.47 MiB
    Density: 9.62 MiB
      Arrays: 3.79 MiB
      Localized functions: 4.27 MiB
      Mixer: 1.56 MiB
    Hamiltonian: 2.94 MiB
      Arrays: 2.82 MiB
      XC: 0.00 MiB
      Poisson: 0.00 MiB
      vbar: 0.12 MiB
    Wavefunctions: 309.91 MiB
      Arrays psit_nG: 281.81 MiB
      Eigensolver: 18.27 MiB
      Projections: 2.71 MiB
      Projectors: 4.40 MiB
      PW-descriptor: 2.71 MiB

Total number of cores used: 64
Parallelization over k-points: 16
Domain decomposition: 2 x 2 x 1

Number of atoms: 28
Number of atomic orbitals: 148
Number of bands in calculation: 112
Number of valence electrons: 180
Bands to converge: occupied

... initialized

Initializing position-dependent things.

Density initialized from atomic densities
Creating initial wave functions:
  112 bands from LCAO basis set

                                           
                                           
                                           
                                           
                                           
               O     O  P  O               
            PO           OMn     O         
                  O          MO            
            O        Li O                  
             Mn  Mn          OP            
         O       O Li O                    
         Li     O P         O              
       Li                                  
                                           
                                           
                                           
                                           

Positions:
   0 O     -1.280122   -2.495595   -1.112331    ( 0.0000,  0.0000,  0.0000)
   1 O     -3.023238    2.918858    1.191723    ( 0.0000,  0.0000,  0.0000)
   2 O      1.997451    0.467212    1.441442    ( 0.0000,  0.0000,  0.0000)
   3 O      3.740343   -0.043905   -0.862614    ( 0.0000,  0.0000,  0.0000)
   4 O      1.997419    2.918835    1.441465    ( 0.0000,  0.0000,  0.0000)
   5 O      3.740372   -2.495531   -0.862587    ( 0.0000,  0.0000,  0.0000)
   6 O     -1.280154   -0.043891   -1.112309    ( 0.0000,  0.0000,  0.0000)
   7 O     -3.023210    0.467136    1.191750    ( 0.0000,  0.0000,  0.0000)
   8 O     -4.147405   -1.269737   -0.856207    ( 0.0000,  0.0000,  0.0000)
   9 O     -0.155894    1.692986    1.447725    ( 0.0000,  0.0000,  0.0000)
  10 O      4.864578    1.693016    1.185324    ( 0.0000,  0.0000,  0.0000)
  11 O      0.873163   -1.269706   -1.118625    ( 0.0000,  0.0000,  0.0000)
  12 Mn    -2.437108   -1.269902    0.302197    ( 0.0000,  0.0000,  1.0000)
  13 Mn    -1.866187    1.693156   -2.001927    ( 0.0000,  0.0000, -1.0000)
  14 Mn     3.154299    1.693181    0.026917    ( 0.0000,  0.0000, -1.0000)
  15 Mn     2.583444   -1.269877    2.331074    ( 0.0000,  0.0000,  1.0000)
  16 P     -0.543052   -1.269720   -1.734187    ( 0.0000,  0.0000,  0.0000)
  17 P     -3.750282    1.692974    0.569859    ( 0.0000,  0.0000,  0.0000)
  18 P      1.260300    1.693000    2.063344    ( 0.0000,  0.0000,  0.0000)
  19 P      4.477470   -1.269695   -0.240696    ( 0.0000,  0.0000,  0.0000)
  20 O     -0.544413   -1.269738    1.348523    ( 0.0000,  0.0000,  0.0000)
  21 O     -3.758895    1.692992   -0.955558    ( 0.0000,  0.0000,  0.0000)
  22 O      1.261690    1.693018   -1.019367    ( 0.0000,  0.0000,  0.0000)
  23 O      4.476045   -1.269713    1.284716    ( 0.0000,  0.0000,  0.0000)
  24 Li    -4.662027   -2.751322   -2.139440    ( 0.0000,  0.0000,  0.0000)
  25 Li     0.358703   -2.751277    0.164614    ( 0.0000,  0.0000,  0.0000)
  26 Li    -4.662011    0.211617   -2.139439    ( 0.0000,  0.0000,  0.0000)
  27 Li     0.358720    0.211628    0.164615    ( 0.0000,  0.0000,  0.0000)

Unit cell:
           periodic     x           y           z      points  spacing
  1. axis:    yes   10.041096    0.000054   -0.000022    60     0.1674
  2. axis:    yes    0.000032    5.925857    0.000001    35     0.1693
  3. axis:    yes   -0.000010    0.000001    4.608134    27     0.1707

  Lengths:  10.041096   5.925857   4.608134
  Angles:   89.999974  90.000250  89.999381

Effective grid spacing dv^(1/3) = 0.1691

                     log10-error:           total        iterations:
           time      wfs    density  force  energy       poisson  magmom
iter:   1  05:28:01                       -233.734851             +0.0000
iter:   2  05:28:20  -0.47  -0.95         -231.557106             +0.0020
iter:   3  05:28:40  -0.61  -1.00         -220.801645             +0.0021
iter:   4  05:29:00  -1.19  -1.31         -220.995162             +0.4412
iter:   5  05:29:20  -2.14  -1.39         -222.865970             +0.2600
iter:   6  05:29:39  -2.32  -1.37         -223.322053             +0.0723
iter:   7  05:29:59  -2.02  -1.53         -223.822526             +0.1348
iter:   8  05:30:19  -2.34  -1.71         -225.467309             +0.7526
iter:   9  05:30:39  -2.47  -1.92         -226.324095             +0.2499
iter:  10  05:30:58  -2.18  -2.02         -226.373169             -0.0093
iter:  11  05:31:18  -2.93  -2.11         -226.351245             +0.0068
iter:  12  05:31:38  -2.16  -2.14         -226.260958             +0.0073
iter:  13  05:31:58  -3.42  -2.57         -226.221603             +0.0021
iter:  14  05:32:17  -2.50  -2.66         -226.232094             -0.0011
iter:  15  05:32:37  -3.49  -2.74         -226.185555             +0.0001
iter:  16  05:32:57  -3.73  -3.07         -226.174631             +0.0001
iter:  17  05:33:17  -4.42  -3.21         -226.175708             +0.0000
iter:  18  05:33:36  -4.16  -3.35         -226.172726             +0.0000
iter:  19  05:33:56  -4.79  -3.64         -226.172785             +0.0000
iter:  20  05:34:16  -4.88  -3.66         -226.172754             +0.0000
iter:  21  05:34:35  -5.09  -3.70         -226.172461             +0.0000
iter:  22  05:34:55  -5.91  -4.09         -226.172419             +0.0000
iter:  23  05:35:15  -5.91  -4.28         -226.172432             +0.0000
iter:  24  05:35:34  -6.11  -4.31         -226.172414             +0.0000
iter:  25  05:35:59  -7.52  -4.64         -226.172412             +0.0000
iter:  26  05:36:19  -7.22  -4.70         -226.172410             -0.0000
iter:  27  05:36:43  -7.45  -4.82    -2.19-226.172411             +0.0000
iter:  28  05:37:07  -7.46  -4.82    -2.57-226.172410             +0.0000
iter:  29  05:37:32  -8.19  -5.25    -3.01-226.172410             +0.0000
iter:  30  05:37:56  -8.28  -5.38    -3.09-226.172409             +0.0000
iter:  31  05:38:21  -8.83  -5.55    -3.03-226.172409             +0.0000
iter:  32  05:38:45  -9.39  -5.73    -3.64-226.172409             -0.0000
iter:  33  05:39:09 -10.08  -5.81    -3.66-226.172409             -0.0000
iter:  34  05:39:34  -9.49  -5.86    -3.54-226.172409             -0.0000
iter:  35  05:39:58 -10.27  -6.04    -3.79-226.172409             -0.0000
iter:  36  05:40:22 -10.83  -6.21    -4.53-226.172409             -0.0000
iter:  37  05:40:47 -10.31  -6.25    -4.13-226.172409             -0.0000
iter:  38  05:41:11 -11.06  -6.38    -4.49-226.172409             -0.0000
iter:  39  05:41:35 -10.21  -6.43    -4.15-226.172409             +0.0000
iter:  40  05:42:00 -10.93  -6.60    -4.38-226.172409             -0.0000
iter:  41  05:42:24 -11.11  -6.83    -4.63-226.172409             -0.0000
iter:  42  05:42:48 -12.23  -6.97    -4.81-226.172409             -0.0000
iter:  43  05:43:13 -12.10  -7.03    -4.76-226.172409             +0.0000
iter:  44  05:43:37 -12.87  -7.15    -5.18-226.172409             +0.0000
iter:  45  05:44:02 -12.62  -7.19    -4.78-226.172409             +0.0000
iter:  46  05:44:26 -12.71  -7.26    -5.20-226.172409             -0.0000
iter:  47  05:44:50 -12.80  -7.30    -5.33-226.172409             -0.0000
iter:  48  05:45:15 -13.29  -7.40    -5.11-226.172409             -0.0000
iter:  49  05:45:39 -13.49  -7.54    -5.29-226.172409             +0.0000
iter:  50  05:46:03 -12.74  -7.64    -5.32-226.172409             +0.0000
iter:  51  05:46:27 -13.56  -8.04    -5.45-226.172409             +0.0000
iter:  52  05:46:52 -14.90  -8.32    -6.22-226.172409             +0.0000

Converged after 52 iterations.

Dipole moment: (18.337864, -2.300707, -4.523956) |e|*Ang

Total magnetic moment: (0.000000, 0.000000, 0.000000)
Local magnetic moments:
   0 O  ( 0.000000,  0.000000, -0.001838)
   1 O  ( 0.000000,  0.000000,  0.001594)
   2 O  ( 0.000000,  0.000000,  0.001876)
   3 O  ( 0.000000,  0.000000, -0.001690)
   4 O  ( 0.000000,  0.000000,  0.001871)
   5 O  ( 0.000000,  0.000000, -0.001685)
   6 O  ( 0.000000,  0.000000, -0.001843)
   7 O  ( 0.000000,  0.000000,  0.001599)
   8 O  ( 0.000000,  0.000000,  0.031273)
   9 O  ( 0.000000,  0.000000, -0.031191)
  10 O  ( 0.000000,  0.000000, -0.031370)
  11 O  ( 0.000000,  0.000000,  0.030972)
  12 Mn ( 0.000000,  0.000000,  4.395910)
  13 Mn ( 0.000000,  0.000000, -4.395558)
  14 Mn ( 0.000000,  0.000000, -4.395588)
  15 Mn ( 0.000000,  0.000000,  4.395800)
  16 P  ( 0.000000,  0.000000,  0.000878)
  17 P  ( 0.000000,  0.000000, -0.000683)
  18 P  ( 0.000000,  0.000000, -0.000857)
  19 P  ( 0.000000,  0.000000,  0.000828)
  20 O  ( 0.000000,  0.000000,  0.028440)
  21 O  ( 0.000000,  0.000000, -0.028661)
  22 O  ( 0.000000,  0.000000, -0.028292)
  23 O  ( 0.000000,  0.000000,  0.028439)
  24 Li ( 0.000000,  0.000000, -0.000022)
  25 Li ( 0.000000,  0.000000,  0.000001)
  26 Li ( 0.000000,  0.000000, -0.000022)
  27 Li ( 0.000000,  0.000000,  0.000001)

Energy contributions relative to reference atoms: (reference = -196157.275402)

Kinetic:       +277.608535
Potential:     -240.948820
External:        +0.000000
XC:            -264.720552
Entropy (-ST):   -0.000000
Local:           +1.888428
--------------------------
Free energy:   -226.172409
Extrapolated:  -226.172409

Spin contamination: 9.455519 electrons
Showing only first 2 kpts
                      Up                     Down
 Kpt  Band  Eigenvalues  Occupancy  Eigenvalues  Occupancy
  0    88      6.52238    0.00694      6.52769    0.00694
  0    89      6.56300    0.00694      6.57635    0.00694
  0    90      8.41525    0.00000      8.41556    0.00000
  0    91      8.45608    0.00000      8.45116    0.00000

  1    88      6.56053    0.00694      6.56417    0.00694
  1    89      6.59519    0.00694      6.60995    0.00694
  1    90      8.37117    0.00000      8.37230    0.00000
  1    91      8.41316    0.00000      8.40767    0.00000


Fermi level: 7.54465

Gap: 1.681 eV
Transition (v -> c):
  (s=1, k=74, n=89, [0.08, -0.42, 0.12]) -> (s=0, k=58, n=90, [-0.08, -0.08, 0.12])
Writing to born-0.01-17x+.gpw (mode='all')

Timing:                              incl.     excl.
-----------------------------------------------------------
Hamiltonian:                         0.213     0.002   0.0% |
 Atomic:                             0.050     0.050   0.0% |
  XC Correction:                     0.000     0.000   0.0% |
 Calculate atomic Hamiltonians:      0.076     0.076   0.0% |
 Communicate:                        0.002     0.002   0.0% |
 Initialize Hamiltonian:             0.000     0.000   0.0% |
 Poisson:                            0.001     0.001   0.0% |
 XC 3D grid:                         0.084     0.084   0.0% |
LCAO initialization:                72.663     0.648   0.0% |
 LCAO eigensolver:                  19.874     0.002   0.0% |
  Calculate projections:             0.029     0.029   0.0% |
  DenseAtomicCorrection:             0.045     0.045   0.0% |
  Distribute overlap matrix:         0.009     0.009   0.0% |
  Orbital Layouts:                   0.429     0.429   0.0% |
  Potential matrix:                 19.267    19.267   0.6% |
  Sum over cells:                    0.094     0.094   0.0% |
 LCAO to grid:                      50.794    50.794   1.7% ||
 Set positions (LCAO WFS):           1.346     0.213   0.0% |
  Basic WFS set positions:           0.001     0.001   0.0% |
  Basis functions set positions:     0.000     0.000   0.0% |
  P tci:                             0.528     0.528   0.0% |
  ST tci:                            0.384     0.384   0.0% |
  mktci:                             0.219     0.219   0.0% |
PWDescriptor:                        0.024     0.024   0.0% |
SCF-cycle:                        1152.192     0.750   0.0% |
 Davidson:                         973.161   297.514   9.7% |---|
  Apply H:                          67.672    65.696   2.1% ||
   HMM T:                            1.976     1.976   0.1% |
  Subspace diag:                   141.294     0.151   0.0% |
   calc_h_matrix:                   91.093    23.460   0.8% |
    Apply H:                        67.633    65.601   2.1% ||
     HMM T:                          2.032     2.032   0.1% |
   diagonalize:                      7.019     7.019   0.2% |
   rotate_psi:                      43.031    43.031   1.4% ||
  calc. matrices:                  291.322   159.053   5.2% |-|
   Apply H:                        132.270   128.559   4.2% |-|
    HMM T:                           3.710     3.710   0.1% |
  diagonalize:                      81.955    81.955   2.7% ||
  rotate_psi:                       93.403    93.403   3.0% ||
 Density:                           39.265     0.001   0.0% |
  Atomic density matrices:           0.822     0.822   0.0% |
  Mix:                               5.401     5.401   0.2% |
  Multipole moments:                 0.020     0.020   0.0% |
  Pseudo density:                   33.021    33.020   1.1% |
   Symmetrize density:               0.001     0.001   0.0% |
 Forces:                           125.903   125.903   4.1% |-|
 Hamiltonian:                       11.055     0.110   0.0% |
  Atomic:                            2.596     2.595   0.1% |
   XC Correction:                    0.000     0.000   0.0% |
  Calculate atomic Hamiltonians:     3.860     3.860   0.1% |
  Communicate:                       0.085     0.085   0.0% |
  Poisson:                           0.032     0.032   0.0% |
  XC 3D grid:                        4.372     4.372   0.1% |
 Orthonormalize:                     2.058     0.003   0.0% |
  calc_s_matrix:                     0.241     0.241   0.0% |
  inverse-cholesky:                  0.072     0.072   0.0% |
  projections:                       1.313     1.313   0.0% |
  rotate_psi_s:                      0.428     0.428   0.0% |
Set symmetry:                        0.000     0.000   0.0% |
Other:                            1849.943  1849.943  60.2% |-----------------------|
-----------------------------------------------------------
Total:                                      3075.036 100.0%

Memory usage: 12.76 GiB
Date: Thu Mar 25 06:17:41 2021
