
  ___ ___ ___ _ _ _  
 |   |   |_  | | | | 
 | | | | | . | | | | 
 |__ |  _|___|_____|  20.10.1b1
 |___|_|             

User:   madkru@i008.nifl.fysik.dtu.dk
Date:   Thu Mar 25 11:01:01 2021
Arch:   x86_64
Pid:    26969
Python: 3.7.4
gpaw:   /home/niflheim/madkru/venv_folder/gpaw/gpaw (d224efde0f)
_gpaw:  /home/niflheim/madkru/venv_folder/gpaw/build/lib.linux-x86_64-ivybridge-3.7/
        _gpaw.cpython-37m-x86_64-linux-gnu.so (4fd39e8b1e)
ase:    /home/niflheim/madkru/venv_folder/ase/ase (version 3.21.0b1-4d5a73cb29)
numpy:  /home/niflheim/madkru/venv_folder/lib/python3.7/site-packages/numpy (version 1.19.4)
scipy:  /home/niflheim/madkru/venv_folder/lib/python3.7/site-packages/scipy (version 1.5.4)
libxc:  4.3.4
units:  Angstrom and eV
cores: 64
OMP_NUM_THREADS: 1

Input parameters:
  convergence: {bands: occupied,
                density: 0.0001,
                eigenstates: 4e-08,
                energy: 0.0005,
                forces: 1e-06}
  kpts: [6 6 4]
  mode: {ecut: 600.0,
         gammacentered: False,
         name: pw}
  occupations: {fixmagmom: False,
                name: fermi-dirac,
                width: 0.001}
  symmetry: {point_group: False,
             time_reversal: False}

System changes: positions, numbers, cell, pbc, initial_charges, initial_magmoms 

Initialize ...

O-setup:
  name: Oxygen
  id: 9b9d51c344dea68c822856295a461509
  Z: 8.0
  valence: 6
  core: 2
  charge: 0.0
  file: /home/modules/software/GPAW-setups/0.9.20000/O.LDA.gz
  compensation charges: gauss, rc=0.21, lmax=2
  cutoffs: 1.17(filt), 0.83(core),
  valence states:
                energy  radius
    2s(2.00)   -23.752   0.688
    2p(4.00)    -9.195   0.598
    *s           3.459   0.688
    *p          18.016   0.598
    *d           0.000   0.619

  Using partial waves for O as LCAO basis

Mn-setup:
  name: Manganese
  id: 0d715a8018be061a6e9ea6f2d364ac92
  Z: 25.0
  valence: 15
  core: 10
  charge: 0.0
  file: /home/modules/software/GPAW-setups/0.9.20000/Mn.LDA.gz
  compensation charges: gauss, rc=0.38, lmax=2
  cutoffs: 2.14(filt), 0.86(core),
  valence states:
                energy  radius
    3s(2.00)   -85.387   1.275
    4s(2.00)    -5.282   1.275
    3p(6.00)   -54.493   1.281
    4p(0.00)    -1.471   1.281
    3d(5.00)    -7.009   1.138
    *d          20.203   1.138

  Using partial waves for Mn as LCAO basis

P-setup:
  name: Phosphorus
  id: a5561c299094968922a179ab894d2e2d
  Z: 15.0
  valence: 5
  core: 10
  charge: 0.0
  file: /home/modules/software/GPAW-setups/0.9.20000/P.LDA.gz
  compensation charges: gauss, rc=0.30, lmax=2
  cutoffs: 1.69(filt), 1.81(core),
  valence states:
                energy  radius
    3s(2.00)   -14.015   0.953
    3p(3.00)    -5.596   0.953
    *s          13.197   0.953
    *p          21.615   0.953
    *d           0.000   0.953

  Using partial waves for P as LCAO basis

Li-setup:
  name: Lithium
  id: b73562207f97a71b6967473b66fe8b65
  Z: 3.0
  valence: 1
  core: 2
  charge: 0.0
  file: /home/modules/software/GPAW-setups/0.9.20000/Li.LDA.gz
  compensation charges: gauss, rc=0.33, lmax=2
  cutoffs: 1.91(filt), 2.55(core),
  valence states:
                energy  radius
    2s(1.00)    -2.874   1.058
    2p(0.00)    -1.126   1.058
    *s          24.338   1.058

  Using partial waves for Li as LCAO basis

Reference energy: -196157.275402

Spin-polarized calculation.
Magnetic moment: 0.000000

Convergence criteria:
  Maximum total energy change: 0.0005 eV / electron
  Maximum integral of absolute density change: 0.0001 electrons
  Maximum integral of absolute eigenstate change: 4e-08 eV^2
  Maximum change in atomic force: 1e-06 eV / Ang
  Maximum number of iterations: 333

Symmetries present (total): 1

  ( 1  0  0)
  ( 0  1  0)
  ( 0  0  1)

144 k-points: 6 x 6 x 4 Monkhorst-Pack grid
144 k-points in the irreducible part of the Brillouin zone
       k-points in crystal coordinates                weights
   0:    -0.41666667   -0.41666667   -0.37500000          1/144
   1:    -0.41666667   -0.41666667   -0.12500000          1/144
   2:    -0.41666667   -0.41666667    0.12500000          1/144
   3:    -0.41666667   -0.41666667    0.37500000          1/144
   4:    -0.41666667   -0.25000000   -0.37500000          1/144
   5:    -0.41666667   -0.25000000   -0.12500000          1/144
   6:    -0.41666667   -0.25000000    0.12500000          1/144
   7:    -0.41666667   -0.25000000    0.37500000          1/144
   8:    -0.41666667   -0.08333333   -0.37500000          1/144
   9:    -0.41666667   -0.08333333   -0.12500000          1/144
          ...
 143:     0.41666667    0.41666667    0.37500000          1/144

Wave functions: Plane wave expansion
  Cutoff energy: 600.000 eV
  Number of coefficients (min, max): 9132, 9161
  Pulay-stress correction: 0.000000 eV/Ang^3 (de/decut=0.000000)
  Using FFTW library
  ScaLapack parameters: grid=1x1, blocksize=None
  Wavefunction extrapolation:
    Improved wavefunction reuse through dual PAW basis 

  Fermi-Dirac: width=0.0010 eV

Eigensolver
   Davidson(niter=2, smin=None, normalize=True) 

Densities:
  Coarse grid: 60*35*27 grid
  Fine grid: 120*70*54 grid
  Total Charge: 0.000000 

Density mixing:
  Method: difference
  Backend: pulay
  Linear mixing parameter: 0.05
  Mixing with 5 old densities
  Damping of long wave oscillations: 50 

Hamiltonian:
  XC and Coulomb potentials evaluated on a 120*70*54 grid
  Using the LDA Exchange-Correlation functional
 

Memory estimate:
  Process memory now: 13310.64 MiB
  Calculator: 322.47 MiB
    Density: 9.62 MiB
      Arrays: 3.79 MiB
      Localized functions: 4.27 MiB
      Mixer: 1.56 MiB
    Hamiltonian: 2.94 MiB
      Arrays: 2.82 MiB
      XC: 0.00 MiB
      Poisson: 0.00 MiB
      vbar: 0.12 MiB
    Wavefunctions: 309.91 MiB
      Arrays psit_nG: 281.81 MiB
      Eigensolver: 18.27 MiB
      Projections: 2.71 MiB
      Projectors: 4.40 MiB
      PW-descriptor: 2.71 MiB

Total number of cores used: 64
Parallelization over k-points: 16
Domain decomposition: 2 x 2 x 1

Number of atoms: 28
Number of atomic orbitals: 148
Number of bands in calculation: 112
Number of valence electrons: 180
Bands to converge: occupied

... initialized

Initializing position-dependent things.

Density initialized from atomic densities
Creating initial wave functions:
  112 bands from LCAO basis set

                                           
                                           
                                           
                                           
                                           
               O     O  P  O               
            PO           OMn     O         
                  O          MO            
            O        Li O                  
             Mn  Mn          OP            
         O       O Li O                    
         Li     O P         O              
       Li                                  
                                           
                                           
                                           
                                           

Positions:
   0 O     -1.280122   -2.495595   -1.112331    ( 0.0000,  0.0000,  0.0000)
   1 O     -3.023238    2.918858    1.191723    ( 0.0000,  0.0000,  0.0000)
   2 O      1.997451    0.467212    1.441442    ( 0.0000,  0.0000,  0.0000)
   3 O      3.740343   -0.043905   -0.862614    ( 0.0000,  0.0000,  0.0000)
   4 O      1.997419    2.918835    1.441465    ( 0.0000,  0.0000,  0.0000)
   5 O      3.740372   -2.495531   -0.862587    ( 0.0000,  0.0000,  0.0000)
   6 O     -1.280154   -0.043891   -1.112309    ( 0.0000,  0.0000,  0.0000)
   7 O     -3.023210    0.467136    1.191750    ( 0.0000,  0.0000,  0.0000)
   8 O     -4.147405   -1.269737   -0.856207    ( 0.0000,  0.0000,  0.0000)
   9 O     -0.155894    1.692986    1.447725    ( 0.0000,  0.0000,  0.0000)
  10 O      4.864578    1.693016    1.185324    ( 0.0000,  0.0000,  0.0000)
  11 O      0.873163   -1.269706   -1.118625    ( 0.0000,  0.0000,  0.0000)
  12 Mn    -2.437108   -1.269902    0.302197    ( 0.0000,  0.0000,  1.0000)
  13 Mn    -1.866187    1.693156   -2.001927    ( 0.0000,  0.0000, -1.0000)
  14 Mn     3.154299    1.693181    0.026917    ( 0.0000,  0.0000, -1.0000)
  15 Mn     2.583444   -1.269877    2.331074    ( 0.0000,  0.0000,  1.0000)
  16 P     -0.543052   -1.269720   -1.734187    ( 0.0000,  0.0000,  0.0000)
  17 P     -3.760282    1.692974    0.569859    ( 0.0000,  0.0000,  0.0000)
  18 P      1.260300    1.693000    2.063344    ( 0.0000,  0.0000,  0.0000)
  19 P      4.467470   -1.269695   -0.240696    ( 0.0000,  0.0000,  0.0000)
  20 O     -0.544413   -1.269738    1.348523    ( 0.0000,  0.0000,  0.0000)
  21 O     -3.758895    1.692992   -0.955558    ( 0.0000,  0.0000,  0.0000)
  22 O      1.261690    1.693018   -1.019367    ( 0.0000,  0.0000,  0.0000)
  23 O      4.476045   -1.269713    1.284716    ( 0.0000,  0.0000,  0.0000)
  24 Li    -4.662027   -2.751322   -2.139440    ( 0.0000,  0.0000,  0.0000)
  25 Li     0.358703   -2.751277    0.164614    ( 0.0000,  0.0000,  0.0000)
  26 Li    -4.662011    0.211617   -2.139439    ( 0.0000,  0.0000,  0.0000)
  27 Li     0.358720    0.211628    0.164615    ( 0.0000,  0.0000,  0.0000)

Unit cell:
           periodic     x           y           z      points  spacing
  1. axis:    yes   10.041096    0.000054   -0.000022    60     0.1674
  2. axis:    yes    0.000032    5.925857    0.000001    35     0.1693
  3. axis:    yes   -0.000010    0.000001    4.608134    27     0.1707

  Lengths:  10.041096   5.925857   4.608134
  Angles:   89.999974  90.000250  89.999381

Effective grid spacing dv^(1/3) = 0.1691

                     log10-error:           total        iterations:
           time      wfs    density  force  energy       poisson  magmom
iter:   1  11:02:35                       -233.734846             +0.0000
iter:   2  11:02:55  -0.47  -0.95         -231.557095             +0.0019
iter:   3  11:03:15  -0.61  -1.00         -220.796720             +0.0020
iter:   4  11:03:35  -1.20  -1.31         -220.846441             +0.3299
iter:   5  11:03:55  -2.13  -1.40         -222.956001             +0.1972
iter:   6  11:04:15  -2.18  -1.38         -223.874000             +0.0453
iter:   7  11:04:35  -2.16  -1.50         -223.857042             -0.6571
iter:   8  11:04:54  -2.57  -1.65         -225.437637             -1.3478
iter:   9  11:05:14  -2.36  -1.87         -226.416373             -0.2048
iter:  10  11:05:34  -2.22  -1.99         -226.316715             +0.0025
iter:  11  11:05:54  -3.07  -2.08         -226.298536             -0.0088
iter:  12  11:06:13  -2.35  -2.10         -226.310447             -0.0061
iter:  13  11:06:33  -3.23  -2.54         -226.229818             -0.0025
iter:  14  11:06:53  -2.56  -2.67         -226.223622             -0.0002
iter:  15  11:07:13  -3.57  -2.64         -226.191297             -0.0004
iter:  16  11:07:32  -3.47  -2.83         -226.176365             -0.0002
iter:  17  11:07:52  -4.56  -3.10         -226.174941             -0.0001
iter:  18  11:08:12  -4.03  -3.19         -226.173583             -0.0000
iter:  19  11:08:31  -5.26  -3.28         -226.173235             -0.0000
iter:  20  11:08:51  -4.54  -3.33         -226.172947             +0.0000
iter:  21  11:09:11  -5.44  -3.40         -226.172721             -0.0000
iter:  22  11:09:31  -5.44  -3.45         -226.172640             -0.0000
iter:  23  11:09:50  -6.01  -3.69         -226.172471             +0.0000
iter:  24  11:10:10  -5.56  -3.72         -226.172443             -0.0000
iter:  25  11:10:30  -5.52  -3.78         -226.172491             +0.0000
iter:  26  11:10:49  -6.22  -3.85         -226.172409             +0.0000
iter:  27  11:11:09  -5.66  -3.89         -226.172476             +0.0000
iter:  28  11:11:29  -6.05  -4.11         -226.172435             +0.0000
iter:  29  11:11:49  -6.44  -4.23         -226.172437             +0.0000
iter:  30  11:12:08  -7.21  -4.32         -226.172425             +0.0000
iter:  31  11:12:33  -7.48  -4.43         -226.172419             +0.0000
iter:  32  11:12:53  -7.12  -4.50         -226.172415             +0.0000
iter:  33  11:13:17  -7.53  -4.55    -2.16-226.172413             +0.0000
iter:  34  11:13:41  -7.56  -4.60    -2.94-226.172413             +0.0000
iter:  35  11:14:06  -7.85  -4.67    -2.76-226.172414             +0.0000
iter:  36  11:14:25  -7.28  -4.73         -226.172413             -0.0000
iter:  37  11:14:50  -8.60  -5.25    -2.74-226.172413             +0.0000
iter:  38  11:15:14  -8.95  -5.34    -3.52-226.172413             +0.0000
iter:  39  11:15:38  -8.55  -5.44    -2.95-226.172413             +0.0000
iter:  40  11:16:03  -8.62  -5.65    -3.40-226.172413             +0.0000
iter:  41  11:16:27  -9.59  -5.89    -3.84-226.172413             +0.0000
iter:  42  11:16:52  -9.98  -5.97    -4.16-226.172413             -0.0000
iter:  43  11:17:16 -10.67  -6.03    -4.35-226.172413             -0.0000
iter:  44  11:17:40 -10.83  -6.08    -4.38-226.172413             +0.0000
iter:  45  11:18:05 -10.98  -6.12    -4.35-226.172413             -0.0000
iter:  46  11:18:29 -11.01  -6.21    -3.95-226.172413             +0.0000
iter:  47  11:18:53 -11.18  -6.38    -4.63-226.172413             -0.0000
iter:  48  11:19:18 -11.23  -6.44    -4.77-226.172413             -0.0000
iter:  49  11:19:42 -10.61  -6.51    -4.29-226.172413             +0.0000
iter:  50  11:20:07 -11.35  -6.74    -4.72-226.172413             +0.0000
iter:  51  11:20:31 -11.97  -6.79    -4.85-226.172413             +0.0000
iter:  52  11:20:55 -11.58  -6.87    -4.61-226.172413             +0.0000
iter:  53  11:21:20 -12.08  -7.19    -5.01-226.172413             +0.0000
iter:  54  11:21:44 -13.43  -7.26    -5.75-226.172413             +0.0000
iter:  55  11:22:08 -12.41  -7.30    -5.08-226.172413             +0.0000
iter:  56  11:22:33 -13.12  -7.68    -5.46-226.172413             +0.0000
iter:  57  11:22:57 -13.44  -7.83    -5.72-226.172413             +0.0000
iter:  58  11:23:21 -13.93  -7.87    -5.51-226.172413             +0.0000
iter:  59  11:23:46 -14.69  -8.22    -6.26-226.172413             +0.0000

Converged after 59 iterations.

Dipole moment: (18.316450, -2.315906, -4.525363) |e|*Ang

Total magnetic moment: (0.000000, 0.000000, 0.000000)
Local magnetic moments:
   0 O  ( 0.000000,  0.000000, -0.001875)
   1 O  ( 0.000000,  0.000000,  0.001690)
   2 O  ( 0.000000,  0.000000,  0.001840)
   3 O  ( 0.000000,  0.000000, -0.001594)
   4 O  ( 0.000000,  0.000000,  0.001834)
   5 O  ( 0.000000,  0.000000, -0.001589)
   6 O  ( 0.000000,  0.000000, -0.001880)
   7 O  ( 0.000000,  0.000000,  0.001695)
   8 O  ( 0.000000,  0.000000,  0.031372)
   9 O  ( 0.000000,  0.000000, -0.030974)
  10 O  ( 0.000000,  0.000000, -0.031271)
  11 O  ( 0.000000,  0.000000,  0.031190)
  12 Mn ( 0.000000,  0.000000,  4.395617)
  13 Mn ( 0.000000,  0.000000, -4.395830)
  14 Mn ( 0.000000,  0.000000, -4.395881)
  15 Mn ( 0.000000,  0.000000,  4.395528)
  16 P  ( 0.000000,  0.000000,  0.000852)
  17 P  ( 0.000000,  0.000000, -0.000822)
  18 P  ( 0.000000,  0.000000, -0.000884)
  19 P  ( 0.000000,  0.000000,  0.000689)
  20 O  ( 0.000000,  0.000000,  0.028289)
  21 O  ( 0.000000,  0.000000, -0.028436)
  22 O  ( 0.000000,  0.000000, -0.028443)
  23 O  ( 0.000000,  0.000000,  0.028664)
  24 Li ( 0.000000,  0.000000,  0.000022)
  25 Li ( 0.000000,  0.000000, -0.000001)
  26 Li ( 0.000000,  0.000000,  0.000022)
  27 Li ( 0.000000,  0.000000, -0.000001)

Energy contributions relative to reference atoms: (reference = -196157.275402)

Kinetic:       +277.608666
Potential:     -240.948934
External:        +0.000000
XC:            -264.720576
Entropy (-ST):   -0.000000
Local:           +1.888432
--------------------------
Free energy:   -226.172413
Extrapolated:  -226.172413

Spin contamination: 9.455501 electrons
Showing only first 2 kpts
                      Up                     Down
 Kpt  Band  Eigenvalues  Occupancy  Eigenvalues  Occupancy
  0    88      6.52791    0.00694      6.52254    0.00694
  0    89      6.57616    0.00694      6.56282    0.00694
  0    90      8.41564    0.00000      8.41536    0.00000
  0    91      8.45106    0.00000      8.45600    0.00000

  1    88      6.56444    0.00694      6.56070    0.00694
  1    89      6.60971    0.00694      6.59499    0.00694
  1    90      8.37243    0.00000      8.37131    0.00000
  1    91      8.40752    0.00000      8.41304    0.00000


Fermi level: 7.61125

Gap: 1.681 eV
Transition (v -> c):
  (s=0, k=69, n=89, [-0.08, 0.42, -0.12]) -> (s=1, k=58, n=90, [-0.08, -0.08, 0.12])
Writing to born-0.01-19x-.gpw (mode='all')

Timing:                              incl.     excl.
-----------------------------------------------------------
Hamiltonian:                         0.227     0.002   0.0% |
 Atomic:                             0.067     0.067   0.0% |
  XC Correction:                     0.000     0.000   0.0% |
 Calculate atomic Hamiltonians:      0.073     0.073   0.0% |
 Communicate:                        0.002     0.002   0.0% |
 Initialize Hamiltonian:             0.000     0.000   0.0% |
 Poisson:                            0.001     0.001   0.0% |
 XC 3D grid:                         0.083     0.083   0.0% |
LCAO initialization:                71.968     0.650   0.0% |
 LCAO eigensolver:                  19.791     0.002   0.0% |
  Calculate projections:             0.029     0.029   0.0% |
  DenseAtomicCorrection:             0.045     0.045   0.0% |
  Distribute overlap matrix:         0.009     0.009   0.0% |
  Orbital Layouts:                   0.431     0.431   0.0% |
  Potential matrix:                 19.181    19.181   0.6% |
  Sum over cells:                    0.094     0.094   0.0% |
 LCAO to grid:                      50.202    50.202   1.5% ||
 Set positions (LCAO WFS):           1.325     0.193   0.0% |
  Basic WFS set positions:           0.001     0.001   0.0% |
  Basis functions set positions:     0.000     0.000   0.0% |
  P tci:                             0.529     0.529   0.0% |
  ST tci:                            0.384     0.384   0.0% |
  mktci:                             0.218     0.218   0.0% |
PWDescriptor:                        0.024     0.024   0.0% |
SCF-cycle:                        1291.849     3.461   0.1% |
 Davidson:                        1101.292   337.938   9.8% |---|
  Apply H:                          76.307    74.078   2.2% ||
   HMM T:                            2.229     2.229   0.1% |
  Subspace diag:                   159.591     0.168   0.0% |
   calc_h_matrix:                  102.486    26.641   0.8% |
    Apply H:                        75.845    73.625   2.1% ||
     HMM T:                          2.220     2.220   0.1% |
   diagonalize:                      8.027     8.027   0.2% |
   rotate_psi:                      48.910    48.910   1.4% ||
  calc. matrices:                  328.999   180.158   5.3% |-|
   Apply H:                        148.842   144.728   4.2% |-|
    HMM T:                           4.114     4.114   0.1% |
  diagonalize:                      92.626    92.626   2.7% ||
  rotate_psi:                      105.831   105.831   3.1% ||
 Density:                           46.514     0.001   0.0% |
  Atomic density matrices:           0.880     0.880   0.0% |
  Mix:                               6.076     6.076   0.2% |
  Multipole moments:                 0.021     0.021   0.0% |
  Pseudo density:                   39.536    39.535   1.2% |
   Symmetrize density:               0.002     0.002   0.0% |
 Forces:                           125.934   125.934   3.7% ||
 Hamiltonian:                       12.585     0.126   0.0% |
  Atomic:                            2.989     2.989   0.1% |
   XC Correction:                    0.000     0.000   0.0% |
  Calculate atomic Hamiltonians:     4.368     4.368   0.1% |
  Communicate:                       0.116     0.116   0.0% |
  Poisson:                           0.034     0.034   0.0% |
  XC 3D grid:                        4.952     4.952   0.1% |
 Orthonormalize:                     2.062     0.003   0.0% |
  calc_s_matrix:                     0.242     0.242   0.0% |
  inverse-cholesky:                  0.073     0.073   0.0% |
  projections:                       1.315     1.315   0.0% |
  rotate_psi_s:                      0.429     0.429   0.0% |
Set symmetry:                        0.000     0.000   0.0% |
Other:                            2067.103  2067.103  60.2% |-----------------------|
-----------------------------------------------------------
Total:                                      3431.170 100.0%

Memory usage: 13.04 GiB
Date: Thu Mar 25 11:58:12 2021
