
  ___ ___ ___ _ _ _  
 |   |   |_  | | | | 
 | | | | | . | | | | 
 |__ |  _|___|_____|  20.10.1b1
 |___|_|             

User:   madkru@i013.nifl.fysik.dtu.dk
Date:   Sun Mar 21 13:23:06 2021
Arch:   x86_64
Pid:    27943
Python: 3.7.4
gpaw:   /home/niflheim/madkru/venv_folder/gpaw/gpaw (d0d1ca1c71)
_gpaw:  /home/niflheim/madkru/venv_folder/gpaw/build/lib.linux-x86_64-ivybridge-3.7/
        _gpaw.cpython-37m-x86_64-linux-gnu.so (4fd39e8b1e)
ase:    /home/niflheim/madkru/venv_folder/ase/ase (version 3.21.0b1-7e6c206a91)
numpy:  /home/niflheim/madkru/venv_folder/lib/python3.7/site-packages/numpy (version 1.19.4)
scipy:  /home/niflheim/madkru/venv_folder/lib/python3.7/site-packages/scipy (version 1.5.4)
libxc:  4.3.4
units:  Angstrom and eV
cores: 32
OMP_NUM_THREADS: 1

Input parameters:
  convergence: {bands: occupied,
                density: 0.0001,
                eigenstates: 4e-08,
                energy: 0.0005,
                forces: 1e-06}
  kpts: [6 6 4]
  mode: {ecut: 600.0,
         gammacentered: False,
         name: pw}
  occupations: {fixmagmom: False,
                name: fermi-dirac,
                width: 0.001}
  symmetry: {point_group: False,
             time_reversal: False}

System changes: positions, numbers, cell, pbc, initial_charges, initial_magmoms 

Initialize ...

O-setup:
  name: Oxygen
  id: 9b9d51c344dea68c822856295a461509
  Z: 8.0
  valence: 6
  core: 2
  charge: 0.0
  file: /home/modules/software/GPAW-setups/0.9.20000/O.LDA.gz
  compensation charges: gauss, rc=0.21, lmax=2
  cutoffs: 1.17(filt), 0.83(core),
  valence states:
                energy  radius
    2s(2.00)   -23.752   0.688
    2p(4.00)    -9.195   0.598
    *s           3.459   0.688
    *p          18.016   0.598
    *d           0.000   0.619

  Using partial waves for O as LCAO basis

Mn-setup:
  name: Manganese
  id: 0d715a8018be061a6e9ea6f2d364ac92
  Z: 25.0
  valence: 15
  core: 10
  charge: 0.0
  file: /home/modules/software/GPAW-setups/0.9.20000/Mn.LDA.gz
  compensation charges: gauss, rc=0.38, lmax=2
  cutoffs: 2.14(filt), 0.86(core),
  valence states:
                energy  radius
    3s(2.00)   -85.387   1.275
    4s(2.00)    -5.282   1.275
    3p(6.00)   -54.493   1.281
    4p(0.00)    -1.471   1.281
    3d(5.00)    -7.009   1.138
    *d          20.203   1.138

  Using partial waves for Mn as LCAO basis

P-setup:
  name: Phosphorus
  id: a5561c299094968922a179ab894d2e2d
  Z: 15.0
  valence: 5
  core: 10
  charge: 0.0
  file: /home/modules/software/GPAW-setups/0.9.20000/P.LDA.gz
  compensation charges: gauss, rc=0.30, lmax=2
  cutoffs: 1.69(filt), 1.81(core),
  valence states:
                energy  radius
    3s(2.00)   -14.015   0.953
    3p(3.00)    -5.596   0.953
    *s          13.197   0.953
    *p          21.615   0.953
    *d           0.000   0.953

  Using partial waves for P as LCAO basis

Li-setup:
  name: Lithium
  id: b73562207f97a71b6967473b66fe8b65
  Z: 3.0
  valence: 1
  core: 2
  charge: 0.0
  file: /home/modules/software/GPAW-setups/0.9.20000/Li.LDA.gz
  compensation charges: gauss, rc=0.33, lmax=2
  cutoffs: 1.91(filt), 2.55(core),
  valence states:
                energy  radius
    2s(1.00)    -2.874   1.058
    2p(0.00)    -1.126   1.058
    *s          24.338   1.058

  Using partial waves for Li as LCAO basis

Reference energy: -196157.275402

Spin-polarized calculation.
Magnetic moment: 0.000000

Convergence criteria:
  Maximum total energy change: 0.0005 eV / electron
  Maximum integral of absolute density change: 0.0001 electrons
  Maximum integral of absolute eigenstate change: 4e-08 eV^2
  Maximum change in atomic force: 1e-06 eV / Ang
  Maximum number of iterations: 333

Symmetries present (total): 1

  ( 1  0  0)
  ( 0  1  0)
  ( 0  0  1)

144 k-points: 6 x 6 x 4 Monkhorst-Pack grid
144 k-points in the irreducible part of the Brillouin zone
       k-points in crystal coordinates                weights
   0:    -0.41666667   -0.41666667   -0.37500000          1/144
   1:    -0.41666667   -0.41666667   -0.12500000          1/144
   2:    -0.41666667   -0.41666667    0.12500000          1/144
   3:    -0.41666667   -0.41666667    0.37500000          1/144
   4:    -0.41666667   -0.25000000   -0.37500000          1/144
   5:    -0.41666667   -0.25000000   -0.12500000          1/144
   6:    -0.41666667   -0.25000000    0.12500000          1/144
   7:    -0.41666667   -0.25000000    0.37500000          1/144
   8:    -0.41666667   -0.08333333   -0.37500000          1/144
   9:    -0.41666667   -0.08333333   -0.12500000          1/144
          ...
 143:     0.41666667    0.41666667    0.37500000          1/144

Wave functions: Plane wave expansion
  Cutoff energy: 600.000 eV
  Number of coefficients (min, max): 9132, 9161
  Pulay-stress correction: 0.000000 eV/Ang^3 (de/decut=0.000000)
  Using FFTW library
  ScaLapack parameters: grid=1x1, blocksize=None
  Wavefunction extrapolation:
    Improved wavefunction reuse through dual PAW basis 

  Fermi-Dirac: width=0.0010 eV

Eigensolver
   Davidson(niter=2, smin=None, normalize=True) 

Densities:
  Coarse grid: 60*35*27 grid
  Fine grid: 120*70*54 grid
  Total Charge: 0.000000 

Density mixing:
  Method: difference
  Backend: pulay
  Linear mixing parameter: 0.05
  Mixing with 5 old densities
  Damping of long wave oscillations: 50 

Hamiltonian:
  XC and Coulomb potentials evaluated on a 120*70*54 grid
  Using the LDA Exchange-Correlation functional
 

Memory estimate:
  Process memory now: 12488.68 MiB
  Calculator: 342.26 MiB
    Density: 19.13 MiB
      Arrays: 7.57 MiB
      Localized functions: 8.54 MiB
      Mixer: 3.03 MiB
    Hamiltonian: 5.87 MiB
      Arrays: 5.62 MiB
      XC: 0.00 MiB
      Poisson: 0.00 MiB
      vbar: 0.25 MiB
    Wavefunctions: 317.25 MiB
      Arrays psit_nG: 281.81 MiB
      Eigensolver: 18.27 MiB
      Projections: 5.41 MiB
      Projectors: 8.81 MiB
      PW-descriptor: 2.95 MiB

Total number of cores used: 32
Parallelization over k-points: 16
Domain decomposition: 2 x 1 x 1

Number of atoms: 28
Number of atomic orbitals: 148
Number of bands in calculation: 112
Number of valence electrons: 180
Bands to converge: occupied

... initialized

Initializing position-dependent things.

Density initialized from atomic densities
Creating initial wave functions:
  112 bands from LCAO basis set

                                           
                                           
                                           
                                           
                                           
               O     O  P  O               
            PO           OMn     O         
                  O          MO            
            O        Li O                  
             Mn  Mn          OP            
         O       O Li O                    
         Li     O P         O              
       Li                                  
                                           
                                           
                                           
                                           

Positions:
   0 O     -1.280122   -2.495595   -1.112331    ( 0.0000,  0.0000,  0.0000)
   1 O     -3.023238    2.918858    1.191723    ( 0.0000,  0.0000,  0.0000)
   2 O      2.007451    0.467212    1.441442    ( 0.0000,  0.0000,  0.0000)
   3 O      3.740343   -0.043905   -0.862614    ( 0.0000,  0.0000,  0.0000)
   4 O      1.997419    2.918835    1.441465    ( 0.0000,  0.0000,  0.0000)
   5 O      3.740372   -2.495531   -0.862587    ( 0.0000,  0.0000,  0.0000)
   6 O     -1.280154   -0.043891   -1.112309    ( 0.0000,  0.0000,  0.0000)
   7 O     -3.023210    0.467136    1.191750    ( 0.0000,  0.0000,  0.0000)
   8 O     -4.147405   -1.269737   -0.856207    ( 0.0000,  0.0000,  0.0000)
   9 O     -0.155894    1.692986    1.447725    ( 0.0000,  0.0000,  0.0000)
  10 O      4.864578    1.693016    1.185324    ( 0.0000,  0.0000,  0.0000)
  11 O      0.873163   -1.269706   -1.118625    ( 0.0000,  0.0000,  0.0000)
  12 Mn    -2.437108   -1.269902    0.302197    ( 0.0000,  0.0000,  1.0000)
  13 Mn    -1.866187    1.693156   -2.001927    ( 0.0000,  0.0000, -1.0000)
  14 Mn     3.154299    1.693181    0.026917    ( 0.0000,  0.0000, -1.0000)
  15 Mn     2.583444   -1.269877    2.331074    ( 0.0000,  0.0000,  1.0000)
  16 P     -0.543052   -1.269720   -1.734187    ( 0.0000,  0.0000,  0.0000)
  17 P     -3.760282    1.692974    0.569859    ( 0.0000,  0.0000,  0.0000)
  18 P      1.260300    1.693000    2.063344    ( 0.0000,  0.0000,  0.0000)
  19 P      4.477470   -1.269695   -0.240696    ( 0.0000,  0.0000,  0.0000)
  20 O     -0.544413   -1.269738    1.348523    ( 0.0000,  0.0000,  0.0000)
  21 O     -3.758895    1.692992   -0.955558    ( 0.0000,  0.0000,  0.0000)
  22 O      1.261690    1.693018   -1.019367    ( 0.0000,  0.0000,  0.0000)
  23 O      4.476045   -1.269713    1.284716    ( 0.0000,  0.0000,  0.0000)
  24 Li    -4.662027   -2.751322   -2.139440    ( 0.0000,  0.0000,  0.0000)
  25 Li     0.358703   -2.751277    0.164614    ( 0.0000,  0.0000,  0.0000)
  26 Li    -4.662011    0.211617   -2.139439    ( 0.0000,  0.0000,  0.0000)
  27 Li     0.358720    0.211628    0.164615    ( 0.0000,  0.0000,  0.0000)

Unit cell:
           periodic     x           y           z      points  spacing
  1. axis:    yes   10.041096    0.000054   -0.000022    60     0.1674
  2. axis:    yes    0.000032    5.925857    0.000001    35     0.1693
  3. axis:    yes   -0.000010    0.000001    4.608134    27     0.1707

  Lengths:  10.041096   5.925857   4.608134
  Angles:   89.999974  90.000250  89.999381

Effective grid spacing dv^(1/3) = 0.1691

                     log10-error:           total        iterations:
           time      wfs    density  force  energy       poisson  magmom
iter:   1  13:26:09                       -233.731161             +0.0000
iter:   2  13:26:45  -0.47  -0.95         -231.544827             +0.0009
iter:   3  13:27:21  -0.61  -1.00         -220.803551             +0.0009
iter:   4  13:27:57  -1.17  -1.31         -220.749935             -0.0756
iter:   5  13:28:33  -2.11  -1.41         -222.822684             -0.0010
iter:   6  13:29:10  -2.15  -1.39         -222.900283             -0.0635
iter:   7  13:29:46  -2.06  -1.56         -223.508974             -0.1219
iter:   8  13:30:22  -2.40  -1.81         -225.651319             -0.2107
iter:   9  13:30:58  -2.23  -1.92         -226.471368             -0.0725
iter:  10  13:31:34  -2.55  -1.99         -226.422217             -0.0168
iter:  11  13:32:10  -3.10  -2.02         -226.327999             -0.0073
iter:  12  13:32:47  -2.24  -2.11         -226.266097             -0.0035
iter:  13  13:33:23  -3.37  -2.48         -226.201025             -0.0026
iter:  14  13:33:59  -2.79  -2.57         -226.205227             -0.0004
iter:  15  13:34:35  -3.82  -2.94         -226.181577             -0.0001
iter:  16  13:35:11  -4.55  -2.99         -226.178697             -0.0001
iter:  17  13:35:47  -4.62  -3.04         -226.176768             +0.0000
iter:  18  13:36:23  -4.03  -3.16         -226.175723             -0.0000
iter:  19  13:36:59  -4.46  -3.20         -226.175583             +0.0000
iter:  20  13:37:35  -5.67  -3.43         -226.175339             +0.0000
iter:  21  13:38:11  -5.56  -3.45         -226.175080             -0.0000
iter:  22  13:38:47  -5.27  -3.50         -226.175034             -0.0000
iter:  23  13:39:23  -5.65  -3.56         -226.174950             -0.0000
iter:  24  13:39:59  -5.77  -3.61         -226.174862             -0.0000
iter:  25  13:40:36  -5.91  -3.67         -226.174789             -0.0000
iter:  26  13:41:12  -5.83  -3.76         -226.174767             -0.0000
iter:  27  13:41:48  -6.04  -3.81         -226.174802             -0.0000
iter:  28  13:42:24  -5.82  -3.91         -226.174708             -0.0000
iter:  29  13:43:00  -6.62  -4.29         -226.174713             -0.0000
iter:  30  13:43:36  -6.94  -4.36         -226.174699             -0.0000
iter:  31  13:44:12  -6.85  -4.47         -226.174695             -0.0000
iter:  32  13:44:48  -6.96  -4.60         -226.174693             -0.0000
iter:  33  13:45:33  -8.05  -4.74         -226.174692             -0.0000
iter:  34  13:46:18  -7.66  -4.79    -2.55-226.174691             +0.0000
iter:  35  13:47:04  -8.37  -4.92    -3.14-226.174691             -0.0000
iter:  36  13:47:49  -7.61  -4.98    -2.60-226.174691             -0.0000
iter:  37  13:48:34  -8.33  -5.18    -3.14-226.174690             -0.0000
iter:  38  13:49:19  -8.91  -5.31    -3.28-226.174690             +0.0000
iter:  39  13:50:04  -9.50  -5.35    -3.33-226.174690             +0.0000
iter:  40  13:50:50  -8.68  -5.44    -3.44-226.174690             +0.0000
iter:  41  13:51:35  -9.75  -5.73    -3.95-226.174690             +0.0000
iter:  42  13:52:20 -10.40  -5.77    -3.92-226.174690             -0.0000
iter:  43  13:53:05  -9.85  -5.88    -3.66-226.174690             -0.0000
iter:  44  13:53:50 -10.23  -5.96    -3.92-226.174690             -0.0000
iter:  45  13:54:36 -10.24  -6.06    -3.83-226.174690             +0.0000
iter:  46  13:55:21 -11.03  -6.28    -4.50-226.174690             +0.0000
iter:  47  13:56:06 -11.34  -6.38    -4.64-226.174690             +0.0000
iter:  48  13:56:52 -11.06  -6.44    -4.26-226.174690             -0.0000
iter:  49  13:57:37 -11.60  -6.77    -4.66-226.174690             -0.0000
iter:  50  13:58:22 -11.73  -6.84    -4.52-226.174690             -0.0000
iter:  51  13:59:07 -12.54  -6.99    -4.88-226.174690             -0.0000
iter:  52  13:59:53 -12.43  -7.09    -5.05-226.174690             -0.0000
iter:  53  14:00:38 -13.17  -7.14    -5.51-226.174690             -0.0000
iter:  54  14:01:23 -12.53  -7.18    -5.08-226.174690             -0.0000
iter:  55  14:02:09 -13.40  -7.38    -5.72-226.174690             -0.0000
iter:  56  14:02:54 -12.59  -7.46    -5.23-226.174690             +0.0000
iter:  57  14:03:39 -13.96  -7.72    -5.60-226.174690             -0.0000
iter:  58  14:04:24 -14.03  -7.80    -5.65-226.174690             -0.0000
iter:  59  14:05:10 -13.69  -7.94    -5.73-226.174690             +0.0000
iter:  60  14:05:55 -14.08  -8.09    -6.10-226.174690             +0.0000

Converged after 60 iterations.

Dipole moment: (18.326217, -2.311437, -4.524795) |e|*Ang

Total magnetic moment: (0.000000, 0.000000, 0.000000)
Local magnetic moments:
   0 O  ( 0.000000,  0.000000, -0.001829)
   1 O  ( 0.000000,  0.000000,  0.001792)
   2 O  ( 0.000000,  0.000000,  0.001789)
   3 O  ( 0.000000,  0.000000, -0.001792)
   4 O  ( 0.000000,  0.000000,  0.001789)
   5 O  ( 0.000000,  0.000000, -0.001741)
   6 O  ( 0.000000,  0.000000, -0.001837)
   7 O  ( 0.000000,  0.000000,  0.001797)
   8 O  ( 0.000000,  0.000000,  0.031157)
   9 O  ( 0.000000,  0.000000, -0.030967)
  10 O  ( 0.000000,  0.000000, -0.031093)
  11 O  ( 0.000000,  0.000000,  0.031042)
  12 Mn ( 0.000000,  0.000000,  4.395745)
  13 Mn ( 0.000000,  0.000000, -4.395759)
  14 Mn ( 0.000000,  0.000000, -4.394888)
  15 Mn ( 0.000000,  0.000000,  4.394691)
  16 P  ( 0.000000,  0.000000,  0.000881)
  17 P  ( 0.000000,  0.000000, -0.000874)
  18 P  ( 0.000000,  0.000000, -0.000901)
  19 P  ( 0.000000,  0.000000,  0.000855)
  20 O  ( 0.000000,  0.000000,  0.028392)
  21 O  ( 0.000000,  0.000000, -0.028461)
  22 O  ( 0.000000,  0.000000, -0.028379)
  23 O  ( 0.000000,  0.000000,  0.028456)
  24 Li ( 0.000000,  0.000000, -0.000001)
  25 Li ( 0.000000,  0.000000,  0.000005)
  26 Li ( 0.000000,  0.000000,  0.000000)
  27 Li ( 0.000000,  0.000000, -0.000007)

Energy contributions relative to reference atoms: (reference = -196157.275402)

Kinetic:       +277.358532
Potential:     -240.765484
External:        +0.000000
XC:            -264.656533
Entropy (-ST):   -0.000000
Local:           +1.888795
--------------------------
Free energy:   -226.174690
Extrapolated:  -226.174690

Spin contamination: 9.454184 electrons
Showing only first 2 kpts
                      Up                     Down
 Kpt  Band  Eigenvalues  Occupancy  Eigenvalues  Occupancy
  0    88      6.53363    0.00694      6.53032    0.00694
  0    89      6.56818    0.00694      6.56703    0.00694
  0    90      8.42776    0.00000      8.42792    0.00000
  0    91      8.45099    0.00000      8.45237    0.00000

  1    88      6.57218    0.00694      6.56802    0.00694
  1    89      6.60004    0.00694      6.59980    0.00694
  1    90      8.38452    0.00000      8.38425    0.00000
  1    91      8.40952    0.00000      8.40889    0.00000


Fermi level: 7.62239

Gap: 1.697 eV
Transition (v -> c):
  (s=0, k=93, n=89, [0.08, 0.42, -0.12]) -> (s=0, k=81, n=90, [0.08, -0.08, -0.12])
Writing to born-0.01-2x+.gpw (mode='all')

Timing:                              incl.     excl.
-----------------------------------------------------------
Hamiltonian:                         0.355     0.002   0.0% |
 Atomic:                             0.053     0.053   0.0% |
  XC Correction:                     0.000     0.000   0.0% |
 Calculate atomic Hamiltonians:      0.142     0.142   0.0% |
 Communicate:                        0.001     0.001   0.0% |
 Initialize Hamiltonian:             0.000     0.000   0.0% |
 Poisson:                            0.001     0.001   0.0% |
 XC 3D grid:                         0.155     0.155   0.0% |
LCAO initialization:               141.384     0.641   0.0% |
 LCAO eigensolver:                  37.852     0.002   0.0% |
  Calculate projections:             0.056     0.056   0.0% |
  DenseAtomicCorrection:             0.087     0.087   0.0% |
  Distribute overlap matrix:         0.010     0.010   0.0% |
  Orbital Layouts:                   0.338     0.338   0.0% |
  Potential matrix:                 37.273    37.273   0.6% |
  Sum over cells:                    0.086     0.086   0.0% |
 LCAO to grid:                     100.565   100.565   1.7% ||
 Set positions (LCAO WFS):           2.325     0.371   0.0% |
  Basic WFS set positions:           0.001     0.001   0.0% |
  Basis functions set positions:     0.000     0.000   0.0% |
  P tci:                             1.042     1.042   0.0% |
  ST tci:                            0.696     0.696   0.0% |
  mktci:                             0.214     0.214   0.0% |
PWDescriptor:                        0.023     0.023   0.0% |
SCF-cycle:                        2425.436     7.428   0.1% |
 Davidson:                        2051.375   654.166  11.1% |---|
  Apply H:                         147.334   142.691   2.4% ||
   HMM T:                            4.643     4.643   0.1% |
  Subspace diag:                   305.365     0.181   0.0% |
   calc_h_matrix:                  199.286    53.435   0.9% |
    Apply H:                       145.851   141.282   2.4% ||
     HMM T:                          4.569     4.569   0.1% |
   diagonalize:                      7.123     7.123   0.1% |
   rotate_psi:                      98.775    98.775   1.7% ||
  calc. matrices:                  648.442   360.116   6.1% |-|
   Apply H:                        288.326   279.589   4.8% |-|
    HMM T:                           8.736     8.736   0.1% |
  diagonalize:                      94.156    94.156   1.6% ||
  rotate_psi:                      201.913   201.913   3.4% ||
 Density:                           82.821     0.002   0.0% |
  Atomic density matrices:           1.555     1.555   0.0% |
  Mix:                              11.364    11.364   0.2% |
  Multipole moments:                 0.034     0.034   0.0% |
  Pseudo density:                   69.866    69.864   1.2% |
   Symmetrize density:               0.002     0.002   0.0% |
 Forces:                           258.577   258.577   4.4% |-|
 Hamiltonian:                       21.262     0.142   0.0% |
  Atomic:                            3.027     3.027   0.1% |
   XC Correction:                    0.000     0.000   0.0% |
  Calculate atomic Hamiltonians:     8.548     8.548   0.1% |
  Communicate:                       0.098     0.098   0.0% |
  Poisson:                           0.070     0.070   0.0% |
  XC 3D grid:                        9.378     9.378   0.2% |
 Orthonormalize:                     3.973     0.003   0.0% |
  calc_s_matrix:                     0.478     0.478   0.0% |
  inverse-cholesky:                  0.054     0.054   0.0% |
  projections:                       2.588     2.588   0.0% |
  rotate_psi_s:                      0.850     0.850   0.0% |
Set symmetry:                        0.000     0.000   0.0% |
Other:                            3303.810  3303.810  56.3% |----------------------|
-----------------------------------------------------------
Total:                                      5871.008 100.0%

Memory usage: 12.23 GiB
Date: Sun Mar 21 15:00:57 2021
