
  ___ ___ ___ _ _ _  
 |   |   |_  | | | | 
 | | | | | . | | | | 
 |__ |  _|___|_____|  20.10.1b1
 |___|_|             

User:   madkru@i008.nifl.fysik.dtu.dk
Date:   Thu Mar 25 13:29:40 2021
Arch:   x86_64
Pid:    26969
Python: 3.7.4
gpaw:   /home/niflheim/madkru/venv_folder/gpaw/gpaw (d224efde0f)
_gpaw:  /home/niflheim/madkru/venv_folder/gpaw/build/lib.linux-x86_64-ivybridge-3.7/
        _gpaw.cpython-37m-x86_64-linux-gnu.so (4fd39e8b1e)
ase:    /home/niflheim/madkru/venv_folder/ase/ase (version 3.21.0b1-4d5a73cb29)
numpy:  /home/niflheim/madkru/venv_folder/lib/python3.7/site-packages/numpy (version 1.19.4)
scipy:  /home/niflheim/madkru/venv_folder/lib/python3.7/site-packages/scipy (version 1.5.4)
libxc:  4.3.4
units:  Angstrom and eV
cores: 64
OMP_NUM_THREADS: 1

Input parameters:
  convergence: {bands: occupied,
                density: 0.0001,
                eigenstates: 4e-08,
                energy: 0.0005,
                forces: 1e-06}
  kpts: [6 6 4]
  mode: {ecut: 600.0,
         gammacentered: False,
         name: pw}
  occupations: {fixmagmom: False,
                name: fermi-dirac,
                width: 0.001}
  symmetry: {point_group: False,
             time_reversal: False}

System changes: positions, numbers, cell, pbc, initial_charges, initial_magmoms 

Initialize ...

O-setup:
  name: Oxygen
  id: 9b9d51c344dea68c822856295a461509
  Z: 8.0
  valence: 6
  core: 2
  charge: 0.0
  file: /home/modules/software/GPAW-setups/0.9.20000/O.LDA.gz
  compensation charges: gauss, rc=0.21, lmax=2
  cutoffs: 1.17(filt), 0.83(core),
  valence states:
                energy  radius
    2s(2.00)   -23.752   0.688
    2p(4.00)    -9.195   0.598
    *s           3.459   0.688
    *p          18.016   0.598
    *d           0.000   0.619

  Using partial waves for O as LCAO basis

Mn-setup:
  name: Manganese
  id: 0d715a8018be061a6e9ea6f2d364ac92
  Z: 25.0
  valence: 15
  core: 10
  charge: 0.0
  file: /home/modules/software/GPAW-setups/0.9.20000/Mn.LDA.gz
  compensation charges: gauss, rc=0.38, lmax=2
  cutoffs: 2.14(filt), 0.86(core),
  valence states:
                energy  radius
    3s(2.00)   -85.387   1.275
    4s(2.00)    -5.282   1.275
    3p(6.00)   -54.493   1.281
    4p(0.00)    -1.471   1.281
    3d(5.00)    -7.009   1.138
    *d          20.203   1.138

  Using partial waves for Mn as LCAO basis

P-setup:
  name: Phosphorus
  id: a5561c299094968922a179ab894d2e2d
  Z: 15.0
  valence: 5
  core: 10
  charge: 0.0
  file: /home/modules/software/GPAW-setups/0.9.20000/P.LDA.gz
  compensation charges: gauss, rc=0.30, lmax=2
  cutoffs: 1.69(filt), 1.81(core),
  valence states:
                energy  radius
    3s(2.00)   -14.015   0.953
    3p(3.00)    -5.596   0.953
    *s          13.197   0.953
    *p          21.615   0.953
    *d           0.000   0.953

  Using partial waves for P as LCAO basis

Li-setup:
  name: Lithium
  id: b73562207f97a71b6967473b66fe8b65
  Z: 3.0
  valence: 1
  core: 2
  charge: 0.0
  file: /home/modules/software/GPAW-setups/0.9.20000/Li.LDA.gz
  compensation charges: gauss, rc=0.33, lmax=2
  cutoffs: 1.91(filt), 2.55(core),
  valence states:
                energy  radius
    2s(1.00)    -2.874   1.058
    2p(0.00)    -1.126   1.058
    *s          24.338   1.058

  Using partial waves for Li as LCAO basis

Reference energy: -196157.275402

Spin-polarized calculation.
Magnetic moment: 0.000000

Convergence criteria:
  Maximum total energy change: 0.0005 eV / electron
  Maximum integral of absolute density change: 0.0001 electrons
  Maximum integral of absolute eigenstate change: 4e-08 eV^2
  Maximum change in atomic force: 1e-06 eV / Ang
  Maximum number of iterations: 333

Symmetries present (total): 1

  ( 1  0  0)
  ( 0  1  0)
  ( 0  0  1)

144 k-points: 6 x 6 x 4 Monkhorst-Pack grid
144 k-points in the irreducible part of the Brillouin zone
       k-points in crystal coordinates                weights
   0:    -0.41666667   -0.41666667   -0.37500000          1/144
   1:    -0.41666667   -0.41666667   -0.12500000          1/144
   2:    -0.41666667   -0.41666667    0.12500000          1/144
   3:    -0.41666667   -0.41666667    0.37500000          1/144
   4:    -0.41666667   -0.25000000   -0.37500000          1/144
   5:    -0.41666667   -0.25000000   -0.12500000          1/144
   6:    -0.41666667   -0.25000000    0.12500000          1/144
   7:    -0.41666667   -0.25000000    0.37500000          1/144
   8:    -0.41666667   -0.08333333   -0.37500000          1/144
   9:    -0.41666667   -0.08333333   -0.12500000          1/144
          ...
 143:     0.41666667    0.41666667    0.37500000          1/144

Wave functions: Plane wave expansion
  Cutoff energy: 600.000 eV
  Number of coefficients (min, max): 9132, 9161
  Pulay-stress correction: 0.000000 eV/Ang^3 (de/decut=0.000000)
  Using FFTW library
  ScaLapack parameters: grid=1x1, blocksize=None
  Wavefunction extrapolation:
    Improved wavefunction reuse through dual PAW basis 

  Fermi-Dirac: width=0.0010 eV

Eigensolver
   Davidson(niter=2, smin=None, normalize=True) 

Densities:
  Coarse grid: 60*35*27 grid
  Fine grid: 120*70*54 grid
  Total Charge: 0.000000 

Density mixing:
  Method: difference
  Backend: pulay
  Linear mixing parameter: 0.05
  Mixing with 5 old densities
  Damping of long wave oscillations: 50 

Hamiltonian:
  XC and Coulomb potentials evaluated on a 120*70*54 grid
  Using the LDA Exchange-Correlation functional
 

Memory estimate:
  Process memory now: 13417.57 MiB
  Calculator: 322.47 MiB
    Density: 9.62 MiB
      Arrays: 3.79 MiB
      Localized functions: 4.27 MiB
      Mixer: 1.56 MiB
    Hamiltonian: 2.94 MiB
      Arrays: 2.82 MiB
      XC: 0.00 MiB
      Poisson: 0.00 MiB
      vbar: 0.12 MiB
    Wavefunctions: 309.91 MiB
      Arrays psit_nG: 281.81 MiB
      Eigensolver: 18.27 MiB
      Projections: 2.71 MiB
      Projectors: 4.40 MiB
      PW-descriptor: 2.71 MiB

Total number of cores used: 64
Parallelization over k-points: 16
Domain decomposition: 2 x 2 x 1

Number of atoms: 28
Number of atomic orbitals: 148
Number of bands in calculation: 112
Number of valence electrons: 180
Bands to converge: occupied

... initialized

Initializing position-dependent things.

Density initialized from atomic densities
Creating initial wave functions:
  112 bands from LCAO basis set

                                           
                                           
                                           
                                           
                                           
               O     O  P  O               
            PO           OMn     O         
                  O          MO            
            O        Li O                  
             Mn  Mn          OP            
         O       O Li O                    
         Li     O P         O              
       Li                                  
                                           
                                           
                                           
                                           

Positions:
   0 O     -1.280122   -2.495595   -1.112331    ( 0.0000,  0.0000,  0.0000)
   1 O     -3.023238    2.918858    1.191723    ( 0.0000,  0.0000,  0.0000)
   2 O      1.997451    0.467212    1.441442    ( 0.0000,  0.0000,  0.0000)
   3 O      3.740343   -0.043905   -0.862614    ( 0.0000,  0.0000,  0.0000)
   4 O      1.997419    2.918835    1.441465    ( 0.0000,  0.0000,  0.0000)
   5 O      3.740372   -2.495531   -0.862587    ( 0.0000,  0.0000,  0.0000)
   6 O     -1.280154   -0.043891   -1.112309    ( 0.0000,  0.0000,  0.0000)
   7 O     -3.023210    0.467136    1.191750    ( 0.0000,  0.0000,  0.0000)
   8 O     -4.147405   -1.269737   -0.856207    ( 0.0000,  0.0000,  0.0000)
   9 O     -0.155894    1.692986    1.447725    ( 0.0000,  0.0000,  0.0000)
  10 O      4.864578    1.693016    1.185324    ( 0.0000,  0.0000,  0.0000)
  11 O      0.873163   -1.269706   -1.118625    ( 0.0000,  0.0000,  0.0000)
  12 Mn    -2.437108   -1.269902    0.302197    ( 0.0000,  0.0000,  1.0000)
  13 Mn    -1.866187    1.693156   -2.001927    ( 0.0000,  0.0000, -1.0000)
  14 Mn     3.154299    1.693181    0.026917    ( 0.0000,  0.0000, -1.0000)
  15 Mn     2.583444   -1.269877    2.331074    ( 0.0000,  0.0000,  1.0000)
  16 P     -0.543052   -1.269720   -1.734187    ( 0.0000,  0.0000,  0.0000)
  17 P     -3.760282    1.692974    0.569859    ( 0.0000,  0.0000,  0.0000)
  18 P      1.260300    1.693000    2.063344    ( 0.0000,  0.0000,  0.0000)
  19 P      4.477470   -1.269695   -0.230696    ( 0.0000,  0.0000,  0.0000)
  20 O     -0.544413   -1.269738    1.348523    ( 0.0000,  0.0000,  0.0000)
  21 O     -3.758895    1.692992   -0.955558    ( 0.0000,  0.0000,  0.0000)
  22 O      1.261690    1.693018   -1.019367    ( 0.0000,  0.0000,  0.0000)
  23 O      4.476045   -1.269713    1.284716    ( 0.0000,  0.0000,  0.0000)
  24 Li    -4.662027   -2.751322   -2.139440    ( 0.0000,  0.0000,  0.0000)
  25 Li     0.358703   -2.751277    0.164614    ( 0.0000,  0.0000,  0.0000)
  26 Li    -4.662011    0.211617   -2.139439    ( 0.0000,  0.0000,  0.0000)
  27 Li     0.358720    0.211628    0.164615    ( 0.0000,  0.0000,  0.0000)

Unit cell:
           periodic     x           y           z      points  spacing
  1. axis:    yes   10.041096    0.000054   -0.000022    60     0.1674
  2. axis:    yes    0.000032    5.925857    0.000001    35     0.1693
  3. axis:    yes   -0.000010    0.000001    4.608134    27     0.1707

  Lengths:  10.041096   5.925857   4.608134
  Angles:   89.999974  90.000250  89.999381

Effective grid spacing dv^(1/3) = 0.1691

                     log10-error:           total        iterations:
           time      wfs    density  force  energy       poisson  magmom
iter:   1  13:31:17                       -233.738321             +0.0000
iter:   2  13:31:36  -0.47  -0.95         -231.551287             +0.0025
iter:   3  13:31:56  -0.61  -1.00         -220.802889             +0.0026
iter:   4  13:32:16  -1.19  -1.31         -220.866409             +0.3194
iter:   5  13:32:35  -2.13  -1.40         -223.032247             +0.1736
iter:   6  13:32:55  -2.27  -1.38         -223.233246             +0.0864
iter:   7  13:33:15  -2.09  -1.55         -223.621212             -0.0562
iter:   8  13:33:35  -2.56  -1.76         -225.615677             -0.3883
iter:   9  13:33:54  -2.07  -1.94         -226.318480             +0.0567
iter:  10  13:34:14  -2.03  -2.08         -226.402406             -0.0109
iter:  11  13:34:34  -3.17  -2.25         -226.388160             -0.0033
iter:  12  13:34:54  -2.51  -2.26         -226.195527             +0.0002
iter:  13  13:35:13  -3.09  -2.47         -226.189459             -0.0007
iter:  14  13:35:33  -3.43  -2.83         -226.183202             -0.0002
iter:  15  13:35:53  -3.57  -2.91         -226.182986             -0.0000
iter:  16  13:36:12  -3.79  -3.05         -226.172198             -0.0000
iter:  17  13:36:32  -4.44  -3.21         -226.174129             -0.0000
iter:  18  13:36:52  -4.41  -3.39         -226.172090             -0.0000
iter:  19  13:37:11  -5.33  -3.80         -226.172062             -0.0000
iter:  20  13:37:31  -5.47  -3.86         -226.171931             -0.0000
iter:  21  13:37:51  -6.00  -3.99         -226.171983             -0.0000
iter:  22  13:38:10  -6.85  -4.01         -226.171960             -0.0000
iter:  23  13:38:30  -5.86  -4.10         -226.171949             -0.0000
iter:  24  13:38:50  -6.40  -4.24         -226.171913             -0.0000
iter:  25  13:39:09  -7.38  -4.31         -226.171913             -0.0000
iter:  26  13:39:34  -7.48  -4.36         -226.171913             +0.0000
iter:  27  13:39:53  -6.68  -4.42         -226.171912             +0.0000
iter:  28  13:40:13  -6.76  -4.46         -226.171910             +0.0000
iter:  29  13:40:37  -8.15  -4.55    -2.17-226.171909             +0.0000
iter:  30  13:40:57  -6.83  -4.57         -226.171910             -0.0000
iter:  31  13:41:17  -7.39  -4.85         -226.171908             +0.0000
iter:  32  13:41:41  -8.06  -5.06    -2.37-226.171907             +0.0000
iter:  33  13:42:05  -8.74  -5.14    -3.38-226.171907             +0.0000
iter:  34  13:42:30  -9.29  -5.20    -3.34-226.171907             +0.0000
iter:  35  13:42:54  -9.33  -5.26    -3.13-226.171907             +0.0000
iter:  36  13:43:18  -8.85  -5.34    -3.35-226.171907             +0.0000
iter:  37  13:43:43 -10.05  -5.43    -3.93-226.171907             +0.0000
iter:  38  13:44:07  -8.76  -5.47    -3.36-226.171907             -0.0000
iter:  39  13:44:31  -9.80  -5.84    -3.84-226.171907             -0.0000
iter:  40  13:44:56  -9.43  -5.90    -3.64-226.171907             -0.0000
iter:  41  13:45:20 -10.27  -6.01    -4.04-226.171907             -0.0000
iter:  42  13:45:44  -9.82  -6.05    -3.82-226.171907             -0.0000
iter:  43  13:46:09 -11.16  -6.14    -4.30-226.171907             -0.0000
iter:  44  13:46:33  -9.97  -6.17    -3.84-226.171907             -0.0000
iter:  45  13:46:57 -10.07  -6.39    -3.95-226.171907             -0.0000
iter:  46  13:47:22 -11.42  -6.65    -4.53-226.171907             -0.0000
iter:  47  13:47:46 -11.97  -6.77    -4.89-226.171907             -0.0000
iter:  48  13:48:10 -11.06  -6.90    -4.51-226.171907             -0.0000
iter:  49  13:48:34 -11.52  -7.09    -4.84-226.171907             -0.0000
iter:  50  13:48:59 -12.83  -7.30    -5.30-226.171907             -0.0000
iter:  51  13:49:23 -12.40  -7.34    -4.95-226.171907             -0.0000
iter:  52  13:49:47 -12.54  -7.48    -5.35-226.171907             -0.0000
iter:  53  13:50:12 -13.23  -7.51    -5.51-226.171907             -0.0000
iter:  54  13:50:36 -13.98  -7.57    -5.83-226.171907             -0.0000
iter:  55  13:51:01 -12.71  -7.61    -5.28-226.171907             -0.0000
iter:  56  13:51:25 -14.07  -7.88    -5.87-226.171907             -0.0000
iter:  57  13:51:49 -14.09  -7.93    -6.03-226.171907             -0.0000

Converged after 57 iterations.

Dipole moment: (18.326873, -2.299977, -4.659497) |e|*Ang

Total magnetic moment: (0.000000, 0.000000, -0.000000)
Local magnetic moments:
   0 O  ( 0.000000,  0.000000, -0.001812)
   1 O  ( 0.000000,  0.000000,  0.001829)
   2 O  ( 0.000000,  0.000000,  0.001838)
   3 O  ( 0.000000,  0.000000, -0.001992)
   4 O  ( 0.000000,  0.000000,  0.001833)
   5 O  ( 0.000000,  0.000000, -0.001987)
   6 O  ( 0.000000,  0.000000, -0.001817)
   7 O  ( 0.000000,  0.000000,  0.001834)
   8 O  ( 0.000000,  0.000000,  0.031385)
   9 O  ( 0.000000,  0.000000, -0.031087)
  10 O  ( 0.000000,  0.000000, -0.031074)
  11 O  ( 0.000000,  0.000000,  0.031202)
  12 Mn ( 0.000000,  0.000000,  4.395488)
  13 Mn ( 0.000000,  0.000000, -4.395748)
  14 Mn ( 0.000000,  0.000000, -4.395352)
  15 Mn ( 0.000000,  0.000000,  4.395749)
  16 P  ( 0.000000,  0.000000,  0.000865)
  17 P  ( 0.000000,  0.000000, -0.000867)
  18 P  ( 0.000000,  0.000000, -0.000885)
  19 P  ( 0.000000,  0.000000,  0.001030)
  20 O  ( 0.000000,  0.000000,  0.028370)
  21 O  ( 0.000000,  0.000000, -0.028416)
  22 O  ( 0.000000,  0.000000, -0.028441)
  23 O  ( 0.000000,  0.000000,  0.028036)
  24 Li ( 0.000000,  0.000000, -0.000003)
  25 Li ( 0.000000,  0.000000,  0.000000)
  26 Li ( 0.000000,  0.000000, -0.000003)
  27 Li ( 0.000000,  0.000000,  0.000000)

Energy contributions relative to reference atoms: (reference = -196157.275402)

Kinetic:       +277.623910
Potential:     -240.980414
External:        +0.000000
XC:            -264.703995
Entropy (-ST):   -0.000000
Local:           +1.888591
--------------------------
Free energy:   -226.171907
Extrapolated:  -226.171907

Spin contamination: 9.455090 electrons
Showing only first 2 kpts
                      Up                     Down
 Kpt  Band  Eigenvalues  Occupancy  Eigenvalues  Occupancy
  0    88      6.52768    0.00694      6.53506    0.00694
  0    89      6.56586    0.00694      6.56961    0.00694
  0    90      8.43067    0.00000      8.42689    0.00000
  0    91      8.45214    0.00000      8.44829    0.00000

  1    88      6.56514    0.00694      6.57341    0.00694
  1    89      6.59905    0.00694      6.60169    0.00694
  1    90      8.38685    0.00000      8.38366    0.00000
  1    91      8.40894    0.00000      8.40572    0.00000


Fermi level: 7.39994

Gap: 1.695 eV
Transition (v -> c):
  (s=1, k=49, n=89, [-0.08, -0.42, -0.12]) -> (s=1, k=62, n=90, [-0.08, 0.08, 0.12])
Writing to born-0.01-19z+.gpw (mode='all')

Timing:                              incl.     excl.
-----------------------------------------------------------
Hamiltonian:                         0.215     0.002   0.0% |
 Atomic:                             0.052     0.052   0.0% |
  XC Correction:                     0.000     0.000   0.0% |
 Calculate atomic Hamiltonians:      0.075     0.075   0.0% |
 Communicate:                        0.002     0.002   0.0% |
 Initialize Hamiltonian:             0.000     0.000   0.0% |
 Poisson:                            0.001     0.001   0.0% |
 XC 3D grid:                         0.084     0.084   0.0% |
LCAO initialization:                74.788     0.646   0.0% |
 LCAO eigensolver:                  20.005     0.002   0.0% |
  Calculate projections:             0.029     0.029   0.0% |
  DenseAtomicCorrection:             0.045     0.045   0.0% |
  Distribute overlap matrix:         0.009     0.009   0.0% |
  Orbital Layouts:                   0.432     0.432   0.0% |
  Potential matrix:                 19.396    19.396   0.6% |
  Sum over cells:                    0.093     0.093   0.0% |
 LCAO to grid:                      52.813    52.813   1.7% ||
 Set positions (LCAO WFS):           1.324     0.192   0.0% |
  Basic WFS set positions:           0.001     0.001   0.0% |
  Basis functions set positions:     0.000     0.000   0.0% |
  P tci:                             0.528     0.528   0.0% |
  ST tci:                            0.383     0.383   0.0% |
  mktci:                             0.219     0.219   0.0% |
PWDescriptor:                        0.023     0.023   0.0% |
SCF-cycle:                        1253.445     0.847   0.0% |
 Davidson:                        1065.071   326.185  10.2% |---|
  Apply H:                          73.924    71.771   2.3% ||
   HMM T:                            2.153     2.153   0.1% |
  Subspace diag:                   154.426     0.162   0.0% |
   calc_h_matrix:                   99.392    25.696   0.8% |
    Apply H:                        73.696    71.500   2.2% ||
     HMM T:                          2.196     2.196   0.1% |
   diagonalize:                      7.727     7.727   0.2% |
   rotate_psi:                      47.145    47.145   1.5% ||
  calc. matrices:                  318.671   174.263   5.5% |-|
   Apply H:                        144.409   140.324   4.4% |-|
    HMM T:                           4.085     4.085   0.1% |
  diagonalize:                      89.765    89.765   2.8% ||
  rotate_psi:                      102.100   102.100   3.2% ||
 Density:                           42.664     0.001   0.0% |
  Atomic density matrices:           0.962     0.962   0.0% |
  Mix:                               5.939     5.939   0.2% |
  Multipole moments:                 0.021     0.021   0.0% |
  Pseudo density:                   35.740    35.739   1.1% |
   Symmetrize density:               0.002     0.002   0.0% |
 Forces:                           130.702   130.702   4.1% |-|
 Hamiltonian:                       12.104     0.122   0.0% |
  Atomic:                            2.851     2.850   0.1% |
   XC Correction:                    0.000     0.000   0.0% |
  Calculate atomic Hamiltonians:     4.178     4.178   0.1% |
  Communicate:                       0.090     0.090   0.0% |
  Poisson:                           0.033     0.033   0.0% |
  XC 3D grid:                        4.831     4.831   0.2% |
 Orthonormalize:                     2.058     0.003   0.0% |
  calc_s_matrix:                     0.242     0.242   0.0% |
  inverse-cholesky:                  0.072     0.072   0.0% |
  projections:                       1.314     1.314   0.0% |
  rotate_psi_s:                      0.428     0.428   0.0% |
Set symmetry:                        0.000     0.000   0.0% |
Other:                            1859.426  1859.426  58.3% |----------------------|
-----------------------------------------------------------
Total:                                      3187.899 100.0%

Memory usage: 13.14 GiB
Date: Thu Mar 25 14:22:48 2021
