
  ___ ___ ___ _ _ _  
 |   |   |_  | | | | 
 | | | | | . | | | | 
 |__ |  _|___|_____|  20.10.1b1
 |___|_|             

User:   madkru@i013.nifl.fysik.dtu.dk
Date:   Sun Mar 21 15:08:28 2021
Arch:   x86_64
Pid:    27943
Python: 3.7.4
gpaw:   /home/niflheim/madkru/venv_folder/gpaw/gpaw (d0d1ca1c71)
_gpaw:  /home/niflheim/madkru/venv_folder/gpaw/build/lib.linux-x86_64-ivybridge-3.7/
        _gpaw.cpython-37m-x86_64-linux-gnu.so (4fd39e8b1e)
ase:    /home/niflheim/madkru/venv_folder/ase/ase (version 3.21.0b1-7e6c206a91)
numpy:  /home/niflheim/madkru/venv_folder/lib/python3.7/site-packages/numpy (version 1.19.4)
scipy:  /home/niflheim/madkru/venv_folder/lib/python3.7/site-packages/scipy (version 1.5.4)
libxc:  4.3.4
units:  Angstrom and eV
cores: 32
OMP_NUM_THREADS: 1

Input parameters:
  convergence: {bands: occupied,
                density: 0.0001,
                eigenstates: 4e-08,
                energy: 0.0005,
                forces: 1e-06}
  kpts: [6 6 4]
  mode: {ecut: 600.0,
         gammacentered: False,
         name: pw}
  occupations: {fixmagmom: False,
                name: fermi-dirac,
                width: 0.001}
  symmetry: {point_group: False,
             time_reversal: False}

System changes: positions, numbers, cell, pbc, initial_charges, initial_magmoms 

Initialize ...

O-setup:
  name: Oxygen
  id: 9b9d51c344dea68c822856295a461509
  Z: 8.0
  valence: 6
  core: 2
  charge: 0.0
  file: /home/modules/software/GPAW-setups/0.9.20000/O.LDA.gz
  compensation charges: gauss, rc=0.21, lmax=2
  cutoffs: 1.17(filt), 0.83(core),
  valence states:
                energy  radius
    2s(2.00)   -23.752   0.688
    2p(4.00)    -9.195   0.598
    *s           3.459   0.688
    *p          18.016   0.598
    *d           0.000   0.619

  Using partial waves for O as LCAO basis

Mn-setup:
  name: Manganese
  id: 0d715a8018be061a6e9ea6f2d364ac92
  Z: 25.0
  valence: 15
  core: 10
  charge: 0.0
  file: /home/modules/software/GPAW-setups/0.9.20000/Mn.LDA.gz
  compensation charges: gauss, rc=0.38, lmax=2
  cutoffs: 2.14(filt), 0.86(core),
  valence states:
                energy  radius
    3s(2.00)   -85.387   1.275
    4s(2.00)    -5.282   1.275
    3p(6.00)   -54.493   1.281
    4p(0.00)    -1.471   1.281
    3d(5.00)    -7.009   1.138
    *d          20.203   1.138

  Using partial waves for Mn as LCAO basis

P-setup:
  name: Phosphorus
  id: a5561c299094968922a179ab894d2e2d
  Z: 15.0
  valence: 5
  core: 10
  charge: 0.0
  file: /home/modules/software/GPAW-setups/0.9.20000/P.LDA.gz
  compensation charges: gauss, rc=0.30, lmax=2
  cutoffs: 1.69(filt), 1.81(core),
  valence states:
                energy  radius
    3s(2.00)   -14.015   0.953
    3p(3.00)    -5.596   0.953
    *s          13.197   0.953
    *p          21.615   0.953
    *d           0.000   0.953

  Using partial waves for P as LCAO basis

Li-setup:
  name: Lithium
  id: b73562207f97a71b6967473b66fe8b65
  Z: 3.0
  valence: 1
  core: 2
  charge: 0.0
  file: /home/modules/software/GPAW-setups/0.9.20000/Li.LDA.gz
  compensation charges: gauss, rc=0.33, lmax=2
  cutoffs: 1.91(filt), 2.55(core),
  valence states:
                energy  radius
    2s(1.00)    -2.874   1.058
    2p(0.00)    -1.126   1.058
    *s          24.338   1.058

  Using partial waves for Li as LCAO basis

Reference energy: -196157.275402

Spin-polarized calculation.
Magnetic moment: 0.000000

Convergence criteria:
  Maximum total energy change: 0.0005 eV / electron
  Maximum integral of absolute density change: 0.0001 electrons
  Maximum integral of absolute eigenstate change: 4e-08 eV^2
  Maximum change in atomic force: 1e-06 eV / Ang
  Maximum number of iterations: 333

Symmetries present (total): 1

  ( 1  0  0)
  ( 0  1  0)
  ( 0  0  1)

144 k-points: 6 x 6 x 4 Monkhorst-Pack grid
144 k-points in the irreducible part of the Brillouin zone
       k-points in crystal coordinates                weights
   0:    -0.41666667   -0.41666667   -0.37500000          1/144
   1:    -0.41666667   -0.41666667   -0.12500000          1/144
   2:    -0.41666667   -0.41666667    0.12500000          1/144
   3:    -0.41666667   -0.41666667    0.37500000          1/144
   4:    -0.41666667   -0.25000000   -0.37500000          1/144
   5:    -0.41666667   -0.25000000   -0.12500000          1/144
   6:    -0.41666667   -0.25000000    0.12500000          1/144
   7:    -0.41666667   -0.25000000    0.37500000          1/144
   8:    -0.41666667   -0.08333333   -0.37500000          1/144
   9:    -0.41666667   -0.08333333   -0.12500000          1/144
          ...
 143:     0.41666667    0.41666667    0.37500000          1/144

Wave functions: Plane wave expansion
  Cutoff energy: 600.000 eV
  Number of coefficients (min, max): 9132, 9161
  Pulay-stress correction: 0.000000 eV/Ang^3 (de/decut=0.000000)
  Using FFTW library
  ScaLapack parameters: grid=1x1, blocksize=None
  Wavefunction extrapolation:
    Improved wavefunction reuse through dual PAW basis 

  Fermi-Dirac: width=0.0010 eV

Eigensolver
   Davidson(niter=2, smin=None, normalize=True) 

Densities:
  Coarse grid: 60*35*27 grid
  Fine grid: 120*70*54 grid
  Total Charge: 0.000000 

Density mixing:
  Method: difference
  Backend: pulay
  Linear mixing parameter: 0.05
  Mixing with 5 old densities
  Damping of long wave oscillations: 50 

Hamiltonian:
  XC and Coulomb potentials evaluated on a 120*70*54 grid
  Using the LDA Exchange-Correlation functional
 

Memory estimate:
  Process memory now: 12558.08 MiB
  Calculator: 342.26 MiB
    Density: 19.13 MiB
      Arrays: 7.57 MiB
      Localized functions: 8.54 MiB
      Mixer: 3.03 MiB
    Hamiltonian: 5.87 MiB
      Arrays: 5.62 MiB
      XC: 0.00 MiB
      Poisson: 0.00 MiB
      vbar: 0.25 MiB
    Wavefunctions: 317.25 MiB
      Arrays psit_nG: 281.81 MiB
      Eigensolver: 18.27 MiB
      Projections: 5.41 MiB
      Projectors: 8.81 MiB
      PW-descriptor: 2.95 MiB

Total number of cores used: 32
Parallelization over k-points: 16
Domain decomposition: 2 x 1 x 1

Number of atoms: 28
Number of atomic orbitals: 148
Number of bands in calculation: 112
Number of valence electrons: 180
Bands to converge: occupied

... initialized

Initializing position-dependent things.

Density initialized from atomic densities
Creating initial wave functions:
  112 bands from LCAO basis set

                                           
                                           
                                           
                                           
                                           
               O     O  P  O               
            PO           OMn     O         
                  O          MO            
            O        Li O                  
             Mn  Mn          OP            
         O       O Li O                    
         Li     O P         O              
       Li                                  
                                           
                                           
                                           
                                           

Positions:
   0 O     -1.280122   -2.495595   -1.112331    ( 0.0000,  0.0000,  0.0000)
   1 O     -3.023238    2.918858    1.191723    ( 0.0000,  0.0000,  0.0000)
   2 O      1.997451    0.477212    1.441442    ( 0.0000,  0.0000,  0.0000)
   3 O      3.740343   -0.043905   -0.862614    ( 0.0000,  0.0000,  0.0000)
   4 O      1.997419    2.918835    1.441465    ( 0.0000,  0.0000,  0.0000)
   5 O      3.740372   -2.495531   -0.862587    ( 0.0000,  0.0000,  0.0000)
   6 O     -1.280154   -0.043891   -1.112309    ( 0.0000,  0.0000,  0.0000)
   7 O     -3.023210    0.467136    1.191750    ( 0.0000,  0.0000,  0.0000)
   8 O     -4.147405   -1.269737   -0.856207    ( 0.0000,  0.0000,  0.0000)
   9 O     -0.155894    1.692986    1.447725    ( 0.0000,  0.0000,  0.0000)
  10 O      4.864578    1.693016    1.185324    ( 0.0000,  0.0000,  0.0000)
  11 O      0.873163   -1.269706   -1.118625    ( 0.0000,  0.0000,  0.0000)
  12 Mn    -2.437108   -1.269902    0.302197    ( 0.0000,  0.0000,  1.0000)
  13 Mn    -1.866187    1.693156   -2.001927    ( 0.0000,  0.0000, -1.0000)
  14 Mn     3.154299    1.693181    0.026917    ( 0.0000,  0.0000, -1.0000)
  15 Mn     2.583444   -1.269877    2.331074    ( 0.0000,  0.0000,  1.0000)
  16 P     -0.543052   -1.269720   -1.734187    ( 0.0000,  0.0000,  0.0000)
  17 P     -3.760282    1.692974    0.569859    ( 0.0000,  0.0000,  0.0000)
  18 P      1.260300    1.693000    2.063344    ( 0.0000,  0.0000,  0.0000)
  19 P      4.477470   -1.269695   -0.240696    ( 0.0000,  0.0000,  0.0000)
  20 O     -0.544413   -1.269738    1.348523    ( 0.0000,  0.0000,  0.0000)
  21 O     -3.758895    1.692992   -0.955558    ( 0.0000,  0.0000,  0.0000)
  22 O      1.261690    1.693018   -1.019367    ( 0.0000,  0.0000,  0.0000)
  23 O      4.476045   -1.269713    1.284716    ( 0.0000,  0.0000,  0.0000)
  24 Li    -4.662027   -2.751322   -2.139440    ( 0.0000,  0.0000,  0.0000)
  25 Li     0.358703   -2.751277    0.164614    ( 0.0000,  0.0000,  0.0000)
  26 Li    -4.662011    0.211617   -2.139439    ( 0.0000,  0.0000,  0.0000)
  27 Li     0.358720    0.211628    0.164615    ( 0.0000,  0.0000,  0.0000)

Unit cell:
           periodic     x           y           z      points  spacing
  1. axis:    yes   10.041096    0.000054   -0.000022    60     0.1674
  2. axis:    yes    0.000032    5.925857    0.000001    35     0.1693
  3. axis:    yes   -0.000010    0.000001    4.608134    27     0.1707

  Lengths:  10.041096   5.925857   4.608134
  Angles:   89.999974  90.000250  89.999381

Effective grid spacing dv^(1/3) = 0.1691

                     log10-error:           total        iterations:
           time      wfs    density  force  energy       poisson  magmom
iter:   1  15:11:31                       -233.723753             +0.0000
iter:   2  15:12:07  -0.47  -0.95         -231.548635             +0.0034
iter:   3  15:12:43  -0.61  -1.00         -220.797387             +0.0035
iter:   4  15:13:20  -1.20  -1.31         -220.974123             -0.2758
iter:   5  15:13:56  -2.14  -1.39         -222.804937             -0.1459
iter:   6  15:14:32  -2.21  -1.37         -224.396231             -0.0666
iter:   7  15:15:08  -2.16  -1.49         -223.800151             -0.0361
iter:   8  15:15:45  -2.40  -1.62         -225.464434             -0.4523
iter:   9  15:16:21  -2.34  -1.86         -226.447381             +0.2420
iter:  10  15:16:57  -2.39  -2.00         -226.357436             +0.0837
iter:  11  15:17:33  -2.84  -2.09         -226.312300             +0.0207
iter:  12  15:18:09  -2.36  -2.14         -226.282557             +0.0092
iter:  13  15:18:45  -2.90  -2.48         -226.224873             +0.0070
iter:  14  15:19:21  -3.17  -2.73         -226.187597             +0.0025
iter:  15  15:19:57  -3.25  -2.85         -226.178001             +0.0009
iter:  16  15:20:34  -4.34  -3.03         -226.178175             +0.0005
iter:  17  15:21:10  -4.30  -3.07         -226.174368             -0.0001
iter:  18  15:21:46  -4.41  -3.19         -226.176637             +0.0000
iter:  19  15:22:22  -4.83  -3.23         -226.174780             +0.0000
iter:  20  15:22:58  -4.53  -3.28         -226.174461             +0.0000
iter:  21  15:23:34  -5.51  -3.36         -226.174157             +0.0000
iter:  22  15:24:10  -5.94  -3.39         -226.173971             -0.0000
iter:  23  15:24:46  -5.90  -3.62         -226.174020             -0.0000
iter:  24  15:25:22  -5.66  -3.69         -226.173965             -0.0000
iter:  25  15:25:58  -5.94  -3.77         -226.173948             -0.0000
iter:  26  15:26:34  -5.41  -3.81         -226.173852             -0.0000
iter:  27  15:27:10  -6.54  -4.22         -226.173874             -0.0000
iter:  28  15:27:47  -6.25  -4.28         -226.173854             -0.0000
iter:  29  15:28:23  -7.24  -4.52         -226.173852             -0.0000
iter:  30  15:29:08  -8.48  -4.92         -226.173852             -0.0000
iter:  31  15:29:53  -7.55  -4.94    -2.66-226.173852             -0.0000
iter:  32  15:30:38  -8.81  -5.19    -3.06-226.173852             -0.0000
iter:  33  15:31:24  -8.78  -5.25    -3.08-226.173852             -0.0000
iter:  34  15:32:09  -9.08  -5.36    -3.47-226.173851             -0.0000
iter:  35  15:32:54  -9.02  -5.47    -3.65-226.173851             -0.0000
iter:  36  15:33:40  -9.60  -5.60    -3.92-226.173851             -0.0000
iter:  37  15:34:25  -9.81  -5.65    -3.51-226.173851             -0.0000
iter:  38  15:35:10 -10.35  -5.88    -3.94-226.173851             -0.0000
iter:  39  15:35:55  -9.61  -5.98    -3.61-226.173851             +0.0000
iter:  40  15:36:41 -10.63  -6.32    -4.43-226.173851             -0.0000
iter:  41  15:37:26 -10.58  -6.35    -4.06-226.173851             +0.0000
iter:  42  15:38:11 -10.99  -6.45    -4.34-226.173851             +0.0000
iter:  43  15:38:57 -12.14  -6.67    -4.93-226.173851             -0.0000
iter:  44  15:39:42 -11.76  -6.72    -4.73-226.173851             -0.0000
iter:  45  15:40:27 -11.88  -6.83    -4.79-226.173851             +0.0000
iter:  46  15:41:13 -12.53  -6.90    -5.33-226.173851             +0.0000
iter:  47  15:41:58 -11.91  -6.93    -4.89-226.173851             +0.0000
iter:  48  15:42:43 -12.62  -7.03    -5.18-226.173851             +0.0000
iter:  49  15:43:29 -12.86  -7.11    -5.45-226.173851             +0.0000
iter:  50  15:44:14 -12.57  -7.18    -5.17-226.173851             +0.0000
iter:  51  15:44:59 -12.77  -7.27    -5.31-226.173851             +0.0000
iter:  52  15:45:44 -13.37  -7.48    -5.50-226.173851             +0.0000
iter:  53  15:46:30 -13.85  -7.60    -5.58-226.173851             +0.0000
iter:  54  15:47:15 -13.56  -7.70    -5.79-226.173851             +0.0000
iter:  55  15:48:00 -13.62  -7.84    -5.65-226.173851             +0.0000
iter:  56  15:48:46 -14.48  -7.97    -6.47-226.173851             +0.0000

Converged after 56 iterations.

Dipole moment: (18.326548, -2.147869, -4.525171) |e|*Ang

Total magnetic moment: (0.000000, 0.000000, 0.000000)
Local magnetic moments:
   0 O  ( 0.000000,  0.000000, -0.001796)
   1 O  ( 0.000000,  0.000000,  0.001817)
   2 O  ( 0.000000,  0.000000,  0.001409)
   3 O  ( 0.000000,  0.000000, -0.001841)
   4 O  ( 0.000000,  0.000000,  0.001955)
   5 O  ( 0.000000,  0.000000, -0.001567)
   6 O  ( 0.000000,  0.000000, -0.001795)
   7 O  ( 0.000000,  0.000000,  0.001825)
   8 O  ( 0.000000,  0.000000,  0.031079)
   9 O  ( 0.000000,  0.000000, -0.031337)
  10 O  ( 0.000000,  0.000000, -0.031097)
  11 O  ( 0.000000,  0.000000,  0.031086)
  12 Mn ( 0.000000,  0.000000,  4.395744)
  13 Mn ( 0.000000,  0.000000, -4.395911)
  14 Mn ( 0.000000,  0.000000, -4.396045)
  15 Mn ( 0.000000,  0.000000,  4.397525)
  16 P  ( 0.000000,  0.000000,  0.000846)
  17 P  ( 0.000000,  0.000000, -0.000872)
  18 P  ( 0.000000,  0.000000, -0.001258)
  19 P  ( 0.000000,  0.000000,  0.000854)
  20 O  ( 0.000000,  0.000000,  0.028419)
  21 O  ( 0.000000,  0.000000, -0.028394)
  22 O  ( 0.000000,  0.000000, -0.028577)
  23 O  ( 0.000000,  0.000000,  0.028370)
  24 Li ( 0.000000,  0.000000, -0.000001)
  25 Li ( 0.000000,  0.000000, -0.000002)
  26 Li ( 0.000000,  0.000000, -0.000001)
  27 Li ( 0.000000,  0.000000, -0.000030)

Energy contributions relative to reference atoms: (reference = -196157.275402)

Kinetic:       +278.151545
Potential:     -241.375079
External:        +0.000000
XC:            -264.837749
Entropy (-ST):   -0.000000
Local:           +1.887431
--------------------------
Free energy:   -226.173851
Extrapolated:  -226.173851

Spin contamination: 9.456580 electrons
Showing only first 2 kpts
                      Up                     Down
 Kpt  Band  Eigenvalues  Occupancy  Eigenvalues  Occupancy
  0    88      6.52333    0.00694      6.53288    0.00694
  0    89      6.55914    0.00694      6.56669    0.00694
  0    90      8.42910    0.00000      8.42234    0.00000
  0    91      8.45036    0.00000      8.44408    0.00000

  1    88      6.56136    0.00694      6.57134    0.00694
  1    89      6.59154    0.00694      6.59879    0.00694
  1    90      8.38655    0.00000      8.37879    0.00000
  1    91      8.40793    0.00000      8.40130    0.00000


Fermi level: 7.67580

Gap: 1.693 eV
Transition (v -> c):
  (s=1, k=49, n=89, [-0.08, -0.42, -0.12]) -> (s=1, k=85, n=90, [0.08, 0.08, -0.12])
Writing to born-0.01-2y+.gpw (mode='all')

Timing:                              incl.     excl.
-----------------------------------------------------------
Hamiltonian:                         0.352     0.002   0.0% |
 Atomic:                             0.050     0.050   0.0% |
  XC Correction:                     0.000     0.000   0.0% |
 Calculate atomic Hamiltonians:      0.142     0.142   0.0% |
 Communicate:                        0.002     0.002   0.0% |
 Initialize Hamiltonian:             0.000     0.000   0.0% |
 Poisson:                            0.001     0.001   0.0% |
 XC 3D grid:                         0.155     0.155   0.0% |
LCAO initialization:               140.655     0.657   0.0% |
 LCAO eigensolver:                  37.888     0.002   0.0% |
  Calculate projections:             0.056     0.056   0.0% |
  DenseAtomicCorrection:             0.088     0.088   0.0% |
  Distribute overlap matrix:         0.018     0.018   0.0% |
  Orbital Layouts:                   0.339     0.339   0.0% |
  Potential matrix:                 37.286    37.286   0.7% |
  Sum over cells:                    0.099     0.099   0.0% |
 LCAO to grid:                      99.765    99.765   1.8% ||
 Set positions (LCAO WFS):           2.344     0.371   0.0% |
  Basic WFS set positions:           0.001     0.001   0.0% |
  Basis functions set positions:     0.000     0.000   0.0% |
  P tci:                             1.055     1.055   0.0% |
  ST tci:                            0.700     0.700   0.0% |
  mktci:                             0.217     0.217   0.0% |
PWDescriptor:                        0.023     0.023   0.0% |
SCF-cycle:                        2274.896    15.040   0.3% |
 Davidson:                        1909.307   611.727  10.8% |---|
  Apply H:                         134.987   130.701   2.3% ||
   HMM T:                            4.286     4.286   0.1% |
  Subspace diag:                   282.822     0.172   0.0% |
   calc_h_matrix:                  183.691    49.971   0.9% |
    Apply H:                       133.719   129.512   2.3% ||
     HMM T:                          4.207     4.207   0.1% |
   diagonalize:                      6.555     6.555   0.1% |
   rotate_psi:                      92.404    92.404   1.6% ||
  calc. matrices:                  602.201   336.725   6.0% |-|
   Apply H:                        265.476   257.299   4.6% |-|
    HMM T:                           8.177     8.177   0.1% |
  diagonalize:                      88.687    88.687   1.6% ||
  rotate_psi:                      188.884   188.884   3.3% ||
 Density:                           77.160     0.002   0.0% |
  Atomic density matrices:           1.392     1.392   0.0% |
  Mix:                              10.673    10.673   0.2% |
  Multipole moments:                 0.032     0.032   0.0% |
  Pseudo density:                   65.062    65.060   1.2% |
   Symmetrize density:               0.002     0.002   0.0% |
 Forces:                           249.501   249.501   4.4% |-|
 Hamiltonian:                       19.908     0.125   0.0% |
  Atomic:                            2.786     2.785   0.0% |
   XC Correction:                    0.000     0.000   0.0% |
  Calculate atomic Hamiltonians:     8.041     8.041   0.1% |
  Communicate:                       0.084     0.084   0.0% |
  Poisson:                           0.064     0.064   0.0% |
  XC 3D grid:                        8.808     8.808   0.2% |
 Orthonormalize:                     3.978     0.003   0.0% |
  calc_s_matrix:                     0.479     0.479   0.0% |
  inverse-cholesky:                  0.055     0.055   0.0% |
  projections:                       2.590     2.590   0.0% |
  rotate_psi_s:                      0.852     0.852   0.0% |
Set symmetry:                        0.000     0.000   0.0% |
Other:                            3236.335  3236.335  57.3% |----------------------|
-----------------------------------------------------------
Total:                                      5652.261 100.0%

Memory usage: 12.28 GiB
Date: Sun Mar 21 16:42:40 2021
