
  ___ ___ ___ _ _ _  
 |   |   |_  | | | | 
 | | | | | . | | | | 
 |__ |  _|___|_____|  20.10.1b1
 |___|_|             

User:   madkru@i008.nifl.fysik.dtu.dk
Date:   Thu Mar 25 08:56:46 2021
Arch:   x86_64
Pid:    26969
Python: 3.7.4
gpaw:   /home/niflheim/madkru/venv_folder/gpaw/gpaw (d224efde0f)
_gpaw:  /home/niflheim/madkru/venv_folder/gpaw/build/lib.linux-x86_64-ivybridge-3.7/
        _gpaw.cpython-37m-x86_64-linux-gnu.so (4fd39e8b1e)
ase:    /home/niflheim/madkru/venv_folder/ase/ase (version 3.21.0b1-4d5a73cb29)
numpy:  /home/niflheim/madkru/venv_folder/lib/python3.7/site-packages/numpy (version 1.19.4)
scipy:  /home/niflheim/madkru/venv_folder/lib/python3.7/site-packages/scipy (version 1.5.4)
libxc:  4.3.4
units:  Angstrom and eV
cores: 64
OMP_NUM_THREADS: 1

Input parameters:
  convergence: {bands: occupied,
                density: 0.0001,
                eigenstates: 4e-08,
                energy: 0.0005,
                forces: 1e-06}
  kpts: [6 6 4]
  mode: {ecut: 600.0,
         gammacentered: False,
         name: pw}
  occupations: {fixmagmom: False,
                name: fermi-dirac,
                width: 0.001}
  symmetry: {point_group: False,
             time_reversal: False}

System changes: positions, numbers, cell, pbc, initial_charges, initial_magmoms 

Initialize ...

O-setup:
  name: Oxygen
  id: 9b9d51c344dea68c822856295a461509
  Z: 8.0
  valence: 6
  core: 2
  charge: 0.0
  file: /home/modules/software/GPAW-setups/0.9.20000/O.LDA.gz
  compensation charges: gauss, rc=0.21, lmax=2
  cutoffs: 1.17(filt), 0.83(core),
  valence states:
                energy  radius
    2s(2.00)   -23.752   0.688
    2p(4.00)    -9.195   0.598
    *s           3.459   0.688
    *p          18.016   0.598
    *d           0.000   0.619

  Using partial waves for O as LCAO basis

Mn-setup:
  name: Manganese
  id: 0d715a8018be061a6e9ea6f2d364ac92
  Z: 25.0
  valence: 15
  core: 10
  charge: 0.0
  file: /home/modules/software/GPAW-setups/0.9.20000/Mn.LDA.gz
  compensation charges: gauss, rc=0.38, lmax=2
  cutoffs: 2.14(filt), 0.86(core),
  valence states:
                energy  radius
    3s(2.00)   -85.387   1.275
    4s(2.00)    -5.282   1.275
    3p(6.00)   -54.493   1.281
    4p(0.00)    -1.471   1.281
    3d(5.00)    -7.009   1.138
    *d          20.203   1.138

  Using partial waves for Mn as LCAO basis

P-setup:
  name: Phosphorus
  id: a5561c299094968922a179ab894d2e2d
  Z: 15.0
  valence: 5
  core: 10
  charge: 0.0
  file: /home/modules/software/GPAW-setups/0.9.20000/P.LDA.gz
  compensation charges: gauss, rc=0.30, lmax=2
  cutoffs: 1.69(filt), 1.81(core),
  valence states:
                energy  radius
    3s(2.00)   -14.015   0.953
    3p(3.00)    -5.596   0.953
    *s          13.197   0.953
    *p          21.615   0.953
    *d           0.000   0.953

  Using partial waves for P as LCAO basis

Li-setup:
  name: Lithium
  id: b73562207f97a71b6967473b66fe8b65
  Z: 3.0
  valence: 1
  core: 2
  charge: 0.0
  file: /home/modules/software/GPAW-setups/0.9.20000/Li.LDA.gz
  compensation charges: gauss, rc=0.33, lmax=2
  cutoffs: 1.91(filt), 2.55(core),
  valence states:
                energy  radius
    2s(1.00)    -2.874   1.058
    2p(0.00)    -1.126   1.058
    *s          24.338   1.058

  Using partial waves for Li as LCAO basis

Reference energy: -196157.275402

Spin-polarized calculation.
Magnetic moment: 0.000000

Convergence criteria:
  Maximum total energy change: 0.0005 eV / electron
  Maximum integral of absolute density change: 0.0001 electrons
  Maximum integral of absolute eigenstate change: 4e-08 eV^2
  Maximum change in atomic force: 1e-06 eV / Ang
  Maximum number of iterations: 333

Symmetries present (total): 1

  ( 1  0  0)
  ( 0  1  0)
  ( 0  0  1)

144 k-points: 6 x 6 x 4 Monkhorst-Pack grid
144 k-points in the irreducible part of the Brillouin zone
       k-points in crystal coordinates                weights
   0:    -0.41666667   -0.41666667   -0.37500000          1/144
   1:    -0.41666667   -0.41666667   -0.12500000          1/144
   2:    -0.41666667   -0.41666667    0.12500000          1/144
   3:    -0.41666667   -0.41666667    0.37500000          1/144
   4:    -0.41666667   -0.25000000   -0.37500000          1/144
   5:    -0.41666667   -0.25000000   -0.12500000          1/144
   6:    -0.41666667   -0.25000000    0.12500000          1/144
   7:    -0.41666667   -0.25000000    0.37500000          1/144
   8:    -0.41666667   -0.08333333   -0.37500000          1/144
   9:    -0.41666667   -0.08333333   -0.12500000          1/144
          ...
 143:     0.41666667    0.41666667    0.37500000          1/144

Wave functions: Plane wave expansion
  Cutoff energy: 600.000 eV
  Number of coefficients (min, max): 9132, 9161
  Pulay-stress correction: 0.000000 eV/Ang^3 (de/decut=0.000000)
  Using FFTW library
  ScaLapack parameters: grid=1x1, blocksize=None
  Wavefunction extrapolation:
    Improved wavefunction reuse through dual PAW basis 

  Fermi-Dirac: width=0.0010 eV

Eigensolver
   Davidson(niter=2, smin=None, normalize=True) 

Densities:
  Coarse grid: 60*35*27 grid
  Fine grid: 120*70*54 grid
  Total Charge: 0.000000 

Density mixing:
  Method: difference
  Backend: pulay
  Linear mixing parameter: 0.05
  Mixing with 5 old densities
  Damping of long wave oscillations: 50 

Hamiltonian:
  XC and Coulomb potentials evaluated on a 120*70*54 grid
  Using the LDA Exchange-Correlation functional
 

Memory estimate:
  Process memory now: 13203.68 MiB
  Calculator: 322.47 MiB
    Density: 9.62 MiB
      Arrays: 3.79 MiB
      Localized functions: 4.27 MiB
      Mixer: 1.56 MiB
    Hamiltonian: 2.94 MiB
      Arrays: 2.82 MiB
      XC: 0.00 MiB
      Poisson: 0.00 MiB
      vbar: 0.12 MiB
    Wavefunctions: 309.91 MiB
      Arrays psit_nG: 281.81 MiB
      Eigensolver: 18.27 MiB
      Projections: 2.71 MiB
      Projectors: 4.40 MiB
      PW-descriptor: 2.71 MiB

Total number of cores used: 64
Parallelization over k-points: 16
Domain decomposition: 2 x 2 x 1

Number of atoms: 28
Number of atomic orbitals: 148
Number of bands in calculation: 112
Number of valence electrons: 180
Bands to converge: occupied

... initialized

Initializing position-dependent things.

Density initialized from atomic densities
Creating initial wave functions:
  112 bands from LCAO basis set

                                           
                                           
                                           
                                           
                                           
               O     O  P  O               
            PO           OMn     O         
                  O          MO            
            O        Li O                  
             Mn  Mn          OP            
         O       O Li O                    
         Li     O P         O              
       Li                                  
                                           
                                           
                                           
                                           

Positions:
   0 O     -1.280122   -2.495595   -1.112331    ( 0.0000,  0.0000,  0.0000)
   1 O     -3.023238    2.918858    1.191723    ( 0.0000,  0.0000,  0.0000)
   2 O      1.997451    0.467212    1.441442    ( 0.0000,  0.0000,  0.0000)
   3 O      3.740343   -0.043905   -0.862614    ( 0.0000,  0.0000,  0.0000)
   4 O      1.997419    2.918835    1.441465    ( 0.0000,  0.0000,  0.0000)
   5 O      3.740372   -2.495531   -0.862587    ( 0.0000,  0.0000,  0.0000)
   6 O     -1.280154   -0.043891   -1.112309    ( 0.0000,  0.0000,  0.0000)
   7 O     -3.023210    0.467136    1.191750    ( 0.0000,  0.0000,  0.0000)
   8 O     -4.147405   -1.269737   -0.856207    ( 0.0000,  0.0000,  0.0000)
   9 O     -0.155894    1.692986    1.447725    ( 0.0000,  0.0000,  0.0000)
  10 O      4.864578    1.693016    1.185324    ( 0.0000,  0.0000,  0.0000)
  11 O      0.873163   -1.269706   -1.118625    ( 0.0000,  0.0000,  0.0000)
  12 Mn    -2.437108   -1.269902    0.302197    ( 0.0000,  0.0000,  1.0000)
  13 Mn    -1.866187    1.693156   -2.001927    ( 0.0000,  0.0000, -1.0000)
  14 Mn     3.154299    1.693181    0.026917    ( 0.0000,  0.0000, -1.0000)
  15 Mn     2.583444   -1.269877    2.331074    ( 0.0000,  0.0000,  1.0000)
  16 P     -0.543052   -1.269720   -1.734187    ( 0.0000,  0.0000,  0.0000)
  17 P     -3.760282    1.692974    0.569859    ( 0.0000,  0.0000,  0.0000)
  18 P      1.260300    1.683000    2.063344    ( 0.0000,  0.0000,  0.0000)
  19 P      4.477470   -1.269695   -0.240696    ( 0.0000,  0.0000,  0.0000)
  20 O     -0.544413   -1.269738    1.348523    ( 0.0000,  0.0000,  0.0000)
  21 O     -3.758895    1.692992   -0.955558    ( 0.0000,  0.0000,  0.0000)
  22 O      1.261690    1.693018   -1.019367    ( 0.0000,  0.0000,  0.0000)
  23 O      4.476045   -1.269713    1.284716    ( 0.0000,  0.0000,  0.0000)
  24 Li    -4.662027   -2.751322   -2.139440    ( 0.0000,  0.0000,  0.0000)
  25 Li     0.358703   -2.751277    0.164614    ( 0.0000,  0.0000,  0.0000)
  26 Li    -4.662011    0.211617   -2.139439    ( 0.0000,  0.0000,  0.0000)
  27 Li     0.358720    0.211628    0.164615    ( 0.0000,  0.0000,  0.0000)

Unit cell:
           periodic     x           y           z      points  spacing
  1. axis:    yes   10.041096    0.000054   -0.000022    60     0.1674
  2. axis:    yes    0.000032    5.925857    0.000001    35     0.1693
  3. axis:    yes   -0.000010    0.000001    4.608134    27     0.1707

  Lengths:  10.041096   5.925857   4.608134
  Angles:   89.999974  90.000250  89.999381

Effective grid spacing dv^(1/3) = 0.1691

                     log10-error:           total        iterations:
           time      wfs    density  force  energy       poisson  magmom
iter:   1  08:58:23                       -233.728162             +0.0000
iter:   2  08:58:43  -0.47  -0.95         -231.547880             +0.0016
iter:   3  08:59:02  -0.61  -1.00         -220.800027             +0.0016
iter:   4  08:59:22  -1.19  -1.31         -220.876779             +0.3161
iter:   5  08:59:42  -2.11  -1.40         -222.903909             +0.1702
iter:   6  09:00:02  -2.14  -1.38         -223.717891             +0.2891
iter:   7  09:00:22  -2.17  -1.52         -223.757343             -0.1933
iter:   8  09:00:41  -2.49  -1.66         -225.551753             -0.6295
iter:   9  09:01:01  -2.38  -1.89         -226.442855             -0.2431
iter:  10  09:01:21  -2.24  -1.99         -226.323175             -0.0602
iter:  11  09:01:41  -2.82  -2.11         -226.295913             -0.0299
iter:  12  09:02:00  -2.57  -2.16         -226.243554             -0.0097
iter:  13  09:02:20  -2.89  -2.47         -226.208068             -0.0076
iter:  14  09:02:40  -2.95  -2.78         -226.185538             -0.0027
iter:  15  09:02:59  -3.44  -2.89         -226.177679             -0.0012
iter:  16  09:03:20  -4.26  -3.19         -226.177426             -0.0005
iter:  17  09:03:39  -3.85  -3.27         -226.174198             -0.0000
iter:  18  09:03:59  -5.01  -3.46         -226.173188             -0.0001
iter:  19  09:04:19  -4.73  -3.59         -226.173214             -0.0000
iter:  20  09:04:39  -5.32  -3.69         -226.172992             -0.0000
iter:  21  09:04:58  -5.78  -3.77         -226.172838             -0.0000
iter:  22  09:05:18  -6.47  -3.86         -226.172821             -0.0000
iter:  23  09:05:38  -6.16  -3.90         -226.172814             +0.0000
iter:  24  09:05:57  -6.58  -4.09         -226.172798             -0.0000
iter:  25  09:06:17  -6.05  -4.12         -226.172806             -0.0000
iter:  26  09:06:37  -6.02  -4.19         -226.172811             -0.0000
iter:  27  09:06:56  -6.02  -4.23         -226.172776             -0.0000
iter:  28  09:07:16  -7.37  -4.79         -226.172774             -0.0000
iter:  29  09:07:40  -7.98  -4.92         -226.172774             +0.0000
iter:  30  09:08:05  -8.33  -5.04    -2.68-226.172774             +0.0000
iter:  31  09:08:29  -7.76  -5.05    -2.91-226.172774             +0.0000
iter:  32  09:08:53  -8.57  -5.23    -3.44-226.172774             +0.0000
iter:  33  09:09:18  -9.10  -5.26    -3.67-226.172774             +0.0000
iter:  34  09:09:42  -9.07  -5.28    -3.10-226.172774             +0.0000
iter:  35  09:10:07  -9.78  -5.40    -3.70-226.172774             +0.0000
iter:  36  09:10:31  -8.99  -5.44    -3.38-226.172774             +0.0000
iter:  37  09:10:55  -8.72  -5.56    -3.44-226.172774             +0.0000
iter:  38  09:11:20  -9.18  -5.58    -3.61-226.172774             +0.0000
iter:  39  09:11:44  -9.92  -5.67    -3.65-226.172774             -0.0000
iter:  40  09:12:08  -9.59  -5.71    -3.78-226.172774             -0.0000
iter:  41  09:12:33 -10.14  -5.81    -4.25-226.172774             -0.0000
iter:  42  09:12:57  -9.85  -5.83    -3.73-226.172774             +0.0000
iter:  43  09:13:21  -9.97  -6.08    -4.12-226.172774             +0.0000
iter:  44  09:13:46 -10.85  -6.23    -4.27-226.172774             +0.0000
iter:  45  09:14:10 -11.04  -6.35    -4.37-226.172774             +0.0000
iter:  46  09:14:34 -10.87  -6.42    -4.31-226.172774             +0.0000
iter:  47  09:14:59 -11.47  -6.64    -4.77-226.172774             +0.0000
iter:  48  09:15:23 -10.98  -6.74    -4.61-226.172774             +0.0000
iter:  49  09:15:47 -12.10  -7.13    -5.02-226.172774             +0.0000
iter:  50  09:16:12 -12.43  -7.21    -5.28-226.172774             +0.0000
iter:  51  09:16:36 -12.33  -7.27    -4.96-226.172774             +0.0000
iter:  52  09:17:00 -12.90  -7.58    -5.44-226.172774             +0.0000
iter:  53  09:17:25 -13.22  -7.63    -5.41-226.172774             +0.0000
iter:  54  09:17:49 -13.89  -7.82    -6.13-226.172774             +0.0000

Converged after 54 iterations.

Dipole moment: (18.327094, -2.323658, -4.524280) |e|*Ang

Total magnetic moment: (0.000000, 0.000000, 0.000000)
Local magnetic moments:
   0 O  ( 0.000000,  0.000000, -0.001789)
   1 O  ( 0.000000,  0.000000,  0.001803)
   2 O  ( 0.000000,  0.000000,  0.001918)
   3 O  ( 0.000000,  0.000000, -0.001788)
   4 O  ( 0.000000,  0.000000,  0.001706)
   5 O  ( 0.000000,  0.000000, -0.001824)
   6 O  ( 0.000000,  0.000000, -0.001832)
   7 O  ( 0.000000,  0.000000,  0.001820)
   8 O  ( 0.000000,  0.000000,  0.031098)
   9 O  ( 0.000000,  0.000000, -0.031098)
  10 O  ( 0.000000,  0.000000, -0.031095)
  11 O  ( 0.000000,  0.000000,  0.031095)
  12 Mn ( 0.000000,  0.000000,  4.395764)
  13 Mn ( 0.000000,  0.000000, -4.395781)
  14 Mn ( 0.000000,  0.000000, -4.395719)
  15 Mn ( 0.000000,  0.000000,  4.395732)
  16 P  ( 0.000000,  0.000000,  0.000866)
  17 P  ( 0.000000,  0.000000, -0.000864)
  18 P  ( 0.000000,  0.000000, -0.000874)
  19 P  ( 0.000000,  0.000000,  0.000870)
  20 O  ( 0.000000,  0.000000,  0.028417)
  21 O  ( 0.000000,  0.000000, -0.028416)
  22 O  ( 0.000000,  0.000000, -0.028421)
  23 O  ( 0.000000,  0.000000,  0.028419)
  24 Li ( 0.000000,  0.000000,  0.000001)
  25 Li ( 0.000000,  0.000000,  0.000009)
  26 Li ( 0.000000,  0.000000, -0.000001)
  27 Li ( 0.000000,  0.000000, -0.000008)

Energy contributions relative to reference atoms: (reference = -196157.275402)

Kinetic:       +277.636577
Potential:     -240.975864
External:        +0.000000
XC:            -264.721894
Entropy (-ST):   -0.000000
Local:           +1.888408
--------------------------
Free energy:   -226.172774
Extrapolated:  -226.172774

Spin contamination: 9.455299 electrons
Showing only first 2 kpts
                      Up                     Down
 Kpt  Band  Eigenvalues  Occupancy  Eigenvalues  Occupancy
  0    88      6.53062    0.00694      6.53048    0.00694
  0    89      6.56410    0.00694      6.56434    0.00694
  0    90      8.42678    0.00000      8.42668    0.00000
  0    91      8.44831    0.00000      8.44837    0.00000

  1    88      6.56905    0.00694      6.56908    0.00694
  1    89      6.59607    0.00694      6.59619    0.00694
  1    90      8.38314    0.00000      8.38305    0.00000
  1    91      8.40518    0.00000      8.40523    0.00000


Fermi level: 7.58608

Gap: 1.699 eV
Transition (v -> c):
  (s=1, k=49, n=89, [-0.08, -0.42, -0.12]) -> (s=0, k=61, n=90, [-0.08, 0.08, -0.12])
Writing to born-0.01-18y-.gpw (mode='all')

Timing:                              incl.     excl.
-----------------------------------------------------------
Hamiltonian:                         0.220     0.002   0.0% |
 Atomic:                             0.058     0.058   0.0% |
  XC Correction:                     0.000     0.000   0.0% |
 Calculate atomic Hamiltonians:      0.074     0.074   0.0% |
 Communicate:                        0.002     0.002   0.0% |
 Initialize Hamiltonian:             0.000     0.000   0.0% |
 Poisson:                            0.001     0.001   0.0% |
 XC 3D grid:                         0.083     0.083   0.0% |
LCAO initialization:                74.475     0.642   0.0% |
 LCAO eigensolver:                  19.932     0.002   0.0% |
  Calculate projections:             0.029     0.029   0.0% |
  DenseAtomicCorrection:             0.045     0.045   0.0% |
  Distribute overlap matrix:         0.009     0.009   0.0% |
  Orbital Layouts:                   0.429     0.429   0.0% |
  Potential matrix:                 19.319    19.319   0.6% |
  Sum over cells:                    0.099     0.099   0.0% |
 LCAO to grid:                      52.594    52.594   1.6% ||
 Set positions (LCAO WFS):           1.308     0.191   0.0% |
  Basic WFS set positions:           0.001     0.001   0.0% |
  Basis functions set positions:     0.000     0.000   0.0% |
  P tci:                             0.519     0.519   0.0% |
  ST tci:                            0.378     0.378   0.0% |
  mktci:                             0.219     0.219   0.0% |
PWDescriptor:                        0.023     0.023   0.0% |
SCF-cycle:                        1187.261     0.744   0.0% |
 Davidson:                        1010.264   309.061   9.6% |---|
  Apply H:                          70.306    68.151   2.1% ||
   HMM T:                            2.154     2.154   0.1% |
  Subspace diag:                   147.105     0.152   0.0% |
   calc_h_matrix:                   94.579    24.382   0.8% |
    Apply H:                        70.197    68.060   2.1% ||
     HMM T:                          2.137     2.137   0.1% |
   diagonalize:                      7.613     7.613   0.2% |
   rotate_psi:                      44.761    44.761   1.4% ||
  calc. matrices:                  301.938   164.878   5.1% |-|
   Apply H:                        137.060   133.074   4.1% |-|
    HMM T:                           3.986     3.986   0.1% |
  diagonalize:                      84.992    84.992   2.6% ||
  rotate_psi:                       96.864    96.864   3.0% ||
 Density:                           40.981     0.001   0.0% |
  Atomic density matrices:           0.965     0.965   0.0% |
  Mix:                               5.587     5.587   0.2% |
  Multipole moments:                 0.020     0.020   0.0% |
  Pseudo density:                   34.409    34.407   1.1% |
   Symmetrize density:               0.002     0.002   0.0% |
 Forces:                           121.754   121.754   3.8% |-|
 Hamiltonian:                       11.451     0.113   0.0% |
  Atomic:                            2.647     2.646   0.1% |
   XC Correction:                    0.000     0.000   0.0% |
  Calculate atomic Hamiltonians:     4.011     4.011   0.1% |
  Communicate:                       0.105     0.105   0.0% |
  Poisson:                           0.032     0.032   0.0% |
  XC 3D grid:                        4.544     4.544   0.1% |
 Orthonormalize:                     2.066     0.003   0.0% |
  calc_s_matrix:                     0.242     0.242   0.0% |
  inverse-cholesky:                  0.073     0.073   0.0% |
  projections:                       1.318     1.318   0.0% |
  rotate_psi_s:                      0.430     0.430   0.0% |
Set symmetry:                        0.000     0.000   0.0% |
Other:                            1964.711  1964.711  60.9% |-----------------------|
-----------------------------------------------------------
Total:                                      3226.690 100.0%

Memory usage: 12.93 GiB
Date: Thu Mar 25 09:50:33 2021
