
  ___ ___ ___ _ _ _  
 |   |   |_  | | | | 
 | | | | | . | | | | 
 |__ |  _|___|_____|  20.10.1b1
 |___|_|             

User:   madkru@i013.nifl.fysik.dtu.dk
Date:   Sun Mar 21 18:34:33 2021
Arch:   x86_64
Pid:    27943
Python: 3.7.4
gpaw:   /home/niflheim/madkru/venv_folder/gpaw/gpaw (d0d1ca1c71)
_gpaw:  /home/niflheim/madkru/venv_folder/gpaw/build/lib.linux-x86_64-ivybridge-3.7/
        _gpaw.cpython-37m-x86_64-linux-gnu.so (4fd39e8b1e)
ase:    /home/niflheim/madkru/venv_folder/ase/ase (version 3.21.0b1-7e6c206a91)
numpy:  /home/niflheim/madkru/venv_folder/lib/python3.7/site-packages/numpy (version 1.19.4)
scipy:  /home/niflheim/madkru/venv_folder/lib/python3.7/site-packages/scipy (version 1.5.4)
libxc:  4.3.4
units:  Angstrom and eV
cores: 32
OMP_NUM_THREADS: 1

Input parameters:
  convergence: {bands: occupied,
                density: 0.0001,
                eigenstates: 4e-08,
                energy: 0.0005,
                forces: 1e-06}
  kpts: [6 6 4]
  mode: {ecut: 600.0,
         gammacentered: False,
         name: pw}
  occupations: {fixmagmom: False,
                name: fermi-dirac,
                width: 0.001}
  symmetry: {point_group: False,
             time_reversal: False}

System changes: positions, numbers, cell, pbc, initial_charges, initial_magmoms 

Initialize ...

O-setup:
  name: Oxygen
  id: 9b9d51c344dea68c822856295a461509
  Z: 8.0
  valence: 6
  core: 2
  charge: 0.0
  file: /home/modules/software/GPAW-setups/0.9.20000/O.LDA.gz
  compensation charges: gauss, rc=0.21, lmax=2
  cutoffs: 1.17(filt), 0.83(core),
  valence states:
                energy  radius
    2s(2.00)   -23.752   0.688
    2p(4.00)    -9.195   0.598
    *s           3.459   0.688
    *p          18.016   0.598
    *d           0.000   0.619

  Using partial waves for O as LCAO basis

Mn-setup:
  name: Manganese
  id: 0d715a8018be061a6e9ea6f2d364ac92
  Z: 25.0
  valence: 15
  core: 10
  charge: 0.0
  file: /home/modules/software/GPAW-setups/0.9.20000/Mn.LDA.gz
  compensation charges: gauss, rc=0.38, lmax=2
  cutoffs: 2.14(filt), 0.86(core),
  valence states:
                energy  radius
    3s(2.00)   -85.387   1.275
    4s(2.00)    -5.282   1.275
    3p(6.00)   -54.493   1.281
    4p(0.00)    -1.471   1.281
    3d(5.00)    -7.009   1.138
    *d          20.203   1.138

  Using partial waves for Mn as LCAO basis

P-setup:
  name: Phosphorus
  id: a5561c299094968922a179ab894d2e2d
  Z: 15.0
  valence: 5
  core: 10
  charge: 0.0
  file: /home/modules/software/GPAW-setups/0.9.20000/P.LDA.gz
  compensation charges: gauss, rc=0.30, lmax=2
  cutoffs: 1.69(filt), 1.81(core),
  valence states:
                energy  radius
    3s(2.00)   -14.015   0.953
    3p(3.00)    -5.596   0.953
    *s          13.197   0.953
    *p          21.615   0.953
    *d           0.000   0.953

  Using partial waves for P as LCAO basis

Li-setup:
  name: Lithium
  id: b73562207f97a71b6967473b66fe8b65
  Z: 3.0
  valence: 1
  core: 2
  charge: 0.0
  file: /home/modules/software/GPAW-setups/0.9.20000/Li.LDA.gz
  compensation charges: gauss, rc=0.33, lmax=2
  cutoffs: 1.91(filt), 2.55(core),
  valence states:
                energy  radius
    2s(1.00)    -2.874   1.058
    2p(0.00)    -1.126   1.058
    *s          24.338   1.058

  Using partial waves for Li as LCAO basis

Reference energy: -196157.275402

Spin-polarized calculation.
Magnetic moment: 0.000000

Convergence criteria:
  Maximum total energy change: 0.0005 eV / electron
  Maximum integral of absolute density change: 0.0001 electrons
  Maximum integral of absolute eigenstate change: 4e-08 eV^2
  Maximum change in atomic force: 1e-06 eV / Ang
  Maximum number of iterations: 333

Symmetries present (total): 1

  ( 1  0  0)
  ( 0  1  0)
  ( 0  0  1)

144 k-points: 6 x 6 x 4 Monkhorst-Pack grid
144 k-points in the irreducible part of the Brillouin zone
       k-points in crystal coordinates                weights
   0:    -0.41666667   -0.41666667   -0.37500000          1/144
   1:    -0.41666667   -0.41666667   -0.12500000          1/144
   2:    -0.41666667   -0.41666667    0.12500000          1/144
   3:    -0.41666667   -0.41666667    0.37500000          1/144
   4:    -0.41666667   -0.25000000   -0.37500000          1/144
   5:    -0.41666667   -0.25000000   -0.12500000          1/144
   6:    -0.41666667   -0.25000000    0.12500000          1/144
   7:    -0.41666667   -0.25000000    0.37500000          1/144
   8:    -0.41666667   -0.08333333   -0.37500000          1/144
   9:    -0.41666667   -0.08333333   -0.12500000          1/144
          ...
 143:     0.41666667    0.41666667    0.37500000          1/144

Wave functions: Plane wave expansion
  Cutoff energy: 600.000 eV
  Number of coefficients (min, max): 9132, 9161
  Pulay-stress correction: 0.000000 eV/Ang^3 (de/decut=0.000000)
  Using FFTW library
  ScaLapack parameters: grid=1x1, blocksize=None
  Wavefunction extrapolation:
    Improved wavefunction reuse through dual PAW basis 

  Fermi-Dirac: width=0.0010 eV

Eigensolver
   Davidson(niter=2, smin=None, normalize=True) 

Densities:
  Coarse grid: 60*35*27 grid
  Fine grid: 120*70*54 grid
  Total Charge: 0.000000 

Density mixing:
  Method: difference
  Backend: pulay
  Linear mixing parameter: 0.05
  Mixing with 5 old densities
  Damping of long wave oscillations: 50 

Hamiltonian:
  XC and Coulomb potentials evaluated on a 120*70*54 grid
  Using the LDA Exchange-Correlation functional
 

Memory estimate:
  Process memory now: 12651.72 MiB
  Calculator: 342.26 MiB
    Density: 19.13 MiB
      Arrays: 7.57 MiB
      Localized functions: 8.54 MiB
      Mixer: 3.03 MiB
    Hamiltonian: 5.87 MiB
      Arrays: 5.62 MiB
      XC: 0.00 MiB
      Poisson: 0.00 MiB
      vbar: 0.25 MiB
    Wavefunctions: 317.25 MiB
      Arrays psit_nG: 281.81 MiB
      Eigensolver: 18.27 MiB
      Projections: 5.41 MiB
      Projectors: 8.81 MiB
      PW-descriptor: 2.95 MiB

Total number of cores used: 32
Parallelization over k-points: 16
Domain decomposition: 2 x 1 x 1

Number of atoms: 28
Number of atomic orbitals: 148
Number of bands in calculation: 112
Number of valence electrons: 180
Bands to converge: occupied

... initialized

Initializing position-dependent things.

Density initialized from atomic densities
Creating initial wave functions:
  112 bands from LCAO basis set

                                           
                                           
                                           
                                           
                                           
               O     O  P  O               
            PO           OMn     O         
                  O          MO            
            O        Li O                  
             Mn  Mn          OP            
         O       O Li O                    
         Li     O P         O              
       Li                                  
                                           
                                           
                                           
                                           

Positions:
   0 O     -1.280122   -2.495595   -1.112331    ( 0.0000,  0.0000,  0.0000)
   1 O     -3.023238    2.918858    1.191723    ( 0.0000,  0.0000,  0.0000)
   2 O      1.997451    0.467212    1.441442    ( 0.0000,  0.0000,  0.0000)
   3 O      3.750343   -0.043905   -0.862614    ( 0.0000,  0.0000,  0.0000)
   4 O      1.997419    2.918835    1.441465    ( 0.0000,  0.0000,  0.0000)
   5 O      3.740372   -2.495531   -0.862587    ( 0.0000,  0.0000,  0.0000)
   6 O     -1.280154   -0.043891   -1.112309    ( 0.0000,  0.0000,  0.0000)
   7 O     -3.023210    0.467136    1.191750    ( 0.0000,  0.0000,  0.0000)
   8 O     -4.147405   -1.269737   -0.856207    ( 0.0000,  0.0000,  0.0000)
   9 O     -0.155894    1.692986    1.447725    ( 0.0000,  0.0000,  0.0000)
  10 O      4.864578    1.693016    1.185324    ( 0.0000,  0.0000,  0.0000)
  11 O      0.873163   -1.269706   -1.118625    ( 0.0000,  0.0000,  0.0000)
  12 Mn    -2.437108   -1.269902    0.302197    ( 0.0000,  0.0000,  1.0000)
  13 Mn    -1.866187    1.693156   -2.001927    ( 0.0000,  0.0000, -1.0000)
  14 Mn     3.154299    1.693181    0.026917    ( 0.0000,  0.0000, -1.0000)
  15 Mn     2.583444   -1.269877    2.331074    ( 0.0000,  0.0000,  1.0000)
  16 P     -0.543052   -1.269720   -1.734187    ( 0.0000,  0.0000,  0.0000)
  17 P     -3.760282    1.692974    0.569859    ( 0.0000,  0.0000,  0.0000)
  18 P      1.260300    1.693000    2.063344    ( 0.0000,  0.0000,  0.0000)
  19 P      4.477470   -1.269695   -0.240696    ( 0.0000,  0.0000,  0.0000)
  20 O     -0.544413   -1.269738    1.348523    ( 0.0000,  0.0000,  0.0000)
  21 O     -3.758895    1.692992   -0.955558    ( 0.0000,  0.0000,  0.0000)
  22 O      1.261690    1.693018   -1.019367    ( 0.0000,  0.0000,  0.0000)
  23 O      4.476045   -1.269713    1.284716    ( 0.0000,  0.0000,  0.0000)
  24 Li    -4.662027   -2.751322   -2.139440    ( 0.0000,  0.0000,  0.0000)
  25 Li     0.358703   -2.751277    0.164614    ( 0.0000,  0.0000,  0.0000)
  26 Li    -4.662011    0.211617   -2.139439    ( 0.0000,  0.0000,  0.0000)
  27 Li     0.358720    0.211628    0.164615    ( 0.0000,  0.0000,  0.0000)

Unit cell:
           periodic     x           y           z      points  spacing
  1. axis:    yes   10.041096    0.000054   -0.000022    60     0.1674
  2. axis:    yes    0.000032    5.925857    0.000001    35     0.1693
  3. axis:    yes   -0.000010    0.000001    4.608134    27     0.1707

  Lengths:  10.041096   5.925857   4.608134
  Angles:   89.999974  90.000250  89.999381

Effective grid spacing dv^(1/3) = 0.1691

                     log10-error:           total        iterations:
           time      wfs    density  force  energy       poisson  magmom
iter:   1  18:37:37                       -233.728698             +0.0000
iter:   2  18:38:13  -0.47  -0.95         -231.554427             +0.0020
iter:   3  18:38:49  -0.61  -1.00         -220.787715             +0.0021
iter:   4  18:39:25  -1.17  -1.31         -220.682197             +0.0983
iter:   5  18:40:01  -2.11  -1.41         -222.913185             +0.0170
iter:   6  18:40:37  -2.15  -1.39         -222.862608             +0.0759
iter:   7  18:41:14  -2.06  -1.55         -223.942421             +0.3049
iter:   8  18:41:50  -2.48  -1.74         -225.431645             +0.5191
iter:   9  18:42:26  -2.46  -1.89         -226.351245             +0.1534
iter:  10  18:43:02  -2.01  -1.94         -226.377664             -0.0153
iter:  11  18:43:38  -3.04  -2.05         -226.349876             +0.0037
iter:  12  18:44:14  -2.19  -2.08         -226.236451             +0.0039
iter:  13  18:44:50  -3.37  -2.57         -226.206384             +0.0011
iter:  14  18:45:26  -2.96  -2.64         -226.186281             -0.0008
iter:  15  18:46:02  -3.85  -2.86         -226.179696             -0.0001
iter:  16  18:46:38  -4.55  -3.11         -226.176822             +0.0001
iter:  17  18:47:14  -4.93  -3.23         -226.175569             +0.0000
iter:  18  18:47:50  -4.98  -3.25         -226.175173             +0.0000
iter:  19  18:48:26  -5.72  -3.27         -226.175131             +0.0000
iter:  20  18:49:02  -5.12  -3.34         -226.175656             -0.0000
iter:  21  18:49:38  -6.11  -3.51         -226.175351             +0.0000
iter:  22  18:50:14  -4.63  -3.59         -226.174820             +0.0000
iter:  23  18:50:51  -5.92  -3.97         -226.174777             +0.0000
iter:  24  18:51:27  -6.48  -4.00         -226.174729             -0.0000
iter:  25  18:52:03  -6.39  -4.06         -226.174716             -0.0000
iter:  26  18:52:39  -6.52  -4.28         -226.174701             -0.0000
iter:  27  18:53:15  -7.00  -4.35         -226.174695             -0.0000
iter:  28  18:54:00  -7.68  -4.38         -226.174695             -0.0000
iter:  29  18:54:45  -7.79  -4.44    -2.51-226.174694             -0.0000
iter:  30  18:55:30  -7.76  -4.62    -2.91-226.174694             -0.0000
iter:  31  18:56:16  -7.57  -4.69    -2.55-226.174695             -0.0000
iter:  32  18:57:01  -8.04  -4.80    -2.87-226.174695             -0.0000
iter:  33  18:57:46  -8.05  -4.92    -2.79-226.174694             -0.0000
iter:  34  18:58:31  -8.00  -5.10    -2.97-226.174693             -0.0000
iter:  35  18:59:17  -8.42  -5.20    -3.32-226.174693             -0.0000
iter:  36  19:00:02  -9.37  -5.28    -4.01-226.174693             -0.0000
iter:  37  19:00:47  -8.88  -5.36    -3.24-226.174693             -0.0000
iter:  38  19:01:32  -9.56  -5.57    -3.68-226.174693             -0.0000
iter:  39  19:02:18  -9.77  -5.67    -3.68-226.174693             -0.0000
iter:  40  19:03:03  -9.99  -5.76    -4.05-226.174693             +0.0000
iter:  41  19:03:48  -9.93  -5.84    -3.84-226.174693             -0.0000
iter:  42  19:04:34 -10.32  -5.97    -4.00-226.174693             +0.0000
iter:  43  19:05:19 -10.27  -6.01    -4.19-226.174693             +0.0000
iter:  44  19:06:04 -10.92  -6.13    -4.10-226.174693             +0.0000
iter:  45  19:06:49 -10.88  -6.23    -3.95-226.174693             +0.0000
iter:  46  19:07:35 -11.41  -6.37    -4.51-226.174693             +0.0000
iter:  47  19:08:20 -10.73  -6.41    -4.15-226.174693             +0.0000
iter:  48  19:09:05 -12.00  -6.55    -4.84-226.174693             +0.0000
iter:  49  19:09:51 -11.20  -6.57    -4.45-226.174693             +0.0000
iter:  50  19:10:36 -12.11  -6.71    -4.69-226.174693             +0.0000
iter:  51  19:11:21 -12.69  -6.77    -5.19-226.174693             +0.0000
iter:  52  19:12:07 -13.41  -6.85    -5.36-226.174693             +0.0000
iter:  53  19:12:52 -11.57  -6.92    -4.59-226.174693             -0.0000
iter:  54  19:13:37 -12.72  -7.29    -5.34-226.174693             -0.0000
iter:  55  19:14:23 -13.51  -7.41    -5.61-226.174693             -0.0000
iter:  56  19:15:08 -12.52  -7.49    -5.15-226.174693             +0.0000
iter:  57  19:15:53 -13.27  -7.75    -5.88-226.174693             +0.0000
iter:  58  19:16:39 -14.11  -7.84    -6.18-226.174693             +0.0000

Converged after 58 iterations.

Dipole moment: (18.322486, -2.310194, -4.527079) |e|*Ang

Total magnetic moment: (0.000000, 0.000000, 0.000000)
Local magnetic moments:
   0 O  ( 0.000000,  0.000000, -0.001825)
   1 O  ( 0.000000,  0.000000,  0.001788)
   2 O  ( 0.000000,  0.000000,  0.001827)
   3 O  ( 0.000000,  0.000000, -0.001828)
   4 O  ( 0.000000,  0.000000,  0.001867)
   5 O  ( 0.000000,  0.000000, -0.001818)
   6 O  ( 0.000000,  0.000000, -0.001831)
   7 O  ( 0.000000,  0.000000,  0.001790)
   8 O  ( 0.000000,  0.000000,  0.031228)
   9 O  ( 0.000000,  0.000000, -0.031037)
  10 O  ( 0.000000,  0.000000, -0.031149)
  11 O  ( 0.000000,  0.000000,  0.031098)
  12 Mn ( 0.000000,  0.000000,  4.395783)
  13 Mn ( 0.000000,  0.000000, -4.395802)
  14 Mn ( 0.000000,  0.000000, -4.396777)
  15 Mn ( 0.000000,  0.000000,  4.396573)
  16 P  ( 0.000000,  0.000000,  0.000856)
  17 P  ( 0.000000,  0.000000, -0.000849)
  18 P  ( 0.000000,  0.000000, -0.000887)
  19 P  ( 0.000000,  0.000000,  0.000843)
  20 O  ( 0.000000,  0.000000,  0.028373)
  21 O  ( 0.000000,  0.000000, -0.028441)
  22 O  ( 0.000000,  0.000000, -0.028383)
  23 O  ( 0.000000,  0.000000,  0.028460)
  24 Li ( 0.000000,  0.000000,  0.000005)
  25 Li ( 0.000000,  0.000000, -0.000001)
  26 Li ( 0.000000,  0.000000, -0.000007)
  27 Li ( 0.000000,  0.000000,  0.000000)

Energy contributions relative to reference atoms: (reference = -196157.275402)

Kinetic:       +277.894998
Potential:     -241.171891
External:        +0.000000
XC:            -264.785901
Entropy (-ST):   -0.000000
Local:           +1.888101
--------------------------
Free energy:   -226.174693
Extrapolated:  -226.174693

Spin contamination: 9.456400 electrons
Showing only first 2 kpts
                      Up                     Down
 Kpt  Band  Eigenvalues  Occupancy  Eigenvalues  Occupancy
  0    88      6.52738    0.00694      6.52648    0.00694
  0    89      6.56430    0.00694      6.56080    0.00694
  0    90      8.42286    0.00000      8.42413    0.00000
  0    91      8.44726    0.00000      8.44696    0.00000

  1    88      6.56504    0.00694      6.56489    0.00694
  1    89      6.59694    0.00694      6.59275    0.00694
  1    90      8.37956    0.00000      8.37885    0.00000
  1    91      8.40403    0.00000      8.40346    0.00000


Fermi level: 7.60574

Gap: 1.695 eV
Transition (v -> c):
  (s=0, k=74, n=89, [0.08, -0.42, 0.12]) -> (s=1, k=62, n=90, [-0.08, 0.08, 0.12])
Writing to born-0.01-3x+.gpw (mode='all')

Timing:                              incl.     excl.
-----------------------------------------------------------
Hamiltonian:                         0.357     0.002   0.0% |
 Atomic:                             0.050     0.050   0.0% |
  XC Correction:                     0.000     0.000   0.0% |
 Calculate atomic Hamiltonians:      0.145     0.145   0.0% |
 Communicate:                        0.002     0.002   0.0% |
 Initialize Hamiltonian:             0.000     0.000   0.0% |
 Poisson:                            0.001     0.001   0.0% |
 XC 3D grid:                         0.156     0.156   0.0% |
LCAO initialization:               139.263     0.651   0.0% |
 LCAO eigensolver:                  37.999     0.002   0.0% |
  Calculate projections:             0.056     0.056   0.0% |
  DenseAtomicCorrection:             0.088     0.088   0.0% |
  Distribute overlap matrix:         0.009     0.009   0.0% |
  Orbital Layouts:                   0.340     0.340   0.0% |
  Potential matrix:                 37.405    37.405   0.7% |
  Sum over cells:                    0.099     0.099   0.0% |
 LCAO to grid:                      98.270    98.270   1.8% ||
 Set positions (LCAO WFS):           2.344     0.370   0.0% |
  Basic WFS set positions:           0.001     0.001   0.0% |
  Basis functions set positions:     0.000     0.000   0.0% |
  P tci:                             1.052     1.052   0.0% |
  ST tci:                            0.704     0.704   0.0% |
  mktci:                             0.215     0.215   0.0% |
PWDescriptor:                        0.023     0.023   0.0% |
SCF-cycle:                        2384.297    16.928   0.3% |
 Davidson:                        1976.298   633.097  11.5% |----|
  Apply H:                         139.814   135.532   2.5% ||
   HMM T:                            4.282     4.282   0.1% |
  Subspace diag:                   292.562     0.178   0.0% |
   calc_h_matrix:                  190.070    51.641   0.9% |
    Apply H:                       138.430   134.217   2.4% ||
     HMM T:                          4.213     4.213   0.1% |
   diagonalize:                      6.757     6.757   0.1% |
   rotate_psi:                      95.556    95.556   1.7% ||
  calc. matrices:                  624.491   348.296   6.3% |--|
   Apply H:                        276.195   267.944   4.9% |-|
    HMM T:                           8.251     8.251   0.2% |
  diagonalize:                      91.071    91.071   1.7% ||
  rotate_psi:                      195.263   195.263   3.6% ||
 Density:                           79.977     0.002   0.0% |
  Atomic density matrices:           1.441     1.441   0.0% |
  Mix:                              10.984    10.984   0.2% |
  Multipole moments:                 0.034     0.034   0.0% |
  Pseudo density:                   67.516    67.515   1.2% |
   Symmetrize density:               0.002     0.002   0.0% |
 Forces:                           286.530   286.530   5.2% |-|
 Hamiltonian:                       20.578     0.137   0.0% |
  Atomic:                            2.881     2.880   0.1% |
   XC Correction:                    0.000     0.000   0.0% |
  Calculate atomic Hamiltonians:     8.298     8.298   0.2% |
  Communicate:                       0.102     0.102   0.0% |
  Poisson:                           0.067     0.067   0.0% |
  XC 3D grid:                        9.093     9.093   0.2% |
 Orthonormalize:                     3.986     0.004   0.0% |
  calc_s_matrix:                     0.478     0.478   0.0% |
  inverse-cholesky:                  0.054     0.054   0.0% |
  projections:                       2.598     2.598   0.0% |
  rotate_psi_s:                      0.852     0.852   0.0% |
Set symmetry:                        0.000     0.000   0.0% |
Other:                            2965.074  2965.074  54.0% |---------------------|
-----------------------------------------------------------
Total:                                      5489.014 100.0%

Memory usage: 12.39 GiB
Date: Sun Mar 21 20:06:02 2021
