
  ___ ___ ___ _ _ _  
 |   |   |_  | | | | 
 | | | | | . | | | | 
 |__ |  _|___|_____|  20.10.1b1
 |___|_|             

User:   madkru@i008.nifl.fysik.dtu.dk
Date:   Wed Mar 24 13:12:38 2021
Arch:   x86_64
Pid:    26969
Python: 3.7.4
gpaw:   /home/niflheim/madkru/venv_folder/gpaw/gpaw (d224efde0f)
_gpaw:  /home/niflheim/madkru/venv_folder/gpaw/build/lib.linux-x86_64-ivybridge-3.7/
        _gpaw.cpython-37m-x86_64-linux-gnu.so (4fd39e8b1e)
ase:    /home/niflheim/madkru/venv_folder/ase/ase (version 3.21.0b1-4d5a73cb29)
numpy:  /home/niflheim/madkru/venv_folder/lib/python3.7/site-packages/numpy (version 1.19.4)
scipy:  /home/niflheim/madkru/venv_folder/lib/python3.7/site-packages/scipy (version 1.5.4)
libxc:  4.3.4
units:  Angstrom and eV
cores: 64
OMP_NUM_THREADS: 1

Input parameters:
  convergence: {bands: occupied,
                density: 0.0001,
                eigenstates: 4e-08,
                energy: 0.0005,
                forces: 1e-06}
  kpts: [6 6 4]
  mode: {ecut: 600.0,
         gammacentered: False,
         name: pw}
  occupations: {fixmagmom: False,
                name: fermi-dirac,
                width: 0.001}
  symmetry: {point_group: False,
             time_reversal: False}

System changes: positions, numbers, cell, pbc, initial_charges, initial_magmoms 

Initialize ...

O-setup:
  name: Oxygen
  id: 9b9d51c344dea68c822856295a461509
  Z: 8.0
  valence: 6
  core: 2
  charge: 0.0
  file: /home/modules/software/GPAW-setups/0.9.20000/O.LDA.gz
  compensation charges: gauss, rc=0.21, lmax=2
  cutoffs: 1.17(filt), 0.83(core),
  valence states:
                energy  radius
    2s(2.00)   -23.752   0.688
    2p(4.00)    -9.195   0.598
    *s           3.459   0.688
    *p          18.016   0.598
    *d           0.000   0.619

  Using partial waves for O as LCAO basis

Mn-setup:
  name: Manganese
  id: 0d715a8018be061a6e9ea6f2d364ac92
  Z: 25.0
  valence: 15
  core: 10
  charge: 0.0
  file: /home/modules/software/GPAW-setups/0.9.20000/Mn.LDA.gz
  compensation charges: gauss, rc=0.38, lmax=2
  cutoffs: 2.14(filt), 0.86(core),
  valence states:
                energy  radius
    3s(2.00)   -85.387   1.275
    4s(2.00)    -5.282   1.275
    3p(6.00)   -54.493   1.281
    4p(0.00)    -1.471   1.281
    3d(5.00)    -7.009   1.138
    *d          20.203   1.138

  Using partial waves for Mn as LCAO basis

P-setup:
  name: Phosphorus
  id: a5561c299094968922a179ab894d2e2d
  Z: 15.0
  valence: 5
  core: 10
  charge: 0.0
  file: /home/modules/software/GPAW-setups/0.9.20000/P.LDA.gz
  compensation charges: gauss, rc=0.30, lmax=2
  cutoffs: 1.69(filt), 1.81(core),
  valence states:
                energy  radius
    3s(2.00)   -14.015   0.953
    3p(3.00)    -5.596   0.953
    *s          13.197   0.953
    *p          21.615   0.953
    *d           0.000   0.953

  Using partial waves for P as LCAO basis

Li-setup:
  name: Lithium
  id: b73562207f97a71b6967473b66fe8b65
  Z: 3.0
  valence: 1
  core: 2
  charge: 0.0
  file: /home/modules/software/GPAW-setups/0.9.20000/Li.LDA.gz
  compensation charges: gauss, rc=0.33, lmax=2
  cutoffs: 1.91(filt), 2.55(core),
  valence states:
                energy  radius
    2s(1.00)    -2.874   1.058
    2p(0.00)    -1.126   1.058
    *s          24.338   1.058

  Using partial waves for Li as LCAO basis

Reference energy: -196157.275402

Spin-polarized calculation.
Magnetic moment: 0.000000

Convergence criteria:
  Maximum total energy change: 0.0005 eV / electron
  Maximum integral of absolute density change: 0.0001 electrons
  Maximum integral of absolute eigenstate change: 4e-08 eV^2
  Maximum change in atomic force: 1e-06 eV / Ang
  Maximum number of iterations: 333

Symmetries present (total): 1

  ( 1  0  0)
  ( 0  1  0)
  ( 0  0  1)

144 k-points: 6 x 6 x 4 Monkhorst-Pack grid
144 k-points in the irreducible part of the Brillouin zone
       k-points in crystal coordinates                weights
   0:    -0.41666667   -0.41666667   -0.37500000          1/144
   1:    -0.41666667   -0.41666667   -0.12500000          1/144
   2:    -0.41666667   -0.41666667    0.12500000          1/144
   3:    -0.41666667   -0.41666667    0.37500000          1/144
   4:    -0.41666667   -0.25000000   -0.37500000          1/144
   5:    -0.41666667   -0.25000000   -0.12500000          1/144
   6:    -0.41666667   -0.25000000    0.12500000          1/144
   7:    -0.41666667   -0.25000000    0.37500000          1/144
   8:    -0.41666667   -0.08333333   -0.37500000          1/144
   9:    -0.41666667   -0.08333333   -0.12500000          1/144
          ...
 143:     0.41666667    0.41666667    0.37500000          1/144

Wave functions: Plane wave expansion
  Cutoff energy: 600.000 eV
  Number of coefficients (min, max): 9132, 9161
  Pulay-stress correction: 0.000000 eV/Ang^3 (de/decut=0.000000)
  Using FFTW library
  ScaLapack parameters: grid=1x1, blocksize=None
  Wavefunction extrapolation:
    Improved wavefunction reuse through dual PAW basis 

  Fermi-Dirac: width=0.0010 eV

Eigensolver
   Davidson(niter=2, smin=None, normalize=True) 

Densities:
  Coarse grid: 60*35*27 grid
  Fine grid: 120*70*54 grid
  Total Charge: 0.000000 

Density mixing:
  Method: difference
  Backend: pulay
  Linear mixing parameter: 0.05
  Mixing with 5 old densities
  Damping of long wave oscillations: 50 

Hamiltonian:
  XC and Coulomb potentials evaluated on a 120*70*54 grid
  Using the LDA Exchange-Correlation functional
 

Memory estimate:
  Process memory now: 12275.96 MiB
  Calculator: 322.47 MiB
    Density: 9.62 MiB
      Arrays: 3.79 MiB
      Localized functions: 4.27 MiB
      Mixer: 1.56 MiB
    Hamiltonian: 2.94 MiB
      Arrays: 2.82 MiB
      XC: 0.00 MiB
      Poisson: 0.00 MiB
      vbar: 0.12 MiB
    Wavefunctions: 309.91 MiB
      Arrays psit_nG: 281.81 MiB
      Eigensolver: 18.27 MiB
      Projections: 2.71 MiB
      Projectors: 4.40 MiB
      PW-descriptor: 2.71 MiB

Total number of cores used: 64
Parallelization over k-points: 16
Domain decomposition: 2 x 2 x 1

Number of atoms: 28
Number of atomic orbitals: 148
Number of bands in calculation: 112
Number of valence electrons: 180
Bands to converge: occupied

... initialized

Initializing position-dependent things.

Density initialized from atomic densities
Creating initial wave functions:
  112 bands from LCAO basis set

                                           
                                           
                                           
                                           
                                           
               O     O  P  O               
            PO           OMn     O         
                  O          MO            
            O        Li O                  
             Mn  Mn          OP            
         O       O Li O                    
         Li     O P         O              
       Li                                  
                                           
                                           
                                           
                                           

Positions:
   0 O     -1.280122   -2.495595   -1.112331    ( 0.0000,  0.0000,  0.0000)
   1 O     -3.023238    2.918858    1.191723    ( 0.0000,  0.0000,  0.0000)
   2 O      1.997451    0.467212    1.441442    ( 0.0000,  0.0000,  0.0000)
   3 O      3.740343   -0.043905   -0.862614    ( 0.0000,  0.0000,  0.0000)
   4 O      1.997419    2.918835    1.441465    ( 0.0000,  0.0000,  0.0000)
   5 O      3.740372   -2.495531   -0.862587    ( 0.0000,  0.0000,  0.0000)
   6 O     -1.280154   -0.043891   -1.112309    ( 0.0000,  0.0000,  0.0000)
   7 O     -3.023210    0.467136    1.191750    ( 0.0000,  0.0000,  0.0000)
   8 O     -4.147405   -1.269737   -0.856207    ( 0.0000,  0.0000,  0.0000)
   9 O     -0.155894    1.692986    1.447725    ( 0.0000,  0.0000,  0.0000)
  10 O      4.864578    1.693016    1.185324    ( 0.0000,  0.0000,  0.0000)
  11 O      0.873163   -1.269706   -1.108625    ( 0.0000,  0.0000,  0.0000)
  12 Mn    -2.437108   -1.269902    0.302197    ( 0.0000,  0.0000,  1.0000)
  13 Mn    -1.866187    1.693156   -2.001927    ( 0.0000,  0.0000, -1.0000)
  14 Mn     3.154299    1.693181    0.026917    ( 0.0000,  0.0000, -1.0000)
  15 Mn     2.583444   -1.269877    2.331074    ( 0.0000,  0.0000,  1.0000)
  16 P     -0.543052   -1.269720   -1.734187    ( 0.0000,  0.0000,  0.0000)
  17 P     -3.760282    1.692974    0.569859    ( 0.0000,  0.0000,  0.0000)
  18 P      1.260300    1.693000    2.063344    ( 0.0000,  0.0000,  0.0000)
  19 P      4.477470   -1.269695   -0.240696    ( 0.0000,  0.0000,  0.0000)
  20 O     -0.544413   -1.269738    1.348523    ( 0.0000,  0.0000,  0.0000)
  21 O     -3.758895    1.692992   -0.955558    ( 0.0000,  0.0000,  0.0000)
  22 O      1.261690    1.693018   -1.019367    ( 0.0000,  0.0000,  0.0000)
  23 O      4.476045   -1.269713    1.284716    ( 0.0000,  0.0000,  0.0000)
  24 Li    -4.662027   -2.751322   -2.139440    ( 0.0000,  0.0000,  0.0000)
  25 Li     0.358703   -2.751277    0.164614    ( 0.0000,  0.0000,  0.0000)
  26 Li    -4.662011    0.211617   -2.139439    ( 0.0000,  0.0000,  0.0000)
  27 Li     0.358720    0.211628    0.164615    ( 0.0000,  0.0000,  0.0000)

Unit cell:
           periodic     x           y           z      points  spacing
  1. axis:    yes   10.041096    0.000054   -0.000022    60     0.1674
  2. axis:    yes    0.000032    5.925857    0.000001    35     0.1693
  3. axis:    yes   -0.000010    0.000001    4.608134    27     0.1707

  Lengths:  10.041096   5.925857   4.608134
  Angles:   89.999974  90.000250  89.999381

Effective grid spacing dv^(1/3) = 0.1691

                     log10-error:           total        iterations:
           time      wfs    density  force  energy       poisson  magmom
iter:   1  13:14:11                       -233.731292             +0.0000
iter:   2  13:14:31  -0.47  -0.95         -231.549382             +0.0023
iter:   3  13:14:50  -0.60  -1.00         -220.813976             +0.0024
iter:   4  13:15:10  -1.21  -1.30         -221.364125             +0.4085
iter:   5  13:15:30  -2.09  -1.38         -222.362256             +0.2314
iter:   6  13:15:50  -2.23  -1.39         -224.463175             +0.0180
iter:   7  13:16:10  -2.08  -1.48         -224.527232             -0.8863
iter:   8  13:16:29  -2.41  -1.59         -225.623106             -0.9489
iter:   9  13:16:49  -2.52  -1.89         -226.449963             -0.2925
iter:  10  13:17:09  -2.35  -2.05         -226.308248             -0.0438
iter:  11  13:17:29  -2.70  -2.17         -226.270213             -0.0259
iter:  12  13:17:48  -2.49  -2.24         -226.251472             -0.0136
iter:  13  13:18:08  -3.90  -2.78         -226.226193             -0.0069
iter:  14  13:18:28  -3.14  -2.81         -226.180135             -0.0006
iter:  15  13:18:47  -3.64  -2.95         -226.180082             -0.0007
iter:  16  13:19:07  -4.57  -3.06         -226.177070             -0.0001
iter:  17  13:19:27  -4.37  -3.11         -226.175968             -0.0004
iter:  18  13:19:47  -5.17  -3.22         -226.175699             -0.0001
iter:  19  13:20:06  -5.04  -3.25         -226.175005             +0.0000
iter:  20  13:20:26  -5.07  -3.33         -226.175262             +0.0000
iter:  21  13:20:46  -5.39  -3.37         -226.175275             +0.0000
iter:  22  13:21:05  -4.98  -3.46         -226.175194             -0.0000
iter:  23  13:21:25  -5.98  -3.60         -226.175039             +0.0000
iter:  24  13:21:45  -5.40  -3.67         -226.174790             +0.0000
iter:  25  13:22:05  -5.91  -3.85         -226.174812             +0.0000
iter:  26  13:22:24  -6.24  -3.94         -226.174837             +0.0000
iter:  27  13:22:44  -6.21  -3.98         -226.174803             +0.0000
iter:  28  13:23:04  -6.06  -4.03         -226.174746             +0.0000
iter:  29  13:23:23  -6.45  -4.19         -226.174749             +0.0000
iter:  30  13:23:43  -6.01  -4.23         -226.174750             -0.0000
iter:  31  13:24:03  -6.74  -4.52         -226.174734             +0.0000
iter:  32  13:24:27  -7.63  -4.74         -226.174733             +0.0000
iter:  33  13:24:47  -7.37  -4.78         -226.174734             +0.0000
iter:  34  13:25:11  -8.33  -4.94    -2.66-226.174733             +0.0000
iter:  35  13:25:36  -7.59  -5.00    -2.77-226.174733             +0.0000
iter:  36  13:26:00  -8.54  -5.19    -3.11-226.174733             +0.0000
iter:  37  13:26:24  -9.16  -5.46    -3.56-226.174733             +0.0000
iter:  38  13:26:49  -8.76  -5.49    -3.36-226.174733             +0.0000
iter:  39  13:27:13  -9.80  -5.68    -3.46-226.174733             +0.0000
iter:  40  13:27:37 -10.69  -5.85    -4.10-226.174733             +0.0000
iter:  41  13:28:02  -9.60  -5.91    -3.73-226.174733             +0.0000
iter:  42  13:28:26 -10.51  -6.11    -4.19-226.174733             +0.0000
iter:  43  13:28:50 -10.05  -6.29    -3.83-226.174733             +0.0000
iter:  44  13:29:15 -11.27  -6.61    -4.39-226.174733             +0.0000
iter:  45  13:29:39 -12.13  -6.77    -5.00-226.174733             +0.0000
iter:  46  13:30:04 -11.38  -6.81    -4.67-226.174733             +0.0000
iter:  47  13:30:28 -12.51  -7.06    -5.47-226.174733             +0.0000
iter:  48  13:30:53 -12.37  -7.05    -5.05-226.174733             -0.0000
iter:  49  13:31:20 -12.10  -7.12    -5.08-226.174733             +0.0000
iter:  50  13:31:44 -12.33  -7.18    -5.28-226.174733             +0.0000
iter:  51  13:32:09 -12.49  -7.25    -5.14-226.174733             +0.0000
iter:  52  13:32:33 -13.30  -7.32    -5.62-226.174733             +0.0000
iter:  53  13:32:57 -13.36  -7.39    -5.75-226.174733             +0.0000
iter:  54  13:33:22 -12.69  -7.45    -5.22-226.174733             +0.0000
iter:  55  13:33:46 -12.96  -7.58    -5.48-226.174733             +0.0000
iter:  56  13:34:11 -14.12  -7.68    -5.79-226.174733             +0.0000
iter:  57  13:34:35 -14.03  -7.72    -5.96-226.174733             +0.0000
iter:  58  13:35:00 -13.34  -7.74    -5.41-226.174733             +0.0000
iter:  59  13:35:24 -13.99  -8.01    -5.77-226.174733             +0.0000
iter:  60  13:35:48 -15.14  -8.11    -6.51-226.174733             +0.0000

Converged after 60 iterations.

Dipole moment: (18.330292, -2.308127, -4.521760) |e|*Ang

Total magnetic moment: (0.000000, 0.000000, 0.000000)
Local magnetic moments:
   0 O  ( 0.000000,  0.000000, -0.001868)
   1 O  ( 0.000000,  0.000000,  0.001811)
   2 O  ( 0.000000,  0.000000,  0.001783)
   3 O  ( 0.000000,  0.000000, -0.001830)
   4 O  ( 0.000000,  0.000000,  0.001777)
   5 O  ( 0.000000,  0.000000, -0.001825)
   6 O  ( 0.000000,  0.000000, -0.001873)
   7 O  ( 0.000000,  0.000000,  0.001817)
   8 O  ( 0.000000,  0.000000,  0.031133)
   9 O  ( 0.000000,  0.000000, -0.031119)
  10 O  ( 0.000000,  0.000000, -0.031088)
  11 O  ( 0.000000,  0.000000,  0.031094)
  12 Mn ( 0.000000,  0.000000,  4.395630)
  13 Mn ( 0.000000,  0.000000, -4.395848)
  14 Mn ( 0.000000,  0.000000, -4.395769)
  15 Mn ( 0.000000,  0.000000,  4.396401)
  16 P  ( 0.000000,  0.000000,  0.000792)
  17 P  ( 0.000000,  0.000000, -0.000872)
  18 P  ( 0.000000,  0.000000, -0.000883)
  19 P  ( 0.000000,  0.000000,  0.000860)
  20 O  ( 0.000000,  0.000000,  0.028293)
  21 O  ( 0.000000,  0.000000, -0.028424)
  22 O  ( 0.000000,  0.000000, -0.028436)
  23 O  ( 0.000000,  0.000000,  0.028483)
  24 Li ( 0.000000,  0.000000, -0.000001)
  25 Li ( 0.000000,  0.000000,  0.000008)
  26 Li ( 0.000000,  0.000000, -0.000001)
  27 Li ( 0.000000,  0.000000,  0.000008)

Energy contributions relative to reference atoms: (reference = -196157.275402)

Kinetic:       +277.267162
Potential:     -240.685311
External:        +0.000000
XC:            -264.646320
Entropy (-ST):   -0.000000
Local:           +1.889736
--------------------------
Free energy:   -226.174733
Extrapolated:  -226.174733

Spin contamination: 9.455562 electrons
Showing only first 2 kpts
                      Up                     Down
 Kpt  Band  Eigenvalues  Occupancy  Eigenvalues  Occupancy
  0    88      6.52412    0.00694      6.52968    0.00694
  0    89      6.55751    0.00694      6.56328    0.00694
  0    90      8.42589    0.00000      8.42438    0.00000
  0    91      8.44742    0.00000      8.44609    0.00000

  1    88      6.56251    0.00694      6.56819    0.00694
  1    89      6.58955    0.00694      6.59531    0.00694
  1    90      8.38226    0.00000      8.38102    0.00000
  1    91      8.40430    0.00000      8.40340    0.00000


Fermi level: 7.86803

Gap: 1.698 eV
Transition (v -> c):
  (s=1, k=49, n=89, [-0.08, -0.42, -0.12]) -> (s=1, k=82, n=90, [0.08, -0.08, 0.12])
Writing to born-0.01-11z+.gpw (mode='all')

Timing:                              incl.     excl.
-----------------------------------------------------------
Hamiltonian:                         0.213     0.002   0.0% |
 Atomic:                             0.050     0.050   0.0% |
  XC Correction:                     0.000     0.000   0.0% |
 Calculate atomic Hamiltonians:      0.073     0.073   0.0% |
 Communicate:                        0.002     0.002   0.0% |
 Initialize Hamiltonian:             0.000     0.000   0.0% |
 Poisson:                            0.001     0.001   0.0% |
 XC 3D grid:                         0.084     0.084   0.0% |
LCAO initialization:                67.323     0.691   0.0% |
 LCAO eigensolver:                  19.588     0.002   0.0% |
  Calculate projections:             0.029     0.029   0.0% |
  DenseAtomicCorrection:             0.045     0.045   0.0% |
  Distribute overlap matrix:         0.032     0.032   0.0% |
  Orbital Layouts:                   0.431     0.431   0.0% |
  Potential matrix:                 18.962    18.962   0.6% |
  Sum over cells:                    0.088     0.088   0.0% |
 LCAO to grid:                      45.724    45.724   1.3% ||
 Set positions (LCAO WFS):           1.320     0.193   0.0% |
  Basic WFS set positions:           0.001     0.001   0.0% |
  Basis functions set positions:     0.000     0.000   0.0% |
  P tci:                             0.523     0.523   0.0% |
  ST tci:                            0.385     0.385   0.0% |
  mktci:                             0.217     0.217   0.0% |
PWDescriptor:                        0.024     0.024   0.0% |
SCF-cycle:                        1322.106     4.996   0.1% |
 Davidson:                        1123.208   343.910  10.0% |---|
  Apply H:                          78.192    76.046   2.2% ||
   HMM T:                            2.146     2.146   0.1% |
  Subspace diag:                   162.881     0.169   0.0% |
   calc_h_matrix:                  104.799    27.060   0.8% |
    Apply H:                        77.739    75.572   2.2% ||
     HMM T:                          2.167     2.167   0.1% |
   diagonalize:                      8.239     8.239   0.2% |
   rotate_psi:                      49.674    49.674   1.4% ||
  calc. matrices:                  336.320   183.517   5.3% |-|
   Apply H:                        152.803   148.860   4.3% |-|
    HMM T:                           3.943     3.943   0.1% |
  diagonalize:                      94.389    94.389   2.7% ||
  rotate_psi:                      107.517   107.517   3.1% ||
 Density:                           47.165     0.001   0.0% |
  Atomic density matrices:           1.053     1.053   0.0% |
  Mix:                               6.273     6.273   0.2% |
  Multipole moments:                 0.022     0.022   0.0% |
  Pseudo density:                   39.816    39.815   1.2% |
   Symmetrize density:               0.001     0.001   0.0% |
 Forces:                           131.681   131.681   3.8% |-|
 Hamiltonian:                       12.996     0.126   0.0% |
  Atomic:                            3.032     3.032   0.1% |
   XC Correction:                    0.000     0.000   0.0% |
  Calculate atomic Hamiltonians:     4.553     4.553   0.1% |
  Communicate:                       0.113     0.113   0.0% |
  Poisson:                           0.034     0.034   0.0% |
  XC 3D grid:                        5.137     5.137   0.1% |
 Orthonormalize:                     2.060     0.003   0.0% |
  calc_s_matrix:                     0.242     0.242   0.0% |
  inverse-cholesky:                  0.071     0.071   0.0% |
  projections:                       1.315     1.315   0.0% |
  rotate_psi_s:                      0.429     0.429   0.0% |
Set symmetry:                        0.000     0.000   0.0% |
Other:                            2050.857  2050.857  59.6% |-----------------------|
-----------------------------------------------------------
Total:                                      3440.523 100.0%

Memory usage: 12.00 GiB
Date: Wed Mar 24 14:09:58 2021
