
  ___ ___ ___ _ _ _  
 |   |   |_  | | | | 
 | | | | | . | | | | 
 |__ |  _|___|_____|  20.10.1b1
 |___|_|             

User:   madkru@i008.nifl.fysik.dtu.dk
Date:   Wed Mar 24 11:40:30 2021
Arch:   x86_64
Pid:    26969
Python: 3.7.4
gpaw:   /home/niflheim/madkru/venv_folder/gpaw/gpaw (d224efde0f)
_gpaw:  /home/niflheim/madkru/venv_folder/gpaw/build/lib.linux-x86_64-ivybridge-3.7/
        _gpaw.cpython-37m-x86_64-linux-gnu.so (4fd39e8b1e)
ase:    /home/niflheim/madkru/venv_folder/ase/ase (version 3.21.0b1-4d5a73cb29)
numpy:  /home/niflheim/madkru/venv_folder/lib/python3.7/site-packages/numpy (version 1.19.4)
scipy:  /home/niflheim/madkru/venv_folder/lib/python3.7/site-packages/scipy (version 1.5.4)
libxc:  4.3.4
units:  Angstrom and eV
cores: 64
OMP_NUM_THREADS: 1

Input parameters:
  convergence: {bands: occupied,
                density: 0.0001,
                eigenstates: 4e-08,
                energy: 0.0005,
                forces: 1e-06}
  kpts: [6 6 4]
  mode: {ecut: 600.0,
         gammacentered: False,
         name: pw}
  occupations: {fixmagmom: False,
                name: fermi-dirac,
                width: 0.001}
  symmetry: {point_group: False,
             time_reversal: False}

System changes: positions, numbers, cell, pbc, initial_charges, initial_magmoms 

Initialize ...

O-setup:
  name: Oxygen
  id: 9b9d51c344dea68c822856295a461509
  Z: 8.0
  valence: 6
  core: 2
  charge: 0.0
  file: /home/modules/software/GPAW-setups/0.9.20000/O.LDA.gz
  compensation charges: gauss, rc=0.21, lmax=2
  cutoffs: 1.17(filt), 0.83(core),
  valence states:
                energy  radius
    2s(2.00)   -23.752   0.688
    2p(4.00)    -9.195   0.598
    *s           3.459   0.688
    *p          18.016   0.598
    *d           0.000   0.619

  Using partial waves for O as LCAO basis

Mn-setup:
  name: Manganese
  id: 0d715a8018be061a6e9ea6f2d364ac92
  Z: 25.0
  valence: 15
  core: 10
  charge: 0.0
  file: /home/modules/software/GPAW-setups/0.9.20000/Mn.LDA.gz
  compensation charges: gauss, rc=0.38, lmax=2
  cutoffs: 2.14(filt), 0.86(core),
  valence states:
                energy  radius
    3s(2.00)   -85.387   1.275
    4s(2.00)    -5.282   1.275
    3p(6.00)   -54.493   1.281
    4p(0.00)    -1.471   1.281
    3d(5.00)    -7.009   1.138
    *d          20.203   1.138

  Using partial waves for Mn as LCAO basis

P-setup:
  name: Phosphorus
  id: a5561c299094968922a179ab894d2e2d
  Z: 15.0
  valence: 5
  core: 10
  charge: 0.0
  file: /home/modules/software/GPAW-setups/0.9.20000/P.LDA.gz
  compensation charges: gauss, rc=0.30, lmax=2
  cutoffs: 1.69(filt), 1.81(core),
  valence states:
                energy  radius
    3s(2.00)   -14.015   0.953
    3p(3.00)    -5.596   0.953
    *s          13.197   0.953
    *p          21.615   0.953
    *d           0.000   0.953

  Using partial waves for P as LCAO basis

Li-setup:
  name: Lithium
  id: b73562207f97a71b6967473b66fe8b65
  Z: 3.0
  valence: 1
  core: 2
  charge: 0.0
  file: /home/modules/software/GPAW-setups/0.9.20000/Li.LDA.gz
  compensation charges: gauss, rc=0.33, lmax=2
  cutoffs: 1.91(filt), 2.55(core),
  valence states:
                energy  radius
    2s(1.00)    -2.874   1.058
    2p(0.00)    -1.126   1.058
    *s          24.338   1.058

  Using partial waves for Li as LCAO basis

Reference energy: -196157.275402

Spin-polarized calculation.
Magnetic moment: 0.000000

Convergence criteria:
  Maximum total energy change: 0.0005 eV / electron
  Maximum integral of absolute density change: 0.0001 electrons
  Maximum integral of absolute eigenstate change: 4e-08 eV^2
  Maximum change in atomic force: 1e-06 eV / Ang
  Maximum number of iterations: 333

Symmetries present (total): 1

  ( 1  0  0)
  ( 0  1  0)
  ( 0  0  1)

144 k-points: 6 x 6 x 4 Monkhorst-Pack grid
144 k-points in the irreducible part of the Brillouin zone
       k-points in crystal coordinates                weights
   0:    -0.41666667   -0.41666667   -0.37500000          1/144
   1:    -0.41666667   -0.41666667   -0.12500000          1/144
   2:    -0.41666667   -0.41666667    0.12500000          1/144
   3:    -0.41666667   -0.41666667    0.37500000          1/144
   4:    -0.41666667   -0.25000000   -0.37500000          1/144
   5:    -0.41666667   -0.25000000   -0.12500000          1/144
   6:    -0.41666667   -0.25000000    0.12500000          1/144
   7:    -0.41666667   -0.25000000    0.37500000          1/144
   8:    -0.41666667   -0.08333333   -0.37500000          1/144
   9:    -0.41666667   -0.08333333   -0.12500000          1/144
          ...
 143:     0.41666667    0.41666667    0.37500000          1/144

Wave functions: Plane wave expansion
  Cutoff energy: 600.000 eV
  Number of coefficients (min, max): 9132, 9161
  Pulay-stress correction: 0.000000 eV/Ang^3 (de/decut=0.000000)
  Using FFTW library
  ScaLapack parameters: grid=1x1, blocksize=None
  Wavefunction extrapolation:
    Improved wavefunction reuse through dual PAW basis 

  Fermi-Dirac: width=0.0010 eV

Eigensolver
   Davidson(niter=2, smin=None, normalize=True) 

Densities:
  Coarse grid: 60*35*27 grid
  Fine grid: 120*70*54 grid
  Total Charge: 0.000000 

Density mixing:
  Method: difference
  Backend: pulay
  Linear mixing parameter: 0.05
  Mixing with 5 old densities
  Damping of long wave oscillations: 50 

Hamiltonian:
  XC and Coulomb potentials evaluated on a 120*70*54 grid
  Using the LDA Exchange-Correlation functional
 

Memory estimate:
  Process memory now: 12184.70 MiB
  Calculator: 322.47 MiB
    Density: 9.62 MiB
      Arrays: 3.79 MiB
      Localized functions: 4.27 MiB
      Mixer: 1.56 MiB
    Hamiltonian: 2.94 MiB
      Arrays: 2.82 MiB
      XC: 0.00 MiB
      Poisson: 0.00 MiB
      vbar: 0.12 MiB
    Wavefunctions: 309.91 MiB
      Arrays psit_nG: 281.81 MiB
      Eigensolver: 18.27 MiB
      Projections: 2.71 MiB
      Projectors: 4.40 MiB
      PW-descriptor: 2.71 MiB

Total number of cores used: 64
Parallelization over k-points: 16
Domain decomposition: 2 x 2 x 1

Number of atoms: 28
Number of atomic orbitals: 148
Number of bands in calculation: 112
Number of valence electrons: 180
Bands to converge: occupied

... initialized

Initializing position-dependent things.

Density initialized from atomic densities
Creating initial wave functions:
  112 bands from LCAO basis set

                                           
                                           
                                           
                                           
                                           
               O     O  P  O               
            PO           OMn     O         
                  O          MO            
            O        Li O                  
             Mn  Mn          OP            
         O       O Li O                    
         Li     O P         O              
       Li                                  
                                           
                                           
                                           
                                           

Positions:
   0 O     -1.280122   -2.495595   -1.112331    ( 0.0000,  0.0000,  0.0000)
   1 O     -3.023238    2.918858    1.191723    ( 0.0000,  0.0000,  0.0000)
   2 O      1.997451    0.467212    1.441442    ( 0.0000,  0.0000,  0.0000)
   3 O      3.740343   -0.043905   -0.862614    ( 0.0000,  0.0000,  0.0000)
   4 O      1.997419    2.918835    1.441465    ( 0.0000,  0.0000,  0.0000)
   5 O      3.740372   -2.495531   -0.862587    ( 0.0000,  0.0000,  0.0000)
   6 O     -1.280154   -0.043891   -1.112309    ( 0.0000,  0.0000,  0.0000)
   7 O     -3.023210    0.467136    1.191750    ( 0.0000,  0.0000,  0.0000)
   8 O     -4.147405   -1.269737   -0.856207    ( 0.0000,  0.0000,  0.0000)
   9 O     -0.155894    1.692986    1.447725    ( 0.0000,  0.0000,  0.0000)
  10 O      4.864578    1.693016    1.185324    ( 0.0000,  0.0000,  0.0000)
  11 O      0.873163   -1.279706   -1.118625    ( 0.0000,  0.0000,  0.0000)
  12 Mn    -2.437108   -1.269902    0.302197    ( 0.0000,  0.0000,  1.0000)
  13 Mn    -1.866187    1.693156   -2.001927    ( 0.0000,  0.0000, -1.0000)
  14 Mn     3.154299    1.693181    0.026917    ( 0.0000,  0.0000, -1.0000)
  15 Mn     2.583444   -1.269877    2.331074    ( 0.0000,  0.0000,  1.0000)
  16 P     -0.543052   -1.269720   -1.734187    ( 0.0000,  0.0000,  0.0000)
  17 P     -3.760282    1.692974    0.569859    ( 0.0000,  0.0000,  0.0000)
  18 P      1.260300    1.693000    2.063344    ( 0.0000,  0.0000,  0.0000)
  19 P      4.477470   -1.269695   -0.240696    ( 0.0000,  0.0000,  0.0000)
  20 O     -0.544413   -1.269738    1.348523    ( 0.0000,  0.0000,  0.0000)
  21 O     -3.758895    1.692992   -0.955558    ( 0.0000,  0.0000,  0.0000)
  22 O      1.261690    1.693018   -1.019367    ( 0.0000,  0.0000,  0.0000)
  23 O      4.476045   -1.269713    1.284716    ( 0.0000,  0.0000,  0.0000)
  24 Li    -4.662027   -2.751322   -2.139440    ( 0.0000,  0.0000,  0.0000)
  25 Li     0.358703   -2.751277    0.164614    ( 0.0000,  0.0000,  0.0000)
  26 Li    -4.662011    0.211617   -2.139439    ( 0.0000,  0.0000,  0.0000)
  27 Li     0.358720    0.211628    0.164615    ( 0.0000,  0.0000,  0.0000)

Unit cell:
           periodic     x           y           z      points  spacing
  1. axis:    yes   10.041096    0.000054   -0.000022    60     0.1674
  2. axis:    yes    0.000032    5.925857    0.000001    35     0.1693
  3. axis:    yes   -0.000010    0.000001    4.608134    27     0.1707

  Lengths:  10.041096   5.925857   4.608134
  Angles:   89.999974  90.000250  89.999381

Effective grid spacing dv^(1/3) = 0.1691

                     log10-error:           total        iterations:
           time      wfs    density  force  energy       poisson  magmom
iter:   1  11:42:02                       -233.730136             +0.0000
iter:   2  11:42:22  -0.47  -0.95         -231.549832             +0.0019
iter:   3  11:42:42  -0.61  -1.00         -220.802814             +0.0020
iter:   4  11:43:01  -1.19  -1.31         -220.892057             +0.3153
iter:   5  11:43:21  -2.12  -1.40         -222.893252             +0.1698
iter:   6  11:43:41  -2.18  -1.38         -223.665278             +0.2359
iter:   7  11:44:01  -2.17  -1.53         -223.784035             -0.1621
iter:   8  11:44:21  -2.52  -1.68         -225.616114             -0.5516
iter:   9  11:44:40  -2.25  -1.90         -226.422433             -0.2606
iter:  10  11:45:00  -2.24  -2.01         -226.311741             -0.0878
iter:  11  11:45:20  -2.92  -2.12         -226.298687             -0.0209
iter:  12  11:45:40  -2.60  -2.16         -226.231195             +0.0075
iter:  13  11:45:59  -2.98  -2.50         -226.219426             -0.0041
iter:  14  11:46:19  -2.97  -2.77         -226.181561             +0.0070
iter:  15  11:46:39  -3.60  -2.92         -226.179473             +0.0001
iter:  16  11:46:59  -4.34  -3.18         -226.179001             +0.0000
iter:  17  11:47:18  -4.68  -3.25         -226.175777             +0.0000
iter:  18  11:47:38  -5.26  -3.31         -226.175389             +0.0000
iter:  19  11:47:58  -4.78  -3.34         -226.175278             +0.0000
iter:  20  11:48:18  -4.81  -3.52         -226.176147             +0.0000
iter:  21  11:48:37  -5.68  -3.60         -226.175587             +0.0000
iter:  22  11:48:57  -5.57  -3.67         -226.175258             -0.0000
iter:  23  11:49:17  -5.56  -3.79         -226.175096             +0.0000
iter:  24  11:49:36  -5.77  -4.02         -226.175075             +0.0000
iter:  25  11:49:56  -6.54  -4.10         -226.175078             +0.0000
iter:  26  11:50:16  -5.91  -4.15         -226.175088             +0.0000
iter:  27  11:50:36  -6.60  -4.39         -226.175060             -0.0000
iter:  28  11:50:55  -7.20  -4.43         -226.175063             +0.0000
iter:  29  11:51:15  -7.21  -4.45         -226.175062             +0.0000
iter:  30  11:51:35  -6.88  -4.64         -226.175065             +0.0000
iter:  31  11:51:59  -8.00  -4.81         -226.175065             +0.0000
iter:  32  11:52:24  -7.59  -4.93    -2.86-226.175062             -0.0000
iter:  33  11:52:48  -8.62  -5.22    -3.15-226.175062             +0.0000
iter:  34  11:53:12  -8.98  -5.23    -3.41-226.175062             +0.0000
iter:  35  11:53:37  -7.83  -5.26    -2.93-226.175062             +0.0000
iter:  36  11:54:01  -8.93  -5.61    -3.43-226.175061             +0.0000
iter:  37  11:54:26 -10.09  -5.71    -4.37-226.175061             +0.0000
iter:  38  11:54:50  -9.33  -5.74    -3.45-226.175061             -0.0000
iter:  39  11:55:14  -9.58  -5.88    -3.68-226.175061             +0.0000
iter:  40  11:55:39 -10.33  -6.24    -4.13-226.175061             -0.0000
iter:  41  11:56:03 -10.64  -6.28    -4.18-226.175061             -0.0000
iter:  42  11:56:28 -10.41  -6.37    -4.14-226.175061             -0.0000
iter:  43  11:56:52 -11.08  -6.62    -4.40-226.175061             -0.0000
iter:  44  11:57:16 -11.81  -6.77    -4.99-226.175061             -0.0000
iter:  45  11:57:41 -11.62  -6.83    -4.68-226.175061             -0.0000
iter:  46  11:58:05 -11.77  -6.96    -4.79-226.175061             -0.0000
iter:  47  11:58:29 -12.14  -7.04    -5.28-226.175061             -0.0000
iter:  48  11:58:54 -12.52  -7.10    -4.97-226.175061             -0.0000
iter:  49  11:59:18 -12.71  -7.22    -5.45-226.175061             -0.0000
iter:  50  11:59:42 -12.92  -7.25    -5.68-226.175061             -0.0000
iter:  51  12:00:07 -13.17  -7.34    -5.61-226.175061             -0.0000
iter:  52  12:00:31 -13.71  -7.38    -5.80-226.175061             -0.0000
iter:  53  12:00:55 -13.60  -7.40    -5.24-226.175061             -0.0000
iter:  54  12:01:20 -14.05  -7.50    -5.68-226.175061             -0.0000
iter:  55  12:01:44 -13.58  -7.53    -5.74-226.175061             -0.0000
iter:  56  12:02:08 -13.44  -7.72    -5.20-226.175061             -0.0000
iter:  57  12:02:32 -13.53  -7.78    -5.42-226.175061             -0.0000
iter:  58  12:02:57 -14.17  -8.19    -5.86-226.175061             -0.0000
iter:  59  12:03:21 -14.16  -8.30    -5.90-226.175061             -0.0000
iter:  60  12:03:46 -15.32  -8.41    -6.29-226.175061             -0.0000

Converged after 60 iterations.

Dipole moment: (18.327121, -2.308106, -4.524288) |e|*Ang

Total magnetic moment: (0.000000, 0.000000, -0.000000)
Local magnetic moments:
   0 O  ( 0.000000,  0.000000, -0.001793)
   1 O  ( 0.000000,  0.000000,  0.001807)
   2 O  ( 0.000000,  0.000000,  0.001847)
   3 O  ( 0.000000,  0.000000, -0.001807)
   4 O  ( 0.000000,  0.000000,  0.001767)
   5 O  ( 0.000000,  0.000000, -0.001805)
   6 O  ( 0.000000,  0.000000, -0.001830)
   7 O  ( 0.000000,  0.000000,  0.001815)
   8 O  ( 0.000000,  0.000000,  0.031098)
   9 O  ( 0.000000,  0.000000, -0.031097)
  10 O  ( 0.000000,  0.000000, -0.031095)
  11 O  ( 0.000000,  0.000000,  0.031097)
  12 Mn ( 0.000000,  0.000000,  4.395763)
  13 Mn ( 0.000000,  0.000000, -4.395782)
  14 Mn ( 0.000000,  0.000000, -4.395736)
  15 Mn ( 0.000000,  0.000000,  4.395752)
  16 P  ( 0.000000,  0.000000,  0.000865)
  17 P  ( 0.000000,  0.000000, -0.000864)
  18 P  ( 0.000000,  0.000000, -0.000871)
  19 P  ( 0.000000,  0.000000,  0.000870)
  20 O  ( 0.000000,  0.000000,  0.028416)
  21 O  ( 0.000000,  0.000000, -0.028416)
  22 O  ( 0.000000,  0.000000, -0.028420)
  23 O  ( 0.000000,  0.000000,  0.028419)
  24 Li ( 0.000000,  0.000000, -0.000000)
  25 Li ( 0.000000,  0.000000,  0.000023)
  26 Li ( 0.000000,  0.000000,  0.000000)
  27 Li ( 0.000000,  0.000000, -0.000022)

Energy contributions relative to reference atoms: (reference = -196157.275402)

Kinetic:       +277.622524
Potential:     -240.965290
External:        +0.000000
XC:            -264.720747
Entropy (-ST):   -0.000000
Local:           +1.888452
--------------------------
Free energy:   -226.175061
Extrapolated:  -226.175061

Spin contamination: 9.455314 electrons
Showing only first 2 kpts
                      Up                     Down
 Kpt  Band  Eigenvalues  Occupancy  Eigenvalues  Occupancy
  0    88      6.53032    0.00694      6.53046    0.00694
  0    89      6.56423    0.00694      6.56414    0.00694
  0    90      8.42676    0.00000      8.42676    0.00000
  0    91      8.44830    0.00000      8.44837    0.00000

  1    88      6.56896    0.00694      6.56893    0.00694
  1    89      6.59599    0.00694      6.59605    0.00694
  1    90      8.38309    0.00000      8.38312    0.00000
  1    91      8.40520    0.00000      8.40524    0.00000


Fermi level: 7.61072

Gap: 1.699 eV
Transition (v -> c):
  (s=0, k=70, n=89, [-0.08, 0.42, 0.12]) -> (s=1, k=61, n=90, [-0.08, 0.08, -0.12])
Writing to born-0.01-11y-.gpw (mode='all')

Timing:                              incl.     excl.
-----------------------------------------------------------
Hamiltonian:                         0.221     0.002   0.0% |
 Atomic:                             0.065     0.065   0.0% |
  XC Correction:                     0.000     0.000   0.0% |
 Calculate atomic Hamiltonians:      0.069     0.069   0.0% |
 Communicate:                        0.002     0.002   0.0% |
 Initialize Hamiltonian:             0.000     0.000   0.0% |
 Poisson:                            0.001     0.001   0.0% |
 XC 3D grid:                         0.083     0.083   0.0% |
LCAO initialization:                68.545     0.645   0.0% |
 LCAO eigensolver:                  19.576     0.002   0.0% |
  Calculate projections:             0.029     0.029   0.0% |
  DenseAtomicCorrection:             0.045     0.045   0.0% |
  Distribute overlap matrix:         0.013     0.013   0.0% |
  Orbital Layouts:                   0.430     0.430   0.0% |
  Potential matrix:                 18.964    18.964   0.6% |
  Sum over cells:                    0.093     0.093   0.0% |
 LCAO to grid:                      46.988    46.988   1.4% ||
 Set positions (LCAO WFS):           1.335     0.216   0.0% |
  Basic WFS set positions:           0.001     0.001   0.0% |
  Basis functions set positions:     0.000     0.000   0.0% |
  P tci:                             0.522     0.522   0.0% |
  ST tci:                            0.381     0.381   0.0% |
  mktci:                             0.214     0.214   0.0% |
PWDescriptor:                        0.023     0.023   0.0% |
SCF-cycle:                        1325.759     2.328   0.1% |
 Davidson:                        1123.227   343.256  10.4% |---|
  Apply H:                          78.321    76.113   2.3% ||
   HMM T:                            2.207     2.207   0.1% |
  Subspace diag:                   163.688     0.170   0.0% |
   calc_h_matrix:                  105.527    27.091   0.8% |
    Apply H:                        78.437    76.181   2.3% ||
     HMM T:                          2.256     2.256   0.1% |
   diagonalize:                      8.173     8.173   0.2% |
   rotate_psi:                      49.818    49.818   1.5% ||
  calc. matrices:                  335.843   183.386   5.6% |-|
   Apply H:                        152.457   148.341   4.5% |-|
    HMM T:                           4.115     4.115   0.1% |
  diagonalize:                      94.256    94.256   2.9% ||
  rotate_psi:                      107.864   107.864   3.3% ||
 Density:                           45.490     0.001   0.0% |
  Atomic density matrices:           0.913     0.913   0.0% |
  Mix:                               6.208     6.208   0.2% |
  Multipole moments:                 0.021     0.021   0.0% |
  Pseudo density:                   38.346    38.344   1.2% |
   Symmetrize density:               0.002     0.002   0.0% |
 Forces:                           139.815   139.815   4.2% |-|
 Hamiltonian:                       12.834     0.127   0.0% |
  Atomic:                            3.028     3.028   0.1% |
   XC Correction:                    0.000     0.000   0.0% |
  Calculate atomic Hamiltonians:     4.493     4.493   0.1% |
  Communicate:                       0.088     0.088   0.0% |
  Poisson:                           0.034     0.034   0.0% |
  XC 3D grid:                        5.064     5.064   0.2% |
 Orthonormalize:                     2.065     0.003   0.0% |
  calc_s_matrix:                     0.242     0.242   0.0% |
  inverse-cholesky:                  0.073     0.073   0.0% |
  projections:                       1.315     1.315   0.0% |
  rotate_psi_s:                      0.431     0.431   0.0% |
Set symmetry:                        0.000     0.000   0.0% |
Other:                            1908.566  1908.566  57.8% |----------------------|
-----------------------------------------------------------
Total:                                      3303.115 100.0%

Memory usage: 11.94 GiB
Date: Wed Mar 24 12:35:33 2021
