
  ___ ___ ___ _ _ _  
 |   |   |_  | | | | 
 | | | | | . | | | | 
 |__ |  _|___|_____|  20.10.1b1
 |___|_|             

User:   madkru@i013.nifl.fysik.dtu.dk
Date:   Sun Mar 21 08:31:12 2021
Arch:   x86_64
Pid:    27943
Python: 3.7.4
gpaw:   /home/niflheim/madkru/venv_folder/gpaw/gpaw (d0d1ca1c71)
_gpaw:  /home/niflheim/madkru/venv_folder/gpaw/build/lib.linux-x86_64-ivybridge-3.7/
        _gpaw.cpython-37m-x86_64-linux-gnu.so (4fd39e8b1e)
ase:    /home/niflheim/madkru/venv_folder/ase/ase (version 3.21.0b1-7e6c206a91)
numpy:  /home/niflheim/madkru/venv_folder/lib/python3.7/site-packages/numpy (version 1.19.4)
scipy:  /home/niflheim/madkru/venv_folder/lib/python3.7/site-packages/scipy (version 1.5.4)
libxc:  4.3.4
units:  Angstrom and eV
cores: 32
OMP_NUM_THREADS: 1

Input parameters:
  convergence: {bands: occupied,
                density: 0.0001,
                eigenstates: 4e-08,
                energy: 0.0005,
                forces: 1e-06}
  kpts: [6 6 4]
  mode: {ecut: 600.0,
         gammacentered: False,
         name: pw}
  occupations: {fixmagmom: False,
                name: fermi-dirac,
                width: 0.001}
  symmetry: {point_group: False,
             time_reversal: False}

System changes: positions, numbers, cell, pbc, initial_charges, initial_magmoms 

Initialize ...

O-setup:
  name: Oxygen
  id: 9b9d51c344dea68c822856295a461509
  Z: 8.0
  valence: 6
  core: 2
  charge: 0.0
  file: /home/modules/software/GPAW-setups/0.9.20000/O.LDA.gz
  compensation charges: gauss, rc=0.21, lmax=2
  cutoffs: 1.17(filt), 0.83(core),
  valence states:
                energy  radius
    2s(2.00)   -23.752   0.688
    2p(4.00)    -9.195   0.598
    *s           3.459   0.688
    *p          18.016   0.598
    *d           0.000   0.619

  Using partial waves for O as LCAO basis

Mn-setup:
  name: Manganese
  id: 0d715a8018be061a6e9ea6f2d364ac92
  Z: 25.0
  valence: 15
  core: 10
  charge: 0.0
  file: /home/modules/software/GPAW-setups/0.9.20000/Mn.LDA.gz
  compensation charges: gauss, rc=0.38, lmax=2
  cutoffs: 2.14(filt), 0.86(core),
  valence states:
                energy  radius
    3s(2.00)   -85.387   1.275
    4s(2.00)    -5.282   1.275
    3p(6.00)   -54.493   1.281
    4p(0.00)    -1.471   1.281
    3d(5.00)    -7.009   1.138
    *d          20.203   1.138

  Using partial waves for Mn as LCAO basis

P-setup:
  name: Phosphorus
  id: a5561c299094968922a179ab894d2e2d
  Z: 15.0
  valence: 5
  core: 10
  charge: 0.0
  file: /home/modules/software/GPAW-setups/0.9.20000/P.LDA.gz
  compensation charges: gauss, rc=0.30, lmax=2
  cutoffs: 1.69(filt), 1.81(core),
  valence states:
                energy  radius
    3s(2.00)   -14.015   0.953
    3p(3.00)    -5.596   0.953
    *s          13.197   0.953
    *p          21.615   0.953
    *d           0.000   0.953

  Using partial waves for P as LCAO basis

Li-setup:
  name: Lithium
  id: b73562207f97a71b6967473b66fe8b65
  Z: 3.0
  valence: 1
  core: 2
  charge: 0.0
  file: /home/modules/software/GPAW-setups/0.9.20000/Li.LDA.gz
  compensation charges: gauss, rc=0.33, lmax=2
  cutoffs: 1.91(filt), 2.55(core),
  valence states:
                energy  radius
    2s(1.00)    -2.874   1.058
    2p(0.00)    -1.126   1.058
    *s          24.338   1.058

  Using partial waves for Li as LCAO basis

Reference energy: -196157.275402

Spin-polarized calculation.
Magnetic moment: 0.000000

Convergence criteria:
  Maximum total energy change: 0.0005 eV / electron
  Maximum integral of absolute density change: 0.0001 electrons
  Maximum integral of absolute eigenstate change: 4e-08 eV^2
  Maximum change in atomic force: 1e-06 eV / Ang
  Maximum number of iterations: 333

Symmetries present (total): 1

  ( 1  0  0)
  ( 0  1  0)
  ( 0  0  1)

144 k-points: 6 x 6 x 4 Monkhorst-Pack grid
144 k-points in the irreducible part of the Brillouin zone
       k-points in crystal coordinates                weights
   0:    -0.41666667   -0.41666667   -0.37500000          1/144
   1:    -0.41666667   -0.41666667   -0.12500000          1/144
   2:    -0.41666667   -0.41666667    0.12500000          1/144
   3:    -0.41666667   -0.41666667    0.37500000          1/144
   4:    -0.41666667   -0.25000000   -0.37500000          1/144
   5:    -0.41666667   -0.25000000   -0.12500000          1/144
   6:    -0.41666667   -0.25000000    0.12500000          1/144
   7:    -0.41666667   -0.25000000    0.37500000          1/144
   8:    -0.41666667   -0.08333333   -0.37500000          1/144
   9:    -0.41666667   -0.08333333   -0.12500000          1/144
          ...
 143:     0.41666667    0.41666667    0.37500000          1/144

Wave functions: Plane wave expansion
  Cutoff energy: 600.000 eV
  Number of coefficients (min, max): 9132, 9161
  Pulay-stress correction: 0.000000 eV/Ang^3 (de/decut=0.000000)
  Using FFTW library
  ScaLapack parameters: grid=1x1, blocksize=None
  Wavefunction extrapolation:
    Improved wavefunction reuse through dual PAW basis 

  Fermi-Dirac: width=0.0010 eV

Eigensolver
   Davidson(niter=2, smin=None, normalize=True) 

Densities:
  Coarse grid: 60*35*27 grid
  Fine grid: 120*70*54 grid
  Total Charge: 0.000000 

Density mixing:
  Method: difference
  Backend: pulay
  Linear mixing parameter: 0.05
  Mixing with 5 old densities
  Damping of long wave oscillations: 50 

Hamiltonian:
  XC and Coulomb potentials evaluated on a 120*70*54 grid
  Using the LDA Exchange-Correlation functional
 

Memory estimate:
  Process memory now: 12342.70 MiB
  Calculator: 342.26 MiB
    Density: 19.13 MiB
      Arrays: 7.57 MiB
      Localized functions: 8.54 MiB
      Mixer: 3.03 MiB
    Hamiltonian: 5.87 MiB
      Arrays: 5.62 MiB
      XC: 0.00 MiB
      Poisson: 0.00 MiB
      vbar: 0.25 MiB
    Wavefunctions: 317.25 MiB
      Arrays psit_nG: 281.81 MiB
      Eigensolver: 18.27 MiB
      Projections: 5.41 MiB
      Projectors: 8.81 MiB
      PW-descriptor: 2.95 MiB

Total number of cores used: 32
Parallelization over k-points: 16
Domain decomposition: 2 x 1 x 1

Number of atoms: 28
Number of atomic orbitals: 148
Number of bands in calculation: 112
Number of valence electrons: 180
Bands to converge: occupied

... initialized

Initializing position-dependent things.

Density initialized from atomic densities
Creating initial wave functions:
  112 bands from LCAO basis set

                                           
                                           
                                           
                                           
                                           
               O     O  P  O               
            PO           OMn     O         
                  O          MO            
            O        Li O                  
             Mn  Mn          OP            
         O       O Li O                    
         Li     O P         O              
       Li                                  
                                           
                                           
                                           
                                           

Positions:
   0 O     -1.280122   -2.495595   -1.112331    ( 0.0000,  0.0000,  0.0000)
   1 O     -3.013238    2.918858    1.191723    ( 0.0000,  0.0000,  0.0000)
   2 O      1.997451    0.467212    1.441442    ( 0.0000,  0.0000,  0.0000)
   3 O      3.740343   -0.043905   -0.862614    ( 0.0000,  0.0000,  0.0000)
   4 O      1.997419    2.918835    1.441465    ( 0.0000,  0.0000,  0.0000)
   5 O      3.740372   -2.495531   -0.862587    ( 0.0000,  0.0000,  0.0000)
   6 O     -1.280154   -0.043891   -1.112309    ( 0.0000,  0.0000,  0.0000)
   7 O     -3.023210    0.467136    1.191750    ( 0.0000,  0.0000,  0.0000)
   8 O     -4.147405   -1.269737   -0.856207    ( 0.0000,  0.0000,  0.0000)
   9 O     -0.155894    1.692986    1.447725    ( 0.0000,  0.0000,  0.0000)
  10 O      4.864578    1.693016    1.185324    ( 0.0000,  0.0000,  0.0000)
  11 O      0.873163   -1.269706   -1.118625    ( 0.0000,  0.0000,  0.0000)
  12 Mn    -2.437108   -1.269902    0.302197    ( 0.0000,  0.0000,  1.0000)
  13 Mn    -1.866187    1.693156   -2.001927    ( 0.0000,  0.0000, -1.0000)
  14 Mn     3.154299    1.693181    0.026917    ( 0.0000,  0.0000, -1.0000)
  15 Mn     2.583444   -1.269877    2.331074    ( 0.0000,  0.0000,  1.0000)
  16 P     -0.543052   -1.269720   -1.734187    ( 0.0000,  0.0000,  0.0000)
  17 P     -3.760282    1.692974    0.569859    ( 0.0000,  0.0000,  0.0000)
  18 P      1.260300    1.693000    2.063344    ( 0.0000,  0.0000,  0.0000)
  19 P      4.477470   -1.269695   -0.240696    ( 0.0000,  0.0000,  0.0000)
  20 O     -0.544413   -1.269738    1.348523    ( 0.0000,  0.0000,  0.0000)
  21 O     -3.758895    1.692992   -0.955558    ( 0.0000,  0.0000,  0.0000)
  22 O      1.261690    1.693018   -1.019367    ( 0.0000,  0.0000,  0.0000)
  23 O      4.476045   -1.269713    1.284716    ( 0.0000,  0.0000,  0.0000)
  24 Li    -4.662027   -2.751322   -2.139440    ( 0.0000,  0.0000,  0.0000)
  25 Li     0.358703   -2.751277    0.164614    ( 0.0000,  0.0000,  0.0000)
  26 Li    -4.662011    0.211617   -2.139439    ( 0.0000,  0.0000,  0.0000)
  27 Li     0.358720    0.211628    0.164615    ( 0.0000,  0.0000,  0.0000)

Unit cell:
           periodic     x           y           z      points  spacing
  1. axis:    yes   10.041096    0.000054   -0.000022    60     0.1674
  2. axis:    yes    0.000032    5.925857    0.000001    35     0.1693
  3. axis:    yes   -0.000010    0.000001    4.608134    27     0.1707

  Lengths:  10.041096   5.925857   4.608134
  Angles:   89.999974  90.000250  89.999381

Effective grid spacing dv^(1/3) = 0.1691

                     log10-error:           total        iterations:
           time      wfs    density  force  energy       poisson  magmom
iter:   1  08:34:13                       -233.731164             +0.0000
iter:   2  08:34:49  -0.47  -0.95         -231.544842             +0.0009
iter:   3  08:35:26  -0.61  -1.00         -220.814460             +0.0009
iter:   4  08:36:02  -1.20  -1.31         -221.051980             -0.0809
iter:   5  08:36:38  -2.14  -1.39         -222.809482             -0.0432
iter:   6  08:37:14  -2.42  -1.37         -223.225112             -0.0174
iter:   7  08:37:51  -1.94  -1.55         -223.086279             -0.0128
iter:   8  08:38:27  -2.22  -1.91         -225.534600             -0.0041
iter:   9  08:39:03  -2.17  -2.02         -226.419970             +0.0001
iter:  10  08:39:39  -2.16  -2.10         -226.429469             -0.0000
iter:  11  08:40:15  -3.10  -2.20         -226.412552             +0.0000
iter:  12  08:40:51  -2.46  -2.22         -226.215728             -0.0000
iter:  13  08:41:27  -3.04  -2.48         -226.223381             +0.0000
iter:  14  08:42:04  -3.13  -2.64         -226.195828             +0.0000
iter:  15  08:42:40  -3.50  -2.86         -226.181045             +0.0000
iter:  16  08:43:16  -4.13  -3.13         -226.176654             +0.0000
iter:  17  08:43:52  -4.71  -3.20         -226.175982             -0.0000
iter:  18  08:44:28  -4.45  -3.34         -226.175851             -0.0000
iter:  19  08:45:04  -4.91  -3.46         -226.175132             -0.0000
iter:  20  08:45:40  -5.33  -3.55         -226.175124             -0.0000
iter:  21  08:46:16  -6.05  -3.59         -226.175075             +0.0000
iter:  22  08:46:52  -5.32  -3.65         -226.174723             +0.0000
iter:  23  08:47:28  -6.10  -3.77         -226.174731             +0.0000
iter:  24  08:48:04  -6.14  -3.81         -226.174720             +0.0000
iter:  25  08:48:40  -6.32  -3.92         -226.174727             +0.0000
iter:  26  08:49:16  -6.32  -3.98         -226.174709             -0.0000
iter:  27  08:49:53  -7.07  -4.16         -226.174709             +0.0000
iter:  28  08:50:29  -6.72  -4.30         -226.174713             +0.0000
iter:  29  08:51:05  -6.69  -4.40         -226.174708             +0.0000
iter:  30  08:51:41  -6.80  -4.59         -226.174698             +0.0000
iter:  31  08:52:26  -7.99  -4.75         -226.174698             +0.0000
iter:  32  08:53:02  -7.35  -4.79         -226.174700             -0.0000
iter:  33  08:53:47  -7.94  -5.01    -2.56-226.174699             +0.0000
iter:  34  08:54:33  -8.26  -5.15    -3.31-226.174698             +0.0000
iter:  35  08:55:18  -7.96  -5.24    -2.93-226.174698             +0.0000
iter:  36  08:56:03  -9.12  -5.76    -3.79-226.174698             +0.0000
iter:  37  08:56:49  -9.71  -5.82    -3.91-226.174698             +0.0000
iter:  38  08:57:34  -9.52  -5.89    -3.61-226.174698             +0.0000
iter:  39  08:58:19  -9.66  -6.04    -3.73-226.174698             +0.0000
iter:  40  08:59:04 -10.73  -6.28    -4.31-226.174698             +0.0000
iter:  41  08:59:50 -10.61  -6.35    -4.13-226.174698             +0.0000
iter:  42  09:00:35 -10.92  -6.48    -4.52-226.174698             +0.0000
iter:  43  09:01:20 -11.58  -6.58    -4.75-226.174698             +0.0000
iter:  44  09:02:05 -11.57  -6.63    -4.84-226.174698             +0.0000
iter:  45  09:02:51 -11.59  -6.69    -4.56-226.174698             +0.0000
iter:  46  09:03:36 -12.13  -6.79    -5.02-226.174698             +0.0000
iter:  47  09:04:21 -11.90  -6.84    -4.80-226.174698             +0.0000
iter:  48  09:05:06 -11.88  -6.88    -4.97-226.174698             +0.0000
iter:  49  09:05:52 -11.89  -6.98    -4.85-226.174698             +0.0000
iter:  50  09:06:37 -12.82  -7.04    -5.28-226.174698             +0.0000
iter:  51  09:07:22 -11.85  -7.10    -4.79-226.174698             -0.0000
iter:  52  09:08:07 -12.95  -7.29    -5.20-226.174698             -0.0000
iter:  53  09:08:52 -12.87  -7.35    -5.61-226.174698             +0.0000
iter:  54  09:09:38 -13.64  -7.40    -5.83-226.174698             +0.0000
iter:  55  09:10:23 -13.05  -7.44    -5.20-226.174698             +0.0000
iter:  56  09:11:08 -13.24  -7.62    -5.59-226.174698             +0.0000
iter:  57  09:11:53 -14.03  -7.71    -6.15-226.174698             +0.0000

Converged after 57 iterations.

Dipole moment: (18.322716, -2.309172, -4.525309) |e|*Ang

Total magnetic moment: (0.000000, 0.000000, 0.000000)
Local magnetic moments:
   0 O  ( 0.000000,  0.000000, -0.001791)
   1 O  ( 0.000000,  0.000000,  0.001788)
   2 O  ( 0.000000,  0.000000,  0.001793)
   3 O  ( 0.000000,  0.000000, -0.001830)
   4 O  ( 0.000000,  0.000000,  0.001787)
   5 O  ( 0.000000,  0.000000, -0.001827)
   6 O  ( 0.000000,  0.000000, -0.001751)
   7 O  ( 0.000000,  0.000000,  0.001798)
   8 O  ( 0.000000,  0.000000,  0.031045)
   9 O  ( 0.000000,  0.000000, -0.031095)
  10 O  ( 0.000000,  0.000000, -0.030966)
  11 O  ( 0.000000,  0.000000,  0.031155)
  12 Mn ( 0.000000,  0.000000,  4.394703)
  13 Mn ( 0.000000,  0.000000, -4.394934)
  14 Mn ( 0.000000,  0.000000, -4.395713)
  15 Mn ( 0.000000,  0.000000,  4.395732)
  16 P  ( 0.000000,  0.000000,  0.000851)
  17 P  ( 0.000000,  0.000000, -0.000894)
  18 P  ( 0.000000,  0.000000, -0.000881)
  19 P  ( 0.000000,  0.000000,  0.000885)
  20 O  ( 0.000000,  0.000000,  0.028454)
  21 O  ( 0.000000,  0.000000, -0.028375)
  22 O  ( 0.000000,  0.000000, -0.028465)
  23 O  ( 0.000000,  0.000000,  0.028394)
  24 Li ( 0.000000,  0.000000, -0.000007)
  25 Li ( 0.000000,  0.000000,  0.000000)
  26 Li ( 0.000000,  0.000000,  0.000005)
  27 Li ( 0.000000,  0.000000, -0.000001)

Energy contributions relative to reference atoms: (reference = -196157.275402)

Kinetic:       +277.358602
Potential:     -240.765539
External:        +0.000000
XC:            -264.656554
Entropy (-ST):   -0.000000
Local:           +1.888794
--------------------------
Free energy:   -226.174698
Extrapolated:  -226.174698

Spin contamination: 9.454191 electrons
Showing only first 2 kpts
                      Up                     Down
 Kpt  Band  Eigenvalues  Occupancy  Eigenvalues  Occupancy
  0    88      6.53315    0.00694      6.53082    0.00694
  0    89      6.56867    0.00694      6.56652    0.00694
  0    90      8.42616    0.00000      8.42898    0.00000
  0    91      8.45283    0.00000      8.45109    0.00000

  1    88      6.57125    0.00694      6.56951    0.00694
  1    89      6.60097    0.00694      6.59831    0.00694
  1    90      8.38310    0.00000      8.38519    0.00000
  1    91      8.41109    0.00000      8.40787    0.00000


Fermi level: 7.71447

Gap: 1.697 eV
Transition (v -> c):
  (s=0, k=74, n=89, [0.08, -0.42, 0.12]) -> (s=0, k=57, n=90, [-0.08, -0.08, -0.12])
Writing to born-0.01-1x+.gpw (mode='all')

Timing:                              incl.     excl.
-----------------------------------------------------------
Hamiltonian:                         0.346     0.002   0.0% |
 Atomic:                             0.050     0.050   0.0% |
  XC Correction:                     0.000     0.000   0.0% |
 Calculate atomic Hamiltonians:      0.135     0.135   0.0% |
 Communicate:                        0.002     0.002   0.0% |
 Initialize Hamiltonian:             0.000     0.000   0.0% |
 Poisson:                            0.001     0.001   0.0% |
 XC 3D grid:                         0.156     0.156   0.0% |
LCAO initialization:               136.049     0.645   0.0% |
 LCAO eigensolver:                  37.863     0.002   0.0% |
  Calculate projections:             0.056     0.056   0.0% |
  DenseAtomicCorrection:             0.088     0.088   0.0% |
  Distribute overlap matrix:         0.158     0.158   0.0% |
  Orbital Layouts:                   0.339     0.339   0.0% |
  Potential matrix:                 37.121    37.121   0.7% |
  Sum over cells:                    0.098     0.098   0.0% |
 LCAO to grid:                      95.179    95.179   1.7% ||
 Set positions (LCAO WFS):           2.361     0.375   0.0% |
  Basic WFS set positions:           0.001     0.001   0.0% |
  Basis functions set positions:     0.000     0.000   0.0% |
  P tci:                             1.059     1.059   0.0% |
  ST tci:                            0.706     0.706   0.0% |
  mktci:                             0.219     0.219   0.0% |
PWDescriptor:                        0.023     0.023   0.0% |
SCF-cycle:                        2302.847    16.466   0.3% |
 Davidson:                        1943.304   623.468  11.3% |----|
  Apply H:                         137.422   132.959   2.4% ||
   HMM T:                            4.462     4.462   0.1% |
  Subspace diag:                   287.762     0.183   0.0% |
   calc_h_matrix:                  186.897    50.824   0.9% |
    Apply H:                       136.073   131.714   2.4% ||
     HMM T:                          4.359     4.359   0.1% |
   diagonalize:                      6.655     6.655   0.1% |
   rotate_psi:                      94.027    94.027   1.7% ||
  calc. matrices:                  612.614   342.452   6.2% |-|
   Apply H:                        270.162   261.759   4.7% |-|
    HMM T:                           8.403     8.403   0.2% |
  diagonalize:                      89.849    89.849   1.6% ||
  rotate_psi:                      192.190   192.190   3.5% ||
 Density:                           78.644     0.002   0.0% |
  Atomic density matrices:           1.414     1.414   0.0% |
  Mix:                              11.149    11.149   0.2% |
  Multipole moments:                 0.034     0.034   0.0% |
  Pseudo density:                   66.046    66.044   1.2% |
   Symmetrize density:               0.002     0.002   0.0% |
 Forces:                           240.357   240.357   4.3% |-|
 Hamiltonian:                       20.089     0.124   0.0% |
  Atomic:                            2.823     2.822   0.1% |
   XC Correction:                    0.000     0.000   0.0% |
  Calculate atomic Hamiltonians:     8.046     8.046   0.1% |
  Communicate:                       0.102     0.102   0.0% |
  Poisson:                           0.075     0.075   0.0% |
  XC 3D grid:                        8.921     8.921   0.2% |
 Orthonormalize:                     3.986     0.004   0.0% |
  calc_s_matrix:                     0.478     0.478   0.0% |
  inverse-cholesky:                  0.053     0.053   0.0% |
  projections:                       2.599     2.599   0.0% |
  rotate_psi_s:                      0.852     0.852   0.0% |
Set symmetry:                        0.000     0.000   0.0% |
Other:                            3092.708  3092.708  55.9% |---------------------|
-----------------------------------------------------------
Total:                                      5531.973 100.0%

Memory usage: 12.07 GiB
Date: Sun Mar 21 10:03:24 2021
