
  ___ ___ ___ _ _ _  
 |   |   |_  | | | | 
 | | | | | . | | | | 
 |__ |  _|___|_____|  20.10.1b1
 |___|_|             

User:   madkru@i008.nifl.fysik.dtu.dk
Date:   Thu Mar 25 09:26:37 2021
Arch:   x86_64
Pid:    26969
Python: 3.7.4
gpaw:   /home/niflheim/madkru/venv_folder/gpaw/gpaw (d224efde0f)
_gpaw:  /home/niflheim/madkru/venv_folder/gpaw/build/lib.linux-x86_64-ivybridge-3.7/
        _gpaw.cpython-37m-x86_64-linux-gnu.so (4fd39e8b1e)
ase:    /home/niflheim/madkru/venv_folder/ase/ase (version 3.21.0b1-4d5a73cb29)
numpy:  /home/niflheim/madkru/venv_folder/lib/python3.7/site-packages/numpy (version 1.19.4)
scipy:  /home/niflheim/madkru/venv_folder/lib/python3.7/site-packages/scipy (version 1.5.4)
libxc:  4.3.4
units:  Angstrom and eV
cores: 64
OMP_NUM_THREADS: 1

Input parameters:
  convergence: {bands: occupied,
                density: 0.0001,
                eigenstates: 4e-08,
                energy: 0.0005,
                forces: 1e-06}
  kpts: [6 6 4]
  mode: {ecut: 600.0,
         gammacentered: False,
         name: pw}
  occupations: {fixmagmom: False,
                name: fermi-dirac,
                width: 0.001}
  symmetry: {point_group: False,
             time_reversal: False}

System changes: positions, numbers, cell, pbc, initial_charges, initial_magmoms 

Initialize ...

O-setup:
  name: Oxygen
  id: 9b9d51c344dea68c822856295a461509
  Z: 8.0
  valence: 6
  core: 2
  charge: 0.0
  file: /home/modules/software/GPAW-setups/0.9.20000/O.LDA.gz
  compensation charges: gauss, rc=0.21, lmax=2
  cutoffs: 1.17(filt), 0.83(core),
  valence states:
                energy  radius
    2s(2.00)   -23.752   0.688
    2p(4.00)    -9.195   0.598
    *s           3.459   0.688
    *p          18.016   0.598
    *d           0.000   0.619

  Using partial waves for O as LCAO basis

Mn-setup:
  name: Manganese
  id: 0d715a8018be061a6e9ea6f2d364ac92
  Z: 25.0
  valence: 15
  core: 10
  charge: 0.0
  file: /home/modules/software/GPAW-setups/0.9.20000/Mn.LDA.gz
  compensation charges: gauss, rc=0.38, lmax=2
  cutoffs: 2.14(filt), 0.86(core),
  valence states:
                energy  radius
    3s(2.00)   -85.387   1.275
    4s(2.00)    -5.282   1.275
    3p(6.00)   -54.493   1.281
    4p(0.00)    -1.471   1.281
    3d(5.00)    -7.009   1.138
    *d          20.203   1.138

  Using partial waves for Mn as LCAO basis

P-setup:
  name: Phosphorus
  id: a5561c299094968922a179ab894d2e2d
  Z: 15.0
  valence: 5
  core: 10
  charge: 0.0
  file: /home/modules/software/GPAW-setups/0.9.20000/P.LDA.gz
  compensation charges: gauss, rc=0.30, lmax=2
  cutoffs: 1.69(filt), 1.81(core),
  valence states:
                energy  radius
    3s(2.00)   -14.015   0.953
    3p(3.00)    -5.596   0.953
    *s          13.197   0.953
    *p          21.615   0.953
    *d           0.000   0.953

  Using partial waves for P as LCAO basis

Li-setup:
  name: Lithium
  id: b73562207f97a71b6967473b66fe8b65
  Z: 3.0
  valence: 1
  core: 2
  charge: 0.0
  file: /home/modules/software/GPAW-setups/0.9.20000/Li.LDA.gz
  compensation charges: gauss, rc=0.33, lmax=2
  cutoffs: 1.91(filt), 2.55(core),
  valence states:
                energy  radius
    2s(1.00)    -2.874   1.058
    2p(0.00)    -1.126   1.058
    *s          24.338   1.058

  Using partial waves for Li as LCAO basis

Reference energy: -196157.275402

Spin-polarized calculation.
Magnetic moment: 0.000000

Convergence criteria:
  Maximum total energy change: 0.0005 eV / electron
  Maximum integral of absolute density change: 0.0001 electrons
  Maximum integral of absolute eigenstate change: 4e-08 eV^2
  Maximum change in atomic force: 1e-06 eV / Ang
  Maximum number of iterations: 333

Symmetries present (total): 1

  ( 1  0  0)
  ( 0  1  0)
  ( 0  0  1)

144 k-points: 6 x 6 x 4 Monkhorst-Pack grid
144 k-points in the irreducible part of the Brillouin zone
       k-points in crystal coordinates                weights
   0:    -0.41666667   -0.41666667   -0.37500000          1/144
   1:    -0.41666667   -0.41666667   -0.12500000          1/144
   2:    -0.41666667   -0.41666667    0.12500000          1/144
   3:    -0.41666667   -0.41666667    0.37500000          1/144
   4:    -0.41666667   -0.25000000   -0.37500000          1/144
   5:    -0.41666667   -0.25000000   -0.12500000          1/144
   6:    -0.41666667   -0.25000000    0.12500000          1/144
   7:    -0.41666667   -0.25000000    0.37500000          1/144
   8:    -0.41666667   -0.08333333   -0.37500000          1/144
   9:    -0.41666667   -0.08333333   -0.12500000          1/144
          ...
 143:     0.41666667    0.41666667    0.37500000          1/144

Wave functions: Plane wave expansion
  Cutoff energy: 600.000 eV
  Number of coefficients (min, max): 9132, 9161
  Pulay-stress correction: 0.000000 eV/Ang^3 (de/decut=0.000000)
  Using FFTW library
  ScaLapack parameters: grid=1x1, blocksize=None
  Wavefunction extrapolation:
    Improved wavefunction reuse through dual PAW basis 

  Fermi-Dirac: width=0.0010 eV

Eigensolver
   Davidson(niter=2, smin=None, normalize=True) 

Densities:
  Coarse grid: 60*35*27 grid
  Fine grid: 120*70*54 grid
  Total Charge: 0.000000 

Density mixing:
  Method: difference
  Backend: pulay
  Linear mixing parameter: 0.05
  Mixing with 5 old densities
  Damping of long wave oscillations: 50 

Hamiltonian:
  XC and Coulomb potentials evaluated on a 120*70*54 grid
  Using the LDA Exchange-Correlation functional
 

Memory estimate:
  Process memory now: 13238.88 MiB
  Calculator: 322.47 MiB
    Density: 9.62 MiB
      Arrays: 3.79 MiB
      Localized functions: 4.27 MiB
      Mixer: 1.56 MiB
    Hamiltonian: 2.94 MiB
      Arrays: 2.82 MiB
      XC: 0.00 MiB
      Poisson: 0.00 MiB
      vbar: 0.12 MiB
    Wavefunctions: 309.91 MiB
      Arrays psit_nG: 281.81 MiB
      Eigensolver: 18.27 MiB
      Projections: 2.71 MiB
      Projectors: 4.40 MiB
      PW-descriptor: 2.71 MiB

Total number of cores used: 64
Parallelization over k-points: 16
Domain decomposition: 2 x 2 x 1

Number of atoms: 28
Number of atomic orbitals: 148
Number of bands in calculation: 112
Number of valence electrons: 180
Bands to converge: occupied

... initialized

Initializing position-dependent things.

Density initialized from atomic densities
Creating initial wave functions:
  112 bands from LCAO basis set

                                           
                                           
                                           
                                           
                                           
               O     O  P  O               
            PO           OMn     O         
                  O          MO            
            O        Li O                  
             Mn  Mn          OP            
         O       O Li O                    
         Li     O P         O              
       Li                                  
                                           
                                           
                                           
                                           

Positions:
   0 O     -1.280122   -2.495595   -1.112331    ( 0.0000,  0.0000,  0.0000)
   1 O     -3.023238    2.918858    1.191723    ( 0.0000,  0.0000,  0.0000)
   2 O      1.997451    0.467212    1.441442    ( 0.0000,  0.0000,  0.0000)
   3 O      3.740343   -0.043905   -0.862614    ( 0.0000,  0.0000,  0.0000)
   4 O      1.997419    2.918835    1.441465    ( 0.0000,  0.0000,  0.0000)
   5 O      3.740372   -2.495531   -0.862587    ( 0.0000,  0.0000,  0.0000)
   6 O     -1.280154   -0.043891   -1.112309    ( 0.0000,  0.0000,  0.0000)
   7 O     -3.023210    0.467136    1.191750    ( 0.0000,  0.0000,  0.0000)
   8 O     -4.147405   -1.269737   -0.856207    ( 0.0000,  0.0000,  0.0000)
   9 O     -0.155894    1.692986    1.447725    ( 0.0000,  0.0000,  0.0000)
  10 O      4.864578    1.693016    1.185324    ( 0.0000,  0.0000,  0.0000)
  11 O      0.873163   -1.269706   -1.118625    ( 0.0000,  0.0000,  0.0000)
  12 Mn    -2.437108   -1.269902    0.302197    ( 0.0000,  0.0000,  1.0000)
  13 Mn    -1.866187    1.693156   -2.001927    ( 0.0000,  0.0000, -1.0000)
  14 Mn     3.154299    1.693181    0.026917    ( 0.0000,  0.0000, -1.0000)
  15 Mn     2.583444   -1.269877    2.331074    ( 0.0000,  0.0000,  1.0000)
  16 P     -0.543052   -1.269720   -1.734187    ( 0.0000,  0.0000,  0.0000)
  17 P     -3.760282    1.692974    0.569859    ( 0.0000,  0.0000,  0.0000)
  18 P      1.260300    1.703000    2.063344    ( 0.0000,  0.0000,  0.0000)
  19 P      4.477470   -1.269695   -0.240696    ( 0.0000,  0.0000,  0.0000)
  20 O     -0.544413   -1.269738    1.348523    ( 0.0000,  0.0000,  0.0000)
  21 O     -3.758895    1.692992   -0.955558    ( 0.0000,  0.0000,  0.0000)
  22 O      1.261690    1.693018   -1.019367    ( 0.0000,  0.0000,  0.0000)
  23 O      4.476045   -1.269713    1.284716    ( 0.0000,  0.0000,  0.0000)
  24 Li    -4.662027   -2.751322   -2.139440    ( 0.0000,  0.0000,  0.0000)
  25 Li     0.358703   -2.751277    0.164614    ( 0.0000,  0.0000,  0.0000)
  26 Li    -4.662011    0.211617   -2.139439    ( 0.0000,  0.0000,  0.0000)
  27 Li     0.358720    0.211628    0.164615    ( 0.0000,  0.0000,  0.0000)

Unit cell:
           periodic     x           y           z      points  spacing
  1. axis:    yes   10.041096    0.000054   -0.000022    60     0.1674
  2. axis:    yes    0.000032    5.925857    0.000001    35     0.1693
  3. axis:    yes   -0.000010    0.000001    4.608134    27     0.1707

  Lengths:  10.041096   5.925857   4.608134
  Angles:   89.999974  90.000250  89.999381

Effective grid spacing dv^(1/3) = 0.1691

                     log10-error:           total        iterations:
           time      wfs    density  force  energy       poisson  magmom
iter:   1  09:28:10                       -233.728170             +0.0000
iter:   2  09:28:30  -0.47  -0.95         -231.547887             +0.0016
iter:   3  09:28:50  -0.61  -1.00         -220.800029             +0.0016
iter:   4  09:29:10  -1.19  -1.31         -220.876703             +0.3161
iter:   5  09:29:29  -2.11  -1.40         -222.904197             +0.1702
iter:   6  09:29:49  -2.14  -1.38         -223.716415             +0.2887
iter:   7  09:30:09  -2.17  -1.52         -223.751996             -0.1841
iter:   8  09:30:28  -2.50  -1.66         -225.558480             -0.6200
iter:   9  09:30:48  -2.36  -1.89         -226.444979             -0.2455
iter:  10  09:31:08  -2.24  -2.00         -226.322032             -0.0644
iter:  11  09:31:27  -2.84  -2.11         -226.296083             -0.0310
iter:  12  09:31:47  -2.58  -2.16         -226.241673             -0.0084
iter:  13  09:32:07  -2.90  -2.47         -226.209178             -0.0074
iter:  14  09:32:26  -2.94  -2.78         -226.185308             -0.0024
iter:  15  09:32:46  -3.46  -2.89         -226.177637             -0.0012
iter:  16  09:33:06  -4.26  -3.19         -226.177349             -0.0004
iter:  17  09:33:25  -3.89  -3.26         -226.174006             -0.0000
iter:  18  09:33:45  -5.03  -3.45         -226.173132             -0.0001
iter:  19  09:34:04  -4.65  -3.56         -226.173421             -0.0000
iter:  20  09:34:24  -5.34  -3.67         -226.172994             -0.0000
iter:  21  09:34:44  -5.56  -3.75         -226.172828             -0.0000
iter:  22  09:35:04  -6.54  -3.86         -226.172819             -0.0000
iter:  23  09:35:23  -5.90  -3.89         -226.172850             -0.0000
iter:  24  09:35:43  -5.91  -4.06         -226.172787             -0.0000
iter:  25  09:36:03  -6.59  -4.12         -226.172786             -0.0000
iter:  26  09:36:22  -6.91  -4.20         -226.172792             +0.0000
iter:  27  09:36:42  -6.36  -4.36         -226.172787             +0.0000
iter:  28  09:37:06  -7.52  -4.72         -226.172781             +0.0000
iter:  29  09:37:31  -7.67  -4.83    -3.00-226.172777             -0.0000
iter:  30  09:37:55  -7.41  -4.91    -2.77-226.172775             -0.0000
iter:  31  09:38:19  -7.75  -5.17    -3.00-226.172775             -0.0000
iter:  32  09:38:44  -9.01  -5.20    -3.42-226.172775             -0.0000
iter:  33  09:39:08  -7.83  -5.22    -2.79-226.172775             -0.0000
iter:  34  09:39:32  -8.36  -5.44    -3.14-226.172775             -0.0000
iter:  35  09:39:56  -9.50  -5.68    -3.61-226.172775             -0.0000
iter:  36  09:40:21  -9.62  -5.74    -3.71-226.172775             +0.0000
iter:  37  09:40:45  -8.98  -5.80    -3.46-226.172775             -0.0000
iter:  38  09:41:09 -10.36  -6.15    -4.22-226.172775             -0.0000
iter:  39  09:41:34 -10.07  -6.17    -3.93-226.172775             +0.0000
iter:  40  09:41:58 -10.00  -6.30    -3.88-226.172775             +0.0000
iter:  41  09:42:22 -11.16  -6.38    -4.50-226.172775             +0.0000
iter:  42  09:42:47 -11.69  -6.40    -4.88-226.172775             +0.0000
iter:  43  09:43:11 -11.00  -6.38    -4.16-226.172775             +0.0000
iter:  44  09:43:35 -12.20  -6.44    -5.44-226.172775             +0.0000
iter:  45  09:43:59 -11.41  -6.45    -4.63-226.172775             -0.0000
iter:  46  09:44:24 -11.14  -6.49    -4.53-226.172775             -0.0000
iter:  47  09:44:48 -11.18  -6.54    -4.39-226.172775             -0.0000
iter:  48  09:45:12 -11.89  -6.69    -5.09-226.172775             -0.0000
iter:  49  09:45:37 -11.87  -6.72    -4.75-226.172775             +0.0000
iter:  50  09:46:01 -12.31  -6.76    -4.98-226.172775             +0.0000
iter:  51  09:46:25 -11.54  -6.89    -4.79-226.172775             +0.0000
iter:  52  09:46:50 -12.78  -7.37    -5.35-226.172775             +0.0000
iter:  53  09:47:14 -12.37  -7.45    -4.94-226.172775             +0.0000
iter:  54  09:47:38 -13.16  -7.73    -5.33-226.172775             +0.0000
iter:  55  09:48:02 -14.17  -7.93    -5.95-226.172775             +0.0000
iter:  56  09:48:27 -14.25  -7.97    -5.93-226.172775             -0.0000
iter:  57  09:48:51 -14.28  -8.04    -5.87-226.172775             -0.0000
iter:  58  09:49:15 -15.19  -8.17    -6.32-226.172775             -0.0000

Converged after 58 iterations.

Dipole moment: (18.327091, -2.290898, -4.524280) |e|*Ang

Total magnetic moment: (0.000000, 0.000000, -0.000000)
Local magnetic moments:
   0 O  ( 0.000000,  0.000000, -0.001827)
   1 O  ( 0.000000,  0.000000,  0.001815)
   2 O  ( 0.000000,  0.000000,  0.001711)
   3 O  ( 0.000000,  0.000000, -0.001829)
   4 O  ( 0.000000,  0.000000,  0.001912)
   5 O  ( 0.000000,  0.000000, -0.001783)
   6 O  ( 0.000000,  0.000000, -0.001795)
   7 O  ( 0.000000,  0.000000,  0.001808)
   8 O  ( 0.000000,  0.000000,  0.031098)
   9 O  ( 0.000000,  0.000000, -0.031098)
  10 O  ( 0.000000,  0.000000, -0.031095)
  11 O  ( 0.000000,  0.000000,  0.031095)
  12 Mn ( 0.000000,  0.000000,  4.395764)
  13 Mn ( 0.000000,  0.000000, -4.395781)
  14 Mn ( 0.000000,  0.000000, -4.395718)
  15 Mn ( 0.000000,  0.000000,  4.395732)
  16 P  ( 0.000000,  0.000000,  0.000866)
  17 P  ( 0.000000,  0.000000, -0.000864)
  18 P  ( 0.000000,  0.000000, -0.000874)
  19 P  ( 0.000000,  0.000000,  0.000870)
  20 O  ( 0.000000,  0.000000,  0.028417)
  21 O  ( 0.000000,  0.000000, -0.028416)
  22 O  ( 0.000000,  0.000000, -0.028421)
  23 O  ( 0.000000,  0.000000,  0.028419)
  24 Li ( 0.000000,  0.000000, -0.000001)
  25 Li ( 0.000000,  0.000000, -0.000008)
  26 Li ( 0.000000,  0.000000,  0.000001)
  27 Li ( 0.000000,  0.000000,  0.000009)

Energy contributions relative to reference atoms: (reference = -196157.275402)

Kinetic:       +277.636454
Potential:     -240.975771
External:        +0.000000
XC:            -264.721872
Entropy (-ST):   -0.000000
Local:           +1.888414
--------------------------
Free energy:   -226.172775
Extrapolated:  -226.172775

Spin contamination: 9.455299 electrons
Showing only first 2 kpts
                      Up                     Down
 Kpt  Band  Eigenvalues  Occupancy  Eigenvalues  Occupancy
  0    88      6.53042    0.00694      6.53059    0.00694
  0    89      6.56410    0.00694      6.56394    0.00694
  0    90      8.42673    0.00000      8.42678    0.00000
  0    91      8.44835    0.00000      8.44833    0.00000

  1    88      6.56891    0.00694      6.56885    0.00694
  1    89      6.59600    0.00694      6.59603    0.00694
  1    90      8.38305    0.00000      8.38308    0.00000
  1    91      8.40525    0.00000      8.40524    0.00000


Fermi level: 7.59071

Gap: 1.699 eV
Transition (v -> c):
  (s=1, k=69, n=89, [-0.08, 0.42, -0.12]) -> (s=0, k=86, n=90, [0.08, 0.08, 0.12])
Writing to born-0.01-18y+.gpw (mode='all')

Timing:                              incl.     excl.
-----------------------------------------------------------
Hamiltonian:                         0.213     0.002   0.0% |
 Atomic:                             0.049     0.049   0.0% |
  XC Correction:                     0.000     0.000   0.0% |
 Calculate atomic Hamiltonians:      0.075     0.075   0.0% |
 Communicate:                        0.002     0.002   0.0% |
 Initialize Hamiltonian:             0.000     0.000   0.0% |
 Poisson:                            0.001     0.001   0.0% |
 XC 3D grid:                         0.084     0.084   0.0% |
LCAO initialization:                71.070     0.653   0.0% |
 LCAO eigensolver:                  19.711     0.002   0.0% |
  Calculate projections:             0.029     0.029   0.0% |
  DenseAtomicCorrection:             0.045     0.045   0.0% |
  Distribute overlap matrix:         0.017     0.017   0.0% |
  Orbital Layouts:                   0.432     0.432   0.0% |
  Potential matrix:                 19.097    19.097   0.6% |
  Sum over cells:                    0.089     0.089   0.0% |
 LCAO to grid:                      49.382    49.382   1.5% ||
 Set positions (LCAO WFS):           1.324     0.193   0.0% |
  Basic WFS set positions:           0.001     0.001   0.0% |
  Basis functions set positions:     0.000     0.000   0.0% |
  P tci:                             0.528     0.528   0.0% |
  ST tci:                            0.385     0.385   0.0% |
  mktci:                             0.218     0.218   0.0% |
PWDescriptor:                        0.023     0.023   0.0% |
SCF-cycle:                        1285.794     0.750   0.0% |
 Davidson:                        1082.432   331.810  10.2% |---|
  Apply H:                          74.972    72.817   2.2% ||
   HMM T:                            2.156     2.156   0.1% |
  Subspace diag:                   156.890     0.164   0.0% |
   calc_h_matrix:                  100.758    26.182   0.8% |
    Apply H:                        74.576    72.400   2.2% ||
     HMM T:                          2.176     2.176   0.1% |
   diagonalize:                      7.905     7.905   0.2% |
   rotate_psi:                      48.063    48.063   1.5% ||
  calc. matrices:                  323.471   177.030   5.4% |-|
   Apply H:                        146.441   142.424   4.4% |-|
    HMM T:                           4.017     4.017   0.1% |
  diagonalize:                      91.328    91.328   2.8% ||
  rotate_psi:                      103.960   103.960   3.2% ||
 Density:                           43.855     0.001   0.0% |
  Atomic density matrices:           0.928     0.928   0.0% |
  Mix:                               6.015     6.015   0.2% |
  Multipole moments:                 0.021     0.021   0.0% |
  Pseudo density:                   36.890    36.888   1.1% |
   Symmetrize density:               0.002     0.002   0.0% |
 Forces:                           144.321   144.321   4.4% |-|
 Hamiltonian:                       12.365     0.124   0.0% |
  Atomic:                            2.867     2.867   0.1% |
   XC Correction:                    0.000     0.000   0.0% |
  Calculate atomic Hamiltonians:     4.328     4.328   0.1% |
  Communicate:                       0.103     0.103   0.0% |
  Poisson:                           0.034     0.034   0.0% |
  XC 3D grid:                        4.908     4.908   0.2% |
 Orthonormalize:                     2.071     0.003   0.0% |
  calc_s_matrix:                     0.242     0.242   0.0% |
  inverse-cholesky:                  0.073     0.073   0.0% |
  projections:                       1.321     1.321   0.0% |
  rotate_psi_s:                      0.433     0.433   0.0% |
Set symmetry:                        0.000     0.000   0.0% |
Other:                            1898.756  1898.756  58.3% |----------------------|
-----------------------------------------------------------
Total:                                      3255.856 100.0%

Memory usage: 12.94 GiB
Date: Thu Mar 25 10:20:53 2021
