
  ___ ___ ___ _ _ _  
 |   |   |_  | | | | 
 | | | | | . | | | | 
 |__ |  _|___|_____|  20.10.1b1
 |___|_|             

User:   madkru@i008.nifl.fysik.dtu.dk
Date:   Thu Mar 25 14:30:17 2021
Arch:   x86_64
Pid:    26969
Python: 3.7.4
gpaw:   /home/niflheim/madkru/venv_folder/gpaw/gpaw (d224efde0f)
_gpaw:  /home/niflheim/madkru/venv_folder/gpaw/build/lib.linux-x86_64-ivybridge-3.7/
        _gpaw.cpython-37m-x86_64-linux-gnu.so (4fd39e8b1e)
ase:    /home/niflheim/madkru/venv_folder/ase/ase (version 3.21.0b1-4d5a73cb29)
numpy:  /home/niflheim/madkru/venv_folder/lib/python3.7/site-packages/numpy (version 1.19.4)
scipy:  /home/niflheim/madkru/venv_folder/lib/python3.7/site-packages/scipy (version 1.5.4)
libxc:  4.3.4
units:  Angstrom and eV
cores: 64
OMP_NUM_THREADS: 1

Input parameters:
  convergence: {bands: occupied,
                density: 0.0001,
                eigenstates: 4e-08,
                energy: 0.0005,
                forces: 1e-06}
  kpts: [6 6 4]
  mode: {ecut: 600.0,
         gammacentered: False,
         name: pw}
  occupations: {fixmagmom: False,
                name: fermi-dirac,
                width: 0.001}
  symmetry: {point_group: False,
             time_reversal: False}

System changes: positions, numbers, cell, pbc, initial_charges, initial_magmoms 

Initialize ...

O-setup:
  name: Oxygen
  id: 9b9d51c344dea68c822856295a461509
  Z: 8.0
  valence: 6
  core: 2
  charge: 0.0
  file: /home/modules/software/GPAW-setups/0.9.20000/O.LDA.gz
  compensation charges: gauss, rc=0.21, lmax=2
  cutoffs: 1.17(filt), 0.83(core),
  valence states:
                energy  radius
    2s(2.00)   -23.752   0.688
    2p(4.00)    -9.195   0.598
    *s           3.459   0.688
    *p          18.016   0.598
    *d           0.000   0.619

  Using partial waves for O as LCAO basis

Mn-setup:
  name: Manganese
  id: 0d715a8018be061a6e9ea6f2d364ac92
  Z: 25.0
  valence: 15
  core: 10
  charge: 0.0
  file: /home/modules/software/GPAW-setups/0.9.20000/Mn.LDA.gz
  compensation charges: gauss, rc=0.38, lmax=2
  cutoffs: 2.14(filt), 0.86(core),
  valence states:
                energy  radius
    3s(2.00)   -85.387   1.275
    4s(2.00)    -5.282   1.275
    3p(6.00)   -54.493   1.281
    4p(0.00)    -1.471   1.281
    3d(5.00)    -7.009   1.138
    *d          20.203   1.138

  Using partial waves for Mn as LCAO basis

P-setup:
  name: Phosphorus
  id: a5561c299094968922a179ab894d2e2d
  Z: 15.0
  valence: 5
  core: 10
  charge: 0.0
  file: /home/modules/software/GPAW-setups/0.9.20000/P.LDA.gz
  compensation charges: gauss, rc=0.30, lmax=2
  cutoffs: 1.69(filt), 1.81(core),
  valence states:
                energy  radius
    3s(2.00)   -14.015   0.953
    3p(3.00)    -5.596   0.953
    *s          13.197   0.953
    *p          21.615   0.953
    *d           0.000   0.953

  Using partial waves for P as LCAO basis

Li-setup:
  name: Lithium
  id: b73562207f97a71b6967473b66fe8b65
  Z: 3.0
  valence: 1
  core: 2
  charge: 0.0
  file: /home/modules/software/GPAW-setups/0.9.20000/Li.LDA.gz
  compensation charges: gauss, rc=0.33, lmax=2
  cutoffs: 1.91(filt), 2.55(core),
  valence states:
                energy  radius
    2s(1.00)    -2.874   1.058
    2p(0.00)    -1.126   1.058
    *s          24.338   1.058

  Using partial waves for Li as LCAO basis

Reference energy: -196157.275402

Spin-polarized calculation.
Magnetic moment: 0.000000

Convergence criteria:
  Maximum total energy change: 0.0005 eV / electron
  Maximum integral of absolute density change: 0.0001 electrons
  Maximum integral of absolute eigenstate change: 4e-08 eV^2
  Maximum change in atomic force: 1e-06 eV / Ang
  Maximum number of iterations: 333

Symmetries present (total): 1

  ( 1  0  0)
  ( 0  1  0)
  ( 0  0  1)

144 k-points: 6 x 6 x 4 Monkhorst-Pack grid
144 k-points in the irreducible part of the Brillouin zone
       k-points in crystal coordinates                weights
   0:    -0.41666667   -0.41666667   -0.37500000          1/144
   1:    -0.41666667   -0.41666667   -0.12500000          1/144
   2:    -0.41666667   -0.41666667    0.12500000          1/144
   3:    -0.41666667   -0.41666667    0.37500000          1/144
   4:    -0.41666667   -0.25000000   -0.37500000          1/144
   5:    -0.41666667   -0.25000000   -0.12500000          1/144
   6:    -0.41666667   -0.25000000    0.12500000          1/144
   7:    -0.41666667   -0.25000000    0.37500000          1/144
   8:    -0.41666667   -0.08333333   -0.37500000          1/144
   9:    -0.41666667   -0.08333333   -0.12500000          1/144
          ...
 143:     0.41666667    0.41666667    0.37500000          1/144

Wave functions: Plane wave expansion
  Cutoff energy: 600.000 eV
  Number of coefficients (min, max): 9132, 9161
  Pulay-stress correction: 0.000000 eV/Ang^3 (de/decut=0.000000)
  Using FFTW library
  ScaLapack parameters: grid=1x1, blocksize=None
  Wavefunction extrapolation:
    Improved wavefunction reuse through dual PAW basis 

  Fermi-Dirac: width=0.0010 eV

Eigensolver
   Davidson(niter=2, smin=None, normalize=True) 

Densities:
  Coarse grid: 60*35*27 grid
  Fine grid: 120*70*54 grid
  Total Charge: 0.000000 

Density mixing:
  Method: difference
  Backend: pulay
  Linear mixing parameter: 0.05
  Mixing with 5 old densities
  Damping of long wave oscillations: 50 

Hamiltonian:
  XC and Coulomb potentials evaluated on a 120*70*54 grid
  Using the LDA Exchange-Correlation functional
 

Memory estimate:
  Process memory now: 13478.35 MiB
  Calculator: 322.47 MiB
    Density: 9.62 MiB
      Arrays: 3.79 MiB
      Localized functions: 4.27 MiB
      Mixer: 1.56 MiB
    Hamiltonian: 2.94 MiB
      Arrays: 2.82 MiB
      XC: 0.00 MiB
      Poisson: 0.00 MiB
      vbar: 0.12 MiB
    Wavefunctions: 309.91 MiB
      Arrays psit_nG: 281.81 MiB
      Eigensolver: 18.27 MiB
      Projections: 2.71 MiB
      Projectors: 4.40 MiB
      PW-descriptor: 2.71 MiB

Total number of cores used: 64
Parallelization over k-points: 16
Domain decomposition: 2 x 2 x 1

Number of atoms: 28
Number of atomic orbitals: 148
Number of bands in calculation: 112
Number of valence electrons: 180
Bands to converge: occupied

... initialized

Initializing position-dependent things.

Density initialized from atomic densities
Creating initial wave functions:
  112 bands from LCAO basis set

                                           
                                           
                                           
                                           
                                           
               O     O  P  O               
            PO           OMn     O         
                  O          MO            
            O        Li O                  
             Mn  Mn          OP            
         O       O Li O                    
         Li     O P         O              
       Li                                  
                                           
                                           
                                           
                                           

Positions:
   0 O     -1.280122   -2.495595   -1.112331    ( 0.0000,  0.0000,  0.0000)
   1 O     -3.023238    2.918858    1.191723    ( 0.0000,  0.0000,  0.0000)
   2 O      1.997451    0.467212    1.441442    ( 0.0000,  0.0000,  0.0000)
   3 O      3.740343   -0.043905   -0.862614    ( 0.0000,  0.0000,  0.0000)
   4 O      1.997419    2.918835    1.441465    ( 0.0000,  0.0000,  0.0000)
   5 O      3.740372   -2.495531   -0.862587    ( 0.0000,  0.0000,  0.0000)
   6 O     -1.280154   -0.043891   -1.112309    ( 0.0000,  0.0000,  0.0000)
   7 O     -3.023210    0.467136    1.191750    ( 0.0000,  0.0000,  0.0000)
   8 O     -4.147405   -1.269737   -0.856207    ( 0.0000,  0.0000,  0.0000)
   9 O     -0.155894    1.692986    1.447725    ( 0.0000,  0.0000,  0.0000)
  10 O      4.864578    1.693016    1.185324    ( 0.0000,  0.0000,  0.0000)
  11 O      0.873163   -1.269706   -1.118625    ( 0.0000,  0.0000,  0.0000)
  12 Mn    -2.437108   -1.269902    0.302197    ( 0.0000,  0.0000,  1.0000)
  13 Mn    -1.866187    1.693156   -2.001927    ( 0.0000,  0.0000, -1.0000)
  14 Mn     3.154299    1.693181    0.026917    ( 0.0000,  0.0000, -1.0000)
  15 Mn     2.583444   -1.269877    2.331074    ( 0.0000,  0.0000,  1.0000)
  16 P     -0.543052   -1.269720   -1.734187    ( 0.0000,  0.0000,  0.0000)
  17 P     -3.760282    1.692974    0.569859    ( 0.0000,  0.0000,  0.0000)
  18 P      1.260300    1.693000    2.063344    ( 0.0000,  0.0000,  0.0000)
  19 P      4.477470   -1.269695   -0.240696    ( 0.0000,  0.0000,  0.0000)
  20 O     -0.534413   -1.269738    1.348523    ( 0.0000,  0.0000,  0.0000)
  21 O     -3.758895    1.692992   -0.955558    ( 0.0000,  0.0000,  0.0000)
  22 O      1.261690    1.693018   -1.019367    ( 0.0000,  0.0000,  0.0000)
  23 O      4.476045   -1.269713    1.284716    ( 0.0000,  0.0000,  0.0000)
  24 Li    -4.662027   -2.751322   -2.139440    ( 0.0000,  0.0000,  0.0000)
  25 Li     0.358703   -2.751277    0.164614    ( 0.0000,  0.0000,  0.0000)
  26 Li    -4.662011    0.211617   -2.139439    ( 0.0000,  0.0000,  0.0000)
  27 Li     0.358720    0.211628    0.164615    ( 0.0000,  0.0000,  0.0000)

Unit cell:
           periodic     x           y           z      points  spacing
  1. axis:    yes   10.041096    0.000054   -0.000022    60     0.1674
  2. axis:    yes    0.000032    5.925857    0.000001    35     0.1693
  3. axis:    yes   -0.000010    0.000001    4.608134    27     0.1707

  Lengths:  10.041096   5.925857   4.608134
  Angles:   89.999974  90.000250  89.999381

Effective grid spacing dv^(1/3) = 0.1691

                     log10-error:           total        iterations:
           time      wfs    density  force  energy       poisson  magmom
iter:   1  14:31:53                       -233.727082             +0.0000
iter:   2  14:32:12  -0.47  -0.95         -231.547304             +0.0019
iter:   3  14:32:32  -0.61  -1.00         -220.798939             +0.0020
iter:   4  14:32:52  -1.20  -1.31         -221.031566             +0.4275
iter:   5  14:33:11  -2.14  -1.39         -222.792112             +0.2373
iter:   6  14:33:31  -2.44  -1.37         -223.238712             +0.0916
iter:   7  14:33:51  -1.93  -1.54         -223.034122             +0.0706
iter:   8  14:34:11  -2.22  -1.94         -225.874438             +0.0304
iter:   9  14:34:31  -2.15  -2.07         -226.341919             -0.0001
iter:  10  14:34:50  -2.29  -2.14         -226.408772             +0.0014
iter:  11  14:35:10  -3.07  -2.28         -226.396684             +0.0004
iter:  12  14:35:30  -2.86  -2.34         -226.237482             -0.0001
iter:  13  14:35:49  -2.84  -2.43         -226.255647             +0.0001
iter:  14  14:36:09  -2.81  -2.62         -226.181551             +0.0000
iter:  15  14:36:29  -3.05  -2.72         -226.185832             +0.0000
iter:  16  14:36:49  -3.65  -2.89         -226.174243             +0.0000
iter:  17  14:37:08  -4.52  -3.21         -226.175442             +0.0000
iter:  18  14:37:28  -4.69  -3.23         -226.175829             -0.0000
iter:  19  14:37:48  -4.33  -3.36         -226.175640             -0.0000
iter:  20  14:38:07  -4.97  -3.25         -226.175391             -0.0000
iter:  21  14:38:27  -4.73  -3.45         -226.175990             -0.0000
iter:  22  14:38:47  -4.73  -3.62         -226.175039             -0.0000
iter:  23  14:39:06  -6.11  -3.92         -226.175030             -0.0000
iter:  24  14:39:26  -6.39  -4.08         -226.175037             +0.0000
iter:  25  14:39:46  -6.44  -4.15         -226.175018             +0.0000
iter:  26  14:40:05  -6.38  -4.20         -226.175023             +0.0000
iter:  27  14:40:25  -6.47  -4.39         -226.175014             +0.0000
iter:  28  14:40:45  -7.03  -4.80         -226.175014             +0.0000
iter:  29  14:41:09  -7.61  -4.91         -226.175012             +0.0000
iter:  30  14:41:34  -8.46  -5.11    -3.09-226.175013             +0.0000
iter:  31  14:41:58  -8.54  -5.20    -3.15-226.175012             +0.0000
iter:  32  14:42:22  -8.22  -5.33    -3.01-226.175012             +0.0000
iter:  33  14:42:47  -9.42  -5.39    -3.86-226.175012             +0.0000
iter:  34  14:43:11  -9.77  -5.40    -3.92-226.175012             +0.0000
iter:  35  14:43:35  -9.39  -5.38    -3.54-226.175012             -0.0000
iter:  36  14:44:00  -9.13  -5.43    -3.35-226.175012             -0.0000
iter:  37  14:44:24  -9.75  -5.51    -3.80-226.175012             -0.0000
iter:  38  14:44:49  -9.40  -5.56    -3.61-226.175012             -0.0000
iter:  39  14:45:13  -9.22  -5.64    -3.54-226.175012             -0.0000
iter:  40  14:45:37 -10.04  -5.79    -4.03-226.175012             -0.0000
iter:  41  14:46:02  -9.53  -5.85    -3.66-226.175012             -0.0000
iter:  42  14:46:26 -10.87  -6.15    -4.11-226.175012             -0.0000
iter:  43  14:46:50 -10.61  -6.19    -3.89-226.175012             -0.0000
iter:  44  14:47:15  -9.92  -6.29    -4.10-226.175012             -0.0000
iter:  45  14:47:39 -11.22  -6.44    -4.53-226.175012             -0.0000
iter:  46  14:48:03 -10.43  -6.52    -4.28-226.175012             -0.0000
iter:  47  14:48:28 -10.89  -6.50    -4.29-226.175012             -0.0000
iter:  48  14:48:52 -12.19  -6.89    -5.01-226.175012             -0.0000
iter:  49  14:49:16 -11.80  -6.93    -4.59-226.175012             -0.0000
iter:  50  14:49:41 -12.20  -7.15    -4.91-226.175012             -0.0000
iter:  51  14:50:05 -13.11  -7.31    -5.10-226.175012             -0.0000
iter:  52  14:50:29 -13.09  -7.39    -5.20-226.175012             -0.0000
iter:  53  14:50:54 -12.63  -7.49    -5.07-226.175012             -0.0000
iter:  54  14:51:18 -13.75  -7.90    -5.86-226.175012             -0.0000
iter:  55  14:51:42 -14.56  -8.03    -6.41-226.175012             -0.0000

Converged after 55 iterations.

Dipole moment: (18.549343, -2.309328, -4.523406) |e|*Ang

Total magnetic moment: (0.000000, 0.000000, -0.000000)
Local magnetic moments:
   0 O  ( 0.000000,  0.000000, -0.001799)
   1 O  ( 0.000000,  0.000000,  0.001755)
   2 O  ( 0.000000,  0.000000,  0.001749)
   3 O  ( 0.000000,  0.000000, -0.001822)
   4 O  ( 0.000000,  0.000000,  0.001744)
   5 O  ( 0.000000,  0.000000, -0.001816)
   6 O  ( 0.000000,  0.000000, -0.001805)
   7 O  ( 0.000000,  0.000000,  0.001761)
   8 O  ( 0.000000,  0.000000,  0.031283)
   9 O  ( 0.000000,  0.000000, -0.031183)
  10 O  ( 0.000000,  0.000000, -0.031048)
  11 O  ( 0.000000,  0.000000,  0.031050)
  12 Mn ( 0.000000,  0.000000,  4.396273)
  13 Mn ( 0.000000,  0.000000, -4.395863)
  14 Mn ( 0.000000,  0.000000, -4.395775)
  15 Mn ( 0.000000,  0.000000,  4.395869)
  16 P  ( 0.000000,  0.000000,  0.000623)
  17 P  ( 0.000000,  0.000000, -0.000901)
  18 P  ( 0.000000,  0.000000, -0.000863)
  19 P  ( 0.000000,  0.000000,  0.000860)
  20 O  ( 0.000000,  0.000000,  0.028380)
  21 O  ( 0.000000,  0.000000, -0.028410)
  22 O  ( 0.000000,  0.000000, -0.028430)
  23 O  ( 0.000000,  0.000000,  0.028386)
  24 Li ( 0.000000,  0.000000, -0.000000)
  25 Li ( 0.000000,  0.000000, -0.000003)
  26 Li ( 0.000000,  0.000000, -0.000000)
  27 Li ( 0.000000,  0.000000, -0.000003)

Energy contributions relative to reference atoms: (reference = -196157.275402)

Kinetic:       +277.523619
Potential:     -240.883350
External:        +0.000000
XC:            -264.704215
Entropy (-ST):   -0.000000
Local:           +1.888934
--------------------------
Free energy:   -226.175012
Extrapolated:  -226.175012

Spin contamination: 9.455547 electrons
Showing only first 2 kpts
                      Up                     Down
 Kpt  Band  Eigenvalues  Occupancy  Eigenvalues  Occupancy
  0    88      6.52040    0.00694      6.52844    0.00694
  0    89      6.56037    0.00694      6.56326    0.00694
  0    90      8.42513    0.00000      8.41886    0.00000
  0    91      8.44705    0.00000      8.44854    0.00000

  1    88      6.55713    0.00694      6.56671    0.00694
  1    89      6.59262    0.00694      6.59546    0.00694
  1    90      8.38140    0.00000      8.37659    0.00000
  1    91      8.40410    0.00000      8.40548    0.00000


Fermi level: 7.34357

Gap: 1.696 eV
Transition (v -> c):
  (s=1, k=94, n=89, [0.08, 0.42, 0.12]) -> (s=1, k=57, n=90, [-0.08, -0.08, -0.12])
Writing to born-0.01-20x+.gpw (mode='all')

Timing:                              incl.     excl.
-----------------------------------------------------------
Hamiltonian:                         0.225     0.002   0.0% |
 Atomic:                             0.063     0.063   0.0% |
  XC Correction:                     0.000     0.000   0.0% |
 Calculate atomic Hamiltonians:      0.074     0.074   0.0% |
 Communicate:                        0.001     0.001   0.0% |
 Initialize Hamiltonian:             0.000     0.000   0.0% |
 Poisson:                            0.001     0.001   0.0% |
 XC 3D grid:                         0.083     0.083   0.0% |
LCAO initialization:                72.053     0.658   0.0% |
 LCAO eigensolver:                  19.671     0.002   0.0% |
  Calculate projections:             0.029     0.029   0.0% |
  DenseAtomicCorrection:             0.045     0.045   0.0% |
  Distribute overlap matrix:         0.008     0.008   0.0% |
  Orbital Layouts:                   0.430     0.430   0.0% |
  Potential matrix:                 19.056    19.056   0.6% |
  Sum over cells:                    0.100     0.100   0.0% |
 LCAO to grid:                      50.377    50.377   1.6% ||
 Set positions (LCAO WFS):           1.348     0.193   0.0% |
  Basic WFS set positions:           0.001     0.001   0.0% |
  Basis functions set positions:     0.000     0.000   0.0% |
  P tci:                             0.530     0.530   0.0% |
  ST tci:                            0.405     0.405   0.0% |
  mktci:                             0.218     0.218   0.0% |
PWDescriptor:                        0.023     0.023   0.0% |
SCF-cycle:                        1211.614     3.848   0.1% |
 Davidson:                        1025.895   314.620   9.8% |---|
  Apply H:                          71.166    69.148   2.1% ||
   HMM T:                            2.017     2.017   0.1% |
  Subspace diag:                   148.662     0.156   0.0% |
   calc_h_matrix:                   95.509    24.773   0.8% |
    Apply H:                        70.736    68.711   2.1% ||
     HMM T:                          2.025     2.025   0.1% |
   diagonalize:                      7.468     7.468   0.2% |
   rotate_psi:                      45.529    45.529   1.4% ||
  calc. matrices:                  306.551   167.764   5.2% |-|
   Apply H:                        138.787   134.987   4.2% |-|
    HMM T:                           3.801     3.801   0.1% |
  diagonalize:                      86.462    86.462   2.7% ||
  rotate_psi:                       98.434    98.434   3.1% ||
 Density:                           42.037     0.001   0.0% |
  Atomic density matrices:           0.861     0.861   0.0% |
  Mix:                               5.726     5.726   0.2% |
  Multipole moments:                 0.020     0.020   0.0% |
  Pseudo density:                   35.430    35.428   1.1% |
   Symmetrize density:               0.002     0.002   0.0% |
 Forces:                           126.060   126.060   3.9% |-|
 Hamiltonian:                       11.717     0.115   0.0% |
  Atomic:                            2.739     2.739   0.1% |
   XC Correction:                    0.000     0.000   0.0% |
  Calculate atomic Hamiltonians:     4.091     4.091   0.1% |
  Communicate:                       0.090     0.090   0.0% |
  Poisson:                           0.031     0.031   0.0% |
  XC 3D grid:                        4.652     4.652   0.1% |
 Orthonormalize:                     2.057     0.003   0.0% |
  calc_s_matrix:                     0.242     0.242   0.0% |
  inverse-cholesky:                  0.071     0.071   0.0% |
  projections:                       1.312     1.312   0.0% |
  rotate_psi_s:                      0.429     0.429   0.0% |
Set symmetry:                        0.000     0.000   0.0% |
Other:                            1939.984  1939.984  60.2% |-----------------------|
-----------------------------------------------------------
Total:                                      3223.899 100.0%

Memory usage: 13.20 GiB
Date: Thu Mar 25 15:24:01 2021
