
  ___ ___ ___ _ _ _  
 |   |   |_  | | | | 
 | | | | | . | | | | 
 |__ |  _|___|_____|  20.10.1b1
 |___|_|             

User:   madkru@i008.nifl.fysik.dtu.dk
Date:   Thu Mar 25 23:16:13 2021
Arch:   x86_64
Pid:    26969
Python: 3.7.4
gpaw:   /home/niflheim/madkru/venv_folder/gpaw/gpaw (d224efde0f)
_gpaw:  /home/niflheim/madkru/venv_folder/gpaw/build/lib.linux-x86_64-ivybridge-3.7/
        _gpaw.cpython-37m-x86_64-linux-gnu.so (4fd39e8b1e)
ase:    /home/niflheim/madkru/venv_folder/ase/ase (version 3.21.0b1-4d5a73cb29)
numpy:  /home/niflheim/madkru/venv_folder/lib/python3.7/site-packages/numpy (version 1.19.4)
scipy:  /home/niflheim/madkru/venv_folder/lib/python3.7/site-packages/scipy (version 1.5.4)
libxc:  4.3.4
units:  Angstrom and eV
cores: 64
OMP_NUM_THREADS: 1

Input parameters:
  convergence: {bands: occupied,
                density: 0.0001,
                eigenstates: 4e-08,
                energy: 0.0005,
                forces: 1e-06}
  kpts: [6 6 4]
  mode: {ecut: 600.0,
         gammacentered: False,
         name: pw}
  occupations: {fixmagmom: False,
                name: fermi-dirac,
                width: 0.001}
  symmetry: {point_group: False,
             time_reversal: False}

System changes: positions, numbers, cell, pbc, initial_charges, initial_magmoms 

Initialize ...

O-setup:
  name: Oxygen
  id: 9b9d51c344dea68c822856295a461509
  Z: 8.0
  valence: 6
  core: 2
  charge: 0.0
  file: /home/modules/software/GPAW-setups/0.9.20000/O.LDA.gz
  compensation charges: gauss, rc=0.21, lmax=2
  cutoffs: 1.17(filt), 0.83(core),
  valence states:
                energy  radius
    2s(2.00)   -23.752   0.688
    2p(4.00)    -9.195   0.598
    *s           3.459   0.688
    *p          18.016   0.598
    *d           0.000   0.619

  Using partial waves for O as LCAO basis

Mn-setup:
  name: Manganese
  id: 0d715a8018be061a6e9ea6f2d364ac92
  Z: 25.0
  valence: 15
  core: 10
  charge: 0.0
  file: /home/modules/software/GPAW-setups/0.9.20000/Mn.LDA.gz
  compensation charges: gauss, rc=0.38, lmax=2
  cutoffs: 2.14(filt), 0.86(core),
  valence states:
                energy  radius
    3s(2.00)   -85.387   1.275
    4s(2.00)    -5.282   1.275
    3p(6.00)   -54.493   1.281
    4p(0.00)    -1.471   1.281
    3d(5.00)    -7.009   1.138
    *d          20.203   1.138

  Using partial waves for Mn as LCAO basis

P-setup:
  name: Phosphorus
  id: a5561c299094968922a179ab894d2e2d
  Z: 15.0
  valence: 5
  core: 10
  charge: 0.0
  file: /home/modules/software/GPAW-setups/0.9.20000/P.LDA.gz
  compensation charges: gauss, rc=0.30, lmax=2
  cutoffs: 1.69(filt), 1.81(core),
  valence states:
                energy  radius
    3s(2.00)   -14.015   0.953
    3p(3.00)    -5.596   0.953
    *s          13.197   0.953
    *p          21.615   0.953
    *d           0.000   0.953

  Using partial waves for P as LCAO basis

Li-setup:
  name: Lithium
  id: b73562207f97a71b6967473b66fe8b65
  Z: 3.0
  valence: 1
  core: 2
  charge: 0.0
  file: /home/modules/software/GPAW-setups/0.9.20000/Li.LDA.gz
  compensation charges: gauss, rc=0.33, lmax=2
  cutoffs: 1.91(filt), 2.55(core),
  valence states:
                energy  radius
    2s(1.00)    -2.874   1.058
    2p(0.00)    -1.126   1.058
    *s          24.338   1.058

  Using partial waves for Li as LCAO basis

Reference energy: -196157.275402

Spin-polarized calculation.
Magnetic moment: 0.000000

Convergence criteria:
  Maximum total energy change: 0.0005 eV / electron
  Maximum integral of absolute density change: 0.0001 electrons
  Maximum integral of absolute eigenstate change: 4e-08 eV^2
  Maximum change in atomic force: 1e-06 eV / Ang
  Maximum number of iterations: 333

Symmetries present (total): 1

  ( 1  0  0)
  ( 0  1  0)
  ( 0  0  1)

144 k-points: 6 x 6 x 4 Monkhorst-Pack grid
144 k-points in the irreducible part of the Brillouin zone
       k-points in crystal coordinates                weights
   0:    -0.41666667   -0.41666667   -0.37500000          1/144
   1:    -0.41666667   -0.41666667   -0.12500000          1/144
   2:    -0.41666667   -0.41666667    0.12500000          1/144
   3:    -0.41666667   -0.41666667    0.37500000          1/144
   4:    -0.41666667   -0.25000000   -0.37500000          1/144
   5:    -0.41666667   -0.25000000   -0.12500000          1/144
   6:    -0.41666667   -0.25000000    0.12500000          1/144
   7:    -0.41666667   -0.25000000    0.37500000          1/144
   8:    -0.41666667   -0.08333333   -0.37500000          1/144
   9:    -0.41666667   -0.08333333   -0.12500000          1/144
          ...
 143:     0.41666667    0.41666667    0.37500000          1/144

Wave functions: Plane wave expansion
  Cutoff energy: 600.000 eV
  Number of coefficients (min, max): 9132, 9161
  Pulay-stress correction: 0.000000 eV/Ang^3 (de/decut=0.000000)
  Using FFTW library
  ScaLapack parameters: grid=1x1, blocksize=None
  Wavefunction extrapolation:
    Improved wavefunction reuse through dual PAW basis 

  Fermi-Dirac: width=0.0010 eV

Eigensolver
   Davidson(niter=2, smin=None, normalize=True) 

Densities:
  Coarse grid: 60*35*27 grid
  Fine grid: 120*70*54 grid
  Total Charge: 0.000000 

Density mixing:
  Method: difference
  Backend: pulay
  Linear mixing parameter: 0.05
  Mixing with 5 old densities
  Damping of long wave oscillations: 50 

Hamiltonian:
  XC and Coulomb potentials evaluated on a 120*70*54 grid
  Using the LDA Exchange-Correlation functional
 

Memory estimate:
  Process memory now: 13922.38 MiB
  Calculator: 322.47 MiB
    Density: 9.62 MiB
      Arrays: 3.79 MiB
      Localized functions: 4.27 MiB
      Mixer: 1.56 MiB
    Hamiltonian: 2.94 MiB
      Arrays: 2.82 MiB
      XC: 0.00 MiB
      Poisson: 0.00 MiB
      vbar: 0.12 MiB
    Wavefunctions: 309.91 MiB
      Arrays psit_nG: 281.81 MiB
      Eigensolver: 18.27 MiB
      Projections: 2.71 MiB
      Projectors: 4.40 MiB
      PW-descriptor: 2.71 MiB

Total number of cores used: 64
Parallelization over k-points: 16
Domain decomposition: 2 x 2 x 1

Number of atoms: 28
Number of atomic orbitals: 148
Number of bands in calculation: 112
Number of valence electrons: 180
Bands to converge: occupied

... initialized

Initializing position-dependent things.

Density initialized from atomic densities
Creating initial wave functions:
  112 bands from LCAO basis set

                                           
                                           
                                           
                                           
                                           
               O     O  P  O               
            PO           OMn     O         
                  O          MO            
            O        Li O                  
             Mn  Mn          OP            
         O       O Li O                    
         Li     O P         O              
       Li                                  
                                           
                                           
                                           
                                           

Positions:
   0 O     -1.280122   -2.495595   -1.112331    ( 0.0000,  0.0000,  0.0000)
   1 O     -3.023238    2.918858    1.191723    ( 0.0000,  0.0000,  0.0000)
   2 O      1.997451    0.467212    1.441442    ( 0.0000,  0.0000,  0.0000)
   3 O      3.740343   -0.043905   -0.862614    ( 0.0000,  0.0000,  0.0000)
   4 O      1.997419    2.918835    1.441465    ( 0.0000,  0.0000,  0.0000)
   5 O      3.740372   -2.495531   -0.862587    ( 0.0000,  0.0000,  0.0000)
   6 O     -1.280154   -0.043891   -1.112309    ( 0.0000,  0.0000,  0.0000)
   7 O     -3.023210    0.467136    1.191750    ( 0.0000,  0.0000,  0.0000)
   8 O     -4.147405   -1.269737   -0.856207    ( 0.0000,  0.0000,  0.0000)
   9 O     -0.155894    1.692986    1.447725    ( 0.0000,  0.0000,  0.0000)
  10 O      4.864578    1.693016    1.185324    ( 0.0000,  0.0000,  0.0000)
  11 O      0.873163   -1.269706   -1.118625    ( 0.0000,  0.0000,  0.0000)
  12 Mn    -2.437108   -1.269902    0.302197    ( 0.0000,  0.0000,  1.0000)
  13 Mn    -1.866187    1.693156   -2.001927    ( 0.0000,  0.0000, -1.0000)
  14 Mn     3.154299    1.693181    0.026917    ( 0.0000,  0.0000, -1.0000)
  15 Mn     2.583444   -1.269877    2.331074    ( 0.0000,  0.0000,  1.0000)
  16 P     -0.543052   -1.269720   -1.734187    ( 0.0000,  0.0000,  0.0000)
  17 P     -3.760282    1.692974    0.569859    ( 0.0000,  0.0000,  0.0000)
  18 P      1.260300    1.693000    2.063344    ( 0.0000,  0.0000,  0.0000)
  19 P      4.477470   -1.269695   -0.240696    ( 0.0000,  0.0000,  0.0000)
  20 O     -0.544413   -1.269738    1.348523    ( 0.0000,  0.0000,  0.0000)
  21 O     -3.758895    1.692992   -0.955558    ( 0.0000,  0.0000,  0.0000)
  22 O      1.261690    1.693018   -1.019367    ( 0.0000,  0.0000,  0.0000)
  23 O      4.466045   -1.269713    1.284716    ( 0.0000,  0.0000,  0.0000)
  24 Li    -4.662027   -2.751322   -2.139440    ( 0.0000,  0.0000,  0.0000)
  25 Li     0.358703   -2.751277    0.164614    ( 0.0000,  0.0000,  0.0000)
  26 Li    -4.662011    0.211617   -2.139439    ( 0.0000,  0.0000,  0.0000)
  27 Li     0.358720    0.211628    0.164615    ( 0.0000,  0.0000,  0.0000)

Unit cell:
           periodic     x           y           z      points  spacing
  1. axis:    yes   10.041096    0.000054   -0.000022    60     0.1674
  2. axis:    yes    0.000032    5.925857    0.000001    35     0.1693
  3. axis:    yes   -0.000010    0.000001    4.608134    27     0.1707

  Lengths:  10.041096   5.925857   4.608134
  Angles:   89.999974  90.000250  89.999381

Effective grid spacing dv^(1/3) = 0.1691

                     log10-error:           total        iterations:
           time      wfs    density  force  energy       poisson  magmom
iter:   1  23:17:47                       -233.733259             +0.0000
iter:   2  23:18:07  -0.47  -0.95         -231.552548             +0.0022
iter:   3  23:18:27  -0.61  -1.00         -220.808136             +0.0023
iter:   4  23:18:46  -1.17  -1.31         -220.824235             +0.3209
iter:   5  23:19:06  -2.12  -1.40         -223.154596             +0.1719
iter:   6  23:19:26  -2.31  -1.37         -222.945861             +0.0831
iter:   7  23:19:46  -2.03  -1.55         -222.882558             +0.0495
iter:   8  23:20:06  -2.31  -1.86         -225.802149             +0.0231
iter:   9  23:20:25  -2.10  -2.04         -226.372884             +0.0009
iter:  10  23:20:45  -2.26  -2.13         -226.368756             +0.0012
iter:  11  23:21:05  -3.04  -2.28         -226.359504             +0.0004
iter:  12  23:21:24  -2.87  -2.34         -226.222217             -0.0001
iter:  13  23:21:44  -2.94  -2.44         -226.247264             +0.0001
iter:  14  23:22:04  -2.81  -2.66         -226.177066             +0.0000
iter:  15  23:22:24  -3.60  -2.97         -226.178660             +0.0000
iter:  16  23:22:43  -4.21  -3.05         -226.175065             +0.0000
iter:  17  23:23:03  -4.47  -3.12         -226.175665             +0.0000
iter:  18  23:23:23  -4.64  -3.20         -226.176141             +0.0000
iter:  19  23:23:43  -4.76  -3.27         -226.175405             -0.0000
iter:  20  23:24:02  -4.84  -3.35         -226.175581             -0.0000
iter:  21  23:24:22  -5.14  -3.38         -226.175252             -0.0000
iter:  22  23:24:42  -5.61  -3.43         -226.175216             -0.0000
iter:  23  23:25:02  -6.47  -3.50         -226.175179             -0.0000
iter:  24  23:25:21  -6.19  -3.56         -226.175158             -0.0000
iter:  25  23:25:41  -5.84  -3.64         -226.175119             -0.0000
iter:  26  23:26:01  -6.31  -3.73         -226.175129             -0.0000
iter:  27  23:26:21  -6.56  -3.76         -226.175122             -0.0000
iter:  28  23:26:40  -6.08  -3.83         -226.175043             +0.0000
iter:  29  23:27:00  -5.58  -3.94         -226.175083             -0.0000
iter:  30  23:27:20  -6.49  -3.85         -226.175035             +0.0000
iter:  31  23:27:39  -6.69  -3.94         -226.175022             +0.0000
iter:  32  23:27:59  -6.04  -4.00         -226.175031             +0.0000
iter:  33  23:28:19  -6.48  -4.18         -226.175019             +0.0000
iter:  34  23:28:39  -6.21  -4.47         -226.175016             +0.0000
iter:  35  23:28:58  -7.11  -4.58         -226.175009             +0.0000
iter:  36  23:29:23  -7.42  -5.05         -226.175009             +0.0000
iter:  37  23:29:47  -8.08  -5.06    -2.70-226.175008             +0.0000
iter:  38  23:30:11  -8.69  -5.40    -3.07-226.175008             +0.0000
iter:  39  23:30:36  -9.41  -5.41    -3.30-226.175008             +0.0000
iter:  40  23:31:00  -9.09  -5.66    -3.33-226.175008             +0.0000
iter:  41  23:31:25 -10.42  -6.01    -4.06-226.175008             +0.0000
iter:  42  23:31:49 -10.25  -6.06    -3.91-226.175008             -0.0000
iter:  43  23:32:14 -10.70  -6.22    -4.27-226.175008             +0.0000
iter:  44  23:32:38 -10.69  -6.27    -4.15-226.175008             +0.0000
iter:  45  23:33:03 -11.19  -6.34    -4.38-226.175008             -0.0000
iter:  46  23:33:27 -11.29  -6.39    -4.48-226.175008             -0.0000
iter:  47  23:33:51 -10.97  -6.48    -4.17-226.175008             -0.0000
iter:  48  23:34:16 -11.41  -6.61    -4.51-226.175008             -0.0000
iter:  49  23:34:40 -12.84  -6.78    -5.10-226.175008             -0.0000
iter:  50  23:35:04 -12.65  -6.82    -5.00-226.175008             +0.0000
iter:  51  23:35:29 -11.99  -6.91    -4.78-226.175008             +0.0000
iter:  52  23:35:53 -12.41  -6.97    -4.97-226.175008             +0.0000
iter:  53  23:36:18 -13.31  -7.11    -5.60-226.175008             +0.0000
iter:  54  23:36:42 -12.31  -7.21    -5.00-226.175008             +0.0000
iter:  55  23:37:06 -13.35  -7.37    -5.50-226.175008             +0.0000
iter:  56  23:37:31 -13.17  -7.41    -5.27-226.175008             +0.0000
iter:  57  23:37:55 -13.65  -7.53    -5.52-226.175008             +0.0000
iter:  58  23:38:19 -13.75  -7.61    -5.84-226.175008             +0.0000
iter:  59  23:38:44 -14.35  -7.65    -6.07-226.175008             +0.0000

Converged after 59 iterations.

Dipole moment: (18.331122, -2.305028, -4.524848) |e|*Ang

Total magnetic moment: (0.000000, 0.000000, 0.000000)
Local magnetic moments:
   0 O  ( 0.000000,  0.000000, -0.001796)
   1 O  ( 0.000000,  0.000000,  0.001869)
   2 O  ( 0.000000,  0.000000,  0.001864)
   3 O  ( 0.000000,  0.000000, -0.001817)
   4 O  ( 0.000000,  0.000000,  0.001859)
   5 O  ( 0.000000,  0.000000, -0.001812)
   6 O  ( 0.000000,  0.000000, -0.001801)
   7 O  ( 0.000000,  0.000000,  0.001874)
   8 O  ( 0.000000,  0.000000,  0.031146)
   9 O  ( 0.000000,  0.000000, -0.031145)
  10 O  ( 0.000000,  0.000000, -0.031010)
  11 O  ( 0.000000,  0.000000,  0.030910)
  12 Mn ( 0.000000,  0.000000,  4.395647)
  13 Mn ( 0.000000,  0.000000, -4.395742)
  14 Mn ( 0.000000,  0.000000, -4.395651)
  15 Mn ( 0.000000,  0.000000,  4.395194)
  16 P  ( 0.000000,  0.000000,  0.000876)
  17 P  ( 0.000000,  0.000000, -0.000872)
  18 P  ( 0.000000,  0.000000, -0.000835)
  19 P  ( 0.000000,  0.000000,  0.001123)
  20 O  ( 0.000000,  0.000000,  0.028451)
  21 O  ( 0.000000,  0.000000, -0.028406)
  22 O  ( 0.000000,  0.000000, -0.028426)
  23 O  ( 0.000000,  0.000000,  0.028461)
  24 Li ( 0.000000,  0.000000,  0.000003)
  25 Li ( 0.000000,  0.000000,  0.000001)
  26 Li ( 0.000000,  0.000000,  0.000003)
  27 Li ( 0.000000,  0.000000,  0.000001)

Energy contributions relative to reference atoms: (reference = -196157.275402)

Kinetic:       +277.722658
Potential:     -241.048306
External:        +0.000000
XC:            -264.737305
Entropy (-ST):   -0.000000
Local:           +1.887944
--------------------------
Free energy:   -226.175008
Extrapolated:  -226.175008

Spin contamination: 9.455072 electrons
Showing only first 2 kpts
                      Up                     Down
 Kpt  Band  Eigenvalues  Occupancy  Eigenvalues  Occupancy
  0    88      6.53418    0.00694      6.53136    0.00694
  0    89      6.57433    0.00694      6.56612    0.00694
  0    90      8.42793    0.00000      8.42663    0.00000
  0    91      8.44990    0.00000      8.45649    0.00000

  1    88      6.57243    0.00694      6.56955    0.00694
  1    89      6.60792    0.00694      6.59826    0.00694
  1    90      8.38419    0.00000      8.38285    0.00000
  1    91      8.40686    0.00000      8.41183    0.00000


Fermi level: 7.52768

Gap: 1.691 eV
Transition (v -> c):
  (s=0, k=73, n=89, [0.08, -0.42, -0.12]) -> (s=0, k=62, n=90, [-0.08, 0.08, 0.12])
Writing to born-0.01-23x-.gpw (mode='all')

Timing:                              incl.     excl.
-----------------------------------------------------------
Hamiltonian:                         0.222     0.002   0.0% |
 Atomic:                             0.060     0.060   0.0% |
  XC Correction:                     0.000     0.000   0.0% |
 Calculate atomic Hamiltonians:      0.074     0.074   0.0% |
 Communicate:                        0.002     0.002   0.0% |
 Initialize Hamiltonian:             0.000     0.000   0.0% |
 Poisson:                            0.001     0.001   0.0% |
 XC 3D grid:                         0.083     0.083   0.0% |
LCAO initialization:                68.007     0.643   0.0% |
 LCAO eigensolver:                  19.528     0.002   0.0% |
  Calculate projections:             0.029     0.029   0.0% |
  DenseAtomicCorrection:             0.046     0.046   0.0% |
  Distribute overlap matrix:         0.013     0.013   0.0% |
  Orbital Layouts:                   0.431     0.431   0.0% |
  Potential matrix:                 18.907    18.907   0.6% |
  Sum over cells:                    0.100     0.100   0.0% |
 LCAO to grid:                      46.490    46.490   1.4% ||
 Set positions (LCAO WFS):           1.346     0.192   0.0% |
  Basic WFS set positions:           0.001     0.001   0.0% |
  Basis functions set positions:     0.000     0.000   0.0% |
  P tci:                             0.520     0.520   0.0% |
  ST tci:                            0.381     0.381   0.0% |
  mktci:                             0.251     0.251   0.0% |
PWDescriptor:                        0.023     0.023   0.0% |
SCF-cycle:                        1281.169     4.014   0.1% |
 Davidson:                        1106.336   337.163  10.0% |---|
  Apply H:                          77.200    75.049   2.2% ||
   HMM T:                            2.152     2.152   0.1% |
  Subspace diag:                   160.983     0.169   0.0% |
   calc_h_matrix:                  103.868    26.602   0.8% |
    Apply H:                        77.266    75.085   2.2% ||
     HMM T:                          2.181     2.181   0.1% |
   diagonalize:                      8.050     8.050   0.2% |
   rotate_psi:                      48.896    48.896   1.4% ||
  calc. matrices:                  332.183   180.662   5.4% |-|
   Apply H:                        151.520   147.490   4.4% |-|
    HMM T:                           4.030     4.030   0.1% |
  diagonalize:                      92.796    92.796   2.8% ||
  rotate_psi:                      106.010   106.010   3.1% ||
 Density:                           44.348     0.001   0.0% |
  Atomic density matrices:           0.949     0.949   0.0% |
  Mix:                               6.137     6.137   0.2% |
  Multipole moments:                 0.021     0.021   0.0% |
  Pseudo density:                   37.239    37.237   1.1% |
   Symmetrize density:               0.002     0.002   0.0% |
 Forces:                           111.880   111.880   3.3% ||
 Hamiltonian:                       12.526     0.126   0.0% |
  Atomic:                            2.944     2.944   0.1% |
   XC Correction:                    0.000     0.000   0.0% |
  Calculate atomic Hamiltonians:     4.356     4.356   0.1% |
  Communicate:                       0.088     0.088   0.0% |
  Poisson:                           0.036     0.036   0.0% |
  XC 3D grid:                        4.975     4.975   0.1% |
 Orthonormalize:                     2.066     0.003   0.0% |
  calc_s_matrix:                     0.242     0.242   0.0% |
  inverse-cholesky:                  0.073     0.073   0.0% |
  projections:                       1.319     1.319   0.0% |
  rotate_psi_s:                      0.430     0.430   0.0% |
Set symmetry:                        0.000     0.000   0.0% |
Other:                            2023.364  2023.364  60.0% |-----------------------|
-----------------------------------------------------------
Total:                                      3372.785 100.0%

Memory usage: 13.61 GiB
Date: Fri Mar 26 00:12:26 2021
