
  ___ ___ ___ _ _ _  
 |   |   |_  | | | | 
 | | | | | . | | | | 
 |__ |  _|___|_____|  20.10.1b1
 |___|_|             

User:   madkru@i008.nifl.fysik.dtu.dk
Date:   Wed Mar 24 07:08:43 2021
Arch:   x86_64
Pid:    26969
Python: 3.7.4
gpaw:   /home/niflheim/madkru/venv_folder/gpaw/gpaw (d0d1ca1c71)
_gpaw:  /home/niflheim/madkru/venv_folder/gpaw/build/lib.linux-x86_64-ivybridge-3.7/
        _gpaw.cpython-37m-x86_64-linux-gnu.so (4fd39e8b1e)
ase:    /home/niflheim/madkru/venv_folder/ase/ase (version 3.21.0b1-7e6c206a91)
numpy:  /home/niflheim/madkru/venv_folder/lib/python3.7/site-packages/numpy (version 1.19.4)
scipy:  /home/niflheim/madkru/venv_folder/lib/python3.7/site-packages/scipy (version 1.5.4)
libxc:  4.3.4
units:  Angstrom and eV
cores: 64
OMP_NUM_THREADS: 1

Input parameters:
  convergence: {bands: occupied,
                density: 0.0001,
                eigenstates: 4e-08,
                energy: 0.0005,
                forces: 1e-06}
  kpts: [6 6 4]
  mode: {ecut: 600.0,
         gammacentered: False,
         name: pw}
  occupations: {fixmagmom: False,
                name: fermi-dirac,
                width: 0.001}
  symmetry: {point_group: False,
             time_reversal: False}

System changes: positions, numbers, cell, pbc, initial_charges, initial_magmoms 

Initialize ...

O-setup:
  name: Oxygen
  id: 9b9d51c344dea68c822856295a461509
  Z: 8.0
  valence: 6
  core: 2
  charge: 0.0
  file: /home/modules/software/GPAW-setups/0.9.20000/O.LDA.gz
  compensation charges: gauss, rc=0.21, lmax=2
  cutoffs: 1.17(filt), 0.83(core),
  valence states:
                energy  radius
    2s(2.00)   -23.752   0.688
    2p(4.00)    -9.195   0.598
    *s           3.459   0.688
    *p          18.016   0.598
    *d           0.000   0.619

  Using partial waves for O as LCAO basis

Mn-setup:
  name: Manganese
  id: 0d715a8018be061a6e9ea6f2d364ac92
  Z: 25.0
  valence: 15
  core: 10
  charge: 0.0
  file: /home/modules/software/GPAW-setups/0.9.20000/Mn.LDA.gz
  compensation charges: gauss, rc=0.38, lmax=2
  cutoffs: 2.14(filt), 0.86(core),
  valence states:
                energy  radius
    3s(2.00)   -85.387   1.275
    4s(2.00)    -5.282   1.275
    3p(6.00)   -54.493   1.281
    4p(0.00)    -1.471   1.281
    3d(5.00)    -7.009   1.138
    *d          20.203   1.138

  Using partial waves for Mn as LCAO basis

P-setup:
  name: Phosphorus
  id: a5561c299094968922a179ab894d2e2d
  Z: 15.0
  valence: 5
  core: 10
  charge: 0.0
  file: /home/modules/software/GPAW-setups/0.9.20000/P.LDA.gz
  compensation charges: gauss, rc=0.30, lmax=2
  cutoffs: 1.69(filt), 1.81(core),
  valence states:
                energy  radius
    3s(2.00)   -14.015   0.953
    3p(3.00)    -5.596   0.953
    *s          13.197   0.953
    *p          21.615   0.953
    *d           0.000   0.953

  Using partial waves for P as LCAO basis

Li-setup:
  name: Lithium
  id: b73562207f97a71b6967473b66fe8b65
  Z: 3.0
  valence: 1
  core: 2
  charge: 0.0
  file: /home/modules/software/GPAW-setups/0.9.20000/Li.LDA.gz
  compensation charges: gauss, rc=0.33, lmax=2
  cutoffs: 1.91(filt), 2.55(core),
  valence states:
                energy  radius
    2s(1.00)    -2.874   1.058
    2p(0.00)    -1.126   1.058
    *s          24.338   1.058

  Using partial waves for Li as LCAO basis

Reference energy: -196157.275402

Spin-polarized calculation.
Magnetic moment: 0.000000

Convergence criteria:
  Maximum total energy change: 0.0005 eV / electron
  Maximum integral of absolute density change: 0.0001 electrons
  Maximum integral of absolute eigenstate change: 4e-08 eV^2
  Maximum change in atomic force: 1e-06 eV / Ang
  Maximum number of iterations: 333

Symmetries present (total): 1

  ( 1  0  0)
  ( 0  1  0)
  ( 0  0  1)

144 k-points: 6 x 6 x 4 Monkhorst-Pack grid
144 k-points in the irreducible part of the Brillouin zone
       k-points in crystal coordinates                weights
   0:    -0.41666667   -0.41666667   -0.37500000          1/144
   1:    -0.41666667   -0.41666667   -0.12500000          1/144
   2:    -0.41666667   -0.41666667    0.12500000          1/144
   3:    -0.41666667   -0.41666667    0.37500000          1/144
   4:    -0.41666667   -0.25000000   -0.37500000          1/144
   5:    -0.41666667   -0.25000000   -0.12500000          1/144
   6:    -0.41666667   -0.25000000    0.12500000          1/144
   7:    -0.41666667   -0.25000000    0.37500000          1/144
   8:    -0.41666667   -0.08333333   -0.37500000          1/144
   9:    -0.41666667   -0.08333333   -0.12500000          1/144
          ...
 143:     0.41666667    0.41666667    0.37500000          1/144

Wave functions: Plane wave expansion
  Cutoff energy: 600.000 eV
  Number of coefficients (min, max): 9132, 9161
  Pulay-stress correction: 0.000000 eV/Ang^3 (de/decut=0.000000)
  Using FFTW library
  ScaLapack parameters: grid=1x1, blocksize=None
  Wavefunction extrapolation:
    Improved wavefunction reuse through dual PAW basis 

  Fermi-Dirac: width=0.0010 eV

Eigensolver
   Davidson(niter=2, smin=None, normalize=True) 

Densities:
  Coarse grid: 60*35*27 grid
  Fine grid: 120*70*54 grid
  Total Charge: 0.000000 

Density mixing:
  Method: difference
  Backend: pulay
  Linear mixing parameter: 0.05
  Mixing with 5 old densities
  Damping of long wave oscillations: 50 

Hamiltonian:
  XC and Coulomb potentials evaluated on a 120*70*54 grid
  Using the LDA Exchange-Correlation functional
 

Memory estimate:
  Process memory now: 11955.64 MiB
  Calculator: 322.47 MiB
    Density: 9.62 MiB
      Arrays: 3.79 MiB
      Localized functions: 4.27 MiB
      Mixer: 1.56 MiB
    Hamiltonian: 2.94 MiB
      Arrays: 2.82 MiB
      XC: 0.00 MiB
      Poisson: 0.00 MiB
      vbar: 0.12 MiB
    Wavefunctions: 309.91 MiB
      Arrays psit_nG: 281.81 MiB
      Eigensolver: 18.27 MiB
      Projections: 2.71 MiB
      Projectors: 4.40 MiB
      PW-descriptor: 2.71 MiB

Total number of cores used: 64
Parallelization over k-points: 16
Domain decomposition: 2 x 2 x 1

Number of atoms: 28
Number of atomic orbitals: 148
Number of bands in calculation: 112
Number of valence electrons: 180
Bands to converge: occupied

... initialized

Initializing position-dependent things.

Density initialized from atomic densities
Creating initial wave functions:
  112 bands from LCAO basis set

                                           
                                           
                                           
                                           
                                           
               O     O  P  O               
            PO           OMn     O         
                  O          MO            
            O        Li O                  
             Mn  Mn          OP            
         O       O Li O                    
         Li     O P         O              
       Li                                  
                                           
                                           
                                           
                                           

Positions:
   0 O     -1.280122   -2.495595   -1.112331    ( 0.0000,  0.0000,  0.0000)
   1 O     -3.023238    2.918858    1.191723    ( 0.0000,  0.0000,  0.0000)
   2 O      1.997451    0.467212    1.441442    ( 0.0000,  0.0000,  0.0000)
   3 O      3.740343   -0.043905   -0.862614    ( 0.0000,  0.0000,  0.0000)
   4 O      1.997419    2.918835    1.441465    ( 0.0000,  0.0000,  0.0000)
   5 O      3.740372   -2.495531   -0.862587    ( 0.0000,  0.0000,  0.0000)
   6 O     -1.280154   -0.043891   -1.112309    ( 0.0000,  0.0000,  0.0000)
   7 O     -3.023210    0.467136    1.191750    ( 0.0000,  0.0000,  0.0000)
   8 O     -4.147405   -1.269737   -0.856207    ( 0.0000,  0.0000,  0.0000)
   9 O     -0.155894    1.692986    1.457725    ( 0.0000,  0.0000,  0.0000)
  10 O      4.864578    1.693016    1.185324    ( 0.0000,  0.0000,  0.0000)
  11 O      0.873163   -1.269706   -1.118625    ( 0.0000,  0.0000,  0.0000)
  12 Mn    -2.437108   -1.269902    0.302197    ( 0.0000,  0.0000,  1.0000)
  13 Mn    -1.866187    1.693156   -2.001927    ( 0.0000,  0.0000, -1.0000)
  14 Mn     3.154299    1.693181    0.026917    ( 0.0000,  0.0000, -1.0000)
  15 Mn     2.583444   -1.269877    2.331074    ( 0.0000,  0.0000,  1.0000)
  16 P     -0.543052   -1.269720   -1.734187    ( 0.0000,  0.0000,  0.0000)
  17 P     -3.760282    1.692974    0.569859    ( 0.0000,  0.0000,  0.0000)
  18 P      1.260300    1.693000    2.063344    ( 0.0000,  0.0000,  0.0000)
  19 P      4.477470   -1.269695   -0.240696    ( 0.0000,  0.0000,  0.0000)
  20 O     -0.544413   -1.269738    1.348523    ( 0.0000,  0.0000,  0.0000)
  21 O     -3.758895    1.692992   -0.955558    ( 0.0000,  0.0000,  0.0000)
  22 O      1.261690    1.693018   -1.019367    ( 0.0000,  0.0000,  0.0000)
  23 O      4.476045   -1.269713    1.284716    ( 0.0000,  0.0000,  0.0000)
  24 Li    -4.662027   -2.751322   -2.139440    ( 0.0000,  0.0000,  0.0000)
  25 Li     0.358703   -2.751277    0.164614    ( 0.0000,  0.0000,  0.0000)
  26 Li    -4.662011    0.211617   -2.139439    ( 0.0000,  0.0000,  0.0000)
  27 Li     0.358720    0.211628    0.164615    ( 0.0000,  0.0000,  0.0000)

Unit cell:
           periodic     x           y           z      points  spacing
  1. axis:    yes   10.041096    0.000054   -0.000022    60     0.1674
  2. axis:    yes    0.000032    5.925857    0.000001    35     0.1693
  3. axis:    yes   -0.000010    0.000001    4.608134    27     0.1707

  Lengths:  10.041096   5.925857   4.608134
  Angles:   89.999974  90.000250  89.999381

Effective grid spacing dv^(1/3) = 0.1691

                     log10-error:           total        iterations:
           time      wfs    density  force  energy       poisson  magmom
iter:   1  07:10:16                       -233.728491             +0.0000
iter:   2  07:10:36  -0.47  -0.95         -231.549847             +0.0031
iter:   3  07:10:56  -0.61  -1.00         -220.822925             +0.0032
iter:   4  07:11:15  -1.21  -1.31         -221.230254             +0.4307
iter:   5  07:11:35  -2.15  -1.38         -222.603587             +0.2418
iter:   6  07:11:55  -2.46  -1.38         -223.410265             +0.1346
iter:   7  07:12:15  -1.86  -1.55         -223.128455             +0.1406
iter:   8  07:12:34  -2.16  -1.95         -225.976704             +0.0389
iter:   9  07:12:54  -2.22  -2.08         -226.328406             -0.0083
iter:  10  07:13:14  -2.25  -2.15         -226.377485             -0.0006
iter:  11  07:13:33  -3.10  -2.30         -226.367990             -0.0005
iter:  12  07:13:53  -2.86  -2.36         -226.216495             -0.0001
iter:  13  07:14:13  -2.91  -2.48         -226.232907             -0.0001
iter:  14  07:14:33  -2.67  -2.68         -226.195274             -0.0000
iter:  15  07:14:52  -3.87  -2.88         -226.178771             -0.0000
iter:  16  07:15:12  -3.66  -3.10         -226.177298             -0.0000
iter:  17  07:15:32  -3.93  -3.12         -226.176142             +0.0000
iter:  18  07:15:51  -5.21  -3.59         -226.176178             +0.0000
iter:  19  07:16:11  -4.76  -3.65         -226.175137             +0.0000
iter:  20  07:16:31  -5.41  -3.68         -226.174872             +0.0000
iter:  21  07:16:50  -5.24  -3.81         -226.174910             +0.0000
iter:  22  07:17:10  -5.43  -3.74         -226.174743             -0.0000
iter:  23  07:17:30  -5.95  -4.16         -226.174770             +0.0000
iter:  24  07:17:50  -5.69  -4.34         -226.174786             +0.0000
iter:  25  07:18:09  -6.18  -4.26         -226.174751             +0.0000
iter:  26  07:18:29  -6.57  -4.62         -226.174758             +0.0000
iter:  27  07:18:49  -6.45  -4.65         -226.174755             +0.0000
iter:  28  07:19:08  -7.31  -4.87         -226.174751             +0.0000
iter:  29  07:19:33  -8.17  -5.12         -226.174750             +0.0000
iter:  30  07:19:57  -8.50  -5.18    -3.19-226.174750             +0.0000
iter:  31  07:20:21  -8.26  -5.25    -3.33-226.174750             +0.0000
iter:  32  07:20:46  -8.55  -5.29    -3.46-226.174750             +0.0000
iter:  33  07:21:10  -8.69  -5.46    -3.06-226.174750             +0.0000
iter:  34  07:21:35  -9.01  -5.49    -3.96-226.174750             -0.0000
iter:  35  07:21:59  -8.86  -5.63    -3.30-226.174750             +0.0000
iter:  36  07:22:23 -10.08  -5.84    -3.70-226.174750             +0.0000
iter:  37  07:22:48  -9.35  -5.92    -3.64-226.174750             -0.0000
iter:  38  07:23:12 -10.52  -6.05    -4.14-226.174750             +0.0000
iter:  39  07:23:36 -10.67  -6.10    -4.06-226.174750             +0.0000
iter:  40  07:24:01 -11.00  -6.18    -4.40-226.174750             +0.0000
iter:  41  07:24:25 -10.15  -6.23    -4.06-226.174750             +0.0000
iter:  42  07:24:49 -11.26  -6.68    -4.24-226.174750             +0.0000
iter:  43  07:25:14 -11.55  -6.79    -4.57-226.174750             +0.0000
iter:  44  07:25:38 -12.56  -7.02    -5.25-226.174750             +0.0000
iter:  45  07:26:03 -12.20  -7.05    -4.87-226.174750             +0.0000
iter:  46  07:26:27 -12.91  -7.11    -5.88-226.174750             +0.0000
iter:  47  07:26:51 -11.79  -7.14    -4.81-226.174750             +0.0000
iter:  48  07:27:16 -12.94  -7.46    -5.60-226.174750             +0.0000
iter:  49  07:27:40 -12.13  -7.49    -5.13-226.174750             +0.0000
iter:  50  07:28:04 -13.34  -7.67    -5.38-226.174750             +0.0000
iter:  51  07:28:29 -13.67  -7.93    -5.94-226.174750             +0.0000
iter:  52  07:28:53 -13.73  -8.00    -5.94-226.174750             +0.0000
iter:  53  07:29:17 -14.12  -8.13    -5.95-226.174750             +0.0000
iter:  54  07:29:42 -15.19  -8.44    -6.83-226.174750             +0.0000

Converged after 54 iterations.

Dipole moment: (18.332019, -2.308277, -4.529858) |e|*Ang

Total magnetic moment: (0.000000, 0.000000, 0.000000)
Local magnetic moments:
   0 O  ( 0.000000,  0.000000, -0.001836)
   1 O  ( 0.000000,  0.000000,  0.001788)
   2 O  ( 0.000000,  0.000000,  0.001750)
   3 O  ( 0.000000,  0.000000, -0.001806)
   4 O  ( 0.000000,  0.000000,  0.001745)
   5 O  ( 0.000000,  0.000000, -0.001801)
   6 O  ( 0.000000,  0.000000, -0.001841)
   7 O  ( 0.000000,  0.000000,  0.001793)
   8 O  ( 0.000000,  0.000000,  0.031105)
   9 O  ( 0.000000,  0.000000, -0.031104)
  10 O  ( 0.000000,  0.000000, -0.031061)
  11 O  ( 0.000000,  0.000000,  0.031074)
  12 Mn ( 0.000000,  0.000000,  4.395731)
  13 Mn ( 0.000000,  0.000000, -4.395116)
  14 Mn ( 0.000000,  0.000000, -4.395867)
  15 Mn ( 0.000000,  0.000000,  4.395686)
  16 P  ( 0.000000,  0.000000,  0.000854)
  17 P  ( 0.000000,  0.000000, -0.000874)
  18 P  ( 0.000000,  0.000000, -0.000948)
  19 P  ( 0.000000,  0.000000,  0.000862)
  20 O  ( 0.000000,  0.000000,  0.028401)
  21 O  ( 0.000000,  0.000000, -0.028353)
  22 O  ( 0.000000,  0.000000, -0.028545)
  23 O  ( 0.000000,  0.000000,  0.028411)
  24 Li ( 0.000000,  0.000000, -0.000001)
  25 Li ( 0.000000,  0.000000,  0.000007)
  26 Li ( 0.000000,  0.000000, -0.000001)
  27 Li ( 0.000000,  0.000000,  0.000007)

Energy contributions relative to reference atoms: (reference = -196157.275402)

Kinetic:       +277.985220
Potential:     -241.250993
External:        +0.000000
XC:            -264.796123
Entropy (-ST):   -0.000000
Local:           +1.887147
--------------------------
Free energy:   -226.174750
Extrapolated:  -226.174750

Spin contamination: 9.455064 electrons
Showing only first 2 kpts
                      Up                     Down
 Kpt  Band  Eigenvalues  Occupancy  Eigenvalues  Occupancy
  0    88      6.53131    0.00694      6.53676    0.00694
  0    89      6.56490    0.00694      6.57078    0.00694
  0    90      8.42902    0.00000      8.42761    0.00000
  0    91      8.45067    0.00000      8.44927    0.00000

  1    88      6.56969    0.00694      6.57510    0.00694
  1    89      6.59677    0.00694      6.60279    0.00694
  1    90      8.38504    0.00000      8.38391    0.00000
  1    91      8.40715    0.00000      8.40616    0.00000


Fermi level: 7.64880

Gap: 1.693 eV
Transition (v -> c):
  (s=1, k=93, n=89, [0.08, 0.42, -0.12]) -> (s=1, k=82, n=90, [0.08, -0.08, 0.12])
Writing to born-0.01-9z+.gpw (mode='all')

Timing:                              incl.     excl.
-----------------------------------------------------------
Hamiltonian:                         0.248     0.002   0.0% |
 Atomic:                             0.086     0.086   0.0% |
  XC Correction:                     0.000     0.000   0.0% |
 Calculate atomic Hamiltonians:      0.072     0.072   0.0% |
 Communicate:                        0.002     0.002   0.0% |
 Initialize Hamiltonian:             0.000     0.000   0.0% |
 Poisson:                            0.001     0.001   0.0% |
 XC 3D grid:                         0.085     0.085   0.0% |
LCAO initialization:                67.852     0.653   0.0% |
 LCAO eigensolver:                  19.386     0.002   0.0% |
  Calculate projections:             0.029     0.029   0.0% |
  DenseAtomicCorrection:             0.045     0.045   0.0% |
  Distribute overlap matrix:         0.008     0.008   0.0% |
  Orbital Layouts:                   0.430     0.430   0.0% |
  Potential matrix:                 18.777    18.777   0.6% |
  Sum over cells:                    0.094     0.094   0.0% |
 LCAO to grid:                      46.500    46.500   1.5% ||
 Set positions (LCAO WFS):           1.312     0.192   0.0% |
  Basic WFS set positions:           0.001     0.001   0.0% |
  Basis functions set positions:     0.000     0.000   0.0% |
  P tci:                             0.524     0.524   0.0% |
  ST tci:                            0.381     0.381   0.0% |
  mktci:                             0.214     0.214   0.0% |
PWDescriptor:                        0.024     0.024   0.0% |
SCF-cycle:                        1189.615     3.890   0.1% |
 Davidson:                        1010.000   309.150   9.8% |---|
  Apply H:                          69.945    67.950   2.2% ||
   HMM T:                            1.994     1.994   0.1% |
  Subspace diag:                   146.870     0.149   0.0% |
   calc_h_matrix:                   94.344    24.404   0.8% |
    Apply H:                        69.940    67.909   2.2% ||
     HMM T:                          2.031     2.031   0.1% |
   diagonalize:                      7.409     7.409   0.2% |
   rotate_psi:                      44.969    44.969   1.4% ||
  calc. matrices:                  301.376   165.118   5.3% |-|
   Apply H:                        136.258   132.511   4.2% |-|
    HMM T:                           3.747     3.747   0.1% |
  diagonalize:                      85.426    85.426   2.7% ||
  rotate_psi:                       97.233    97.233   3.1% ||
 Density:                           40.918     0.001   0.0% |
  Atomic density matrices:           0.847     0.847   0.0% |
  Mix:                               5.672     5.672   0.2% |
  Multipole moments:                 0.019     0.019   0.0% |
  Pseudo density:                   34.378    34.377   1.1% |
   Symmetrize density:               0.001     0.001   0.0% |
 Forces:                           121.160   121.160   3.9% |-|
 Hamiltonian:                       11.573     0.110   0.0% |
  Atomic:                            2.778     2.778   0.1% |
   XC Correction:                    0.000     0.000   0.0% |
  Calculate atomic Hamiltonians:     3.946     3.946   0.1% |
  Communicate:                       0.070     0.070   0.0% |
  Poisson:                           0.032     0.032   0.0% |
  XC 3D grid:                        4.638     4.638   0.1% |
 Orthonormalize:                     2.073     0.003   0.0% |
  calc_s_matrix:                     0.241     0.241   0.0% |
  inverse-cholesky:                  0.072     0.072   0.0% |
  projections:                       1.328     1.328   0.0% |
  rotate_psi_s:                      0.429     0.429   0.0% |
Set symmetry:                        0.000     0.000   0.0% |
Other:                            1883.119  1883.119  60.0% |-----------------------|
-----------------------------------------------------------
Total:                                      3140.856 100.0%

Memory usage: 11.70 GiB
Date: Wed Mar 24 08:01:04 2021
