
  ___ ___ ___ _ _ _  
 |   |   |_  | | | | 
 | | | | | . | | | | 
 |__ |  _|___|_____|  20.10.1b1
 |___|_|             

User:   madkru@i008.nifl.fysik.dtu.dk
Date:   Thu Mar 25 21:12:16 2021
Arch:   x86_64
Pid:    26969
Python: 3.7.4
gpaw:   /home/niflheim/madkru/venv_folder/gpaw/gpaw (d224efde0f)
_gpaw:  /home/niflheim/madkru/venv_folder/gpaw/build/lib.linux-x86_64-ivybridge-3.7/
        _gpaw.cpython-37m-x86_64-linux-gnu.so (4fd39e8b1e)
ase:    /home/niflheim/madkru/venv_folder/ase/ase (version 3.21.0b1-4d5a73cb29)
numpy:  /home/niflheim/madkru/venv_folder/lib/python3.7/site-packages/numpy (version 1.19.4)
scipy:  /home/niflheim/madkru/venv_folder/lib/python3.7/site-packages/scipy (version 1.5.4)
libxc:  4.3.4
units:  Angstrom and eV
cores: 64
OMP_NUM_THREADS: 1

Input parameters:
  convergence: {bands: occupied,
                density: 0.0001,
                eigenstates: 4e-08,
                energy: 0.0005,
                forces: 1e-06}
  kpts: [6 6 4]
  mode: {ecut: 600.0,
         gammacentered: False,
         name: pw}
  occupations: {fixmagmom: False,
                name: fermi-dirac,
                width: 0.001}
  symmetry: {point_group: False,
             time_reversal: False}

System changes: positions, numbers, cell, pbc, initial_charges, initial_magmoms 

Initialize ...

O-setup:
  name: Oxygen
  id: 9b9d51c344dea68c822856295a461509
  Z: 8.0
  valence: 6
  core: 2
  charge: 0.0
  file: /home/modules/software/GPAW-setups/0.9.20000/O.LDA.gz
  compensation charges: gauss, rc=0.21, lmax=2
  cutoffs: 1.17(filt), 0.83(core),
  valence states:
                energy  radius
    2s(2.00)   -23.752   0.688
    2p(4.00)    -9.195   0.598
    *s           3.459   0.688
    *p          18.016   0.598
    *d           0.000   0.619

  Using partial waves for O as LCAO basis

Mn-setup:
  name: Manganese
  id: 0d715a8018be061a6e9ea6f2d364ac92
  Z: 25.0
  valence: 15
  core: 10
  charge: 0.0
  file: /home/modules/software/GPAW-setups/0.9.20000/Mn.LDA.gz
  compensation charges: gauss, rc=0.38, lmax=2
  cutoffs: 2.14(filt), 0.86(core),
  valence states:
                energy  radius
    3s(2.00)   -85.387   1.275
    4s(2.00)    -5.282   1.275
    3p(6.00)   -54.493   1.281
    4p(0.00)    -1.471   1.281
    3d(5.00)    -7.009   1.138
    *d          20.203   1.138

  Using partial waves for Mn as LCAO basis

P-setup:
  name: Phosphorus
  id: a5561c299094968922a179ab894d2e2d
  Z: 15.0
  valence: 5
  core: 10
  charge: 0.0
  file: /home/modules/software/GPAW-setups/0.9.20000/P.LDA.gz
  compensation charges: gauss, rc=0.30, lmax=2
  cutoffs: 1.69(filt), 1.81(core),
  valence states:
                energy  radius
    3s(2.00)   -14.015   0.953
    3p(3.00)    -5.596   0.953
    *s          13.197   0.953
    *p          21.615   0.953
    *d           0.000   0.953

  Using partial waves for P as LCAO basis

Li-setup:
  name: Lithium
  id: b73562207f97a71b6967473b66fe8b65
  Z: 3.0
  valence: 1
  core: 2
  charge: 0.0
  file: /home/modules/software/GPAW-setups/0.9.20000/Li.LDA.gz
  compensation charges: gauss, rc=0.33, lmax=2
  cutoffs: 1.91(filt), 2.55(core),
  valence states:
                energy  radius
    2s(1.00)    -2.874   1.058
    2p(0.00)    -1.126   1.058
    *s          24.338   1.058

  Using partial waves for Li as LCAO basis

Reference energy: -196157.275402

Spin-polarized calculation.
Magnetic moment: 0.000000

Convergence criteria:
  Maximum total energy change: 0.0005 eV / electron
  Maximum integral of absolute density change: 0.0001 electrons
  Maximum integral of absolute eigenstate change: 4e-08 eV^2
  Maximum change in atomic force: 1e-06 eV / Ang
  Maximum number of iterations: 333

Symmetries present (total): 1

  ( 1  0  0)
  ( 0  1  0)
  ( 0  0  1)

144 k-points: 6 x 6 x 4 Monkhorst-Pack grid
144 k-points in the irreducible part of the Brillouin zone
       k-points in crystal coordinates                weights
   0:    -0.41666667   -0.41666667   -0.37500000          1/144
   1:    -0.41666667   -0.41666667   -0.12500000          1/144
   2:    -0.41666667   -0.41666667    0.12500000          1/144
   3:    -0.41666667   -0.41666667    0.37500000          1/144
   4:    -0.41666667   -0.25000000   -0.37500000          1/144
   5:    -0.41666667   -0.25000000   -0.12500000          1/144
   6:    -0.41666667   -0.25000000    0.12500000          1/144
   7:    -0.41666667   -0.25000000    0.37500000          1/144
   8:    -0.41666667   -0.08333333   -0.37500000          1/144
   9:    -0.41666667   -0.08333333   -0.12500000          1/144
          ...
 143:     0.41666667    0.41666667    0.37500000          1/144

Wave functions: Plane wave expansion
  Cutoff energy: 600.000 eV
  Number of coefficients (min, max): 9132, 9161
  Pulay-stress correction: 0.000000 eV/Ang^3 (de/decut=0.000000)
  Using FFTW library
  ScaLapack parameters: grid=1x1, blocksize=None
  Wavefunction extrapolation:
    Improved wavefunction reuse through dual PAW basis 

  Fermi-Dirac: width=0.0010 eV

Eigensolver
   Davidson(niter=2, smin=None, normalize=True) 

Densities:
  Coarse grid: 60*35*27 grid
  Fine grid: 120*70*54 grid
  Total Charge: 0.000000 

Density mixing:
  Method: difference
  Backend: pulay
  Linear mixing parameter: 0.05
  Mixing with 5 old densities
  Damping of long wave oscillations: 50 

Hamiltonian:
  XC and Coulomb potentials evaluated on a 120*70*54 grid
  Using the LDA Exchange-Correlation functional
 

Memory estimate:
  Process memory now: 13822.25 MiB
  Calculator: 322.47 MiB
    Density: 9.62 MiB
      Arrays: 3.79 MiB
      Localized functions: 4.27 MiB
      Mixer: 1.56 MiB
    Hamiltonian: 2.94 MiB
      Arrays: 2.82 MiB
      XC: 0.00 MiB
      Poisson: 0.00 MiB
      vbar: 0.12 MiB
    Wavefunctions: 309.91 MiB
      Arrays psit_nG: 281.81 MiB
      Eigensolver: 18.27 MiB
      Projections: 2.71 MiB
      Projectors: 4.40 MiB
      PW-descriptor: 2.71 MiB

Total number of cores used: 64
Parallelization over k-points: 16
Domain decomposition: 2 x 2 x 1

Number of atoms: 28
Number of atomic orbitals: 148
Number of bands in calculation: 112
Number of valence electrons: 180
Bands to converge: occupied

... initialized

Initializing position-dependent things.

Density initialized from atomic densities
Creating initial wave functions:
  112 bands from LCAO basis set

                                           
                                           
                                           
                                           
                                           
               O     O  P  O               
            PO           OMn     O         
                  O          MO            
            O        Li O                  
             Mn  Mn          OP            
         O       O Li O                    
         Li     O P         O              
       Li                                  
                                           
                                           
                                           
                                           

Positions:
   0 O     -1.280122   -2.495595   -1.112331    ( 0.0000,  0.0000,  0.0000)
   1 O     -3.023238    2.918858    1.191723    ( 0.0000,  0.0000,  0.0000)
   2 O      1.997451    0.467212    1.441442    ( 0.0000,  0.0000,  0.0000)
   3 O      3.740343   -0.043905   -0.862614    ( 0.0000,  0.0000,  0.0000)
   4 O      1.997419    2.918835    1.441465    ( 0.0000,  0.0000,  0.0000)
   5 O      3.740372   -2.495531   -0.862587    ( 0.0000,  0.0000,  0.0000)
   6 O     -1.280154   -0.043891   -1.112309    ( 0.0000,  0.0000,  0.0000)
   7 O     -3.023210    0.467136    1.191750    ( 0.0000,  0.0000,  0.0000)
   8 O     -4.147405   -1.269737   -0.856207    ( 0.0000,  0.0000,  0.0000)
   9 O     -0.155894    1.692986    1.447725    ( 0.0000,  0.0000,  0.0000)
  10 O      4.864578    1.693016    1.185324    ( 0.0000,  0.0000,  0.0000)
  11 O      0.873163   -1.269706   -1.118625    ( 0.0000,  0.0000,  0.0000)
  12 Mn    -2.437108   -1.269902    0.302197    ( 0.0000,  0.0000,  1.0000)
  13 Mn    -1.866187    1.693156   -2.001927    ( 0.0000,  0.0000, -1.0000)
  14 Mn     3.154299    1.693181    0.026917    ( 0.0000,  0.0000, -1.0000)
  15 Mn     2.583444   -1.269877    2.331074    ( 0.0000,  0.0000,  1.0000)
  16 P     -0.543052   -1.269720   -1.734187    ( 0.0000,  0.0000,  0.0000)
  17 P     -3.760282    1.692974    0.569859    ( 0.0000,  0.0000,  0.0000)
  18 P      1.260300    1.693000    2.063344    ( 0.0000,  0.0000,  0.0000)
  19 P      4.477470   -1.269695   -0.240696    ( 0.0000,  0.0000,  0.0000)
  20 O     -0.544413   -1.269738    1.348523    ( 0.0000,  0.0000,  0.0000)
  21 O     -3.758895    1.692992   -0.955558    ( 0.0000,  0.0000,  0.0000)
  22 O      1.261690    1.683018   -1.019367    ( 0.0000,  0.0000,  0.0000)
  23 O      4.476045   -1.269713    1.284716    ( 0.0000,  0.0000,  0.0000)
  24 Li    -4.662027   -2.751322   -2.139440    ( 0.0000,  0.0000,  0.0000)
  25 Li     0.358703   -2.751277    0.164614    ( 0.0000,  0.0000,  0.0000)
  26 Li    -4.662011    0.211617   -2.139439    ( 0.0000,  0.0000,  0.0000)
  27 Li     0.358720    0.211628    0.164615    ( 0.0000,  0.0000,  0.0000)

Unit cell:
           periodic     x           y           z      points  spacing
  1. axis:    yes   10.041096    0.000054   -0.000022    60     0.1674
  2. axis:    yes    0.000032    5.925857    0.000001    35     0.1693
  3. axis:    yes   -0.000010    0.000001    4.608134    27     0.1707

  Lengths:  10.041096   5.925857   4.608134
  Angles:   89.999974  90.000250  89.999381

Effective grid spacing dv^(1/3) = 0.1691

                     log10-error:           total        iterations:
           time      wfs    density  force  energy       poisson  magmom
iter:   1  21:13:49                       -233.730156             +0.0000
iter:   2  21:14:09  -0.47  -0.95         -231.549859             +0.0020
iter:   3  21:14:29  -0.61  -1.00         -220.803020             +0.0021
iter:   4  21:14:48  -1.19  -1.31         -220.896396             +0.3150
iter:   5  21:15:08  -2.12  -1.40         -222.885968             +0.1697
iter:   6  21:15:28  -2.18  -1.38         -223.671598             +0.2253
iter:   7  21:15:48  -2.17  -1.53         -223.812912             -0.1864
iter:   8  21:16:07  -2.50  -1.68         -225.604297             -0.5445
iter:   9  21:16:27  -2.31  -1.90         -226.440550             -0.2322
iter:  10  21:16:47  -2.23  -2.00         -226.314422             -0.0723
iter:  11  21:17:06  -2.87  -2.12         -226.298430             -0.0261
iter:  12  21:17:26  -2.62  -2.17         -226.238985             +0.0013
iter:  13  21:17:46  -2.89  -2.47         -226.216524             -0.0045
iter:  14  21:18:06  -2.95  -2.78         -226.185842             +0.0009
iter:  15  21:18:25  -3.51  -2.90         -226.179690             -0.0005
iter:  16  21:18:45  -4.27  -3.19         -226.179426             -0.0001
iter:  17  21:19:05  -4.26  -3.26         -226.175309             -0.0000
iter:  18  21:19:24  -5.38  -3.36         -226.175233             -0.0000
iter:  19  21:19:44  -5.03  -3.40         -226.175793             -0.0000
iter:  20  21:20:04  -5.00  -3.75         -226.175136             -0.0000
iter:  21  21:20:23  -5.99  -4.12         -226.175099             -0.0000
iter:  22  21:20:43  -6.83  -4.22         -226.175098             -0.0000
iter:  23  21:21:03  -6.72  -4.26         -226.175089             +0.0000
iter:  24  21:21:22  -6.94  -4.46         -226.175084             +0.0000
iter:  25  21:21:42  -7.14  -4.47         -226.175086             +0.0000
iter:  26  21:22:06  -8.09  -4.60         -226.175084             +0.0000
iter:  27  21:22:26  -6.96  -4.65         -226.175084             +0.0000
iter:  28  21:22:50  -8.17  -4.92    -2.21-226.175084             +0.0000
iter:  29  21:23:15  -8.94  -4.98    -3.05-226.175084             +0.0000
iter:  30  21:23:39  -8.51  -5.05    -2.77-226.175083             +0.0000
iter:  31  21:24:03  -7.53  -5.15    -2.78-226.175083             +0.0000
iter:  32  21:24:28  -8.67  -5.23    -3.31-226.175083             +0.0000
iter:  33  21:24:52  -8.28  -5.30    -2.99-226.175083             +0.0000
iter:  34  21:25:16  -9.55  -5.44    -3.57-226.175083             +0.0000
iter:  35  21:25:40  -9.20  -5.52    -3.45-226.175083             +0.0000
iter:  36  21:26:05  -9.63  -5.59    -3.30-226.175083             +0.0000
iter:  37  21:26:29  -9.58  -5.67    -3.62-226.175083             +0.0000
iter:  38  21:26:54 -10.40  -5.73    -3.92-226.175083             +0.0000
iter:  39  21:27:18 -10.69  -5.77    -4.27-226.175083             -0.0000
iter:  40  21:27:42 -10.56  -5.81    -4.07-226.175083             -0.0000
iter:  41  21:28:06 -10.93  -5.87    -3.87-226.175083             -0.0000
iter:  42  21:28:31 -10.61  -5.93    -3.83-226.175083             -0.0000
iter:  43  21:28:55  -9.91  -5.99    -3.87-226.175083             -0.0000
iter:  44  21:29:19 -10.43  -6.09    -4.38-226.175083             +0.0000
iter:  45  21:29:44 -11.27  -6.16    -4.62-226.175083             -0.0000
iter:  46  21:30:08 -10.16  -6.23    -3.91-226.175083             +0.0000
iter:  47  21:30:32 -11.17  -6.50    -4.20-226.175083             +0.0000
iter:  48  21:30:57 -11.94  -6.60    -4.53-226.175083             +0.0000
iter:  49  21:31:21 -11.42  -6.66    -4.63-226.175083             +0.0000
iter:  50  21:31:45 -11.45  -6.78    -4.72-226.175083             +0.0000
iter:  51  21:32:10 -12.60  -6.88    -5.03-226.175083             +0.0000
iter:  52  21:32:34 -11.31  -6.94    -4.57-226.175083             +0.0000
iter:  53  21:32:58 -12.65  -7.34    -4.93-226.175083             +0.0000
iter:  54  21:33:23 -13.36  -7.41    -5.90-226.175083             +0.0000
iter:  55  21:33:47 -13.14  -7.46    -5.25-226.175083             +0.0000
iter:  56  21:34:11 -14.00  -7.60    -5.74-226.175083             +0.0000
iter:  57  21:34:36 -13.66  -7.66    -5.32-226.175083             +0.0000
iter:  58  21:35:00 -14.25  -7.86    -6.15-226.175083             +0.0000

Converged after 58 iterations.

Dipole moment: (18.327123, -2.302665, -4.524298) |e|*Ang

Total magnetic moment: (0.000000, 0.000000, 0.000000)
Local magnetic moments:
   0 O  ( 0.000000,  0.000000, -0.001817)
   1 O  ( 0.000000,  0.000000,  0.001808)
   2 O  ( 0.000000,  0.000000,  0.001777)
   3 O  ( 0.000000,  0.000000, -0.001828)
   4 O  ( 0.000000,  0.000000,  0.001838)
   5 O  ( 0.000000,  0.000000, -0.001785)
   6 O  ( 0.000000,  0.000000, -0.001805)
   7 O  ( 0.000000,  0.000000,  0.001814)
   8 O  ( 0.000000,  0.000000,  0.031098)
   9 O  ( 0.000000,  0.000000, -0.031097)
  10 O  ( 0.000000,  0.000000, -0.031096)
  11 O  ( 0.000000,  0.000000,  0.031095)
  12 Mn ( 0.000000,  0.000000,  4.395765)
  13 Mn ( 0.000000,  0.000000, -4.395783)
  14 Mn ( 0.000000,  0.000000, -4.395734)
  15 Mn ( 0.000000,  0.000000,  4.395753)
  16 P  ( 0.000000,  0.000000,  0.000866)
  17 P  ( 0.000000,  0.000000, -0.000864)
  18 P  ( 0.000000,  0.000000, -0.000870)
  19 P  ( 0.000000,  0.000000,  0.000870)
  20 O  ( 0.000000,  0.000000,  0.028417)
  21 O  ( 0.000000,  0.000000, -0.028416)
  22 O  ( 0.000000,  0.000000, -0.028422)
  23 O  ( 0.000000,  0.000000,  0.028419)
  24 Li ( 0.000000,  0.000000, -0.000000)
  25 Li ( 0.000000,  0.000000,  0.000006)
  26 Li ( 0.000000,  0.000000,  0.000000)
  27 Li ( 0.000000,  0.000000, -0.000006)

Energy contributions relative to reference atoms: (reference = -196157.275402)

Kinetic:       +277.621985
Potential:     -240.964870
External:        +0.000000
XC:            -264.720658
Entropy (-ST):   -0.000000
Local:           +1.888460
--------------------------
Free energy:   -226.175083
Extrapolated:  -226.175083

Spin contamination: 9.455315 electrons
Showing only first 2 kpts
                      Up                     Down
 Kpt  Band  Eigenvalues  Occupancy  Eigenvalues  Occupancy
  0    88      6.53049    0.00694      6.53042    0.00694
  0    89      6.56412    0.00694      6.56399    0.00694
  0    90      8.42675    0.00000      8.42677    0.00000
  0    91      8.44830    0.00000      8.44836    0.00000

  1    88      6.56896    0.00694      6.56886    0.00694
  1    89      6.59603    0.00694      6.59588    0.00694
  1    90      8.38310    0.00000      8.38310    0.00000
  1    91      8.40518    0.00000      8.40526    0.00000


Fermi level: 7.60775

Gap: 1.699 eV
Transition (v -> c):
  (s=1, k=69, n=89, [-0.08, 0.42, -0.12]) -> (s=0, k=62, n=90, [-0.08, 0.08, 0.12])
Writing to born-0.01-22y-.gpw (mode='all')

Timing:                              incl.     excl.
-----------------------------------------------------------
Hamiltonian:                         0.224     0.002   0.0% |
 Atomic:                             0.062     0.062   0.0% |
  XC Correction:                     0.000     0.000   0.0% |
 Calculate atomic Hamiltonians:      0.074     0.074   0.0% |
 Communicate:                        0.002     0.002   0.0% |
 Initialize Hamiltonian:             0.000     0.000   0.0% |
 Poisson:                            0.001     0.001   0.0% |
 XC 3D grid:                         0.083     0.083   0.0% |
LCAO initialization:                68.224     0.645   0.0% |
 LCAO eigensolver:                  19.684     0.002   0.0% |
  Calculate projections:             0.029     0.029   0.0% |
  DenseAtomicCorrection:             0.045     0.045   0.0% |
  Distribute overlap matrix:         0.009     0.009   0.0% |
  Orbital Layouts:                   0.430     0.430   0.0% |
  Potential matrix:                 19.082    19.082   0.6% |
  Sum over cells:                    0.088     0.088   0.0% |
 LCAO to grid:                      46.551    46.551   1.4% ||
 Set positions (LCAO WFS):           1.344     0.192   0.0% |
  Basic WFS set positions:           0.001     0.001   0.0% |
  Basis functions set positions:     0.000     0.000   0.0% |
  P tci:                             0.520     0.520   0.0% |
  ST tci:                            0.383     0.383   0.0% |
  mktci:                             0.248     0.248   0.0% |
PWDescriptor:                        0.023     0.023   0.0% |
SCF-cycle:                        1294.161     3.031   0.1% |
 Davidson:                        1083.560   331.618   9.8% |---|
  Apply H:                          75.335    73.171   2.2% ||
   HMM T:                            2.163     2.163   0.1% |
  Subspace diag:                   157.238     0.167   0.0% |
   calc_h_matrix:                  101.095    26.179   0.8% |
    Apply H:                        74.916    72.728   2.1% ||
     HMM T:                          2.188     2.188   0.1% |
   diagonalize:                      7.936     7.936   0.2% |
   rotate_psi:                      48.041    48.041   1.4% ||
  calc. matrices:                  324.145   177.210   5.2% |-|
   Apply H:                        146.935   142.885   4.2% |-|
    HMM T:                           4.050     4.050   0.1% |
  diagonalize:                      91.292    91.292   2.7% ||
  rotate_psi:                      103.932   103.932   3.1% ||
 Density:                           43.879     0.001   0.0% |
  Atomic density matrices:           0.878     0.878   0.0% |
  Mix:                               5.984     5.984   0.2% |
  Multipole moments:                 0.022     0.022   0.0% |
  Pseudo density:                   36.994    36.993   1.1% |
   Symmetrize density:               0.002     0.002   0.0% |
 Forces:                           149.132   149.132   4.4% |-|
 Hamiltonian:                       12.496     0.122   0.0% |
  Atomic:                            3.044     3.044   0.1% |
   XC Correction:                    0.000     0.000   0.0% |
  Calculate atomic Hamiltonians:     4.270     4.270   0.1% |
  Communicate:                       0.131     0.131   0.0% |
  Poisson:                           0.033     0.033   0.0% |
  XC 3D grid:                        4.894     4.894   0.1% |
 Orthonormalize:                     2.063     0.003   0.0% |
  calc_s_matrix:                     0.242     0.242   0.0% |
  inverse-cholesky:                  0.073     0.073   0.0% |
  projections:                       1.315     1.315   0.0% |
  rotate_psi_s:                      0.430     0.430   0.0% |
Set symmetry:                        0.000     0.000   0.0% |
Other:                            2022.339  2022.339  59.7% |-----------------------|
-----------------------------------------------------------
Total:                                      3384.971 100.0%

Memory usage: 13.50 GiB
Date: Thu Mar 25 22:08:41 2021
