
  ___ ___ ___ _ _ _  
 |   |   |_  | | | | 
 | | | | | . | | | | 
 |__ |  _|___|_____|  20.10.1b1
 |___|_|             

User:   madkru@i008.nifl.fysik.dtu.dk
Date:   Wed Mar 24 12:12:31 2021
Arch:   x86_64
Pid:    26969
Python: 3.7.4
gpaw:   /home/niflheim/madkru/venv_folder/gpaw/gpaw (d224efde0f)
_gpaw:  /home/niflheim/madkru/venv_folder/gpaw/build/lib.linux-x86_64-ivybridge-3.7/
        _gpaw.cpython-37m-x86_64-linux-gnu.so (4fd39e8b1e)
ase:    /home/niflheim/madkru/venv_folder/ase/ase (version 3.21.0b1-4d5a73cb29)
numpy:  /home/niflheim/madkru/venv_folder/lib/python3.7/site-packages/numpy (version 1.19.4)
scipy:  /home/niflheim/madkru/venv_folder/lib/python3.7/site-packages/scipy (version 1.5.4)
libxc:  4.3.4
units:  Angstrom and eV
cores: 64
OMP_NUM_THREADS: 1

Input parameters:
  convergence: {bands: occupied,
                density: 0.0001,
                eigenstates: 4e-08,
                energy: 0.0005,
                forces: 1e-06}
  kpts: [6 6 4]
  mode: {ecut: 600.0,
         gammacentered: False,
         name: pw}
  occupations: {fixmagmom: False,
                name: fermi-dirac,
                width: 0.001}
  symmetry: {point_group: False,
             time_reversal: False}

System changes: positions, numbers, cell, pbc, initial_charges, initial_magmoms 

Initialize ...

O-setup:
  name: Oxygen
  id: 9b9d51c344dea68c822856295a461509
  Z: 8.0
  valence: 6
  core: 2
  charge: 0.0
  file: /home/modules/software/GPAW-setups/0.9.20000/O.LDA.gz
  compensation charges: gauss, rc=0.21, lmax=2
  cutoffs: 1.17(filt), 0.83(core),
  valence states:
                energy  radius
    2s(2.00)   -23.752   0.688
    2p(4.00)    -9.195   0.598
    *s           3.459   0.688
    *p          18.016   0.598
    *d           0.000   0.619

  Using partial waves for O as LCAO basis

Mn-setup:
  name: Manganese
  id: 0d715a8018be061a6e9ea6f2d364ac92
  Z: 25.0
  valence: 15
  core: 10
  charge: 0.0
  file: /home/modules/software/GPAW-setups/0.9.20000/Mn.LDA.gz
  compensation charges: gauss, rc=0.38, lmax=2
  cutoffs: 2.14(filt), 0.86(core),
  valence states:
                energy  radius
    3s(2.00)   -85.387   1.275
    4s(2.00)    -5.282   1.275
    3p(6.00)   -54.493   1.281
    4p(0.00)    -1.471   1.281
    3d(5.00)    -7.009   1.138
    *d          20.203   1.138

  Using partial waves for Mn as LCAO basis

P-setup:
  name: Phosphorus
  id: a5561c299094968922a179ab894d2e2d
  Z: 15.0
  valence: 5
  core: 10
  charge: 0.0
  file: /home/modules/software/GPAW-setups/0.9.20000/P.LDA.gz
  compensation charges: gauss, rc=0.30, lmax=2
  cutoffs: 1.69(filt), 1.81(core),
  valence states:
                energy  radius
    3s(2.00)   -14.015   0.953
    3p(3.00)    -5.596   0.953
    *s          13.197   0.953
    *p          21.615   0.953
    *d           0.000   0.953

  Using partial waves for P as LCAO basis

Li-setup:
  name: Lithium
  id: b73562207f97a71b6967473b66fe8b65
  Z: 3.0
  valence: 1
  core: 2
  charge: 0.0
  file: /home/modules/software/GPAW-setups/0.9.20000/Li.LDA.gz
  compensation charges: gauss, rc=0.33, lmax=2
  cutoffs: 1.91(filt), 2.55(core),
  valence states:
                energy  radius
    2s(1.00)    -2.874   1.058
    2p(0.00)    -1.126   1.058
    *s          24.338   1.058

  Using partial waves for Li as LCAO basis

Reference energy: -196157.275402

Spin-polarized calculation.
Magnetic moment: 0.000000

Convergence criteria:
  Maximum total energy change: 0.0005 eV / electron
  Maximum integral of absolute density change: 0.0001 electrons
  Maximum integral of absolute eigenstate change: 4e-08 eV^2
  Maximum change in atomic force: 1e-06 eV / Ang
  Maximum number of iterations: 333

Symmetries present (total): 1

  ( 1  0  0)
  ( 0  1  0)
  ( 0  0  1)

144 k-points: 6 x 6 x 4 Monkhorst-Pack grid
144 k-points in the irreducible part of the Brillouin zone
       k-points in crystal coordinates                weights
   0:    -0.41666667   -0.41666667   -0.37500000          1/144
   1:    -0.41666667   -0.41666667   -0.12500000          1/144
   2:    -0.41666667   -0.41666667    0.12500000          1/144
   3:    -0.41666667   -0.41666667    0.37500000          1/144
   4:    -0.41666667   -0.25000000   -0.37500000          1/144
   5:    -0.41666667   -0.25000000   -0.12500000          1/144
   6:    -0.41666667   -0.25000000    0.12500000          1/144
   7:    -0.41666667   -0.25000000    0.37500000          1/144
   8:    -0.41666667   -0.08333333   -0.37500000          1/144
   9:    -0.41666667   -0.08333333   -0.12500000          1/144
          ...
 143:     0.41666667    0.41666667    0.37500000          1/144

Wave functions: Plane wave expansion
  Cutoff energy: 600.000 eV
  Number of coefficients (min, max): 9132, 9161
  Pulay-stress correction: 0.000000 eV/Ang^3 (de/decut=0.000000)
  Using FFTW library
  ScaLapack parameters: grid=1x1, blocksize=None
  Wavefunction extrapolation:
    Improved wavefunction reuse through dual PAW basis 

  Fermi-Dirac: width=0.0010 eV

Eigensolver
   Davidson(niter=2, smin=None, normalize=True) 

Densities:
  Coarse grid: 60*35*27 grid
  Fine grid: 120*70*54 grid
  Total Charge: 0.000000 

Density mixing:
  Method: difference
  Backend: pulay
  Linear mixing parameter: 0.05
  Mixing with 5 old densities
  Damping of long wave oscillations: 50 

Hamiltonian:
  XC and Coulomb potentials evaluated on a 120*70*54 grid
  Using the LDA Exchange-Correlation functional
 

Memory estimate:
  Process memory now: 12227.95 MiB
  Calculator: 322.47 MiB
    Density: 9.62 MiB
      Arrays: 3.79 MiB
      Localized functions: 4.27 MiB
      Mixer: 1.56 MiB
    Hamiltonian: 2.94 MiB
      Arrays: 2.82 MiB
      XC: 0.00 MiB
      Poisson: 0.00 MiB
      vbar: 0.12 MiB
    Wavefunctions: 309.91 MiB
      Arrays psit_nG: 281.81 MiB
      Eigensolver: 18.27 MiB
      Projections: 2.71 MiB
      Projectors: 4.40 MiB
      PW-descriptor: 2.71 MiB

Total number of cores used: 64
Parallelization over k-points: 16
Domain decomposition: 2 x 2 x 1

Number of atoms: 28
Number of atomic orbitals: 148
Number of bands in calculation: 112
Number of valence electrons: 180
Bands to converge: occupied

... initialized

Initializing position-dependent things.

Density initialized from atomic densities
Creating initial wave functions:
  112 bands from LCAO basis set

                                           
                                           
                                           
                                           
                                           
               O     O  P  O               
            PO           OMn     O         
                  O          MO            
            O        Li O                  
             Mn  Mn          OP            
         O       O Li O                    
         Li     O P         O              
       Li                                  
                                           
                                           
                                           
                                           

Positions:
   0 O     -1.280122   -2.495595   -1.112331    ( 0.0000,  0.0000,  0.0000)
   1 O     -3.023238    2.918858    1.191723    ( 0.0000,  0.0000,  0.0000)
   2 O      1.997451    0.467212    1.441442    ( 0.0000,  0.0000,  0.0000)
   3 O      3.740343   -0.043905   -0.862614    ( 0.0000,  0.0000,  0.0000)
   4 O      1.997419    2.918835    1.441465    ( 0.0000,  0.0000,  0.0000)
   5 O      3.740372   -2.495531   -0.862587    ( 0.0000,  0.0000,  0.0000)
   6 O     -1.280154   -0.043891   -1.112309    ( 0.0000,  0.0000,  0.0000)
   7 O     -3.023210    0.467136    1.191750    ( 0.0000,  0.0000,  0.0000)
   8 O     -4.147405   -1.269737   -0.856207    ( 0.0000,  0.0000,  0.0000)
   9 O     -0.155894    1.692986    1.447725    ( 0.0000,  0.0000,  0.0000)
  10 O      4.864578    1.693016    1.185324    ( 0.0000,  0.0000,  0.0000)
  11 O      0.873163   -1.259706   -1.118625    ( 0.0000,  0.0000,  0.0000)
  12 Mn    -2.437108   -1.269902    0.302197    ( 0.0000,  0.0000,  1.0000)
  13 Mn    -1.866187    1.693156   -2.001927    ( 0.0000,  0.0000, -1.0000)
  14 Mn     3.154299    1.693181    0.026917    ( 0.0000,  0.0000, -1.0000)
  15 Mn     2.583444   -1.269877    2.331074    ( 0.0000,  0.0000,  1.0000)
  16 P     -0.543052   -1.269720   -1.734187    ( 0.0000,  0.0000,  0.0000)
  17 P     -3.760282    1.692974    0.569859    ( 0.0000,  0.0000,  0.0000)
  18 P      1.260300    1.693000    2.063344    ( 0.0000,  0.0000,  0.0000)
  19 P      4.477470   -1.269695   -0.240696    ( 0.0000,  0.0000,  0.0000)
  20 O     -0.544413   -1.269738    1.348523    ( 0.0000,  0.0000,  0.0000)
  21 O     -3.758895    1.692992   -0.955558    ( 0.0000,  0.0000,  0.0000)
  22 O      1.261690    1.693018   -1.019367    ( 0.0000,  0.0000,  0.0000)
  23 O      4.476045   -1.269713    1.284716    ( 0.0000,  0.0000,  0.0000)
  24 Li    -4.662027   -2.751322   -2.139440    ( 0.0000,  0.0000,  0.0000)
  25 Li     0.358703   -2.751277    0.164614    ( 0.0000,  0.0000,  0.0000)
  26 Li    -4.662011    0.211617   -2.139439    ( 0.0000,  0.0000,  0.0000)
  27 Li     0.358720    0.211628    0.164615    ( 0.0000,  0.0000,  0.0000)

Unit cell:
           periodic     x           y           z      points  spacing
  1. axis:    yes   10.041096    0.000054   -0.000022    60     0.1674
  2. axis:    yes    0.000032    5.925857    0.000001    35     0.1693
  3. axis:    yes   -0.000010    0.000001    4.608134    27     0.1707

  Lengths:  10.041096   5.925857   4.608134
  Angles:   89.999974  90.000250  89.999381

Effective grid spacing dv^(1/3) = 0.1691

                     log10-error:           total        iterations:
           time      wfs    density  force  energy       poisson  magmom
iter:   1  12:14:04                       -233.730130             +0.0000
iter:   2  12:14:24  -0.47  -0.95         -231.549826             +0.0019
iter:   3  12:14:43  -0.61  -1.00         -220.802800             +0.0020
iter:   4  12:15:03  -1.19  -1.31         -220.892017             +0.3153
iter:   5  12:15:23  -2.12  -1.40         -222.893361             +0.1698
iter:   6  12:15:43  -2.18  -1.38         -223.664493             +0.2356
iter:   7  12:16:02  -2.17  -1.53         -223.784634             -0.1626
iter:   8  12:16:22  -2.52  -1.68         -225.615248             -0.5500
iter:   9  12:16:42  -2.26  -1.90         -226.424640             -0.2578
iter:  10  12:17:01  -2.23  -2.01         -226.312068             -0.0864
iter:  11  12:17:21  -2.91  -2.12         -226.298758             -0.0210
iter:  12  12:17:41  -2.60  -2.16         -226.231844             +0.0075
iter:  13  12:18:00  -2.97  -2.50         -226.219163             -0.0040
iter:  14  12:18:20  -2.97  -2.77         -226.181896             +0.0067
iter:  15  12:18:40  -3.58  -2.91         -226.179447             +0.0001
iter:  16  12:18:59  -4.33  -3.18         -226.179028             +0.0000
iter:  17  12:19:19  -4.64  -3.25         -226.175705             +0.0000
iter:  18  12:19:39  -5.28  -3.31         -226.175366             +0.0000
iter:  19  12:19:59  -4.81  -3.34         -226.175232             +0.0000
iter:  20  12:20:18  -4.81  -3.54         -226.176091             +0.0000
iter:  21  12:20:38  -5.87  -3.62         -226.175597             +0.0000
iter:  22  12:20:58  -5.57  -3.69         -226.175222             +0.0000
iter:  23  12:21:17  -5.76  -3.82         -226.175110             -0.0000
iter:  24  12:21:37  -5.86  -3.98         -226.175057             +0.0000
iter:  25  12:21:57  -6.50  -4.04         -226.175063             +0.0000
iter:  26  12:22:16  -6.11  -4.09         -226.175072             -0.0000
iter:  27  12:22:36  -6.78  -4.41         -226.175054             +0.0000
iter:  28  12:23:00  -7.85  -4.48         -226.175053             +0.0000
iter:  29  12:23:20  -7.04  -4.50         -226.175052             +0.0000
iter:  30  12:23:40  -7.05  -4.83         -226.175053             +0.0000
iter:  31  12:24:04  -8.43  -4.94    -2.32-226.175052             +0.0000
iter:  32  12:24:29  -7.48  -5.00    -2.80-226.175051             -0.0000
iter:  33  12:24:53  -8.06  -5.30    -3.03-226.175051             -0.0000
iter:  34  12:25:17  -9.14  -5.40    -3.21-226.175051             -0.0000
iter:  35  12:25:42  -8.69  -5.46    -3.36-226.175051             -0.0000
iter:  36  12:26:06  -9.40  -5.53    -3.29-226.175051             -0.0000
iter:  37  12:26:30  -9.58  -5.60    -3.71-226.175051             -0.0000
iter:  38  12:26:55  -9.68  -5.66    -3.71-226.175051             -0.0000
iter:  39  12:27:19  -9.89  -5.75    -3.83-226.175051             -0.0000
iter:  40  12:27:43 -10.45  -5.81    -3.88-226.175051             -0.0000
iter:  41  12:28:08 -10.19  -5.86    -3.96-226.175051             -0.0000
iter:  42  12:28:32 -10.54  -5.95    -4.14-226.175051             -0.0000
iter:  43  12:28:56  -9.53  -6.04    -3.60-226.175051             -0.0000
iter:  44  12:29:21 -10.66  -6.40    -4.23-226.175051             -0.0000
iter:  45  12:29:45 -10.93  -6.56    -4.60-226.175051             -0.0000
iter:  46  12:30:09 -10.64  -6.61    -4.38-226.175051             -0.0000
iter:  47  12:30:34 -11.20  -6.75    -4.62-226.175051             -0.0000
iter:  48  12:30:58 -11.30  -6.86    -4.67-226.175051             -0.0000
iter:  49  12:31:22 -11.80  -6.92    -4.91-226.175051             -0.0000
iter:  50  12:31:47 -12.19  -7.07    -4.91-226.175051             -0.0000
iter:  51  12:32:11 -12.65  -7.46    -5.36-226.175051             -0.0000
iter:  52  12:32:35 -13.80  -7.60    -5.70-226.175051             -0.0000
iter:  53  12:33:00 -13.71  -7.65    -5.42-226.175051             -0.0000
iter:  54  12:33:24 -14.16  -7.91    -5.91-226.175051             -0.0000
iter:  55  12:33:49 -14.62  -8.09    -5.93-226.175051             -0.0000
iter:  56  12:34:13 -14.79  -8.24    -6.17-226.175051             -0.0000

Converged after 56 iterations.

Dipole moment: (18.327120, -2.306005, -4.524288) |e|*Ang

Total magnetic moment: (0.000000, 0.000000, -0.000000)
Local magnetic moments:
   0 O  ( 0.000000,  0.000000, -0.001824)
   1 O  ( 0.000000,  0.000000,  0.001810)
   2 O  ( 0.000000,  0.000000,  0.001772)
   3 O  ( 0.000000,  0.000000, -0.001811)
   4 O  ( 0.000000,  0.000000,  0.001842)
   5 O  ( 0.000000,  0.000000, -0.001802)
   6 O  ( 0.000000,  0.000000, -0.001798)
   7 O  ( 0.000000,  0.000000,  0.001813)
   8 O  ( 0.000000,  0.000000,  0.031098)
   9 O  ( 0.000000,  0.000000, -0.031097)
  10 O  ( 0.000000,  0.000000, -0.031095)
  11 O  ( 0.000000,  0.000000,  0.031097)
  12 Mn ( 0.000000,  0.000000,  4.395763)
  13 Mn ( 0.000000,  0.000000, -4.395782)
  14 Mn ( 0.000000,  0.000000, -4.395736)
  15 Mn ( 0.000000,  0.000000,  4.395752)
  16 P  ( 0.000000,  0.000000,  0.000865)
  17 P  ( 0.000000,  0.000000, -0.000864)
  18 P  ( 0.000000,  0.000000, -0.000871)
  19 P  ( 0.000000,  0.000000,  0.000870)
  20 O  ( 0.000000,  0.000000,  0.028416)
  21 O  ( 0.000000,  0.000000, -0.028416)
  22 O  ( 0.000000,  0.000000, -0.028420)
  23 O  ( 0.000000,  0.000000,  0.028419)
  24 Li ( 0.000000,  0.000000,  0.000000)
  25 Li ( 0.000000,  0.000000, -0.000022)
  26 Li ( 0.000000,  0.000000, -0.000000)
  27 Li ( 0.000000,  0.000000,  0.000023)

Energy contributions relative to reference atoms: (reference = -196157.275402)

Kinetic:       +277.622505
Potential:     -240.965253
External:        +0.000000
XC:            -264.720750
Entropy (-ST):   -0.000000
Local:           +1.888448
--------------------------
Free energy:   -226.175051
Extrapolated:  -226.175051

Spin contamination: 9.455314 electrons
Showing only first 2 kpts
                      Up                     Down
 Kpt  Band  Eigenvalues  Occupancy  Eigenvalues  Occupancy
  0    88      6.53068    0.00694      6.53052    0.00694
  0    89      6.56394    0.00694      6.56405    0.00694
  0    90      8.42677    0.00000      8.42673    0.00000
  0    91      8.44836    0.00000      8.44835    0.00000

  1    88      6.56895    0.00694      6.56891    0.00694
  1    89      6.59607    0.00694      6.59606    0.00694
  1    90      8.38311    0.00000      8.38303    0.00000
  1    91      8.40523    0.00000      8.40526    0.00000


Fermi level: 7.61065

Gap: 1.699 eV
Transition (v -> c):
  (s=0, k=50, n=89, [-0.08, -0.42, 0.12]) -> (s=1, k=57, n=90, [-0.08, -0.08, -0.12])
Writing to born-0.01-11y+.gpw (mode='all')

Timing:                              incl.     excl.
-----------------------------------------------------------
Hamiltonian:                         0.212     0.002   0.0% |
 Atomic:                             0.050     0.050   0.0% |
  XC Correction:                     0.000     0.000   0.0% |
 Calculate atomic Hamiltonians:      0.075     0.075   0.0% |
 Communicate:                        0.002     0.002   0.0% |
 Initialize Hamiltonian:             0.000     0.000   0.0% |
 Poisson:                            0.001     0.001   0.0% |
 XC 3D grid:                         0.083     0.083   0.0% |
LCAO initialization:                70.814     0.651   0.0% |
 LCAO eigensolver:                  19.528     0.002   0.0% |
  Calculate projections:             0.029     0.029   0.0% |
  DenseAtomicCorrection:             0.045     0.045   0.0% |
  Distribute overlap matrix:         0.195     0.195   0.0% |
  Orbital Layouts:                   0.430     0.430   0.0% |
  Potential matrix:                 18.728    18.728   0.6% |
  Sum over cells:                    0.099     0.099   0.0% |
 LCAO to grid:                      49.312    49.312   1.6% ||
 Set positions (LCAO WFS):           1.324     0.189   0.0% |
  Basic WFS set positions:           0.001     0.001   0.0% |
  Basis functions set positions:     0.000     0.000   0.0% |
  P tci:                             0.514     0.514   0.0% |
  ST tci:                            0.378     0.378   0.0% |
  mktci:                             0.242     0.242   0.0% |
PWDescriptor:                        0.023     0.023   0.0% |
SCF-cycle:                        1229.735     0.733   0.0% |
 Davidson:                        1046.976   320.143  10.1% |---|
  Apply H:                          72.814    70.747   2.2% ||
   HMM T:                            2.067     2.067   0.1% |
  Subspace diag:                   152.112     0.160   0.0% |
   calc_h_matrix:                   97.925    25.243   0.8% |
    Apply H:                        72.683    70.583   2.2% ||
     HMM T:                          2.100     2.100   0.1% |
   diagonalize:                      7.648     7.648   0.2% |
   rotate_psi:                      46.379    46.379   1.5% ||
  calc. matrices:                  313.512   171.239   5.4% |-|
   Apply H:                        142.273   138.367   4.4% |-|
    HMM T:                           3.906     3.906   0.1% |
  diagonalize:                      87.900    87.900   2.8% ||
  rotate_psi:                      100.496   100.496   3.2% ||
 Density:                           42.182     0.001   0.0% |
  Atomic density matrices:           0.865     0.865   0.0% |
  Mix:                               5.835     5.835   0.2% |
  Multipole moments:                 0.020     0.020   0.0% |
  Pseudo density:                   35.461    35.459   1.1% |
   Symmetrize density:               0.001     0.001   0.0% |
 Forces:                           125.849   125.849   4.0% |-|
 Hamiltonian:                       11.935     0.119   0.0% |
  Atomic:                            2.783     2.783   0.1% |
   XC Correction:                    0.000     0.000   0.0% |
  Calculate atomic Hamiltonians:     4.175     4.175   0.1% |
  Communicate:                       0.094     0.094   0.0% |
  Poisson:                           0.034     0.034   0.0% |
  XC 3D grid:                        4.731     4.731   0.1% |
 Orthonormalize:                     2.060     0.003   0.0% |
  calc_s_matrix:                     0.241     0.241   0.0% |
  inverse-cholesky:                  0.073     0.073   0.0% |
  projections:                       1.314     1.314   0.0% |
  rotate_psi_s:                      0.428     0.428   0.0% |
Set symmetry:                        0.000     0.000   0.0% |
Other:                            1856.567  1856.567  58.8% |-----------------------|
-----------------------------------------------------------
Total:                                      3157.352 100.0%

Memory usage: 11.95 GiB
Date: Wed Mar 24 13:05:08 2021
