
  ___ ___ ___ _ _ _  
 |   |   |_  | | | | 
 | | | | | . | | | | 
 |__ |  _|___|_____|  20.10.1b1
 |___|_|             

User:   madkru@i013.nifl.fysik.dtu.dk
Date:   Mon Mar 22 10:27:04 2021
Arch:   x86_64
Pid:    27943
Python: 3.7.4
gpaw:   /home/niflheim/madkru/venv_folder/gpaw/gpaw (d0d1ca1c71)
_gpaw:  /home/niflheim/madkru/venv_folder/gpaw/build/lib.linux-x86_64-ivybridge-3.7/
        _gpaw.cpython-37m-x86_64-linux-gnu.so (4fd39e8b1e)
ase:    /home/niflheim/madkru/venv_folder/ase/ase (version 3.21.0b1-7e6c206a91)
numpy:  /home/niflheim/madkru/venv_folder/lib/python3.7/site-packages/numpy (version 1.19.4)
scipy:  /home/niflheim/madkru/venv_folder/lib/python3.7/site-packages/scipy (version 1.5.4)
libxc:  4.3.4
units:  Angstrom and eV
cores: 32
OMP_NUM_THREADS: 1

Input parameters:
  convergence: {bands: occupied,
                density: 0.0001,
                eigenstates: 4e-08,
                energy: 0.0005,
                forces: 1e-06}
  kpts: [6 6 4]
  mode: {ecut: 600.0,
         gammacentered: False,
         name: pw}
  occupations: {fixmagmom: False,
                name: fermi-dirac,
                width: 0.001}
  symmetry: {point_group: False,
             time_reversal: False}

System changes: positions, numbers, cell, pbc, initial_charges, initial_magmoms 

Initialize ...

O-setup:
  name: Oxygen
  id: 9b9d51c344dea68c822856295a461509
  Z: 8.0
  valence: 6
  core: 2
  charge: 0.0
  file: /home/modules/software/GPAW-setups/0.9.20000/O.LDA.gz
  compensation charges: gauss, rc=0.21, lmax=2
  cutoffs: 1.17(filt), 0.83(core),
  valence states:
                energy  radius
    2s(2.00)   -23.752   0.688
    2p(4.00)    -9.195   0.598
    *s           3.459   0.688
    *p          18.016   0.598
    *d           0.000   0.619

  Using partial waves for O as LCAO basis

Mn-setup:
  name: Manganese
  id: 0d715a8018be061a6e9ea6f2d364ac92
  Z: 25.0
  valence: 15
  core: 10
  charge: 0.0
  file: /home/modules/software/GPAW-setups/0.9.20000/Mn.LDA.gz
  compensation charges: gauss, rc=0.38, lmax=2
  cutoffs: 2.14(filt), 0.86(core),
  valence states:
                energy  radius
    3s(2.00)   -85.387   1.275
    4s(2.00)    -5.282   1.275
    3p(6.00)   -54.493   1.281
    4p(0.00)    -1.471   1.281
    3d(5.00)    -7.009   1.138
    *d          20.203   1.138

  Using partial waves for Mn as LCAO basis

P-setup:
  name: Phosphorus
  id: a5561c299094968922a179ab894d2e2d
  Z: 15.0
  valence: 5
  core: 10
  charge: 0.0
  file: /home/modules/software/GPAW-setups/0.9.20000/P.LDA.gz
  compensation charges: gauss, rc=0.30, lmax=2
  cutoffs: 1.69(filt), 1.81(core),
  valence states:
                energy  radius
    3s(2.00)   -14.015   0.953
    3p(3.00)    -5.596   0.953
    *s          13.197   0.953
    *p          21.615   0.953
    *d           0.000   0.953

  Using partial waves for P as LCAO basis

Li-setup:
  name: Lithium
  id: b73562207f97a71b6967473b66fe8b65
  Z: 3.0
  valence: 1
  core: 2
  charge: 0.0
  file: /home/modules/software/GPAW-setups/0.9.20000/Li.LDA.gz
  compensation charges: gauss, rc=0.33, lmax=2
  cutoffs: 1.91(filt), 2.55(core),
  valence states:
                energy  radius
    2s(1.00)    -2.874   1.058
    2p(0.00)    -1.126   1.058
    *s          24.338   1.058

  Using partial waves for Li as LCAO basis

Reference energy: -196157.275402

Spin-polarized calculation.
Magnetic moment: 0.000000

Convergence criteria:
  Maximum total energy change: 0.0005 eV / electron
  Maximum integral of absolute density change: 0.0001 electrons
  Maximum integral of absolute eigenstate change: 4e-08 eV^2
  Maximum change in atomic force: 1e-06 eV / Ang
  Maximum number of iterations: 333

Symmetries present (total): 1

  ( 1  0  0)
  ( 0  1  0)
  ( 0  0  1)

144 k-points: 6 x 6 x 4 Monkhorst-Pack grid
144 k-points in the irreducible part of the Brillouin zone
       k-points in crystal coordinates                weights
   0:    -0.41666667   -0.41666667   -0.37500000          1/144
   1:    -0.41666667   -0.41666667   -0.12500000          1/144
   2:    -0.41666667   -0.41666667    0.12500000          1/144
   3:    -0.41666667   -0.41666667    0.37500000          1/144
   4:    -0.41666667   -0.25000000   -0.37500000          1/144
   5:    -0.41666667   -0.25000000   -0.12500000          1/144
   6:    -0.41666667   -0.25000000    0.12500000          1/144
   7:    -0.41666667   -0.25000000    0.37500000          1/144
   8:    -0.41666667   -0.08333333   -0.37500000          1/144
   9:    -0.41666667   -0.08333333   -0.12500000          1/144
          ...
 143:     0.41666667    0.41666667    0.37500000          1/144

Wave functions: Plane wave expansion
  Cutoff energy: 600.000 eV
  Number of coefficients (min, max): 9132, 9161
  Pulay-stress correction: 0.000000 eV/Ang^3 (de/decut=0.000000)
  Using FFTW library
  ScaLapack parameters: grid=1x1, blocksize=None
  Wavefunction extrapolation:
    Improved wavefunction reuse through dual PAW basis 

  Fermi-Dirac: width=0.0010 eV

Eigensolver
   Davidson(niter=2, smin=None, normalize=True) 

Densities:
  Coarse grid: 60*35*27 grid
  Fine grid: 120*70*54 grid
  Total Charge: 0.000000 

Density mixing:
  Method: difference
  Backend: pulay
  Linear mixing parameter: 0.05
  Mixing with 5 old densities
  Damping of long wave oscillations: 50 

Hamiltonian:
  XC and Coulomb potentials evaluated on a 120*70*54 grid
  Using the LDA Exchange-Correlation functional
 

Memory estimate:
  Process memory now: 13138.50 MiB
  Calculator: 342.26 MiB
    Density: 19.13 MiB
      Arrays: 7.57 MiB
      Localized functions: 8.54 MiB
      Mixer: 3.03 MiB
    Hamiltonian: 5.87 MiB
      Arrays: 5.62 MiB
      XC: 0.00 MiB
      Poisson: 0.00 MiB
      vbar: 0.25 MiB
    Wavefunctions: 317.25 MiB
      Arrays psit_nG: 281.81 MiB
      Eigensolver: 18.27 MiB
      Projections: 5.41 MiB
      Projectors: 8.81 MiB
      PW-descriptor: 2.95 MiB

Total number of cores used: 32
Parallelization over k-points: 16
Domain decomposition: 2 x 1 x 1

Number of atoms: 28
Number of atomic orbitals: 148
Number of bands in calculation: 112
Number of valence electrons: 180
Bands to converge: occupied

... initialized

Initializing position-dependent things.

Density initialized from atomic densities
Creating initial wave functions:
  112 bands from LCAO basis set

                                           
                                           
                                           
                                           
                                           
               O     O  P  O               
            PO           OMn     O         
                  O          MO            
            O        Li O                  
             Mn  Mn          OP            
         O       O Li O                    
         Li     O P         O              
       Li                                  
                                           
                                           
                                           
                                           

Positions:
   0 O     -1.280122   -2.495595   -1.112331    ( 0.0000,  0.0000,  0.0000)
   1 O     -3.023238    2.918858    1.191723    ( 0.0000,  0.0000,  0.0000)
   2 O      1.997451    0.467212    1.441442    ( 0.0000,  0.0000,  0.0000)
   3 O      3.740343   -0.043905   -0.862614    ( 0.0000,  0.0000,  0.0000)
   4 O      1.997419    2.918835    1.441465    ( 0.0000,  0.0000,  0.0000)
   5 O      3.740372   -2.495531   -0.862587    ( 0.0000,  0.0000,  0.0000)
   6 O     -1.280154   -0.053891   -1.112309    ( 0.0000,  0.0000,  0.0000)
   7 O     -3.023210    0.467136    1.191750    ( 0.0000,  0.0000,  0.0000)
   8 O     -4.147405   -1.269737   -0.856207    ( 0.0000,  0.0000,  0.0000)
   9 O     -0.155894    1.692986    1.447725    ( 0.0000,  0.0000,  0.0000)
  10 O      4.864578    1.693016    1.185324    ( 0.0000,  0.0000,  0.0000)
  11 O      0.873163   -1.269706   -1.118625    ( 0.0000,  0.0000,  0.0000)
  12 Mn    -2.437108   -1.269902    0.302197    ( 0.0000,  0.0000,  1.0000)
  13 Mn    -1.866187    1.693156   -2.001927    ( 0.0000,  0.0000, -1.0000)
  14 Mn     3.154299    1.693181    0.026917    ( 0.0000,  0.0000, -1.0000)
  15 Mn     2.583444   -1.269877    2.331074    ( 0.0000,  0.0000,  1.0000)
  16 P     -0.543052   -1.269720   -1.734187    ( 0.0000,  0.0000,  0.0000)
  17 P     -3.760282    1.692974    0.569859    ( 0.0000,  0.0000,  0.0000)
  18 P      1.260300    1.693000    2.063344    ( 0.0000,  0.0000,  0.0000)
  19 P      4.477470   -1.269695   -0.240696    ( 0.0000,  0.0000,  0.0000)
  20 O     -0.544413   -1.269738    1.348523    ( 0.0000,  0.0000,  0.0000)
  21 O     -3.758895    1.692992   -0.955558    ( 0.0000,  0.0000,  0.0000)
  22 O      1.261690    1.693018   -1.019367    ( 0.0000,  0.0000,  0.0000)
  23 O      4.476045   -1.269713    1.284716    ( 0.0000,  0.0000,  0.0000)
  24 Li    -4.662027   -2.751322   -2.139440    ( 0.0000,  0.0000,  0.0000)
  25 Li     0.358703   -2.751277    0.164614    ( 0.0000,  0.0000,  0.0000)
  26 Li    -4.662011    0.211617   -2.139439    ( 0.0000,  0.0000,  0.0000)
  27 Li     0.358720    0.211628    0.164615    ( 0.0000,  0.0000,  0.0000)

Unit cell:
           periodic     x           y           z      points  spacing
  1. axis:    yes   10.041096    0.000054   -0.000022    60     0.1674
  2. axis:    yes    0.000032    5.925857    0.000001    35     0.1693
  3. axis:    yes   -0.000010    0.000001    4.608134    27     0.1707

  Lengths:  10.041096   5.925857   4.608134
  Angles:   89.999974  90.000250  89.999381

Effective grid spacing dv^(1/3) = 0.1691

                     log10-error:           total        iterations:
           time      wfs    density  force  energy       poisson  magmom
iter:   1  10:30:09                       -233.723751             +0.0000
iter:   2  10:30:45  -0.47  -0.95         -231.548696             +0.0008
iter:   3  10:31:21  -0.60  -1.00         -220.830730             +0.0008
iter:   4  10:31:58  -1.21  -1.30         -221.629930             +0.3877
iter:   5  10:32:34  -2.12  -1.37         -222.290367             +0.2050
iter:   6  10:33:10  -2.24  -1.39         -224.652919             -0.0537
iter:   7  10:33:46  -2.09  -1.48         -224.664188             -0.9276
iter:   8  10:34:22  -2.27  -1.58         -225.948849             -1.1131
iter:   9  10:34:58  -2.57  -1.82         -225.968861             -1.5305
iter:  10  10:35:34  -2.73  -2.04         -226.205260             -0.9762
iter:  11  10:36:11  -2.19  -2.11         -226.404591             -0.0335
iter:  12  10:36:47  -2.23  -2.20         -226.512984             -0.0410
iter:  13  10:37:23  -2.58  -2.37         -226.384224             -0.0099
iter:  14  10:37:59  -3.29  -2.52         -226.317321             -0.0110
iter:  15  10:38:35  -2.69  -2.65         -226.200627             -0.0034
iter:  16  10:39:11  -3.32  -2.87         -226.186394             -0.0019
iter:  17  10:39:48  -4.09  -2.89         -226.180446             -0.0000
iter:  18  10:40:24  -4.08  -2.98         -226.179600             -0.0001
iter:  19  10:41:00  -4.42  -3.17         -226.175588             -0.0000
iter:  20  10:41:36  -4.52  -3.18         -226.175711             -0.0000
iter:  21  10:42:12  -4.44  -3.19         -226.177272             -0.0000
iter:  22  10:42:48  -5.04  -3.37         -226.176543             -0.0000
iter:  23  10:43:24  -5.21  -3.46         -226.175236             -0.0000
iter:  24  10:44:01  -4.49  -3.57         -226.175081             -0.0000
iter:  25  10:44:37  -5.02  -3.69         -226.174040             -0.0000
iter:  26  10:45:13  -5.61  -3.82         -226.173983             -0.0000
iter:  27  10:45:49  -5.77  -3.84         -226.173958             -0.0000
iter:  28  10:46:25  -5.82  -4.05         -226.173875             -0.0000
iter:  29  10:47:01  -6.54  -4.10         -226.173877             +0.0000
iter:  30  10:47:37  -6.61  -4.23         -226.173885             +0.0000
iter:  31  10:48:13  -6.67  -4.26         -226.173878             +0.0000
iter:  32  10:48:49  -5.96  -4.24         -226.173882             +0.0000
iter:  33  10:49:26  -6.65  -4.43         -226.173875             +0.0000
iter:  34  10:50:02  -7.23  -4.50         -226.173864             +0.0000
iter:  35  10:50:38  -6.83  -4.57         -226.173854             +0.0000
iter:  36  10:51:14  -7.05  -4.78         -226.173853             +0.0000
iter:  37  10:51:59  -8.20  -4.83         -226.173853             +0.0000
iter:  38  10:52:44  -7.65  -4.87    -2.89-226.173853             -0.0000
iter:  39  10:53:30  -8.07  -5.01    -3.00-226.173853             -0.0000
iter:  40  10:54:15  -8.87  -5.18    -3.49-226.173853             -0.0000
iter:  41  10:55:00  -8.12  -5.24    -2.92-226.173853             -0.0000
iter:  42  10:55:46  -8.85  -5.47    -3.33-226.173853             -0.0000
iter:  43  10:56:31  -8.57  -5.56    -3.22-226.173853             -0.0000
iter:  44  10:57:16  -9.52  -5.87    -4.00-226.173853             -0.0000
iter:  45  10:58:01  -9.73  -5.93    -3.78-226.173853             -0.0000
iter:  46  10:58:47 -10.66  -6.01    -4.19-226.173853             -0.0000
iter:  47  10:59:32 -10.04  -6.07    -3.86-226.173853             +0.0000
iter:  48  11:00:17 -11.02  -6.21    -4.42-226.173853             +0.0000
iter:  49  11:01:03 -10.51  -6.24    -4.07-226.173853             +0.0000
iter:  50  11:01:48 -11.28  -6.44    -4.16-226.173853             +0.0000
iter:  51  11:02:33 -11.29  -6.56    -4.52-226.173853             -0.0000
iter:  52  11:03:19 -11.43  -6.71    -4.57-226.173853             -0.0000
iter:  53  11:04:04 -11.77  -6.85    -5.16-226.173853             -0.0000
iter:  54  11:04:49 -11.95  -6.88    -5.19-226.173853             -0.0000
iter:  55  11:05:35 -13.05  -6.99    -5.38-226.173853             -0.0000
iter:  56  11:06:20 -12.04  -7.07    -4.84-226.173853             -0.0000
iter:  57  11:07:05 -12.68  -7.18    -5.38-226.173853             -0.0000
iter:  58  11:07:51 -12.64  -7.23    -4.71-226.173853             -0.0000
iter:  59  11:08:36 -12.89  -7.59    -5.27-226.173853             -0.0000
iter:  60  11:09:21 -13.50  -7.80    -5.42-226.173853             -0.0000
iter:  61  11:10:07 -13.46  -7.95    -5.71-226.173853             -0.0000
iter:  62  11:10:52 -14.34  -8.23    -6.31-226.173853             -0.0000

Converged after 62 iterations.

Dipole moment: (18.328146, -1.812896, -4.524526) |e|*Ang

Total magnetic moment: (0.000000, 0.000000, -0.000000)
Local magnetic moments:
   0 O  ( 0.000000,  0.000000, -0.001958)
   1 O  ( 0.000000,  0.000000,  0.001572)
   2 O  ( 0.000000,  0.000000,  0.001792)
   3 O  ( 0.000000,  0.000000, -0.001820)
   4 O  ( 0.000000,  0.000000,  0.001793)
   5 O  ( 0.000000,  0.000000, -0.001812)
   6 O  ( 0.000000,  0.000000, -0.001413)
   7 O  ( 0.000000,  0.000000,  0.001845)
   8 O  ( 0.000000,  0.000000,  0.031099)
   9 O  ( 0.000000,  0.000000, -0.031088)
  10 O  ( 0.000000,  0.000000, -0.031077)
  11 O  ( 0.000000,  0.000000,  0.031335)
  12 Mn ( 0.000000,  0.000000,  4.396074)
  13 Mn ( 0.000000,  0.000000, -4.397555)
  14 Mn ( 0.000000,  0.000000, -4.395716)
  15 Mn ( 0.000000,  0.000000,  4.395880)
  16 P  ( 0.000000,  0.000000,  0.001252)
  17 P  ( 0.000000,  0.000000, -0.000848)
  18 P  ( 0.000000,  0.000000, -0.000852)
  19 P  ( 0.000000,  0.000000,  0.000878)
  20 O  ( 0.000000,  0.000000,  0.028574)
  21 O  ( 0.000000,  0.000000, -0.028367)
  22 O  ( 0.000000,  0.000000, -0.028422)
  23 O  ( 0.000000,  0.000000,  0.028397)
  24 Li ( 0.000000,  0.000000,  0.000001)
  25 Li ( 0.000000,  0.000000,  0.000002)
  26 Li ( 0.000000,  0.000000,  0.000001)
  27 Li ( 0.000000,  0.000000,  0.000031)

Energy contributions relative to reference atoms: (reference = -196157.275402)

Kinetic:       +278.151375
Potential:     -241.374985
External:        +0.000000
XC:            -264.837725
Entropy (-ST):   -0.000000
Local:           +1.887483
--------------------------
Free energy:   -226.173853
Extrapolated:  -226.173853

Spin contamination: 9.456585 electrons
Showing only first 2 kpts
                      Up                     Down
 Kpt  Band  Eigenvalues  Occupancy  Eigenvalues  Occupancy
  0    88      6.53289    0.00694      6.52321    0.00694
  0    89      6.56670    0.00694      6.55922    0.00694
  0    90      8.42231    0.00000      8.42909    0.00000
  0    91      8.44408    0.00000      8.45039    0.00000

  1    88      6.57138    0.00694      6.56120    0.00694
  1    89      6.59878    0.00694      6.59166    0.00694
  1    90      8.37876    0.00000      8.38654    0.00000
  1    91      8.40131    0.00000      8.40795    0.00000


Fermi level: 7.29660

Gap: 1.692 eV
Transition (v -> c):
  (s=0, k=49, n=89, [-0.08, -0.42, -0.12]) -> (s=0, k=58, n=90, [-0.08, -0.08, 0.12])
Writing to born-0.01-6y-.gpw (mode='all')

Timing:                              incl.     excl.
-----------------------------------------------------------
Hamiltonian:                         0.357     0.002   0.0% |
 Atomic:                             0.050     0.050   0.0% |
  XC Correction:                     0.000     0.000   0.0% |
 Calculate atomic Hamiltonians:      0.147     0.147   0.0% |
 Communicate:                        0.002     0.002   0.0% |
 Initialize Hamiltonian:             0.000     0.000   0.0% |
 Poisson:                            0.001     0.001   0.0% |
 XC 3D grid:                         0.155     0.155   0.0% |
LCAO initialization:               143.937     0.649   0.0% |
 LCAO eigensolver:                  38.219     0.002   0.0% |
  Calculate projections:             0.056     0.056   0.0% |
  DenseAtomicCorrection:             0.087     0.087   0.0% |
  Distribute overlap matrix:         0.392     0.392   0.0% |
  Orbital Layouts:                   0.338     0.338   0.0% |
  Potential matrix:                 37.246    37.246   0.6% |
  Sum over cells:                    0.097     0.097   0.0% |
 LCAO to grid:                     102.723   102.723   1.8% ||
 Set positions (LCAO WFS):           2.346     0.369   0.0% |
  Basic WFS set positions:           0.001     0.001   0.0% |
  Basis functions set positions:     0.000     0.000   0.0% |
  P tci:                             1.040     1.040   0.0% |
  ST tci:                            0.690     0.690   0.0% |
  mktci:                             0.244     0.244   0.0% |
PWDescriptor:                        0.023     0.023   0.0% |
SCF-cycle:                        2482.333     5.070   0.1% |
 Davidson:                        2124.835   676.266  11.5% |----|
  Apply H:                         153.246   148.391   2.5% ||
   HMM T:                            4.855     4.855   0.1% |
  Subspace diag:                   317.259     0.190   0.0% |
   calc_h_matrix:                  207.446    55.354   0.9% |
    Apply H:                       152.092   147.364   2.5% ||
     HMM T:                          4.728     4.728   0.1% |
   diagonalize:                      7.281     7.281   0.1% |
   rotate_psi:                     102.342   102.342   1.7% ||
  calc. matrices:                  671.252   372.477   6.4% |--|
   Apply H:                        298.775   290.093   4.9% |-|
    HMM T:                           8.683     8.683   0.1% |
  diagonalize:                      97.554    97.554   1.7% ||
  rotate_psi:                      209.258   209.258   3.6% ||
 Density:                           86.034     0.002   0.0% |
  Atomic density matrices:           1.565     1.565   0.0% |
  Mix:                              11.836    11.836   0.2% |
  Multipole moments:                 0.036     0.036   0.0% |
  Pseudo density:                   72.596    72.594   1.2% |
   Symmetrize density:               0.002     0.002   0.0% |
 Forces:                           240.435   240.435   4.1% |-|
 Hamiltonian:                       21.975     0.137   0.0% |
  Atomic:                            3.075     3.074   0.1% |
   XC Correction:                    0.000     0.000   0.0% |
  Calculate atomic Hamiltonians:     8.823     8.823   0.2% |
  Communicate:                       0.113     0.113   0.0% |
  Poisson:                           0.074     0.074   0.0% |
  XC 3D grid:                        9.753     9.753   0.2% |
 Orthonormalize:                     3.983     0.004   0.0% |
  calc_s_matrix:                     0.478     0.478   0.0% |
  inverse-cholesky:                  0.053     0.053   0.0% |
  projections:                       2.594     2.594   0.0% |
  rotate_psi_s:                      0.854     0.854   0.0% |
Set symmetry:                        0.000     0.000   0.0% |
Other:                            3236.563  3236.563  55.2% |---------------------|
-----------------------------------------------------------
Total:                                      5863.213 100.0%

Memory usage: 12.86 GiB
Date: Mon Mar 22 12:04:47 2021
