
  ___ ___ ___ _ _ _  
 |   |   |_  | | | | 
 | | | | | . | | | | 
 |__ |  _|___|_____|  20.10.1b1
 |___|_|             

User:   madkru@i008.nifl.fysik.dtu.dk
Date:   Wed Mar 24 20:15:38 2021
Arch:   x86_64
Pid:    26969
Python: 3.7.4
gpaw:   /home/niflheim/madkru/venv_folder/gpaw/gpaw (d224efde0f)
_gpaw:  /home/niflheim/madkru/venv_folder/gpaw/build/lib.linux-x86_64-ivybridge-3.7/
        _gpaw.cpython-37m-x86_64-linux-gnu.so (4fd39e8b1e)
ase:    /home/niflheim/madkru/venv_folder/ase/ase (version 3.21.0b1-4d5a73cb29)
numpy:  /home/niflheim/madkru/venv_folder/lib/python3.7/site-packages/numpy (version 1.19.4)
scipy:  /home/niflheim/madkru/venv_folder/lib/python3.7/site-packages/scipy (version 1.5.4)
libxc:  4.3.4
units:  Angstrom and eV
cores: 64
OMP_NUM_THREADS: 1

Input parameters:
  convergence: {bands: occupied,
                density: 0.0001,
                eigenstates: 4e-08,
                energy: 0.0005,
                forces: 1e-06}
  kpts: [6 6 4]
  mode: {ecut: 600.0,
         gammacentered: False,
         name: pw}
  occupations: {fixmagmom: False,
                name: fermi-dirac,
                width: 0.001}
  symmetry: {point_group: False,
             time_reversal: False}

System changes: positions, numbers, cell, pbc, initial_charges, initial_magmoms 

Initialize ...

O-setup:
  name: Oxygen
  id: 9b9d51c344dea68c822856295a461509
  Z: 8.0
  valence: 6
  core: 2
  charge: 0.0
  file: /home/modules/software/GPAW-setups/0.9.20000/O.LDA.gz
  compensation charges: gauss, rc=0.21, lmax=2
  cutoffs: 1.17(filt), 0.83(core),
  valence states:
                energy  radius
    2s(2.00)   -23.752   0.688
    2p(4.00)    -9.195   0.598
    *s           3.459   0.688
    *p          18.016   0.598
    *d           0.000   0.619

  Using partial waves for O as LCAO basis

Mn-setup:
  name: Manganese
  id: 0d715a8018be061a6e9ea6f2d364ac92
  Z: 25.0
  valence: 15
  core: 10
  charge: 0.0
  file: /home/modules/software/GPAW-setups/0.9.20000/Mn.LDA.gz
  compensation charges: gauss, rc=0.38, lmax=2
  cutoffs: 2.14(filt), 0.86(core),
  valence states:
                energy  radius
    3s(2.00)   -85.387   1.275
    4s(2.00)    -5.282   1.275
    3p(6.00)   -54.493   1.281
    4p(0.00)    -1.471   1.281
    3d(5.00)    -7.009   1.138
    *d          20.203   1.138

  Using partial waves for Mn as LCAO basis

P-setup:
  name: Phosphorus
  id: a5561c299094968922a179ab894d2e2d
  Z: 15.0
  valence: 5
  core: 10
  charge: 0.0
  file: /home/modules/software/GPAW-setups/0.9.20000/P.LDA.gz
  compensation charges: gauss, rc=0.30, lmax=2
  cutoffs: 1.69(filt), 1.81(core),
  valence states:
                energy  radius
    3s(2.00)   -14.015   0.953
    3p(3.00)    -5.596   0.953
    *s          13.197   0.953
    *p          21.615   0.953
    *d           0.000   0.953

  Using partial waves for P as LCAO basis

Li-setup:
  name: Lithium
  id: b73562207f97a71b6967473b66fe8b65
  Z: 3.0
  valence: 1
  core: 2
  charge: 0.0
  file: /home/modules/software/GPAW-setups/0.9.20000/Li.LDA.gz
  compensation charges: gauss, rc=0.33, lmax=2
  cutoffs: 1.91(filt), 2.55(core),
  valence states:
                energy  radius
    2s(1.00)    -2.874   1.058
    2p(0.00)    -1.126   1.058
    *s          24.338   1.058

  Using partial waves for Li as LCAO basis

Reference energy: -196157.275402

Spin-polarized calculation.
Magnetic moment: 0.000000

Convergence criteria:
  Maximum total energy change: 0.0005 eV / electron
  Maximum integral of absolute density change: 0.0001 electrons
  Maximum integral of absolute eigenstate change: 4e-08 eV^2
  Maximum change in atomic force: 1e-06 eV / Ang
  Maximum number of iterations: 333

Symmetries present (total): 1

  ( 1  0  0)
  ( 0  1  0)
  ( 0  0  1)

144 k-points: 6 x 6 x 4 Monkhorst-Pack grid
144 k-points in the irreducible part of the Brillouin zone
       k-points in crystal coordinates                weights
   0:    -0.41666667   -0.41666667   -0.37500000          1/144
   1:    -0.41666667   -0.41666667   -0.12500000          1/144
   2:    -0.41666667   -0.41666667    0.12500000          1/144
   3:    -0.41666667   -0.41666667    0.37500000          1/144
   4:    -0.41666667   -0.25000000   -0.37500000          1/144
   5:    -0.41666667   -0.25000000   -0.12500000          1/144
   6:    -0.41666667   -0.25000000    0.12500000          1/144
   7:    -0.41666667   -0.25000000    0.37500000          1/144
   8:    -0.41666667   -0.08333333   -0.37500000          1/144
   9:    -0.41666667   -0.08333333   -0.12500000          1/144
          ...
 143:     0.41666667    0.41666667    0.37500000          1/144

Wave functions: Plane wave expansion
  Cutoff energy: 600.000 eV
  Number of coefficients (min, max): 9132, 9161
  Pulay-stress correction: 0.000000 eV/Ang^3 (de/decut=0.000000)
  Using FFTW library
  ScaLapack parameters: grid=1x1, blocksize=None
  Wavefunction extrapolation:
    Improved wavefunction reuse through dual PAW basis 

  Fermi-Dirac: width=0.0010 eV

Eigensolver
   Davidson(niter=2, smin=None, normalize=True) 

Densities:
  Coarse grid: 60*35*27 grid
  Fine grid: 120*70*54 grid
  Total Charge: 0.000000 

Density mixing:
  Method: difference
  Backend: pulay
  Linear mixing parameter: 0.05
  Mixing with 5 old densities
  Damping of long wave oscillations: 50 

Hamiltonian:
  XC and Coulomb potentials evaluated on a 120*70*54 grid
  Using the LDA Exchange-Correlation functional
 

Memory estimate:
  Process memory now: 12615.72 MiB
  Calculator: 322.47 MiB
    Density: 9.62 MiB
      Arrays: 3.79 MiB
      Localized functions: 4.27 MiB
      Mixer: 1.56 MiB
    Hamiltonian: 2.94 MiB
      Arrays: 2.82 MiB
      XC: 0.00 MiB
      Poisson: 0.00 MiB
      vbar: 0.12 MiB
    Wavefunctions: 309.91 MiB
      Arrays psit_nG: 281.81 MiB
      Eigensolver: 18.27 MiB
      Projections: 2.71 MiB
      Projectors: 4.40 MiB
      PW-descriptor: 2.71 MiB

Total number of cores used: 64
Parallelization over k-points: 16
Domain decomposition: 2 x 2 x 1

Number of atoms: 28
Number of atomic orbitals: 148
Number of bands in calculation: 112
Number of valence electrons: 180
Bands to converge: occupied

... initialized

Initializing position-dependent things.

Density initialized from atomic densities
Creating initial wave functions:
  112 bands from LCAO basis set

                                           
                                           
                                           
                                           
                                           
               O     O  P  O               
            PO           OMn     O         
                  O          MO            
            O        Li O                  
             Mn  Mn          OP            
         O       O Li O                    
         Li     O P         O              
       Li                                  
                                           
                                           
                                           
                                           

Positions:
   0 O     -1.280122   -2.495595   -1.112331    ( 0.0000,  0.0000,  0.0000)
   1 O     -3.023238    2.918858    1.191723    ( 0.0000,  0.0000,  0.0000)
   2 O      1.997451    0.467212    1.441442    ( 0.0000,  0.0000,  0.0000)
   3 O      3.740343   -0.043905   -0.862614    ( 0.0000,  0.0000,  0.0000)
   4 O      1.997419    2.918835    1.441465    ( 0.0000,  0.0000,  0.0000)
   5 O      3.740372   -2.495531   -0.862587    ( 0.0000,  0.0000,  0.0000)
   6 O     -1.280154   -0.043891   -1.112309    ( 0.0000,  0.0000,  0.0000)
   7 O     -3.023210    0.467136    1.191750    ( 0.0000,  0.0000,  0.0000)
   8 O     -4.147405   -1.269737   -0.856207    ( 0.0000,  0.0000,  0.0000)
   9 O     -0.155894    1.692986    1.447725    ( 0.0000,  0.0000,  0.0000)
  10 O      4.864578    1.693016    1.185324    ( 0.0000,  0.0000,  0.0000)
  11 O      0.873163   -1.269706   -1.118625    ( 0.0000,  0.0000,  0.0000)
  12 Mn    -2.437108   -1.269902    0.302197    ( 0.0000,  0.0000,  1.0000)
  13 Mn    -1.866187    1.693156   -2.001927    ( 0.0000,  0.0000, -1.0000)
  14 Mn     3.164299    1.693181    0.026917    ( 0.0000,  0.0000, -1.0000)
  15 Mn     2.583444   -1.269877    2.331074    ( 0.0000,  0.0000,  1.0000)
  16 P     -0.543052   -1.269720   -1.734187    ( 0.0000,  0.0000,  0.0000)
  17 P     -3.760282    1.692974    0.569859    ( 0.0000,  0.0000,  0.0000)
  18 P      1.260300    1.693000    2.063344    ( 0.0000,  0.0000,  0.0000)
  19 P      4.477470   -1.269695   -0.240696    ( 0.0000,  0.0000,  0.0000)
  20 O     -0.544413   -1.269738    1.348523    ( 0.0000,  0.0000,  0.0000)
  21 O     -3.758895    1.692992   -0.955558    ( 0.0000,  0.0000,  0.0000)
  22 O      1.261690    1.693018   -1.019367    ( 0.0000,  0.0000,  0.0000)
  23 O      4.476045   -1.269713    1.284716    ( 0.0000,  0.0000,  0.0000)
  24 Li    -4.662027   -2.751322   -2.139440    ( 0.0000,  0.0000,  0.0000)
  25 Li     0.358703   -2.751277    0.164614    ( 0.0000,  0.0000,  0.0000)
  26 Li    -4.662011    0.211617   -2.139439    ( 0.0000,  0.0000,  0.0000)
  27 Li     0.358720    0.211628    0.164615    ( 0.0000,  0.0000,  0.0000)

Unit cell:
           periodic     x           y           z      points  spacing
  1. axis:    yes   10.041096    0.000054   -0.000022    60     0.1674
  2. axis:    yes    0.000032    5.925857    0.000001    35     0.1693
  3. axis:    yes   -0.000010    0.000001    4.608134    27     0.1707

  Lengths:  10.041096   5.925857   4.608134
  Angles:   89.999974  90.000250  89.999381

Effective grid spacing dv^(1/3) = 0.1691

                     log10-error:           total        iterations:
           time      wfs    density  force  energy       poisson  magmom
iter:   1  20:17:12                       -233.725807             +0.0000
iter:   2  20:17:32  -0.47  -0.95         -231.554459             -0.0001
iter:   3  20:17:52  -0.60  -1.00         -220.835084             -0.0001
iter:   4  20:18:12  -1.20  -1.30         -221.627278             +0.3789
iter:   5  20:18:31  -2.07  -1.37         -222.256025             +0.1924
iter:   6  20:18:51  -2.26  -1.40         -224.266488             -0.1001
iter:   7  20:19:11  -1.98  -1.50         -225.201303             -0.0144
iter:   8  20:19:31  -2.28  -1.62         -226.259772             -0.0180
iter:   9  20:19:50  -2.55  -1.86         -226.108615             +0.9683
iter:  10  20:20:10  -2.64  -2.05         -226.268175             +0.6710
iter:  11  20:20:30  -2.29  -2.12         -226.466623             +0.0718
iter:  12  20:20:50  -2.41  -2.18         -226.491850             +0.0328
iter:  13  20:21:10  -2.76  -2.37         -226.249346             -0.0088
iter:  14  20:21:29  -3.02  -2.50         -226.219580             -0.0211
iter:  15  20:21:49  -3.30  -2.59         -226.200915             -0.0074
iter:  16  20:22:09  -3.77  -2.86         -226.189422             -0.0035
iter:  17  20:22:29  -3.32  -2.86         -226.180596             -0.0009
iter:  18  20:22:48  -3.90  -2.90         -226.180288             -0.0009
iter:  19  20:23:08  -3.57  -2.99         -226.178212             -0.0003
iter:  20  20:23:28  -4.99  -3.37         -226.176129             -0.0002
iter:  21  20:23:48  -4.33  -3.44         -226.175092             -0.0001
iter:  22  20:24:07  -5.03  -3.60         -226.175003             -0.0000
iter:  23  20:24:27  -5.41  -3.80         -226.174873             -0.0000
iter:  24  20:24:47  -5.85  -3.92         -226.174893             -0.0000
iter:  25  20:25:07  -6.57  -4.23         -226.174867             -0.0000
iter:  26  20:25:26  -6.80  -4.30         -226.174850             -0.0000
iter:  27  20:25:46  -6.62  -4.40         -226.174841             -0.0000
iter:  28  20:26:10  -7.59  -4.54         -226.174841             -0.0000
iter:  29  20:26:30  -7.32  -4.59         -226.174838             -0.0000
iter:  30  20:26:55  -7.73  -4.91    -2.28-226.174838             -0.0000
iter:  31  20:27:19  -8.49  -5.03    -3.06-226.174838             -0.0000
iter:  32  20:27:43  -8.40  -5.09    -2.86-226.174838             +0.0000
iter:  33  20:28:08  -8.35  -5.18    -3.21-226.174838             +0.0000
iter:  34  20:28:32  -8.90  -5.28    -3.27-226.174838             +0.0000
iter:  35  20:28:57  -8.38  -5.37    -3.10-226.174838             -0.0000
iter:  36  20:29:21  -9.30  -5.58    -3.61-226.174838             +0.0000
iter:  37  20:29:45  -9.75  -5.65    -3.74-226.174838             +0.0000
iter:  38  20:30:10 -10.35  -5.73    -3.97-226.174838             +0.0000
iter:  39  20:30:34  -9.43  -5.77    -3.44-226.174838             -0.0000
iter:  40  20:30:58  -9.89  -5.98    -3.98-226.174838             +0.0000
iter:  41  20:31:23 -10.94  -6.03    -4.21-226.174838             -0.0000
iter:  42  20:31:47 -10.87  -6.14    -4.00-226.174838             -0.0000
iter:  43  20:32:12 -11.23  -6.31    -4.40-226.174838             -0.0000
iter:  44  20:32:36 -11.22  -6.39    -4.80-226.174838             -0.0000
iter:  45  20:33:00 -11.20  -6.42    -4.49-226.174838             -0.0000
iter:  46  20:33:25 -11.70  -6.51    -4.62-226.174838             -0.0000
iter:  47  20:33:49 -10.87  -6.60    -4.37-226.174838             -0.0000
iter:  48  20:34:13 -11.72  -6.85    -4.87-226.174838             -0.0000
iter:  49  20:34:38 -12.37  -7.08    -5.29-226.174838             +0.0000
iter:  50  20:35:02 -11.85  -7.15    -4.87-226.174838             +0.0000
iter:  51  20:35:27 -12.56  -7.41    -5.36-226.174838             +0.0000
iter:  52  20:35:51 -12.44  -7.53    -5.16-226.174838             +0.0000
iter:  53  20:36:15 -13.43  -7.82    -5.79-226.174838             +0.0000
iter:  54  20:36:40 -13.61  -7.91    -5.82-226.174838             +0.0000
iter:  55  20:37:04 -14.28  -8.05    -5.98-226.174838             +0.0000
iter:  56  20:37:28 -13.80  -8.10    -5.74-226.174838             -0.0000
iter:  57  20:37:53 -14.73  -8.23    -6.37-226.174838             +0.0000

Converged after 57 iterations.

Dipole moment: (18.336590, -2.306498, -4.524941) |e|*Ang

Total magnetic moment: (0.000000, 0.000000, 0.000000)
Local magnetic moments:
   0 O  ( 0.000000,  0.000000, -0.001786)
   1 O  ( 0.000000,  0.000000,  0.001781)
   2 O  ( 0.000000,  0.000000,  0.002199)
   3 O  ( 0.000000,  0.000000, -0.002052)
   4 O  ( 0.000000,  0.000000,  0.002194)
   5 O  ( 0.000000,  0.000000, -0.002047)
   6 O  ( 0.000000,  0.000000, -0.001792)
   7 O  ( 0.000000,  0.000000,  0.001786)
   8 O  ( 0.000000,  0.000000,  0.031071)
   9 O  ( 0.000000,  0.000000, -0.031167)
  10 O  ( 0.000000,  0.000000, -0.031574)
  11 O  ( 0.000000,  0.000000,  0.031131)
  12 Mn ( 0.000000,  0.000000,  4.395760)
  13 Mn ( 0.000000,  0.000000, -4.395801)
  14 Mn ( 0.000000,  0.000000, -4.395446)
  15 Mn ( 0.000000,  0.000000,  4.396006)
  16 P  ( 0.000000,  0.000000,  0.000871)
  17 P  ( 0.000000,  0.000000, -0.001005)
  18 P  ( 0.000000,  0.000000, -0.000661)
  19 P  ( 0.000000,  0.000000,  0.000798)
  20 O  ( 0.000000,  0.000000,  0.028451)
  21 O  ( 0.000000,  0.000000, -0.028402)
  22 O  ( 0.000000,  0.000000, -0.028052)
  23 O  ( 0.000000,  0.000000,  0.028366)
  24 Li ( 0.000000,  0.000000, -0.000018)
  25 Li ( 0.000000,  0.000000, -0.000003)
  26 Li ( 0.000000,  0.000000, -0.000018)
  27 Li ( 0.000000,  0.000000, -0.000003)

Energy contributions relative to reference atoms: (reference = -196157.275402)

Kinetic:       +277.639649
Potential:     -240.984390
External:        +0.000000
XC:            -264.718378
Entropy (-ST):   -0.000000
Local:           +1.888281
--------------------------
Free energy:   -226.174838
Extrapolated:  -226.174838

Spin contamination: 9.455904 electrons
Showing only first 2 kpts
                      Up                     Down
 Kpt  Band  Eigenvalues  Occupancy  Eigenvalues  Occupancy
  0    88      6.53109    0.00694      6.53124    0.00694
  0    89      6.56491    0.00694      6.56636    0.00694
  0    90      8.42665    0.00000      8.42636    0.00000
  0    91      8.44797    0.00000      8.44952    0.00000

  1    88      6.56951    0.00694      6.56924    0.00694
  1    89      6.59680    0.00694      6.59829    0.00694
  1    90      8.38239    0.00000      8.38290    0.00000
  1    91      8.40446    0.00000      8.40641    0.00000


Fermi level: 7.49172

Gap: 1.697 eV
Transition (v -> c):
  (s=1, k=94, n=89, [0.08, 0.42, 0.12]) -> (s=0, k=61, n=90, [-0.08, 0.08, -0.12])
Writing to born-0.01-14x+.gpw (mode='all')

Timing:                              incl.     excl.
-----------------------------------------------------------
Hamiltonian:                         0.217     0.002   0.0% |
 Atomic:                             0.054     0.054   0.0% |
  XC Correction:                     0.000     0.000   0.0% |
 Calculate atomic Hamiltonians:      0.075     0.075   0.0% |
 Communicate:                        0.001     0.001   0.0% |
 Initialize Hamiltonian:             0.000     0.000   0.0% |
 Poisson:                            0.001     0.001   0.0% |
 XC 3D grid:                         0.083     0.083   0.0% |
LCAO initialization:                69.977     0.644   0.0% |
 LCAO eigensolver:                  19.626     0.002   0.0% |
  Calculate projections:             0.029     0.029   0.0% |
  DenseAtomicCorrection:             0.045     0.045   0.0% |
  Distribute overlap matrix:         0.189     0.189   0.0% |
  Orbital Layouts:                   0.430     0.430   0.0% |
  Potential matrix:                 18.834    18.834   0.6% |
  Sum over cells:                    0.098     0.098   0.0% |
 LCAO to grid:                      48.350    48.350   1.5% ||
 Set positions (LCAO WFS):           1.357     0.220   0.0% |
  Basic WFS set positions:           0.001     0.001   0.0% |
  Basis functions set positions:     0.000     0.000   0.0% |
  P tci:                             0.513     0.513   0.0% |
  ST tci:                            0.379     0.379   0.0% |
  mktci:                             0.243     0.243   0.0% |
PWDescriptor:                        0.023     0.023   0.0% |
SCF-cycle:                        1263.341     2.779   0.1% |
 Davidson:                        1067.924   326.401  10.3% |---|
  Apply H:                          74.718    72.553   2.3% ||
   HMM T:                            2.164     2.164   0.1% |
  Subspace diag:                   155.467     0.163   0.0% |
   calc_h_matrix:                  100.361    25.733   0.8% |
    Apply H:                        74.628    72.449   2.3% ||
     HMM T:                          2.179     2.179   0.1% |
   diagonalize:                      7.701     7.701   0.2% |
   rotate_psi:                      47.242    47.242   1.5% ||
  calc. matrices:                  319.285   174.167   5.5% |-|
   Apply H:                        145.118   141.157   4.5% |-|
    HMM T:                           3.961     3.961   0.1% |
  diagonalize:                      89.801    89.801   2.8% ||
  rotate_psi:                      102.253   102.253   3.2% ||
 Density:                           43.680     0.001   0.0% |
  Atomic density matrices:           0.935     0.935   0.0% |
  Mix:                               5.926     5.926   0.2% |
  Multipole moments:                 0.021     0.021   0.0% |
  Pseudo density:                   36.797    36.795   1.2% |
   Symmetrize density:               0.002     0.002   0.0% |
 Forces:                           134.770   134.770   4.3% |-|
 Hamiltonian:                       12.125     0.121   0.0% |
  Atomic:                            2.841     2.841   0.1% |
   XC Correction:                    0.000     0.000   0.0% |
  Calculate atomic Hamiltonians:     4.253     4.253   0.1% |
  Communicate:                       0.085     0.085   0.0% |
  Poisson:                           0.033     0.033   0.0% |
  XC 3D grid:                        4.792     4.792   0.2% |
 Orthonormalize:                     2.062     0.003   0.0% |
  calc_s_matrix:                     0.242     0.242   0.0% |
  inverse-cholesky:                  0.073     0.073   0.0% |
  projections:                       1.314     1.314   0.0% |
  rotate_psi_s:                      0.430     0.430   0.0% |
Set symmetry:                        0.000     0.000   0.0% |
Other:                            1826.220  1826.220  57.8% |----------------------|
-----------------------------------------------------------
Total:                                      3159.779 100.0%

Memory usage: 12.33 GiB
Date: Wed Mar 24 21:08:18 2021
