
  ___ ___ ___ _ _ _  
 |   |   |_  | | | | 
 | | | | | . | | | | 
 |__ |  _|___|_____|  20.10.1b1
 |___|_|             

User:   madkru@i008.nifl.fysik.dtu.dk
Date:   Wed Mar 24 23:50:02 2021
Arch:   x86_64
Pid:    26969
Python: 3.7.4
gpaw:   /home/niflheim/madkru/venv_folder/gpaw/gpaw (d224efde0f)
_gpaw:  /home/niflheim/madkru/venv_folder/gpaw/build/lib.linux-x86_64-ivybridge-3.7/
        _gpaw.cpython-37m-x86_64-linux-gnu.so (4fd39e8b1e)
ase:    /home/niflheim/madkru/venv_folder/ase/ase (version 3.21.0b1-4d5a73cb29)
numpy:  /home/niflheim/madkru/venv_folder/lib/python3.7/site-packages/numpy (version 1.19.4)
scipy:  /home/niflheim/madkru/venv_folder/lib/python3.7/site-packages/scipy (version 1.5.4)
libxc:  4.3.4
units:  Angstrom and eV
cores: 64
OMP_NUM_THREADS: 1

Input parameters:
  convergence: {bands: occupied,
                density: 0.0001,
                eigenstates: 4e-08,
                energy: 0.0005,
                forces: 1e-06}
  kpts: [6 6 4]
  mode: {ecut: 600.0,
         gammacentered: False,
         name: pw}
  occupations: {fixmagmom: False,
                name: fermi-dirac,
                width: 0.001}
  symmetry: {point_group: False,
             time_reversal: False}

System changes: positions, numbers, cell, pbc, initial_charges, initial_magmoms 

Initialize ...

O-setup:
  name: Oxygen
  id: 9b9d51c344dea68c822856295a461509
  Z: 8.0
  valence: 6
  core: 2
  charge: 0.0
  file: /home/modules/software/GPAW-setups/0.9.20000/O.LDA.gz
  compensation charges: gauss, rc=0.21, lmax=2
  cutoffs: 1.17(filt), 0.83(core),
  valence states:
                energy  radius
    2s(2.00)   -23.752   0.688
    2p(4.00)    -9.195   0.598
    *s           3.459   0.688
    *p          18.016   0.598
    *d           0.000   0.619

  Using partial waves for O as LCAO basis

Mn-setup:
  name: Manganese
  id: 0d715a8018be061a6e9ea6f2d364ac92
  Z: 25.0
  valence: 15
  core: 10
  charge: 0.0
  file: /home/modules/software/GPAW-setups/0.9.20000/Mn.LDA.gz
  compensation charges: gauss, rc=0.38, lmax=2
  cutoffs: 2.14(filt), 0.86(core),
  valence states:
                energy  radius
    3s(2.00)   -85.387   1.275
    4s(2.00)    -5.282   1.275
    3p(6.00)   -54.493   1.281
    4p(0.00)    -1.471   1.281
    3d(5.00)    -7.009   1.138
    *d          20.203   1.138

  Using partial waves for Mn as LCAO basis

P-setup:
  name: Phosphorus
  id: a5561c299094968922a179ab894d2e2d
  Z: 15.0
  valence: 5
  core: 10
  charge: 0.0
  file: /home/modules/software/GPAW-setups/0.9.20000/P.LDA.gz
  compensation charges: gauss, rc=0.30, lmax=2
  cutoffs: 1.69(filt), 1.81(core),
  valence states:
                energy  radius
    3s(2.00)   -14.015   0.953
    3p(3.00)    -5.596   0.953
    *s          13.197   0.953
    *p          21.615   0.953
    *d           0.000   0.953

  Using partial waves for P as LCAO basis

Li-setup:
  name: Lithium
  id: b73562207f97a71b6967473b66fe8b65
  Z: 3.0
  valence: 1
  core: 2
  charge: 0.0
  file: /home/modules/software/GPAW-setups/0.9.20000/Li.LDA.gz
  compensation charges: gauss, rc=0.33, lmax=2
  cutoffs: 1.91(filt), 2.55(core),
  valence states:
                energy  radius
    2s(1.00)    -2.874   1.058
    2p(0.00)    -1.126   1.058
    *s          24.338   1.058

  Using partial waves for Li as LCAO basis

Reference energy: -196157.275402

Spin-polarized calculation.
Magnetic moment: 0.000000

Convergence criteria:
  Maximum total energy change: 0.0005 eV / electron
  Maximum integral of absolute density change: 0.0001 electrons
  Maximum integral of absolute eigenstate change: 4e-08 eV^2
  Maximum change in atomic force: 1e-06 eV / Ang
  Maximum number of iterations: 333

Symmetries present (total): 1

  ( 1  0  0)
  ( 0  1  0)
  ( 0  0  1)

144 k-points: 6 x 6 x 4 Monkhorst-Pack grid
144 k-points in the irreducible part of the Brillouin zone
       k-points in crystal coordinates                weights
   0:    -0.41666667   -0.41666667   -0.37500000          1/144
   1:    -0.41666667   -0.41666667   -0.12500000          1/144
   2:    -0.41666667   -0.41666667    0.12500000          1/144
   3:    -0.41666667   -0.41666667    0.37500000          1/144
   4:    -0.41666667   -0.25000000   -0.37500000          1/144
   5:    -0.41666667   -0.25000000   -0.12500000          1/144
   6:    -0.41666667   -0.25000000    0.12500000          1/144
   7:    -0.41666667   -0.25000000    0.37500000          1/144
   8:    -0.41666667   -0.08333333   -0.37500000          1/144
   9:    -0.41666667   -0.08333333   -0.12500000          1/144
          ...
 143:     0.41666667    0.41666667    0.37500000          1/144

Wave functions: Plane wave expansion
  Cutoff energy: 600.000 eV
  Number of coefficients (min, max): 9132, 9161
  Pulay-stress correction: 0.000000 eV/Ang^3 (de/decut=0.000000)
  Using FFTW library
  ScaLapack parameters: grid=1x1, blocksize=None
  Wavefunction extrapolation:
    Improved wavefunction reuse through dual PAW basis 

  Fermi-Dirac: width=0.0010 eV

Eigensolver
   Davidson(niter=2, smin=None, normalize=True) 

Densities:
  Coarse grid: 60*35*27 grid
  Fine grid: 120*70*54 grid
  Total Charge: 0.000000 

Density mixing:
  Method: difference
  Backend: pulay
  Linear mixing parameter: 0.05
  Mixing with 5 old densities
  Damping of long wave oscillations: 50 

Hamiltonian:
  XC and Coulomb potentials evaluated on a 120*70*54 grid
  Using the LDA Exchange-Correlation functional
 

Memory estimate:
  Process memory now: 12772.51 MiB
  Calculator: 322.47 MiB
    Density: 9.62 MiB
      Arrays: 3.79 MiB
      Localized functions: 4.27 MiB
      Mixer: 1.56 MiB
    Hamiltonian: 2.94 MiB
      Arrays: 2.82 MiB
      XC: 0.00 MiB
      Poisson: 0.00 MiB
      vbar: 0.12 MiB
    Wavefunctions: 309.91 MiB
      Arrays psit_nG: 281.81 MiB
      Eigensolver: 18.27 MiB
      Projections: 2.71 MiB
      Projectors: 4.40 MiB
      PW-descriptor: 2.71 MiB

Total number of cores used: 64
Parallelization over k-points: 16
Domain decomposition: 2 x 2 x 1

Number of atoms: 28
Number of atomic orbitals: 148
Number of bands in calculation: 112
Number of valence electrons: 180
Bands to converge: occupied

... initialized

Initializing position-dependent things.

Density initialized from atomic densities
Creating initial wave functions:
  112 bands from LCAO basis set

                                           
                                           
                                           
                                           
                                           
               O     O  P  O               
            PO           OMn     O         
                  O          MO            
            O        Li O                  
             Mn  Mn          OP            
         O       O Li O                    
         Li     O P         O              
       Li                                  
                                           
                                           
                                           
                                           

Positions:
   0 O     -1.280122   -2.495595   -1.112331    ( 0.0000,  0.0000,  0.0000)
   1 O     -3.023238    2.918858    1.191723    ( 0.0000,  0.0000,  0.0000)
   2 O      1.997451    0.467212    1.441442    ( 0.0000,  0.0000,  0.0000)
   3 O      3.740343   -0.043905   -0.862614    ( 0.0000,  0.0000,  0.0000)
   4 O      1.997419    2.918835    1.441465    ( 0.0000,  0.0000,  0.0000)
   5 O      3.740372   -2.495531   -0.862587    ( 0.0000,  0.0000,  0.0000)
   6 O     -1.280154   -0.043891   -1.112309    ( 0.0000,  0.0000,  0.0000)
   7 O     -3.023210    0.467136    1.191750    ( 0.0000,  0.0000,  0.0000)
   8 O     -4.147405   -1.269737   -0.856207    ( 0.0000,  0.0000,  0.0000)
   9 O     -0.155894    1.692986    1.447725    ( 0.0000,  0.0000,  0.0000)
  10 O      4.864578    1.693016    1.185324    ( 0.0000,  0.0000,  0.0000)
  11 O      0.873163   -1.269706   -1.118625    ( 0.0000,  0.0000,  0.0000)
  12 Mn    -2.437108   -1.269902    0.302197    ( 0.0000,  0.0000,  1.0000)
  13 Mn    -1.866187    1.693156   -2.001927    ( 0.0000,  0.0000, -1.0000)
  14 Mn     3.154299    1.693181    0.026917    ( 0.0000,  0.0000, -1.0000)
  15 Mn     2.583444   -1.279877    2.331074    ( 0.0000,  0.0000,  1.0000)
  16 P     -0.543052   -1.269720   -1.734187    ( 0.0000,  0.0000,  0.0000)
  17 P     -3.760282    1.692974    0.569859    ( 0.0000,  0.0000,  0.0000)
  18 P      1.260300    1.693000    2.063344    ( 0.0000,  0.0000,  0.0000)
  19 P      4.477470   -1.269695   -0.240696    ( 0.0000,  0.0000,  0.0000)
  20 O     -0.544413   -1.269738    1.348523    ( 0.0000,  0.0000,  0.0000)
  21 O     -3.758895    1.692992   -0.955558    ( 0.0000,  0.0000,  0.0000)
  22 O      1.261690    1.693018   -1.019367    ( 0.0000,  0.0000,  0.0000)
  23 O      4.476045   -1.269713    1.284716    ( 0.0000,  0.0000,  0.0000)
  24 Li    -4.662027   -2.751322   -2.139440    ( 0.0000,  0.0000,  0.0000)
  25 Li     0.358703   -2.751277    0.164614    ( 0.0000,  0.0000,  0.0000)
  26 Li    -4.662011    0.211617   -2.139439    ( 0.0000,  0.0000,  0.0000)
  27 Li     0.358720    0.211628    0.164615    ( 0.0000,  0.0000,  0.0000)

Unit cell:
           periodic     x           y           z      points  spacing
  1. axis:    yes   10.041096    0.000054   -0.000022    60     0.1674
  2. axis:    yes    0.000032    5.925857    0.000001    35     0.1693
  3. axis:    yes   -0.000010    0.000001    4.608134    27     0.1707

  Lengths:  10.041096   5.925857   4.608134
  Angles:   89.999974  90.000250  89.999381

Effective grid spacing dv^(1/3) = 0.1691

                     log10-error:           total        iterations:
           time      wfs    density  force  energy       poisson  magmom
iter:   1  23:51:36                       -233.730033             +0.0000
iter:   2  23:51:55  -0.47  -0.95         -231.549868             +0.0011
iter:   3  23:52:15  -0.61  -1.00         -220.801377             +0.0012
iter:   4  23:52:35  -1.19  -1.31         -220.862947             +0.3170
iter:   5  23:52:54  -2.11  -1.40         -222.919806             +0.1709
iter:   6  23:53:14  -2.12  -1.38         -223.848033             +0.3324
iter:   7  23:53:34  -2.13  -1.51         -223.853720             -0.2549
iter:   8  23:53:54  -2.50  -1.63         -225.350068             -0.7155
iter:   9  23:54:13  -2.64  -1.88         -226.244179             -0.1911
iter:  10  23:54:33  -2.17  -1.97         -226.331020             +0.0652
iter:  11  23:54:53  -2.39  -2.12         -226.308811             +0.0123
iter:  12  23:55:12  -2.85  -2.26         -226.255354             +0.0300
iter:  13  23:55:32  -2.88  -2.50         -226.189718             -0.0011
iter:  14  23:55:52  -3.25  -2.81         -226.179480             +0.0029
iter:  15  23:56:12  -3.63  -3.05         -226.179795             +0.0011
iter:  16  23:56:31  -4.92  -3.33         -226.177801             +0.0005
iter:  17  23:56:51  -4.72  -3.38         -226.175332             +0.0000
iter:  18  23:57:11  -5.36  -3.43         -226.175539             +0.0001
iter:  19  23:57:30  -5.30  -3.50         -226.175218             +0.0000
iter:  20  23:57:50  -5.16  -3.54         -226.175014             +0.0000
iter:  21  23:58:10  -5.88  -3.62         -226.174981             +0.0000
iter:  22  23:58:29  -5.87  -3.65         -226.174907             -0.0000
iter:  23  23:58:49  -6.20  -3.84         -226.174948             -0.0000
iter:  24  23:59:09  -6.67  -3.89         -226.174937             -0.0000
iter:  25  23:59:28  -6.72  -3.97         -226.174918             -0.0000
iter:  26  23:59:48  -6.15  -4.04         -226.174906             -0.0000
iter:  27  00:00:08  -6.83  -4.21         -226.174912             -0.0000
iter:  28  00:00:27  -6.89  -4.30         -226.174899             -0.0000
iter:  29  00:00:52  -7.56  -4.49         -226.174898             -0.0000
iter:  30  00:01:16  -7.51  -4.62    -2.41-226.174897             -0.0000
iter:  31  00:01:40  -8.11  -4.67    -2.52-226.174896             -0.0000
iter:  32  00:02:05  -7.60  -4.75    -2.85-226.174896             -0.0000
iter:  33  00:02:29  -7.81  -4.81    -2.64-226.174895             -0.0000
iter:  34  00:02:54  -8.33  -4.86    -2.68-226.174894             -0.0000
iter:  35  00:03:18  -8.20  -5.00    -2.93-226.174894             -0.0000
iter:  36  00:03:42  -8.94  -5.51    -3.69-226.174894             -0.0000
iter:  37  00:04:07  -9.70  -5.54    -3.71-226.174894             -0.0000
iter:  38  00:04:31  -9.14  -5.63    -3.65-226.174894             -0.0000
iter:  39  00:04:55  -9.59  -5.83    -3.90-226.174894             -0.0000
iter:  40  00:05:20  -9.82  -5.92    -3.59-226.174894             -0.0000
iter:  41  00:05:44 -10.44  -6.03    -4.50-226.174894             -0.0000
iter:  42  00:06:08 -10.39  -6.08    -3.51-226.174894             +0.0000
iter:  43  00:06:33 -10.51  -6.41    -4.15-226.174894             +0.0000
iter:  44  00:06:57 -11.72  -6.63    -4.86-226.174894             +0.0000
iter:  45  00:07:21 -11.03  -6.64    -4.42-226.174894             +0.0000
iter:  46  00:07:46 -10.97  -6.73    -4.28-226.174894             -0.0000
iter:  47  00:08:10 -12.25  -6.99    -4.69-226.174894             -0.0000
iter:  48  00:08:34 -12.03  -7.19    -4.98-226.174894             -0.0000
iter:  49  00:08:59 -11.97  -7.23    -4.61-226.174894             -0.0000
iter:  50  00:09:23 -13.06  -7.56    -5.46-226.174894             -0.0000
iter:  51  00:09:47 -12.98  -7.65    -5.22-226.174894             -0.0000
iter:  52  00:10:12 -13.21  -7.76    -5.32-226.174894             -0.0000
iter:  53  00:10:36 -14.13  -8.06    -5.86-226.174894             -0.0000
iter:  54  00:11:00 -13.80  -8.18    -5.79-226.174894             -0.0000
iter:  55  00:11:24 -14.64  -8.43    -6.25-226.174894             -0.0000

Converged after 55 iterations.

Dipole moment: (18.327098, -2.332826, -4.524282) |e|*Ang

Total magnetic moment: (0.000000, 0.000000, -0.000000)
Local magnetic moments:
   0 O  ( 0.000000,  0.000000, -0.001823)
   1 O  ( 0.000000,  0.000000,  0.001806)
   2 O  ( 0.000000,  0.000000,  0.001285)
   3 O  ( 0.000000,  0.000000, -0.002235)
   4 O  ( 0.000000,  0.000000,  0.002337)
   5 O  ( 0.000000,  0.000000, -0.001381)
   6 O  ( 0.000000,  0.000000, -0.001799)
   7 O  ( 0.000000,  0.000000,  0.001816)
   8 O  ( 0.000000,  0.000000,  0.031098)
   9 O  ( 0.000000,  0.000000, -0.031096)
  10 O  ( 0.000000,  0.000000, -0.031096)
  11 O  ( 0.000000,  0.000000,  0.031098)
  12 Mn ( 0.000000,  0.000000,  4.395765)
  13 Mn ( 0.000000,  0.000000, -4.395782)
  14 Mn ( 0.000000,  0.000000, -4.395726)
  15 Mn ( 0.000000,  0.000000,  4.395689)
  16 P  ( 0.000000,  0.000000,  0.000865)
  17 P  ( 0.000000,  0.000000, -0.000864)
  18 P  ( 0.000000,  0.000000, -0.000867)
  19 P  ( 0.000000,  0.000000,  0.000872)
  20 O  ( 0.000000,  0.000000,  0.028417)
  21 O  ( 0.000000,  0.000000, -0.028416)
  22 O  ( 0.000000,  0.000000, -0.028419)
  23 O  ( 0.000000,  0.000000,  0.028422)
  24 Li ( 0.000000,  0.000000, -0.000007)
  25 Li ( 0.000000,  0.000000,  0.000006)
  26 Li ( 0.000000,  0.000000,  0.000007)
  27 Li ( 0.000000,  0.000000, -0.000005)

Energy contributions relative to reference atoms: (reference = -196157.275402)

Kinetic:       +277.628292
Potential:     -240.970056
External:        +0.000000
XC:            -264.721541
Entropy (-ST):   -0.000000
Local:           +1.888410
--------------------------
Free energy:   -226.174894
Extrapolated:  -226.174894

Spin contamination: 9.455303 electrons
Showing only first 2 kpts
                      Up                     Down
 Kpt  Band  Eigenvalues  Occupancy  Eigenvalues  Occupancy
  0    88      6.53103    0.00694      6.53058    0.00694
  0    89      6.56402    0.00694      6.56402    0.00694
  0    90      8.42666    0.00000      8.42671    0.00000
  0    91      8.44828    0.00000      8.44842    0.00000

  1    88      6.56924    0.00694      6.56898    0.00694
  1    89      6.59625    0.00694      6.59599    0.00694
  1    90      8.38299    0.00000      8.38310    0.00000
  1    91      8.40516    0.00000      8.40525    0.00000


Fermi level: 7.67750

Gap: 1.699 eV
Transition (v -> c):
  (s=0, k=70, n=89, [-0.08, 0.42, 0.12]) -> (s=0, k=62, n=90, [-0.08, 0.08, 0.12])
Writing to born-0.01-15y-.gpw (mode='all')

Timing:                              incl.     excl.
-----------------------------------------------------------
Hamiltonian:                         0.218     0.002   0.0% |
 Atomic:                             0.054     0.054   0.0% |
  XC Correction:                     0.000     0.000   0.0% |
 Calculate atomic Hamiltonians:      0.075     0.075   0.0% |
 Communicate:                        0.002     0.002   0.0% |
 Initialize Hamiltonian:             0.000     0.000   0.0% |
 Poisson:                            0.001     0.001   0.0% |
 XC 3D grid:                         0.083     0.083   0.0% |
LCAO initialization:                69.921     0.646   0.0% |
 LCAO eigensolver:                  19.623     0.002   0.0% |
  Calculate projections:             0.029     0.029   0.0% |
  DenseAtomicCorrection:             0.046     0.046   0.0% |
  Distribute overlap matrix:         0.040     0.040   0.0% |
  Orbital Layouts:                   0.432     0.432   0.0% |
  Potential matrix:                 18.985    18.985   0.6% |
  Sum over cells:                    0.089     0.089   0.0% |
 LCAO to grid:                      48.314    48.314   1.5% ||
 Set positions (LCAO WFS):           1.338     0.213   0.0% |
  Basic WFS set positions:           0.001     0.001   0.0% |
  Basis functions set positions:     0.000     0.000   0.0% |
  P tci:                             0.524     0.524   0.0% |
  ST tci:                            0.383     0.383   0.0% |
  mktci:                             0.216     0.216   0.0% |
PWDescriptor:                        0.023     0.023   0.0% |
SCF-cycle:                        1211.044     2.088   0.1% |
 Davidson:                        1027.837   314.784  10.0% |---|
  Apply H:                          71.346    69.288   2.2% ||
   HMM T:                            2.059     2.059   0.1% |
  Subspace diag:                   149.199     0.157   0.0% |
   calc_h_matrix:                   95.917    24.811   0.8% |
    Apply H:                        71.105    69.032   2.2% ||
     HMM T:                          2.073     2.073   0.1% |
   diagonalize:                      7.527     7.527   0.2% |
   rotate_psi:                      45.598    45.598   1.4% ||
  calc. matrices:                  307.394   168.074   5.3% |-|
   Apply H:                        139.320   135.451   4.3% |-|
    HMM T:                           3.869     3.869   0.1% |
  diagonalize:                      86.465    86.465   2.7% ||
  rotate_psi:                       98.650    98.650   3.1% ||
 Density:                           41.531     0.001   0.0% |
  Atomic density matrices:           0.854     0.854   0.0% |
  Mix:                               5.696     5.696   0.2% |
  Multipole moments:                 0.020     0.020   0.0% |
  Pseudo density:                   34.959    34.957   1.1% |
   Symmetrize density:               0.002     0.002   0.0% |
 Forces:                           125.782   125.782   4.0% |-|
 Hamiltonian:                       11.741     0.115   0.0% |
  Atomic:                            2.788     2.788   0.1% |
   XC Correction:                    0.000     0.000   0.0% |
  Calculate atomic Hamiltonians:     4.082     4.082   0.1% |
  Communicate:                       0.103     0.103   0.0% |
  Poisson:                           0.032     0.032   0.0% |
  XC 3D grid:                        4.622     4.622   0.1% |
 Orthonormalize:                     2.065     0.003   0.0% |
  calc_s_matrix:                     0.242     0.242   0.0% |
  inverse-cholesky:                  0.073     0.073   0.0% |
  projections:                       1.317     1.317   0.0% |
  rotate_psi_s:                      0.430     0.430   0.0% |
Set symmetry:                        0.000     0.000   0.0% |
Other:                            1877.581  1877.581  59.4% |-----------------------|
-----------------------------------------------------------
Total:                                      3158.787 100.0%

Memory usage: 12.51 GiB
Date: Thu Mar 25 00:42:41 2021
