
  ___ ___ ___ _ _ _  
 |   |   |_  | | | | 
 | | | | | . | | | | 
 |__ |  _|___|_____|  21.1.1b1
 |___|_|             

User:   madkru@g043.nifl.fysik.dtu.dk
Date:   Mon Mar 29 23:56:43 2021
Arch:   x86_64
Pid:    9629
Python: 3.8.6
gpaw:   /home/niflheim/madkru/venv_madkru/gpaw/gpaw (e6f0d78a31)
_gpaw:  /home/niflheim/madkru/venv_madkru/gpaw/build/lib.linux-x86_64-sandybridge-3.8/
        _gpaw.cpython-38-x86_64-linux-gnu.so (e6f0d78a31)
ase:    /home/niflheim/madkru/venv_madkru/ase/ase (version 3.22.0b1-4d5a73cb29)
numpy:  /home/modules/software/SciPy-bundle/2020.11-foss-2020b/lib/python3.8/site-packages/numpy (version 1.19.4)
scipy:  /home/modules/software/SciPy-bundle/2020.11-foss-2020b/lib/python3.8/site-packages/scipy (version 1.5.4)
libxc:  4.3.4
units:  Angstrom and eV
cores: 64
OpenMP: False
OMP_NUM_THREADS: 1

Input parameters:
  convergence: {bands: occupied,
                density: 0.0001,
                eigenstates: 4e-08,
                energy: 0.0005,
                forces: 1e-06}
  kpts: [6 6 4]
  mode: {ecut: 600.0,
         gammacentered: False,
         name: pw}
  occupations: {fixmagmom: False,
                name: fermi-dirac,
                width: 0.001}
  symmetry: {point_group: False,
             time_reversal: False}

System changes: positions, numbers, cell, pbc, initial_charges, initial_magmoms 

Initialize ...

O-setup:
  name: Oxygen
  id: 9b9d51c344dea68c822856295a461509
  Z: 8.0
  valence: 6
  core: 2
  charge: 0.0
  file: /home/modules/software/GPAW-setups/0.9.20000/O.LDA.gz
  compensation charges: gauss, rc=0.21, lmax=2
  cutoffs: 1.17(filt), 0.83(core),
  valence states:
                energy  radius
    2s(2.00)   -23.752   0.688
    2p(4.00)    -9.195   0.598
    *s           3.459   0.688
    *p          18.016   0.598
    *d           0.000   0.619

  Using partial waves for O as LCAO basis

Mn-setup:
  name: Manganese
  id: 0d715a8018be061a6e9ea6f2d364ac92
  Z: 25.0
  valence: 15
  core: 10
  charge: 0.0
  file: /home/modules/software/GPAW-setups/0.9.20000/Mn.LDA.gz
  compensation charges: gauss, rc=0.38, lmax=2
  cutoffs: 2.14(filt), 0.86(core),
  valence states:
                energy  radius
    3s(2.00)   -85.387   1.275
    4s(2.00)    -5.282   1.275
    3p(6.00)   -54.493   1.281
    4p(0.00)    -1.471   1.281
    3d(5.00)    -7.009   1.138
    *d          20.203   1.138

  Using partial waves for Mn as LCAO basis

P-setup:
  name: Phosphorus
  id: a5561c299094968922a179ab894d2e2d
  Z: 15.0
  valence: 5
  core: 10
  charge: 0.0
  file: /home/modules/software/GPAW-setups/0.9.20000/P.LDA.gz
  compensation charges: gauss, rc=0.30, lmax=2
  cutoffs: 1.69(filt), 1.81(core),
  valence states:
                energy  radius
    3s(2.00)   -14.015   0.953
    3p(3.00)    -5.596   0.953
    *s          13.197   0.953
    *p          21.615   0.953
    *d           0.000   0.953

  Using partial waves for P as LCAO basis

Li-setup:
  name: Lithium
  id: b73562207f97a71b6967473b66fe8b65
  Z: 3.0
  valence: 1
  core: 2
  charge: 0.0
  file: /home/modules/software/GPAW-setups/0.9.20000/Li.LDA.gz
  compensation charges: gauss, rc=0.33, lmax=2
  cutoffs: 1.91(filt), 2.55(core),
  valence states:
                energy  radius
    2s(1.00)    -2.874   1.058
    2p(0.00)    -1.126   1.058
    *s          24.338   1.058

  Using partial waves for Li as LCAO basis

Reference energy: -196157.275402

Spin-polarized calculation.
Magnetic moment: 0.000000

Convergence criteria:
  Maximum total energy change: 0.0005 eV / electron
  Maximum integral of absolute density change: 0.0001 electrons
  Maximum integral of absolute eigenstate change: 4e-08 eV^2
  Maximum change in atomic force: 1e-06 eV / Ang
  Maximum number of iterations: 333

Symmetries present (total): 1

  ( 1  0  0)
  ( 0  1  0)
  ( 0  0  1)

144 k-points: 6 x 6 x 4 Monkhorst-Pack grid
144 k-points in the irreducible part of the Brillouin zone
       k-points in crystal coordinates                weights
   0:    -0.41666667   -0.41666667   -0.37500000          1/144
   1:    -0.41666667   -0.41666667   -0.12500000          1/144
   2:    -0.41666667   -0.41666667    0.12500000          1/144
   3:    -0.41666667   -0.41666667    0.37500000          1/144
   4:    -0.41666667   -0.25000000   -0.37500000          1/144
   5:    -0.41666667   -0.25000000   -0.12500000          1/144
   6:    -0.41666667   -0.25000000    0.12500000          1/144
   7:    -0.41666667   -0.25000000    0.37500000          1/144
   8:    -0.41666667   -0.08333333   -0.37500000          1/144
   9:    -0.41666667   -0.08333333   -0.12500000          1/144
          ...
 143:     0.41666667    0.41666667    0.37500000          1/144

Wave functions: Plane wave expansion
  Cutoff energy: 600.000 eV
  Number of coefficients (min, max): 9132, 9161
  Pulay-stress correction: 0.000000 eV/Ang^3 (de/decut=0.000000)
  Using FFTW library
  ScaLapack parameters: grid=1x1, blocksize=None
  Wavefunction extrapolation:
    Improved wavefunction reuse through dual PAW basis 

  Fermi-Dirac: width=0.0010 eV

Eigensolver
   Davidson(niter=2) 

Densities:
  Coarse grid: 60*35*27 grid
  Fine grid: 120*70*54 grid
  Total Charge: 0.000000 

Density mixing:
  Method: difference
  Backend: pulay
  Linear mixing parameter: 0.05
  Mixing with 5 old densities
  Damping of long wave oscillations: 50 

Hamiltonian:
  XC and Coulomb potentials evaluated on a 120*70*54 grid
  Using the LDA Exchange-Correlation functional
 

Memory estimate:
  Process memory now: 12370.08 MiB
  Calculator: 322.47 MiB
    Density: 9.62 MiB
      Arrays: 3.79 MiB
      Localized functions: 4.27 MiB
      Mixer: 1.56 MiB
    Hamiltonian: 2.94 MiB
      Arrays: 2.82 MiB
      XC: 0.00 MiB
      Poisson: 0.00 MiB
      vbar: 0.12 MiB
    Wavefunctions: 309.91 MiB
      Arrays psit_nG: 281.81 MiB
      Eigensolver: 18.27 MiB
      Projections: 2.71 MiB
      Projectors: 4.40 MiB
      PW-descriptor: 2.71 MiB

Total number of cores used: 64
Parallelization over k-points: 16
Domain decomposition: 2 x 2 x 1

Number of atoms: 28
Number of atomic orbitals: 148
Number of bands in calculation: 112
Number of valence electrons: 180
Bands to converge: occupied

... initialized

Initializing position-dependent things.

Density initialized from atomic densities
Creating initial wave functions:
  112 bands from LCAO basis set

                                           
                                           
                                           
                                           
                                           
               O     O  P  O               
            PO           OMn     O         
                  O          MO            
            O        Li O                  
             Mn  Mn          OP            
         O       O Li O                    
         Li     O P         O              
       Li                                  
                                           
                                           
                                           
                                           

Positions:
   0 O     -1.280122   -2.495595   -1.112331    ( 0.0000,  0.0000,  0.0000)
   1 O     -3.023238    2.918858    1.191723    ( 0.0000,  0.0000,  0.0000)
   2 O      1.997451    0.467212    1.441442    ( 0.0000,  0.0000,  0.0000)
   3 O      3.740343   -0.043905   -0.862614    ( 0.0000,  0.0000,  0.0000)
   4 O      1.997419    2.918835    1.441465    ( 0.0000,  0.0000,  0.0000)
   5 O      3.740372   -2.495531   -0.862587    ( 0.0000,  0.0000,  0.0000)
   6 O     -1.280154   -0.043891   -1.112309    ( 0.0000,  0.0000,  0.0000)
   7 O     -3.023210    0.467136    1.191750    ( 0.0000,  0.0000,  0.0000)
   8 O     -4.147405   -1.269737   -0.856207    ( 0.0000,  0.0000,  0.0000)
   9 O     -0.155894    1.692986    1.447725    ( 0.0000,  0.0000,  0.0000)
  10 O      4.864578    1.693016    1.185324    ( 0.0000,  0.0000,  0.0000)
  11 O      0.873163   -1.269706   -1.118625    ( 0.0000,  0.0000,  0.0000)
  12 Mn    -2.437108   -1.269902    0.302197    ( 0.0000,  0.0000,  1.0000)
  13 Mn    -1.866187    1.693156   -2.001927    ( 0.0000,  0.0000, -1.0000)
  14 Mn     3.154299    1.693181    0.026917    ( 0.0000,  0.0000, -1.0000)
  15 Mn     2.583444   -1.269877    2.331074    ( 0.0000,  0.0000,  1.0000)
  16 P     -0.543052   -1.269720   -1.734187    ( 0.0000,  0.0000,  0.0000)
  17 P     -3.760282    1.692974    0.569859    ( 0.0000,  0.0000,  0.0000)
  18 P      1.260300    1.693000    2.063344    ( 0.0000,  0.0000,  0.0000)
  19 P      4.477470   -1.269695   -0.240696    ( 0.0000,  0.0000,  0.0000)
  20 O     -0.544413   -1.269738    1.348523    ( 0.0000,  0.0000,  0.0000)
  21 O     -3.758895    1.692992   -0.955558    ( 0.0000,  0.0000,  0.0000)
  22 O      1.261690    1.693018   -1.019367    ( 0.0000,  0.0000,  0.0000)
  23 O      4.476045   -1.269713    1.284716    ( 0.0000,  0.0000,  0.0000)
  24 Li    -4.662027   -2.751322   -2.139440    ( 0.0000,  0.0000,  0.0000)
  25 Li     0.358703   -2.751277    0.164614    ( 0.0000,  0.0000,  0.0000)
  26 Li    -4.662011    0.211617   -2.139439    ( 0.0000,  0.0000,  0.0000)
  27 Li     0.358720    0.211628    0.154615    ( 0.0000,  0.0000,  0.0000)

Unit cell:
           periodic     x           y           z      points  spacing
  1. axis:    yes   10.041096    0.000054   -0.000022    60     0.1674
  2. axis:    yes    0.000032    5.925857    0.000001    35     0.1693
  3. axis:    yes   -0.000010    0.000001    4.608134    27     0.1707

  Lengths:  10.041096   5.925857   4.608134
  Angles:   89.999974  90.000250  89.999381

Effective grid spacing dv^(1/3) = 0.1691

                     log10-error:           total        iterations:
           time      wfs    density  force  energy       poisson  magmom
iter:   1  23:58:27                       -233.730189             +0.0000
iter:   2  23:58:47  -0.47  -0.95         -231.549942             +0.0026
iter:   3  23:59:07  -0.61  -1.00         -220.810018             +0.0027
iter:   4  23:59:27  -1.20  -1.31         -221.094454             +0.3949
iter:   5  23:59:47  -2.14  -1.39         -222.691740             +0.2210
iter:   6  00:00:07  -2.22  -1.38         -223.746402             +0.2055
iter:   7  00:00:28  -2.20  -1.53         -223.887151             -0.1851
iter:   8  00:00:47  -2.55  -1.68         -225.702879             -0.5752
iter:   9  00:01:07  -2.22  -1.92         -226.371907             -0.2486
iter:  10  00:01:27  -2.21  -2.05         -226.302725             -0.0937
iter:  11  00:01:47  -2.82  -2.21         -226.319995             -0.0247
iter:  12  00:02:07  -2.66  -2.25         -226.212740             +0.0134
iter:  13  00:02:27  -2.98  -2.61         -226.216560             -0.0036
iter:  14  00:02:47  -3.16  -2.84         -226.173707             +0.0095
iter:  15  00:03:08  -3.84  -3.10         -226.178564             +0.0011
iter:  16  00:03:28  -4.88  -3.29         -226.177269             -0.0000
iter:  17  00:03:48  -5.47  -3.33         -226.176372             -0.0001
iter:  18  00:04:07  -5.07  -3.37         -226.175465             -0.0000
iter:  19  00:04:27  -4.58  -3.41         -226.175852             -0.0000
iter:  20  00:04:47  -5.84  -3.49         -226.175475             -0.0000
iter:  21  00:05:07  -5.19  -3.55         -226.175361             +0.0000
iter:  22  00:05:27  -6.18  -3.66         -226.175340             +0.0000
iter:  23  00:05:47  -5.97  -3.71         -226.175290             -0.0000
iter:  24  00:06:07  -6.83  -3.76         -226.175276             +0.0000
iter:  25  00:06:27  -5.43  -3.79         -226.175451             +0.0000
iter:  26  00:06:47  -6.39  -3.99         -226.175395             +0.0000
iter:  27  00:07:07  -6.42  -4.03         -226.175296             -0.0000
iter:  28  00:07:27  -6.33  -4.10         -226.175235             -0.0000
iter:  29  00:07:47  -6.17  -4.15         -226.175214             -0.0000
iter:  30  00:08:07  -6.91  -4.21         -226.175213             -0.0000
iter:  31  00:08:32  -7.42  -4.43         -226.175216             +0.0000
iter:  32  00:08:57  -7.92  -4.78    -3.41-226.175217             +0.0000
iter:  33  00:09:22  -8.12  -4.85    -3.14-226.175217             -0.0000
iter:  34  00:09:46  -8.25  -4.97    -2.68-226.175216             -0.0000
iter:  35  00:10:11  -8.19  -5.21    -2.88-226.175215             -0.0000
iter:  36  00:10:36  -8.08  -5.37    -3.06-226.175215             -0.0000
iter:  37  00:11:01  -8.58  -5.69    -3.47-226.175215             -0.0000
iter:  38  00:11:26  -9.29  -5.91    -3.81-226.175215             -0.0000
iter:  39  00:11:51  -9.48  -5.93    -3.79-226.175215             -0.0000
iter:  40  00:12:16 -10.28  -6.04    -3.77-226.175215             -0.0000
iter:  41  00:12:41 -11.07  -6.21    -4.46-226.175215             -0.0000
iter:  42  00:13:06 -10.64  -6.26    -4.23-226.175215             -0.0000
iter:  43  00:13:31 -10.74  -6.37    -4.16-226.175215             -0.0000
iter:  44  00:13:56 -11.57  -6.65    -4.30-226.175215             -0.0000
iter:  45  00:14:21 -11.01  -6.76    -4.40-226.175215             -0.0000
iter:  46  00:14:46 -12.38  -6.96    -4.82-226.175215             -0.0000
iter:  47  00:15:11 -11.50  -7.01    -4.66-226.175215             -0.0000
iter:  48  00:15:36 -12.51  -7.16    -5.27-226.175215             -0.0000
iter:  49  00:16:01 -11.99  -7.24    -4.91-226.175215             -0.0000
iter:  50  00:16:25 -13.15  -7.56    -5.26-226.175215             -0.0000
iter:  51  00:16:50 -13.99  -7.68    -5.92-226.175215             -0.0000
iter:  52  00:17:15 -14.14  -7.72    -5.89-226.175215             -0.0000
iter:  53  00:17:40 -13.57  -7.78    -5.71-226.175215             -0.0000
iter:  54  00:18:05 -14.52  -7.89    -6.30-226.175215             -0.0000

Converged after 54 iterations.

Dipole moment: (18.326273, -2.307451, -4.474929) |e|*Ang

Total magnetic moment: (0.000000, 0.000000, -0.000000)
Local magnetic moments:
   0 O  ( 0.000000,  0.000000, -0.001803)
   1 O  ( 0.000000,  0.000000,  0.001809)
   2 O  ( 0.000000,  0.000000,  0.001806)
   3 O  ( 0.000000,  0.000000, -0.001807)
   4 O  ( 0.000000,  0.000000,  0.001810)
   5 O  ( 0.000000,  0.000000, -0.001804)
   6 O  ( 0.000000,  0.000000, -0.001818)
   7 O  ( 0.000000,  0.000000,  0.001816)
   8 O  ( 0.000000,  0.000000,  0.031095)
   9 O  ( 0.000000,  0.000000, -0.031142)
  10 O  ( 0.000000,  0.000000, -0.031099)
  11 O  ( 0.000000,  0.000000,  0.031051)
  12 Mn ( 0.000000,  0.000000,  4.395796)
  13 Mn ( 0.000000,  0.000000, -4.395772)
  14 Mn ( 0.000000,  0.000000, -4.395706)
  15 Mn ( 0.000000,  0.000000,  4.395763)
  16 P  ( 0.000000,  0.000000,  0.000867)
  17 P  ( 0.000000,  0.000000, -0.000864)
  18 P  ( 0.000000,  0.000000, -0.000870)
  19 P  ( 0.000000,  0.000000,  0.000870)
  20 O  ( 0.000000,  0.000000,  0.028436)
  21 O  ( 0.000000,  0.000000, -0.028410)
  22 O  ( 0.000000,  0.000000, -0.028401)
  23 O  ( 0.000000,  0.000000,  0.028425)
  24 Li ( 0.000000,  0.000000, -0.000000)
  25 Li ( 0.000000,  0.000000, -0.000002)
  26 Li ( 0.000000,  0.000000,  0.000000)
  27 Li ( 0.000000,  0.000000,  0.000012)

Energy contributions relative to reference atoms: (reference = -196157.275402)

Kinetic:       +277.625432
Potential:     -240.967604
External:        +0.000000
XC:            -264.721472
Entropy (-ST):   -0.000000
Local:           +1.888430
--------------------------
Free energy:   -226.175215
Extrapolated:  -226.175215

Spin contamination: 9.455315 electrons
Showing only first 2 kpts
                      Up                     Down
 Kpt  Band  Eigenvalues  Occupancy  Eigenvalues  Occupancy
  0    88      6.53048    1.00000      6.53051    1.00000
  0    89      6.56406    1.00000      6.56411    1.00000
  0    90      8.42667    0.00000      8.42683    0.00000
  0    91      8.44822    0.00000      8.44847    0.00000

  1    88      6.56891    1.00000      6.56897    1.00000
  1    89      6.59601    1.00000      6.59606    1.00000
  1    90      8.38309    0.00000      8.38308    0.00000
  1    91      8.40524    0.00000      8.40522    0.00000


Fermi level: 7.62114

Gap: 1.699 eV
Transition (v -> c):
  (s=1, k=70, n=89, [-0.08, 0.42, 0.12]) -> (s=1, k=86, n=90, [0.08, 0.08, 0.12])
Writing to born-0.01-27z-.gpw (mode='all')

Timing:                              incl.     excl.
-----------------------------------------------------------
Hamiltonian:                         0.235     0.002   0.0% |
 Atomic:                             0.056     0.056   0.0% |
  XC Correction:                     0.000     0.000   0.0% |
 Calculate atomic Hamiltonians:      0.085     0.085   0.0% |
 Communicate:                        0.000     0.000   0.0% |
 Initialize Hamiltonian:             0.000     0.000   0.0% |
 Poisson:                            0.001     0.001   0.0% |
 XC 3D grid:                         0.091     0.091   0.0% |
LCAO initialization:                79.464     0.674   0.0% |
 LCAO eigensolver:                  21.861     0.003   0.0% |
  Calculate projections:             0.029     0.029   0.0% |
  DenseAtomicCorrection:             0.043     0.043   0.0% |
  Distribute overlap matrix:         0.062     0.062   0.0% |
  Orbital Layouts:                   0.278     0.278   0.0% |
  Potential matrix:                 21.360    21.360   0.7% |
  Sum over cells:                    0.085     0.085   0.0% |
 LCAO to grid:                      55.577    55.577   1.8% ||
 Set positions (LCAO WFS):           1.352     0.194   0.0% |
  Basic WFS set positions:           0.001     0.001   0.0% |
  Basis functions set positions:     0.000     0.000   0.0% |
  P tci:                             0.531     0.531   0.0% |
  ST tci:                            0.398     0.398   0.0% |
  mktci:                             0.227     0.227   0.0% |
PWDescriptor:                        0.025     0.025   0.0% |
SCF-cycle:                        1201.043     3.869   0.1% |
 Davidson:                        1020.269   316.057  10.1% |---|
  Apply H:                          72.988    70.935   2.3% ||
   HMM T:                            2.054     2.054   0.1% |
  Subspace diag:                   148.704     0.154   0.0% |
   calc_h_matrix:                   96.814    24.913   0.8% |
    Apply H:                        71.901    69.986   2.2% ||
     HMM T:                          1.915     1.915   0.1% |
   diagonalize:                      5.639     5.639   0.2% |
   rotate_psi:                      46.097    46.097   1.5% ||
  calc. matrices:                  306.260   164.659   5.2% |-|
   Apply H:                        141.601   137.952   4.4% |-|
    HMM T:                           3.648     3.648   0.1% |
  diagonalize:                      84.141    84.141   2.7% ||
  rotate_psi:                       92.119    92.119   2.9% ||
 Density:                           42.101     0.001   0.0% |
  Atomic density matrices:           0.711     0.711   0.0% |
  Mix:                               6.860     6.860   0.2% |
  Multipole moments:                 0.020     0.020   0.0% |
  Pseudo density:                   34.509    34.507   1.1% |
   Symmetrize density:               0.002     0.002   0.0% |
 Forces:                           120.011   120.011   3.8% |-|
 Hamiltonian:                       12.700     0.110   0.0% |
  Atomic:                            3.014     3.013   0.1% |
   XC Correction:                    0.000     0.000   0.0% |
  Calculate atomic Hamiltonians:     4.565     4.565   0.1% |
  Communicate:                       0.057     0.057   0.0% |
  Poisson:                           0.046     0.046   0.0% |
  XC 3D grid:                        4.907     4.907   0.2% |
 Orthonormalize:                     2.093     0.003   0.0% |
  calc_s_matrix:                     0.244     0.244   0.0% |
  inverse-cholesky:                  0.040     0.040   0.0% |
  projections:                       1.361     1.361   0.0% |
  rotate_psi_s:                      0.445     0.445   0.0% |
Set symmetry:                        0.000     0.000   0.0% |
Other:                            1856.504  1856.504  59.2% |-----------------------|
-----------------------------------------------------------
Total:                                      3137.271 100.0%

Memory usage: 12.12 GiB
Date: Tue Mar 30 00:49:00 2021
