
  ___ ___ ___ _ _ _  
 |   |   |_  | | | | 
 | | | | | . | | | | 
 |__ |  _|___|_____|  20.10.1b1
 |___|_|             

User:   madkru@i013.nifl.fysik.dtu.dk
Date:   Mon Mar 22 03:46:21 2021
Arch:   x86_64
Pid:    27943
Python: 3.7.4
gpaw:   /home/niflheim/madkru/venv_folder/gpaw/gpaw (d0d1ca1c71)
_gpaw:  /home/niflheim/madkru/venv_folder/gpaw/build/lib.linux-x86_64-ivybridge-3.7/
        _gpaw.cpython-37m-x86_64-linux-gnu.so (4fd39e8b1e)
ase:    /home/niflheim/madkru/venv_folder/ase/ase (version 3.21.0b1-7e6c206a91)
numpy:  /home/niflheim/madkru/venv_folder/lib/python3.7/site-packages/numpy (version 1.19.4)
scipy:  /home/niflheim/madkru/venv_folder/lib/python3.7/site-packages/scipy (version 1.5.4)
libxc:  4.3.4
units:  Angstrom and eV
cores: 32
OMP_NUM_THREADS: 1

Input parameters:
  convergence: {bands: occupied,
                density: 0.0001,
                eigenstates: 4e-08,
                energy: 0.0005,
                forces: 1e-06}
  kpts: [6 6 4]
  mode: {ecut: 600.0,
         gammacentered: False,
         name: pw}
  occupations: {fixmagmom: False,
                name: fermi-dirac,
                width: 0.001}
  symmetry: {point_group: False,
             time_reversal: False}

System changes: positions, numbers, cell, pbc, initial_charges, initial_magmoms 

Initialize ...

O-setup:
  name: Oxygen
  id: 9b9d51c344dea68c822856295a461509
  Z: 8.0
  valence: 6
  core: 2
  charge: 0.0
  file: /home/modules/software/GPAW-setups/0.9.20000/O.LDA.gz
  compensation charges: gauss, rc=0.21, lmax=2
  cutoffs: 1.17(filt), 0.83(core),
  valence states:
                energy  radius
    2s(2.00)   -23.752   0.688
    2p(4.00)    -9.195   0.598
    *s           3.459   0.688
    *p          18.016   0.598
    *d           0.000   0.619

  Using partial waves for O as LCAO basis

Mn-setup:
  name: Manganese
  id: 0d715a8018be061a6e9ea6f2d364ac92
  Z: 25.0
  valence: 15
  core: 10
  charge: 0.0
  file: /home/modules/software/GPAW-setups/0.9.20000/Mn.LDA.gz
  compensation charges: gauss, rc=0.38, lmax=2
  cutoffs: 2.14(filt), 0.86(core),
  valence states:
                energy  radius
    3s(2.00)   -85.387   1.275
    4s(2.00)    -5.282   1.275
    3p(6.00)   -54.493   1.281
    4p(0.00)    -1.471   1.281
    3d(5.00)    -7.009   1.138
    *d          20.203   1.138

  Using partial waves for Mn as LCAO basis

P-setup:
  name: Phosphorus
  id: a5561c299094968922a179ab894d2e2d
  Z: 15.0
  valence: 5
  core: 10
  charge: 0.0
  file: /home/modules/software/GPAW-setups/0.9.20000/P.LDA.gz
  compensation charges: gauss, rc=0.30, lmax=2
  cutoffs: 1.69(filt), 1.81(core),
  valence states:
                energy  radius
    3s(2.00)   -14.015   0.953
    3p(3.00)    -5.596   0.953
    *s          13.197   0.953
    *p          21.615   0.953
    *d           0.000   0.953

  Using partial waves for P as LCAO basis

Li-setup:
  name: Lithium
  id: b73562207f97a71b6967473b66fe8b65
  Z: 3.0
  valence: 1
  core: 2
  charge: 0.0
  file: /home/modules/software/GPAW-setups/0.9.20000/Li.LDA.gz
  compensation charges: gauss, rc=0.33, lmax=2
  cutoffs: 1.91(filt), 2.55(core),
  valence states:
                energy  radius
    2s(1.00)    -2.874   1.058
    2p(0.00)    -1.126   1.058
    *s          24.338   1.058

  Using partial waves for Li as LCAO basis

Reference energy: -196157.275402

Spin-polarized calculation.
Magnetic moment: 0.000000

Convergence criteria:
  Maximum total energy change: 0.0005 eV / electron
  Maximum integral of absolute density change: 0.0001 electrons
  Maximum integral of absolute eigenstate change: 4e-08 eV^2
  Maximum change in atomic force: 1e-06 eV / Ang
  Maximum number of iterations: 333

Symmetries present (total): 1

  ( 1  0  0)
  ( 0  1  0)
  ( 0  0  1)

144 k-points: 6 x 6 x 4 Monkhorst-Pack grid
144 k-points in the irreducible part of the Brillouin zone
       k-points in crystal coordinates                weights
   0:    -0.41666667   -0.41666667   -0.37500000          1/144
   1:    -0.41666667   -0.41666667   -0.12500000          1/144
   2:    -0.41666667   -0.41666667    0.12500000          1/144
   3:    -0.41666667   -0.41666667    0.37500000          1/144
   4:    -0.41666667   -0.25000000   -0.37500000          1/144
   5:    -0.41666667   -0.25000000   -0.12500000          1/144
   6:    -0.41666667   -0.25000000    0.12500000          1/144
   7:    -0.41666667   -0.25000000    0.37500000          1/144
   8:    -0.41666667   -0.08333333   -0.37500000          1/144
   9:    -0.41666667   -0.08333333   -0.12500000          1/144
          ...
 143:     0.41666667    0.41666667    0.37500000          1/144

Wave functions: Plane wave expansion
  Cutoff energy: 600.000 eV
  Number of coefficients (min, max): 9132, 9161
  Pulay-stress correction: 0.000000 eV/Ang^3 (de/decut=0.000000)
  Using FFTW library
  ScaLapack parameters: grid=1x1, blocksize=None
  Wavefunction extrapolation:
    Improved wavefunction reuse through dual PAW basis 

  Fermi-Dirac: width=0.0010 eV

Eigensolver
   Davidson(niter=2, smin=None, normalize=True) 

Densities:
  Coarse grid: 60*35*27 grid
  Fine grid: 120*70*54 grid
  Total Charge: 0.000000 

Density mixing:
  Method: difference
  Backend: pulay
  Linear mixing parameter: 0.05
  Mixing with 5 old densities
  Damping of long wave oscillations: 50 

Hamiltonian:
  XC and Coulomb potentials evaluated on a 120*70*54 grid
  Using the LDA Exchange-Correlation functional
 

Memory estimate:
  Process memory now: 12930.97 MiB
  Calculator: 342.26 MiB
    Density: 19.13 MiB
      Arrays: 7.57 MiB
      Localized functions: 8.54 MiB
      Mixer: 3.03 MiB
    Hamiltonian: 5.87 MiB
      Arrays: 5.62 MiB
      XC: 0.00 MiB
      Poisson: 0.00 MiB
      vbar: 0.25 MiB
    Wavefunctions: 317.25 MiB
      Arrays psit_nG: 281.81 MiB
      Eigensolver: 18.27 MiB
      Projections: 5.41 MiB
      Projectors: 8.81 MiB
      PW-descriptor: 2.95 MiB

Total number of cores used: 32
Parallelization over k-points: 16
Domain decomposition: 2 x 1 x 1

Number of atoms: 28
Number of atomic orbitals: 148
Number of bands in calculation: 112
Number of valence electrons: 180
Bands to converge: occupied

... initialized

Initializing position-dependent things.

Density initialized from atomic densities
Creating initial wave functions:
  112 bands from LCAO basis set

                                           
                                           
                                           
                                           
                                           
               O     O  P  O               
            PO           OMn     O         
                  O          MO            
            O        Li O                  
             Mn  Mn          OP            
         O       O Li O                    
         Li     O P         O              
       Li                                  
                                           
                                           
                                           
                                           

Positions:
   0 O     -1.280122   -2.495595   -1.112331    ( 0.0000,  0.0000,  0.0000)
   1 O     -3.023238    2.918858    1.191723    ( 0.0000,  0.0000,  0.0000)
   2 O      1.997451    0.467212    1.441442    ( 0.0000,  0.0000,  0.0000)
   3 O      3.740343   -0.043905   -0.862614    ( 0.0000,  0.0000,  0.0000)
   4 O      1.997419    2.918835    1.441465    ( 0.0000,  0.0000,  0.0000)
   5 O      3.730372   -2.495531   -0.862587    ( 0.0000,  0.0000,  0.0000)
   6 O     -1.280154   -0.043891   -1.112309    ( 0.0000,  0.0000,  0.0000)
   7 O     -3.023210    0.467136    1.191750    ( 0.0000,  0.0000,  0.0000)
   8 O     -4.147405   -1.269737   -0.856207    ( 0.0000,  0.0000,  0.0000)
   9 O     -0.155894    1.692986    1.447725    ( 0.0000,  0.0000,  0.0000)
  10 O      4.864578    1.693016    1.185324    ( 0.0000,  0.0000,  0.0000)
  11 O      0.873163   -1.269706   -1.118625    ( 0.0000,  0.0000,  0.0000)
  12 Mn    -2.437108   -1.269902    0.302197    ( 0.0000,  0.0000,  1.0000)
  13 Mn    -1.866187    1.693156   -2.001927    ( 0.0000,  0.0000, -1.0000)
  14 Mn     3.154299    1.693181    0.026917    ( 0.0000,  0.0000, -1.0000)
  15 Mn     2.583444   -1.269877    2.331074    ( 0.0000,  0.0000,  1.0000)
  16 P     -0.543052   -1.269720   -1.734187    ( 0.0000,  0.0000,  0.0000)
  17 P     -3.760282    1.692974    0.569859    ( 0.0000,  0.0000,  0.0000)
  18 P      1.260300    1.693000    2.063344    ( 0.0000,  0.0000,  0.0000)
  19 P      4.477470   -1.269695   -0.240696    ( 0.0000,  0.0000,  0.0000)
  20 O     -0.544413   -1.269738    1.348523    ( 0.0000,  0.0000,  0.0000)
  21 O     -3.758895    1.692992   -0.955558    ( 0.0000,  0.0000,  0.0000)
  22 O      1.261690    1.693018   -1.019367    ( 0.0000,  0.0000,  0.0000)
  23 O      4.476045   -1.269713    1.284716    ( 0.0000,  0.0000,  0.0000)
  24 Li    -4.662027   -2.751322   -2.139440    ( 0.0000,  0.0000,  0.0000)
  25 Li     0.358703   -2.751277    0.164614    ( 0.0000,  0.0000,  0.0000)
  26 Li    -4.662011    0.211617   -2.139439    ( 0.0000,  0.0000,  0.0000)
  27 Li     0.358720    0.211628    0.164615    ( 0.0000,  0.0000,  0.0000)

Unit cell:
           periodic     x           y           z      points  spacing
  1. axis:    yes   10.041096    0.000054   -0.000022    60     0.1674
  2. axis:    yes    0.000032    5.925857    0.000001    35     0.1693
  3. axis:    yes   -0.000010    0.000001    4.608134    27     0.1707

  Lengths:  10.041096   5.925857   4.608134
  Angles:   89.999974  90.000250  89.999381

Effective grid spacing dv^(1/3) = 0.1691

                     log10-error:           total        iterations:
           time      wfs    density  force  energy       poisson  magmom
iter:   1  03:49:26                       -233.731174             +0.0000
iter:   2  03:50:02  -0.47  -0.95         -231.544885             +0.0029
iter:   3  03:50:38  -0.60  -1.00         -220.841372             +0.0029
iter:   4  03:51:14  -1.20  -1.30         -221.599676             +0.3908
iter:   5  03:51:50  -2.09  -1.38         -222.306495             +0.2245
iter:   6  03:52:27  -2.28  -1.40         -224.401255             +0.0099
iter:   7  03:53:03  -2.10  -1.49         -224.800540             -0.7345
iter:   8  03:53:39  -2.34  -1.60         -225.937226             -0.8160
iter:   9  03:54:15  -2.57  -1.88         -226.159053             -1.1989
iter:  10  03:54:52  -2.84  -2.08         -226.311742             -0.5227
iter:  11  03:55:28  -2.28  -2.12         -226.361802             +0.0183
iter:  12  03:56:04  -2.55  -2.25         -226.327422             -0.0278
iter:  13  03:56:40  -2.56  -2.45         -226.260521             -0.0037
iter:  14  03:57:16  -3.56  -2.65         -226.210865             -0.0059
iter:  15  03:57:53  -3.01  -2.80         -226.187144             -0.0023
iter:  16  03:58:29  -4.01  -3.07         -226.177521             -0.0011
iter:  17  03:59:05  -4.21  -3.10         -226.176023             -0.0003
iter:  18  03:59:41  -4.20  -3.12         -226.177548             -0.0001
iter:  19  04:00:17  -4.15  -3.18         -226.175870             -0.0001
iter:  20  04:00:54  -5.58  -3.26         -226.175513             -0.0000
iter:  21  04:01:30  -4.66  -3.30         -226.174927             +0.0000
iter:  22  04:02:06  -5.02  -3.39         -226.175062             -0.0000
iter:  23  04:02:42  -4.69  -3.43         -226.175190             +0.0000
iter:  24  04:03:19  -5.10  -3.72         -226.174792             -0.0000
iter:  25  04:03:55  -6.03  -4.06         -226.174773             +0.0000
iter:  26  04:04:31  -5.54  -4.11         -226.174730             -0.0000
iter:  27  04:05:07  -6.18  -4.40         -226.174701             +0.0000
iter:  28  04:05:44  -7.30  -4.53         -226.174702             -0.0000
iter:  29  04:06:20  -7.34  -4.57         -226.174701             -0.0000
iter:  30  04:06:56  -6.95  -4.65         -226.174695             -0.0000
iter:  31  04:07:42  -8.19  -4.76         -226.174695             -0.0000
iter:  32  04:08:27  -7.53  -4.79    -2.43-226.174695             -0.0000
iter:  33  04:09:03  -7.39  -4.93         -226.174695             -0.0000
iter:  34  04:09:49  -7.47  -4.97    -2.53-226.174694             -0.0000
iter:  35  04:10:34  -8.85  -5.35    -3.24-226.174694             -0.0000
iter:  36  04:11:20  -8.78  -5.39    -3.03-226.174694             -0.0000
iter:  37  04:12:05  -8.90  -5.53    -3.53-226.174694             -0.0000
iter:  38  04:12:51  -9.62  -5.69    -3.47-226.174694             -0.0000
iter:  39  04:13:36  -9.49  -5.79    -3.76-226.174694             -0.0000
iter:  40  04:14:22  -9.90  -5.86    -3.73-226.174694             -0.0000
iter:  41  04:15:07  -9.85  -6.00    -4.03-226.174694             -0.0000
iter:  42  04:15:53 -10.89  -6.08    -4.14-226.174694             -0.0000
iter:  43  04:16:38 -10.64  -6.14    -4.00-226.174694             -0.0000
iter:  44  04:17:23 -10.54  -6.30    -3.96-226.174694             -0.0000
iter:  45  04:18:09 -10.40  -6.44    -4.19-226.174694             -0.0000
iter:  46  04:18:54 -11.42  -6.59    -4.56-226.174694             -0.0000
iter:  47  04:19:39 -11.38  -6.74    -4.70-226.174694             -0.0000
iter:  48  04:20:25 -11.24  -6.81    -4.59-226.174694             -0.0000
iter:  49  04:21:10 -11.74  -6.98    -4.79-226.174694             -0.0000
iter:  50  04:21:56 -12.28  -7.02    -4.77-226.174694             -0.0000
iter:  51  04:22:41 -12.88  -7.08    -5.37-226.174694             -0.0000
iter:  52  04:23:26 -12.67  -7.13    -4.85-226.174694             -0.0000
iter:  53  04:24:12 -12.99  -7.24    -5.30-226.174694             -0.0000
iter:  54  04:24:57 -12.82  -7.30    -5.44-226.174694             -0.0000
iter:  55  04:25:43 -12.69  -7.38    -5.10-226.174694             -0.0000
iter:  56  04:26:28 -13.80  -7.64    -5.83-226.174694             -0.0000
iter:  57  04:27:13 -13.25  -7.68    -5.36-226.174694             -0.0000
iter:  58  04:27:59 -13.20  -7.82    -5.55-226.174694             -0.0000
iter:  59  04:28:44 -14.01  -8.16    -5.70-226.174694             -0.0000
iter:  60  04:29:30 -13.87  -8.23    -6.02-226.174694             -0.0000

Converged after 60 iterations.

Dipole moment: (18.331720, -2.305209, -4.521497) |e|*Ang

Total magnetic moment: (0.000000, 0.000000, -0.000000)
Local magnetic moments:
   0 O  ( 0.000000,  0.000000, -0.001791)
   1 O  ( 0.000000,  0.000000,  0.001832)
   2 O  ( 0.000000,  0.000000,  0.001747)
   3 O  ( 0.000000,  0.000000, -0.001793)
   4 O  ( 0.000000,  0.000000,  0.001787)
   5 O  ( 0.000000,  0.000000, -0.001783)
   6 O  ( 0.000000,  0.000000, -0.001797)
   7 O  ( 0.000000,  0.000000,  0.001834)
   8 O  ( 0.000000,  0.000000,  0.030968)
   9 O  ( 0.000000,  0.000000, -0.031157)
  10 O  ( 0.000000,  0.000000, -0.031042)
  11 O  ( 0.000000,  0.000000,  0.031093)
  12 Mn ( 0.000000,  0.000000,  4.395741)
  13 Mn ( 0.000000,  0.000000, -4.395762)
  14 Mn ( 0.000000,  0.000000, -4.394675)
  15 Mn ( 0.000000,  0.000000,  4.394903)
  16 P  ( 0.000000,  0.000000,  0.000875)
  17 P  ( 0.000000,  0.000000, -0.000879)
  18 P  ( 0.000000,  0.000000, -0.000856)
  19 P  ( 0.000000,  0.000000,  0.000900)
  20 O  ( 0.000000,  0.000000,  0.028462)
  21 O  ( 0.000000,  0.000000, -0.028391)
  22 O  ( 0.000000,  0.000000, -0.028457)
  23 O  ( 0.000000,  0.000000,  0.028378)
  24 Li ( 0.000000,  0.000000,  0.000007)
  25 Li ( 0.000000,  0.000000, -0.000000)
  26 Li ( 0.000000,  0.000000, -0.000005)
  27 Li ( 0.000000,  0.000000,  0.000001)

Energy contributions relative to reference atoms: (reference = -196157.275402)

Kinetic:       +277.358634
Potential:     -240.765551
External:        +0.000000
XC:            -264.656556
Entropy (-ST):   -0.000000
Local:           +1.888779
--------------------------
Free energy:   -226.174694
Extrapolated:  -226.174694

Spin contamination: 9.454199 electrons
Showing only first 2 kpts
                      Up                     Down
 Kpt  Band  Eigenvalues  Occupancy  Eigenvalues  Occupancy
  0    88      6.53074    0.00694      6.53304    0.00694
  0    89      6.56664    0.00694      6.56875    0.00694
  0    90      8.42894    0.00000      8.42610    0.00000
  0    91      8.45110    0.00000      8.45292    0.00000

  1    88      6.56941    0.00694      6.57110    0.00694
  1    89      6.59844    0.00694      6.60108    0.00694
  1    90      8.38514    0.00000      8.38301    0.00000
  1    91      8.40789    0.00000      8.41121    0.00000


Fermi level: 7.52033

Gap: 1.697 eV
Transition (v -> c):
  (s=1, k=69, n=89, [-0.08, 0.42, -0.12]) -> (s=1, k=57, n=90, [-0.08, -0.08, -0.12])
Writing to born-0.01-5x-.gpw (mode='all')

Timing:                              incl.     excl.
-----------------------------------------------------------
Hamiltonian:                         0.352     0.002   0.0% |
 Atomic:                             0.050     0.050   0.0% |
  XC Correction:                     0.000     0.000   0.0% |
 Calculate atomic Hamiltonians:      0.141     0.141   0.0% |
 Communicate:                        0.002     0.002   0.0% |
 Initialize Hamiltonian:             0.000     0.000   0.0% |
 Poisson:                            0.001     0.001   0.0% |
 XC 3D grid:                         0.155     0.155   0.0% |
LCAO initialization:               142.387     0.649   0.0% |
 LCAO eigensolver:                  38.128     0.002   0.0% |
  Calculate projections:             0.056     0.056   0.0% |
  DenseAtomicCorrection:             0.089     0.089   0.0% |
  Distribute overlap matrix:         0.125     0.125   0.0% |
  Orbital Layouts:                   0.339     0.339   0.0% |
  Potential matrix:                 37.429    37.429   0.6% |
  Sum over cells:                    0.087     0.087   0.0% |
 LCAO to grid:                     101.242   101.242   1.7% ||
 Set positions (LCAO WFS):           2.368     0.374   0.0% |
  Basic WFS set positions:           0.001     0.001   0.0% |
  Basis functions set positions:     0.000     0.000   0.0% |
  P tci:                             1.067     1.067   0.0% |
  ST tci:                            0.707     0.707   0.0% |
  mktci:                             0.219     0.219   0.0% |
PWDescriptor:                        0.023     0.023   0.0% |
SCF-cycle:                        2444.628    14.940   0.3% |
 Davidson:                        2052.986   655.619  11.2% |---|
  Apply H:                         147.048   142.412   2.4% ||
   HMM T:                            4.636     4.636   0.1% |
  Subspace diag:                   305.358     0.184   0.0% |
   calc_h_matrix:                  199.009    53.625   0.9% |
    Apply H:                       145.383   140.854   2.4% ||
     HMM T:                          4.529     4.529   0.1% |
   diagonalize:                      7.044     7.044   0.1% |
   rotate_psi:                      99.121    99.121   1.7% ||
  calc. matrices:                  647.511   360.730   6.2% |-|
   Apply H:                        286.782   278.169   4.8% |-|
    HMM T:                           8.613     8.613   0.1% |
  diagonalize:                      94.819    94.819   1.6% ||
  rotate_psi:                      202.630   202.630   3.5% ||
 Density:                           83.617     0.002   0.0% |
  Atomic density matrices:           1.481     1.481   0.0% |
  Mix:                              11.515    11.515   0.2% |
  Multipole moments:                 0.036     0.036   0.0% |
  Pseudo density:                   70.583    70.582   1.2% |
   Symmetrize density:               0.002     0.002   0.0% |
 Forces:                           267.762   267.762   4.6% |-|
 Hamiltonian:                       21.344     0.133   0.0% |
  Atomic:                            2.977     2.977   0.1% |
   XC Correction:                    0.000     0.000   0.0% |
  Calculate atomic Hamiltonians:     8.627     8.627   0.1% |
  Communicate:                       0.111     0.111   0.0% |
  Poisson:                           0.071     0.071   0.0% |
  XC 3D grid:                        9.425     9.425   0.2% |
 Orthonormalize:                     3.979     0.004   0.0% |
  calc_s_matrix:                     0.478     0.478   0.0% |
  inverse-cholesky:                  0.053     0.053   0.0% |
  projections:                       2.591     2.591   0.0% |
  rotate_psi_s:                      0.853     0.853   0.0% |
Set symmetry:                        0.000     0.000   0.0% |
Other:                            3261.997  3261.997  55.8% |---------------------|
-----------------------------------------------------------
Total:                                      5849.387 100.0%

Memory usage: 12.66 GiB
Date: Mon Mar 22 05:23:50 2021
