
  ___ ___ ___ _ _ _  
 |   |   |_  | | | | 
 | | | | | . | | | | 
 |__ |  _|___|_____|  21.1.1b1
 |___|_|             

User:   madkru@d032.nifl.fysik.dtu.dk
Date:   Mon May 10 17:35:43 2021
Arch:   x86_64
Pid:    7395
Python: 3.8.6
gpaw:   /home/niflheim2/cmr/WIP/stacking/venv/gpaw/gpaw (393e8a163a)
_gpaw:  /home/niflheim2/cmr/WIP/stacking/venv/gpaw/build/lib.linux-x86_64-nehalem-3.8/
        _gpaw.cpython-38-x86_64-linux-gnu.so (393e8a163a)
ase:    /home/niflheim2/cmr/WIP/stacking/venv/ase/ase (version 3.22.0b1-5e85d35a81)
numpy:  /home/modules/software/SciPy-bundle/2020.11-intel-2020b/lib/python3.8/site-packages/numpy (version 1.19.4)
scipy:  /home/modules/software/SciPy-bundle/2020.11-intel-2020b/lib/python3.8/site-packages/scipy (version 1.5.4)
libxc:  4.3.4
units:  Angstrom and eV
cores: 20
OpenMP: False
OMP_NUM_THREADS: 1

Input parameters:
  basis: dzp
  convergence: {bands: CBM+3.0}
  kpts: {density: 12.0,
         gamma: True}
  maxiter: 5000
  mode: {ecut: 800,
         name: pw}
  nbands: 200%
  occupations: {name: fermi-dirac,
                width: 0.05}
  xc: PBE

System changes: positions, numbers, cell, pbc, initial_charges, initial_magmoms 

Initialize ...

O-setup:
  name: Oxygen
  id: 32ecd46bf208036f09c70b0ec9a88b78
  Z: 8.0
  valence: 6
  core: 2
  charge: 0.0
  file: /home/modules/software/GPAW-setups/0.9.20000/O.PBE.gz
  compensation charges: gauss, rc=0.21, lmax=2
  cutoffs: 1.17(filt), 0.83(core),
  valence states:
                energy  radius
    2s(2.00)   -23.961   0.688
    2p(4.00)    -9.029   0.598
    *s           3.251   0.688
    *p          18.182   0.598
    *d           0.000   0.619

  LCAO basis set for O:
    Name: dzp
    File: /home/modules/software/GPAW-setups/0.9.20000/O.dzp.basis.gz
    Number of radial functions: 5
    Number of spherical harmonics: 13
      l=0, rc=4.3438 Bohr: 2s-sz confined orbital
      l=1, rc=5.3906 Bohr: 2p-sz confined orbital
      l=0, rc=2.2969 Bohr: 2s-dz split-valence wave
      l=1, rc=2.8906 Bohr: 2p-dz split-valence wave
      l=2, rc=5.3906 Bohr: d-type Gaussian polarization

Mn-setup:
  name: Manganese
  id: 00ec47dccfe5670b984398596635e8a7
  Z: 25.0
  valence: 15
  core: 10
  charge: 0.0
  file: /home/modules/software/GPAW-setups/0.9.20000/Mn.PBE.gz
  compensation charges: gauss, rc=0.38, lmax=2
  cutoffs: 2.14(filt), 0.86(core),
  valence states:
                energy  radius
    3s(2.00)   -85.859   1.275
    4s(2.00)    -5.106   1.275
    3p(6.00)   -54.597   1.281
    4p(0.00)    -1.371   1.281
    3d(5.00)    -6.771   1.138
    *d          20.441   1.138

  LCAO basis set for Mn:
    Name: dzp
    File: /home/modules/software/GPAW-setups/0.9.20000/Mn.dzp.basis.gz
    Number of radial functions: 11
    Number of spherical harmonics: 29
      l=0, rc=2.9688 Bohr: 3s-sz confined orbital
      l=0, rc=9.0938 Bohr: 4s-sz confined orbital
      l=1, rc=3.3125 Bohr: 3p-sz confined orbital
      l=1, rc=12.5312 Bohr: 4p-sz confined orbital
      l=2, rc=5.3906 Bohr: 3d-sz confined orbital
      l=0, rc=2.0000 Bohr: 3s-dz split-valence wave
      l=0, rc=5.3906 Bohr: 4s-dz split-valence wave
      l=1, rc=2.2812 Bohr: 3p-dz split-valence wave
      l=1, rc=7.6719 Bohr: 4p-dz split-valence wave
      l=2, rc=3.2656 Bohr: 3d-dz split-valence wave
      l=1, rc=9.0938 Bohr: p-type Gaussian polarization

P-setup:
  name: Phosphorus
  id: 03b4a34d18bb161274a4ee27145ba70a
  Z: 15.0
  valence: 5
  core: 10
  charge: 0.0
  file: /home/modules/software/GPAW-setups/0.9.20000/P.PBE.gz
  compensation charges: gauss, rc=0.30, lmax=2
  cutoffs: 1.69(filt), 1.81(core),
  valence states:
                energy  radius
    3s(2.00)   -13.968   0.953
    3p(3.00)    -5.506   0.953
    *s          13.244   0.953
    *p          21.705   0.953
    *d           0.000   0.953

  LCAO basis set for P:
    Name: dzp
    File: /home/modules/software/GPAW-setups/0.9.20000/P.dzp.basis.gz
    Number of radial functions: 5
    Number of spherical harmonics: 13
      l=0, rc=6.0938 Bohr: 3s-sz confined orbital
      l=1, rc=7.7031 Bohr: 3p-sz confined orbital
      l=0, rc=3.4375 Bohr: 3s-dz split-valence wave
      l=1, rc=4.4688 Bohr: 3p-dz split-valence wave
      l=2, rc=7.7031 Bohr: d-type Gaussian polarization

Li-setup:
  name: Lithium
  id: 830b4218f175192f93f959cfc0aad614
  Z: 3.0
  valence: 1
  core: 2
  charge: 0.0
  file: /home/modules/software/GPAW-setups/0.9.20000/Li.PBE.gz
  compensation charges: gauss, rc=0.33, lmax=2
  cutoffs: 1.91(filt), 2.55(core),
  valence states:
                energy  radius
    2s(1.00)    -2.874   1.058
    2p(0.00)    -1.090   1.058
    *s          24.337   1.058

  LCAO basis set for Li:
    Name: dzp
    File: /home/modules/software/GPAW-setups/0.9.20000/Li.dzp.basis.gz
    Number of radial functions: 3
    Number of spherical harmonics: 5
      l=0, rc=10.8906 Bohr: 2s-sz confined orbital
      l=0, rc=6.6719 Bohr: 2s-dz split-valence wave
      l=1, rc=10.8906 Bohr: p-type Gaussian polarization

Reference energy: -196732.795025

Spin-polarized calculation.
Magnetic moment: 0.000000

Convergence criteria:
  Maximum total energy change: 0.0005 eV / electron
  Maximum integral of absolute density change: 0.0001 electrons
  Maximum integral of absolute eigenstate change: 4e-08 eV^2
  Maximum number of iterations: 5000

Symmetries present (total): 1

  ( 1  0  0)
  ( 0  1  0)
  ( 0  0  1)

1768 k-points: 8 x 13 x 17 Monkhorst-Pack grid + [1/16,0.000000,0.000000]
885 k-points in the irreducible part of the Brillouin zone
       k-points in crystal coordinates                weights
   0:     0.00000000    0.00000000    0.00000000          1/1768
   1:     0.00000000    0.00000000    0.05882353          2/1768
   2:     0.00000000    0.00000000    0.11764706          2/1768
   3:     0.00000000    0.00000000    0.17647059          2/1768
   4:     0.00000000    0.00000000    0.23529412          2/1768
   5:     0.00000000    0.00000000    0.29411765          2/1768
   6:     0.00000000    0.00000000    0.35294118          2/1768
   7:     0.00000000    0.00000000    0.41176471          2/1768
   8:     0.00000000    0.00000000    0.47058824          2/1768
   9:     0.00000000    0.07692308   -0.47058824          2/1768
          ...
 884:     0.50000000    0.46153846    0.47058824          2/1768

Wave functions: Plane wave expansion
  Cutoff energy: 800.000 eV
  Number of coefficients (min, max): 14052, 14141
  Pulay-stress correction: 0.000000 eV/Ang^3 (de/decut=0.000000)
  Using FFTW library
  ScaLapack parameters: grid=1x1, blocksize=None
  Wavefunction extrapolation:
    Improved wavefunction reuse through dual PAW basis 

  Fermi-Dirac: width=0.0500 eV

Eigensolver
   Davidson(niter=2) 

Densities:
  Coarse grid: 70*40*32 grid
  Fine grid: 140*80*64 grid
  Total Charge: 0.000000 

Density mixing:
  Method: difference
  Backend: pulay
  Linear mixing parameter: 0.05
  Mixing with 5 old densities
  Damping of long wave oscillations: 50 

Hamiltonian:
  XC and Coulomb potentials evaluated on a 140*80*64 grid
  Using the PBE Exchange-Correlation functional
 

XC parameters: PBE with 2 nearest neighbor stencil

Memory estimate:
  Process memory now: 214.98 MiB
  Calculator: 3771.47 MiB
    Density: 59.78 MiB
      Arrays: 23.93 MiB
      Localized functions: 26.29 MiB
      Mixer: 9.57 MiB
    Hamiltonian: 18.53 MiB
      Arrays: 17.77 MiB
      XC: 0.00 MiB
      Poisson: 0.00 MiB
      vbar: 0.76 MiB
    Wavefunctions: 3693.15 MiB
      Arrays psit_nG: 3417.87 MiB
      Eigensolver: 44.87 MiB
      Projections: 85.08 MiB
      Projectors: 132.42 MiB
      PW-descriptor: 12.91 MiB

Total number of cores used: 20
Parallelization over k-points: 20

Number of atoms: 28
Number of atomic orbitals: 396
Number of bands in calculation: 180
Number of valence electrons: 180
Bands to converge: CBM+3.0

