
  ___ ___ ___ _ _ _  
 |   |   |_  | | | | 
 | | | | | . | | | | 
 |__ |  _|___|_____|  20.10.1b1
 |___|_|             

User:   madkru@g054.nifl.fysik.dtu.dk
Date:   Wed Mar 17 18:08:39 2021
Arch:   x86_64
Pid:    7380
Python: 3.7.4
gpaw:   /home/niflheim/madkru/venv_folder/gpaw/gpaw (d0d1ca1c71)
_gpaw:  /home/niflheim/madkru/venv_folder/gpaw/build/lib.linux-x86_64-sandybridge-3.7/
        _gpaw.cpython-37m-x86_64-linux-gnu.so (4fd39e8b1e)
ase:    /home/niflheim/madkru/venv_folder/ase/ase (version 3.21.0b1-7e6c206a91)
numpy:  /home/niflheim/madkru/venv_folder/lib/python3.7/site-packages/numpy (version 1.19.4)
scipy:  /home/niflheim/madkru/venv_folder/lib/python3.7/site-packages/scipy (version 1.5.4)
libxc:  4.3.4
units:  Angstrom and eV
cores: 32
OMP_NUM_THREADS: 1

Input parameters:
  convergence: {forces: 1e-06}
  kpts: [6 6 4]
  mode: {ecut: 600.0,
         gammacentered: False,
         name: pw}
  occupations: {fixmagmom: False,
                name: fermi-dirac,
                width: 0.001}
  symmetry: {point_group: False}

System changes: positions, numbers, cell, pbc, initial_charges, initial_magmoms 

Initialize ...

O-setup:
  name: Oxygen
  id: 9b9d51c344dea68c822856295a461509
  Z: 8.0
  valence: 6
  core: 2
  charge: 0.0
  file: /home/modules/software/GPAW-setups/0.9.20000/O.LDA.gz
  compensation charges: gauss, rc=0.21, lmax=2
  cutoffs: 1.17(filt), 0.83(core),
  valence states:
                energy  radius
    2s(2.00)   -23.752   0.688
    2p(4.00)    -9.195   0.598
    *s           3.459   0.688
    *p          18.016   0.598
    *d           0.000   0.619

  Using partial waves for O as LCAO basis

Mn-setup:
  name: Manganese
  id: 0d715a8018be061a6e9ea6f2d364ac92
  Z: 25.0
  valence: 15
  core: 10
  charge: 0.0
  file: /home/modules/software/GPAW-setups/0.9.20000/Mn.LDA.gz
  compensation charges: gauss, rc=0.38, lmax=2
  cutoffs: 2.14(filt), 0.86(core),
  valence states:
                energy  radius
    3s(2.00)   -85.387   1.275
    4s(2.00)    -5.282   1.275
    3p(6.00)   -54.493   1.281
    4p(0.00)    -1.471   1.281
    3d(5.00)    -7.009   1.138
    *d          20.203   1.138

  Using partial waves for Mn as LCAO basis

P-setup:
  name: Phosphorus
  id: a5561c299094968922a179ab894d2e2d
  Z: 15.0
  valence: 5
  core: 10
  charge: 0.0
  file: /home/modules/software/GPAW-setups/0.9.20000/P.LDA.gz
  compensation charges: gauss, rc=0.30, lmax=2
  cutoffs: 1.69(filt), 1.81(core),
  valence states:
                energy  radius
    3s(2.00)   -14.015   0.953
    3p(3.00)    -5.596   0.953
    *s          13.197   0.953
    *p          21.615   0.953
    *d           0.000   0.953

  Using partial waves for P as LCAO basis

Li-setup:
  name: Lithium
  id: b73562207f97a71b6967473b66fe8b65
  Z: 3.0
  valence: 1
  core: 2
  charge: 0.0
  file: /home/modules/software/GPAW-setups/0.9.20000/Li.LDA.gz
  compensation charges: gauss, rc=0.33, lmax=2
  cutoffs: 1.91(filt), 2.55(core),
  valence states:
                energy  radius
    2s(1.00)    -2.874   1.058
    2p(0.00)    -1.126   1.058
    *s          24.338   1.058

  Using partial waves for Li as LCAO basis

Reference energy: -196157.275402

Spin-polarized calculation.
Magnetic moment: 0.000000

Convergence criteria:
  Maximum total energy change: 0.0005 eV / electron
  Maximum integral of absolute density change: 0.0001 electrons
  Maximum integral of absolute eigenstate change: 4e-08 eV^2
  Maximum change in atomic force: 1e-06 eV / Ang
  Maximum number of iterations: 333

Symmetries present (total): 1

  ( 1  0  0)
  ( 0  1  0)
  ( 0  0  1)

144 k-points: 6 x 6 x 4 Monkhorst-Pack grid
72 k-points in the irreducible part of the Brillouin zone
       k-points in crystal coordinates                weights
   0:     0.08333333   -0.41666667   -0.37500000          2/144
   1:     0.08333333   -0.41666667   -0.12500000          2/144
   2:     0.08333333   -0.41666667    0.12500000          2/144
   3:     0.08333333   -0.41666667    0.37500000          2/144
   4:     0.08333333   -0.25000000   -0.37500000          2/144
   5:     0.08333333   -0.25000000   -0.12500000          2/144
   6:     0.08333333   -0.25000000    0.12500000          2/144
   7:     0.08333333   -0.25000000    0.37500000          2/144
   8:     0.08333333   -0.08333333   -0.37500000          2/144
   9:     0.08333333   -0.08333333   -0.12500000          2/144
          ...
  71:     0.41666667    0.41666667    0.37500000          2/144

Wave functions: Plane wave expansion
  Cutoff energy: 600.000 eV
  Number of coefficients (min, max): 9132, 9161
  Pulay-stress correction: 0.000000 eV/Ang^3 (de/decut=0.000000)
  Using FFTW library
  ScaLapack parameters: grid=1x1, blocksize=None
  Wavefunction extrapolation:
    Improved wavefunction reuse through dual PAW basis 

  Fermi-Dirac: width=0.0010 eV

Eigensolver
   Davidson(niter=2, smin=None, normalize=True) 

Densities:
  Coarse grid: 60*35*27 grid
  Fine grid: 120*70*54 grid
  Total Charge: 0.000000 

Density mixing:
  Method: difference
  Backend: pulay
  Linear mixing parameter: 0.05
  Mixing with 5 old densities
  Damping of long wave oscillations: 50 

Hamiltonian:
  XC and Coulomb potentials evaluated on a 120*70*54 grid
  Using the LDA Exchange-Correlation functional
 

Memory estimate:
  Process memory now: 103.71 MiB
  Calculator: 139.66 MiB
    Density: 38.27 MiB
      Arrays: 15.14 MiB
      Localized functions: 17.07 MiB
      Mixer: 6.06 MiB
    Hamiltonian: 11.74 MiB
      Arrays: 11.25 MiB
      XC: 0.00 MiB
      Poisson: 0.00 MiB
      vbar: 0.49 MiB
    Wavefunctions: 89.66 MiB
      Arrays psit_nG: 62.62 MiB
      Eigensolver: 18.27 MiB
      Projections: 2.41 MiB
      Projectors: 3.91 MiB
      PW-descriptor: 2.44 MiB

Total number of cores used: 32
Parallelization over k-points: 32

Number of atoms: 28
Number of atomic orbitals: 148
Number of bands in calculation: 112
Number of valence electrons: 180
Bands to converge: occupied

... initialized

Initializing position-dependent things.

Density initialized from atomic densities
Creating initial wave functions:
  112 bands from LCAO basis set

                                           
                                           
                                           
                                           
                                           
               O     O  P  O               
            PO           OMn     O         
                  O          MO            
            O        Li O                  
             Mn  Mn          OP            
         O       O Li O                    
         Li     O P         O              
       Li                                  
                                           
                                           
                                           
                                           

Positions:
   0 O      3.381826    0.255721    1.027157    ( 0.0000,  0.0000,  0.0000)
   1 O      1.638710    5.670174    3.331211    ( 0.0000,  0.0000,  0.0000)
   2 O      6.659399    3.218528    3.580931    ( 0.0000,  0.0000,  0.0000)
   3 O      8.402291    2.707411    1.276874    ( 0.0000,  0.0000,  0.0000)
   4 O      6.659367    5.670151    3.580953    ( 0.0000,  0.0000,  0.0000)
   5 O      8.402320    0.255785    1.276901    ( 0.0000,  0.0000,  0.0000)
   6 O      3.381794    2.707426    1.027180    ( 0.0000,  0.0000,  0.0000)
   7 O      1.638738    3.218453    3.331239    ( 0.0000,  0.0000,  0.0000)
   8 O      0.514543    1.481579    1.283282    ( 0.0000,  0.0000,  0.0000)
   9 O      4.506054    4.444302    3.587213    ( 0.0000,  0.0000,  0.0000)
  10 O      9.526526    4.444333    3.324813    ( 0.0000,  0.0000,  0.0000)
  11 O      5.535111    1.481610    1.020863    ( 0.0000,  0.0000,  0.0000)
  12 Mn     2.224840    1.481415    2.441685    ( 0.0000,  0.0000,  1.0000)
  13 Mn     2.795761    4.444472    0.137561    ( 0.0000,  0.0000, -1.0000)
  14 Mn     7.816247    4.444498    2.166405    ( 0.0000,  0.0000, -1.0000)
  15 Mn     7.245392    1.481440    4.470562    ( 0.0000,  0.0000,  1.0000)
  16 P      4.118896    1.481596    0.405302    ( 0.0000,  0.0000,  0.0000)
  17 P      0.901666    4.444290    2.709347    ( 0.0000,  0.0000,  0.0000)
  18 P      5.922248    4.444317    4.202832    ( 0.0000,  0.0000,  0.0000)
  19 P      9.139418    1.481621    1.898793    ( 0.0000,  0.0000,  0.0000)
  20 O      4.117535    1.481578    3.488011    ( 0.0000,  0.0000,  0.0000)
  21 O      0.903053    4.444308    1.183930    ( 0.0000,  0.0000,  0.0000)
  22 O      5.923638    4.444334    1.120121    ( 0.0000,  0.0000,  0.0000)
  23 O      9.137993    1.481603    3.424205    ( 0.0000,  0.0000,  0.0000)
  24 Li    -0.000079   -0.000006    0.000048    ( 0.0000,  0.0000,  0.0000)
  25 Li     5.020651    0.000040    2.304102    ( 0.0000,  0.0000,  0.0000)
  26 Li    -0.000063    2.962934    0.000049    ( 0.0000,  0.0000,  0.0000)
  27 Li     5.020668    2.962944    2.304103    ( 0.0000,  0.0000,  0.0000)

Unit cell:
           periodic     x           y           z      points  spacing
  1. axis:    yes   10.041096    0.000054   -0.000022    60     0.1674
  2. axis:    yes    0.000032    5.925857    0.000001    35     0.1693
  3. axis:    yes   -0.000010    0.000001    4.608134    27     0.1707

  Lengths:  10.041096   5.925857   4.608134
  Angles:   89.999974  90.000250  89.999381

Effective grid spacing dv^(1/3) = 0.1691

                     log10-error:           total        iterations:
           time      wfs    density  force  energy       poisson  magmom
iter:   1  18:10:43                       -233.730516             -0.0000
iter:   2  18:11:07  -0.47  -0.95         -231.550176             -0.0000
iter:   3  18:11:31  -0.61  -1.00         -220.795773             -0.0000
iter:   4  18:11:54  -1.17  -1.31         -220.704762             +0.0138
iter:   5  18:12:18  -2.14  -1.41         -222.714102             -0.0113
iter:   6  18:12:42  -2.13  -1.39         -222.824498             +0.0271
iter:   7  18:13:05  -2.15  -1.56         -223.315619             -0.0013
iter:   8  18:13:29  -2.33  -1.87         -225.792995             +0.0028
iter:   9  18:13:52  -2.10  -2.00         -226.387664             +0.0016
iter:  10  18:14:16  -2.25  -2.06         -226.344929             +0.0005
iter:  11  18:14:40  -2.98  -2.18         -226.264678             +0.0003
iter:  12  18:15:03  -3.14  -2.32         -226.268790             +0.0001
iter:  13  18:15:27  -2.98  -2.44         -226.185694             +0.0000
iter:  14  18:15:51  -3.44  -2.86         -226.182561             +0.0000
iter:  15  18:16:14  -3.45  -3.02         -226.182574             +0.0000
iter:  16  18:16:38  -3.92  -3.05         -226.178549             +0.0000
iter:  17  18:17:02  -4.97  -3.39         -226.177548             +0.0000
iter:  18  18:17:25  -4.34  -3.44         -226.175541             +0.0000
iter:  19  18:17:49  -4.92  -3.51         -226.175613             +0.0000
iter:  20  18:18:12  -6.10  -3.67         -226.175605             +0.0000
iter:  21  18:18:36  -4.76  -3.71         -226.175800             -0.0000
iter:  22  18:19:00  -5.31  -3.71         -226.175505             +0.0000
iter:  23  18:19:23  -6.82  -4.06         -226.175481             +0.0000
iter:  24  18:19:47  -5.68  -4.12         -226.175473             +0.0000
iter:  25  18:20:11  -6.34  -4.21         -226.175457             +0.0000
iter:  26  18:20:34  -6.14  -4.37         -226.175455             +0.0000
iter:  27  18:20:58  -6.94  -4.42         -226.175443             +0.0000
iter:  28  18:21:21  -6.50  -4.58         -226.175453             +0.0000
iter:  29  18:21:45  -6.39  -4.69         -226.175444             +0.0000
iter:  30  18:22:15  -7.63  -5.01         -226.175441             +0.0000
iter:  31  18:22:46  -8.23  -5.24    -3.06-226.175440             +0.0000
iter:  32  18:23:17  -8.98  -5.32    -3.34-226.175440             +0.0000
iter:  33  18:23:48  -9.00  -5.42    -3.34-226.175440             +0.0000
iter:  34  18:24:19  -9.35  -5.49    -3.66-226.175440             +0.0000
iter:  35  18:24:50  -9.05  -5.68    -3.43-226.175440             -0.0000
iter:  36  18:25:21  -9.69  -5.83    -3.52-226.175440             -0.0000
iter:  37  18:25:52 -10.30  -6.11    -3.98-226.175440             -0.0000
iter:  38  18:26:23 -10.27  -6.27    -4.01-226.175440             -0.0000
iter:  39  18:26:54 -11.52  -6.34    -4.68-226.175440             -0.0000
iter:  40  18:27:25 -11.00  -6.36    -4.26-226.175440             -0.0000
iter:  41  18:27:56 -11.64  -6.48    -4.40-226.175440             -0.0000
iter:  42  18:28:27 -11.14  -6.55    -4.51-226.175440             -0.0000
iter:  43  18:28:58 -11.63  -6.65    -4.90-226.175440             -0.0000
iter:  44  18:29:29 -11.03  -6.69    -4.55-226.175440             -0.0000
iter:  45  18:30:00 -11.89  -6.93    -4.75-226.175440             -0.0000
iter:  46  18:30:31 -12.61  -7.08    -5.29-226.175440             -0.0000
iter:  47  18:31:02 -12.51  -7.15    -4.99-226.175440             -0.0000
iter:  48  18:31:33 -12.12  -7.50    -5.00-226.175440             -0.0000
iter:  49  18:32:04 -13.15  -7.63    -5.45-226.175440             -0.0000
iter:  50  18:32:35 -12.99  -7.77    -5.65-226.175440             -0.0000
iter:  51  18:33:06 -13.37  -7.74    -5.60-226.175440             -0.0000
iter:  52  18:33:37 -14.38  -7.84    -6.03-226.175440             -0.0000

Converged after 52 iterations.

Dipole moment: (0.000429, -0.000015, -0.000740) |e|*Ang

Total magnetic moment: (0.000000, 0.000000, -0.000000)
Local magnetic moments:
   0 O  ( 0.000000,  0.000000, -0.001808)
   1 O  ( 0.000000,  0.000000,  0.001809)
   2 O  ( 0.000000,  0.000000,  0.001810)
   3 O  ( 0.000000,  0.000000, -0.001809)
   4 O  ( 0.000000,  0.000000,  0.001805)
   5 O  ( 0.000000,  0.000000, -0.001804)
   6 O  ( 0.000000,  0.000000, -0.001814)
   7 O  ( 0.000000,  0.000000,  0.001814)
   8 O  ( 0.000000,  0.000000,  0.031098)
   9 O  ( 0.000000,  0.000000, -0.031097)
  10 O  ( 0.000000,  0.000000, -0.031096)
  11 O  ( 0.000000,  0.000000,  0.031096)
  12 Mn ( 0.000000,  0.000000,  4.395765)
  13 Mn ( 0.000000,  0.000000, -4.395783)
  14 Mn ( 0.000000,  0.000000, -4.395737)
  15 Mn ( 0.000000,  0.000000,  4.395752)
  16 P  ( 0.000000,  0.000000,  0.000866)
  17 P  ( 0.000000,  0.000000, -0.000864)
  18 P  ( 0.000000,  0.000000, -0.000871)
  19 P  ( 0.000000,  0.000000,  0.000870)
  20 O  ( 0.000000,  0.000000,  0.028417)
  21 O  ( 0.000000,  0.000000, -0.028416)
  22 O  ( 0.000000,  0.000000, -0.028420)
  23 O  ( 0.000000,  0.000000,  0.028419)
  24 Li ( 0.000000,  0.000000,  0.000000)
  25 Li ( 0.000000,  0.000000,  0.000000)
  26 Li ( 0.000000,  0.000000,  0.000000)
  27 Li ( 0.000000,  0.000000,  0.000000)

Energy contributions relative to reference atoms: (reference = -196157.275402)

Kinetic:       +277.623715
Potential:     -240.966406
External:        +0.000000
XC:            -264.721149
Entropy (-ST):   -0.000000
Local:           +1.888399
--------------------------
Free energy:   -226.175440
Extrapolated:  -226.175440

Spin contamination: 9.455210 electrons
Showing only first 2 kpts
                      Up                     Down
 Kpt  Band  Eigenvalues  Occupancy  Eigenvalues  Occupancy
  0    88      6.48832    0.01389      6.48830    0.01389
  0    89      6.61318    0.01389      6.61315    0.01389
  0    90      8.39272    0.00000      8.39275    0.00000
  0    91      8.47193    0.00000      8.47194    0.00000

  1    88      6.52819    0.01389      6.52817    0.01389
  1    89      6.62867    0.01389      6.62863    0.01389
  1    90      8.35458    0.00000      8.35460    0.00000
  1    91      8.43712    0.00000      8.43712    0.00000


Fermi level: 7.73837

Gap: 1.699 eV
Transition (v -> c):
  (s=0, k=21, n=89, [0.08, 0.42, -0.12]) -> (s=0, k=9, n=90, [0.08, -0.08, -0.12])
Writing to LiMnPO4.gpw (mode='')


Forces in eV/Ang:
  0 O    -0.00012    0.00012   -0.00042
  1 O     0.00033   -0.00039   -0.00006
  2 O    -0.00037   -0.00042    0.00058
  3 O     0.00025    0.00027    0.00025
  4 O    -0.00023    0.00055    0.00073
  5 O     0.00012   -0.00037    0.00035
  6 O     0.00002   -0.00026   -0.00027
  7 O     0.00021    0.00050    0.00004
  8 O     0.00015   -0.00010    0.00026
  9 O    -0.00043    0.00011    0.00077
 10 O    -0.00038    0.00010    0.00020
 11 O     0.00052   -0.00010   -0.00015
 12 Mn    0.00037   -0.00001   -0.00019
 13 Mn   -0.00033    0.00003   -0.00005
 14 Mn    0.00022    0.00001    0.00018
 15 Mn   -0.00025   -0.00003   -0.00025
 16 P    -0.00018   -0.00004    0.00018
 17 P    -0.00007    0.00006    0.00012
 18 P     0.00053    0.00004   -0.00044
 19 P    -0.00030   -0.00005   -0.00028
 20 O    -0.00011    0.00006    0.00065
 21 O     0.00024   -0.00007    0.00066
 22 O    -0.00029   -0.00006   -0.00103
 23 O     0.00025    0.00007   -0.00092
 24 Li    0.00018   -0.00015   -0.00023
 25 Li   -0.00025    0.00014   -0.00023
 26 Li    0.00018    0.00015   -0.00023
 27 Li   -0.00025   -0.00015   -0.00023

System changes: positions 

Initializing position-dependent things.

Density initialized from wave functions
                                           
                                           
                                           
                                           
                                           
               O     O  P  O               
            PO           OMn     O         
                  O          MO            
            O        Li O                  
             Mn  Mn          OP            
         O       O Li O                    
         Li     O P         O              
       Li                                  
                                           
                                           
                                           
                                           

Positions:
   0 O      3.371826    0.255721    1.027157    ( 0.0000,  0.0000,  0.0000)
   1 O      1.638710    5.670174    3.331211    ( 0.0000,  0.0000,  0.0000)
   2 O      6.659399    3.218528    3.580931    ( 0.0000,  0.0000,  0.0000)
   3 O      8.402291    2.707411    1.276874    ( 0.0000,  0.0000,  0.0000)
   4 O      6.659367    5.670151    3.580953    ( 0.0000,  0.0000,  0.0000)
   5 O      8.402320    0.255785    1.276901    ( 0.0000,  0.0000,  0.0000)
   6 O      3.381794    2.707426    1.027180    ( 0.0000,  0.0000,  0.0000)
   7 O      1.638738    3.218453    3.331239    ( 0.0000,  0.0000,  0.0000)
   8 O      0.514543    1.481579    1.283282    ( 0.0000,  0.0000,  0.0000)
   9 O      4.506054    4.444302    3.587213    ( 0.0000,  0.0000,  0.0000)
  10 O      9.526526    4.444333    3.324813    ( 0.0000,  0.0000,  0.0000)
  11 O      5.535111    1.481610    1.020863    ( 0.0000,  0.0000,  0.0000)
  12 Mn     2.224840    1.481415    2.441685    ( 0.0000,  0.0000,  1.0000)
  13 Mn     2.795761    4.444472    0.137561    ( 0.0000,  0.0000, -1.0000)
  14 Mn     7.816247    4.444498    2.166405    ( 0.0000,  0.0000, -1.0000)
  15 Mn     7.245392    1.481440    4.470562    ( 0.0000,  0.0000,  1.0000)
  16 P      4.118896    1.481596    0.405302    ( 0.0000,  0.0000,  0.0000)
  17 P      0.901666    4.444290    2.709347    ( 0.0000,  0.0000,  0.0000)
  18 P      5.922248    4.444317    4.202832    ( 0.0000,  0.0000,  0.0000)
  19 P      9.139418    1.481621    1.898793    ( 0.0000,  0.0000,  0.0000)
  20 O      4.117535    1.481578    3.488011    ( 0.0000,  0.0000,  0.0000)
  21 O      0.903053    4.444308    1.183930    ( 0.0000,  0.0000,  0.0000)
  22 O      5.923638    4.444334    1.120121    ( 0.0000,  0.0000,  0.0000)
  23 O      9.137993    1.481603    3.424205    ( 0.0000,  0.0000,  0.0000)
  24 Li    -0.000079   -0.000006    0.000048    ( 0.0000,  0.0000,  0.0000)
  25 Li     5.020651    0.000040    2.304102    ( 0.0000,  0.0000,  0.0000)
  26 Li    -0.000063    2.962934    0.000049    ( 0.0000,  0.0000,  0.0000)
  27 Li     5.020668    2.962944    2.304103    ( 0.0000,  0.0000,  0.0000)

Unit cell:
           periodic     x           y           z      points  spacing
  1. axis:    yes   10.041096    0.000054   -0.000022    60     0.1674
  2. axis:    yes    0.000032    5.925857    0.000001    35     0.1693
  3. axis:    yes   -0.000010    0.000001    4.608134    27     0.1707

  Lengths:  10.041096   5.925857   4.608134
  Angles:   89.999974  90.000250  89.999381

Effective grid spacing dv^(1/3) = 0.1691

                     log10-error:           total        iterations:
           time      wfs    density  force  energy       poisson  magmom
iter:   1  18:34:18  -3.86                -226.175383             -0.0001
iter:   2  18:34:41  -5.26  -3.59         -226.175254             -0.0000
iter:   3  18:35:05  -4.16  -3.63         -226.174929             +0.0000
iter:   4  18:35:28  -5.61  -3.76         -226.174746             -0.0000
iter:   5  18:35:52  -5.53  -3.98         -226.174734             -0.0000
iter:   6  18:36:15  -5.90  -4.21         -226.174705             -0.0000
iter:   7  18:36:39  -7.04  -4.46         -226.174703             -0.0000
iter:   8  18:37:02  -7.23  -4.58         -226.174702             +0.0000
iter:   9  18:37:26  -7.10  -4.77         -226.174701             -0.0000
iter:  10  18:37:50  -7.02  -4.85         -226.174701             -0.0000
iter:  11  18:38:20  -8.29  -5.03         -226.174700             -0.0000
iter:  12  18:38:51  -8.41  -5.29    -2.28-226.174700             -0.0000
iter:  13  18:39:22  -9.11  -5.46    -2.28-226.174700             -0.0000
iter:  14  18:39:53  -9.09  -5.61    -2.66-226.174700             -0.0000
iter:  15  18:40:24 -10.15  -5.69    -3.50-226.174700             -0.0000
iter:  16  18:40:54  -9.28  -5.76    -3.18-226.174700             +0.0000
iter:  17  18:41:25 -10.26  -5.92    -2.99-226.174700             +0.0000
iter:  18  18:41:56 -10.71  -5.96    -3.31-226.174700             -0.0000
iter:  19  18:42:27 -10.68  -6.01    -3.62-226.174700             -0.0000
iter:  20  18:42:58 -10.18  -6.09    -3.14-226.174700             -0.0000
iter:  21  18:43:29 -10.51  -6.16    -3.42-226.174700             -0.0000
iter:  22  18:43:59 -10.11  -6.34    -3.48-226.174700             -0.0000
iter:  23  18:44:30 -10.97  -6.47    -3.70-226.174700             -0.0000
iter:  24  18:45:01 -12.00  -6.99    -4.50-226.174700             -0.0000
iter:  25  18:45:32 -11.75  -7.06    -3.84-226.174700             +0.0000
iter:  26  18:46:03 -11.92  -7.12    -4.30-226.174700             +0.0000
iter:  27  18:46:34 -13.11  -7.64    -4.81-226.174700             -0.0000
iter:  28  18:47:05 -13.49  -7.73    -4.69-226.174700             +0.0000
iter:  29  18:47:35 -13.52  -7.75    -5.05-226.174700             +0.0000
iter:  30  18:48:06 -14.77  -8.05    -5.70-226.174700             +0.0000
iter:  31  18:48:37 -13.80  -8.09    -5.10-226.174700             +0.0000
iter:  32  18:49:08 -14.81  -8.19    -5.95-226.174700             +0.0000
iter:  33  18:49:39 -15.11  -8.35    -6.27-226.174700             +0.0000

Converged after 33 iterations.

Dipole moment: (0.004594, -0.004438, -0.002722) |e|*Ang

Total magnetic moment: (0.000000, 0.000000, 0.000000)
Local magnetic moments:
   0 O  ( 0.000000,  0.000000, -0.001787)
   1 O  ( 0.000000,  0.000000,  0.001791)
   2 O  ( 0.000000,  0.000000,  0.001831)
   3 O  ( 0.000000,  0.000000, -0.001792)
   4 O  ( 0.000000,  0.000000,  0.001828)
   5 O  ( 0.000000,  0.000000, -0.001787)
   6 O  ( 0.000000,  0.000000, -0.001798)
   7 O  ( 0.000000,  0.000000,  0.001751)
   8 O  ( 0.000000,  0.000000,  0.031095)
   9 O  ( 0.000000,  0.000000, -0.031044)
  10 O  ( 0.000000,  0.000000, -0.031155)
  11 O  ( 0.000000,  0.000000,  0.030966)
  12 Mn ( 0.000000,  0.000000,  4.394917)
  13 Mn ( 0.000000,  0.000000, -4.394721)
  14 Mn ( 0.000000,  0.000000, -4.395716)
  15 Mn ( 0.000000,  0.000000,  4.395728)
  16 P  ( 0.000000,  0.000000,  0.000895)
  17 P  ( 0.000000,  0.000000, -0.000849)
  18 P  ( 0.000000,  0.000000, -0.000886)
  19 P  ( 0.000000,  0.000000,  0.000880)
  20 O  ( 0.000000,  0.000000,  0.028376)
  21 O  ( 0.000000,  0.000000, -0.028453)
  22 O  ( 0.000000,  0.000000, -0.028395)
  23 O  ( 0.000000,  0.000000,  0.028464)
  24 Li ( 0.000000,  0.000000, -0.000000)
  25 Li ( 0.000000,  0.000000,  0.000007)
  26 Li ( 0.000000,  0.000000,  0.000001)
  27 Li ( 0.000000,  0.000000, -0.000005)

Energy contributions relative to reference atoms: (reference = -196157.275402)

Kinetic:       +277.358667
Potential:     -240.765531
External:        +0.000000
XC:            -264.656574
Entropy (-ST):   -0.000000
Local:           +1.888738
--------------------------
Free energy:   -226.174700
Extrapolated:  -226.174700

Spin contamination: 9.454085 electrons
Showing only first 2 kpts
                      Up                     Down
 Kpt  Band  Eigenvalues  Occupancy  Eigenvalues  Occupancy
  0    88      6.48967    0.01389      6.49173    0.01389
  0    89      6.61485    0.01389      6.61702    0.01389
  0    90      8.39504    0.00000      8.39367    0.00000
  0    91      8.47459    0.00000      8.47487    0.00000

  1    88      6.52973    0.01389      6.53165    0.01389
  1    89      6.63018    0.01389      6.63245    0.01389
  1    90      8.35672    0.00000      8.35658    0.00000
  1    91      8.43964    0.00000      8.44116    0.00000


Fermi level: 7.73837

Gap: 1.697 eV
Transition (v -> c):
  (s=1, k=1, n=89, [0.08, -0.42, -0.12]) -> (s=1, k=13, n=90, [0.08, 0.08, -0.12])

Forces in eV/Ang:
  0 O     0.14789    0.13019   -0.05164
  1 O    -0.00590   -0.00471   -0.00063
  2 O    -0.00157   -0.00171    0.00225
  3 O    -0.00555    0.00155   -0.00079
  4 O    -0.00181    0.00178    0.00136
  5 O    -0.00484   -0.00142   -0.00054
  6 O     0.01634    0.00099   -0.00093
  7 O    -0.00027   -0.00036    0.00012
  8 O    -0.01070    0.00131    0.00160
  9 O     0.00393    0.00240    0.00147
 10 O    -0.00645   -0.00052    0.00081
 11 O    -0.03178   -0.03121    0.00659
 12 Mn   -0.01009   -0.00149    0.00267
 13 Mn   -0.00994   -0.00796   -0.00461
 14 Mn    0.00673    0.00005    0.00066
 15 Mn    0.01031   -0.00042   -0.00378
 16 P    -0.11095   -0.08280    0.04206
 17 P     0.00766    0.00475   -0.00270
 18 P    -0.00095   -0.00071   -0.00522
 19 P     0.01118    0.00006   -0.00132
 20 O     0.01135   -0.00747    0.00717
 21 O    -0.00544   -0.00357    0.00246
 22 O    -0.00321    0.00166    0.00039
 23 O    -0.00388    0.00009   -0.00021
 24 Li    0.00369   -0.00047   -0.00003
 25 Li   -0.00534   -0.00282    0.00184
 26 Li    0.00236    0.00054    0.00007
 27 Li   -0.00276    0.00225    0.00088

System changes: positions 

Initializing position-dependent things.

Density initialized from wave functions
                                           
                                           
                                           
                                           
                                           
               O     O  P  O               
            PO           OMn     O         
                  O          MO            
            O        Li O                  
             Mn  Mn          OP            
         O       O Li O                    
         Li     O P         O              
       Li                                  
                                           
                                           
                                           
                                           

Positions:
   0 O      3.391826    0.255721    1.027157    ( 0.0000,  0.0000,  0.0000)
   1 O      1.638710    5.670174    3.331211    ( 0.0000,  0.0000,  0.0000)
   2 O      6.659399    3.218528    3.580931    ( 0.0000,  0.0000,  0.0000)
   3 O      8.402291    2.707411    1.276874    ( 0.0000,  0.0000,  0.0000)
   4 O      6.659367    5.670151    3.580953    ( 0.0000,  0.0000,  0.0000)
   5 O      8.402320    0.255785    1.276901    ( 0.0000,  0.0000,  0.0000)
   6 O      3.381794    2.707426    1.027180    ( 0.0000,  0.0000,  0.0000)
   7 O      1.638738    3.218453    3.331239    ( 0.0000,  0.0000,  0.0000)
   8 O      0.514543    1.481579    1.283282    ( 0.0000,  0.0000,  0.0000)
   9 O      4.506054    4.444302    3.587213    ( 0.0000,  0.0000,  0.0000)
  10 O      9.526526    4.444333    3.324813    ( 0.0000,  0.0000,  0.0000)
  11 O      5.535111    1.481610    1.020863    ( 0.0000,  0.0000,  0.0000)
  12 Mn     2.224840    1.481415    2.441685    ( 0.0000,  0.0000,  1.0000)
  13 Mn     2.795761    4.444472    0.137561    ( 0.0000,  0.0000, -1.0000)
  14 Mn     7.816247    4.444498    2.166405    ( 0.0000,  0.0000, -1.0000)
  15 Mn     7.245392    1.481440    4.470562    ( 0.0000,  0.0000,  1.0000)
  16 P      4.118896    1.481596    0.405302    ( 0.0000,  0.0000,  0.0000)
  17 P      0.901666    4.444290    2.709347    ( 0.0000,  0.0000,  0.0000)
  18 P      5.922248    4.444317    4.202832    ( 0.0000,  0.0000,  0.0000)
  19 P      9.139418    1.481621    1.898793    ( 0.0000,  0.0000,  0.0000)
  20 O      4.117535    1.481578    3.488011    ( 0.0000,  0.0000,  0.0000)
  21 O      0.903053    4.444308    1.183930    ( 0.0000,  0.0000,  0.0000)
  22 O      5.923638    4.444334    1.120121    ( 0.0000,  0.0000,  0.0000)
  23 O      9.137993    1.481603    3.424205    ( 0.0000,  0.0000,  0.0000)
  24 Li    -0.000079   -0.000006    0.000048    ( 0.0000,  0.0000,  0.0000)
  25 Li     5.020651    0.000040    2.304102    ( 0.0000,  0.0000,  0.0000)
  26 Li    -0.000063    2.962934    0.000049    ( 0.0000,  0.0000,  0.0000)
  27 Li     5.020668    2.962944    2.304103    ( 0.0000,  0.0000,  0.0000)

Unit cell:
           periodic     x           y           z      points  spacing
  1. axis:    yes   10.041096    0.000054   -0.000022    60     0.1674
  2. axis:    yes    0.000032    5.925857    0.000001    35     0.1693
  3. axis:    yes   -0.000010    0.000001    4.608134    27     0.1707

  Lengths:  10.041096   5.925857   4.608134
  Angles:   89.999974  90.000250  89.999381

Effective grid spacing dv^(1/3) = 0.1691

                     log10-error:           total        iterations:
           time      wfs    density  force  energy       poisson  magmom
iter:   1  18:50:18  -3.27                -226.177435             +0.0003
iter:   2  18:50:42  -4.67  -3.30         -226.176903             +0.0001
iter:   3  18:51:05  -3.55  -3.33         -226.175592             -0.0000
iter:   4  18:51:29  -5.02  -3.47         -226.174879             +0.0000
iter:   5  18:51:52  -5.21  -3.68         -226.174803             +0.0000
iter:   6  18:52:16  -5.46  -3.86         -226.174710             +0.0000
iter:   7  18:52:39  -6.86  -4.17         -226.174703             +0.0000
iter:   8  18:53:03  -6.35  -4.26         -226.174699             -0.0000
iter:   9  18:53:26  -6.29  -4.44         -226.174700             +0.0000
iter:  10  18:53:50  -7.22  -4.46         -226.174695             +0.0000
iter:  11  18:54:21  -7.53  -4.64         -226.174693             +0.0000
iter:  12  18:54:45  -6.95  -4.75         -226.174697             -0.0000
iter:  13  18:55:15  -7.51  -4.62    -1.95-226.174693             +0.0000
iter:  14  18:55:39  -7.19  -4.93         -226.174693             +0.0000
iter:  15  18:56:09  -8.33  -5.17    -2.41-226.174693             +0.0000
iter:  16  18:56:40  -8.75  -5.40    -2.49-226.174693             -0.0000
iter:  17  18:57:11  -9.78  -5.59    -3.06-226.174693             +0.0000
iter:  18  18:57:42  -9.15  -5.62    -3.01-226.174693             -0.0000
iter:  19  18:58:13  -8.80  -5.65    -3.27-226.174693             -0.0000
iter:  20  18:58:44  -9.26  -5.65    -2.70-226.174693             -0.0000
iter:  21  18:59:15  -9.65  -5.93    -3.39-226.174693             +0.0000
iter:  22  18:59:45 -10.88  -5.95    -3.99-226.174693             +0.0000
iter:  23  19:00:16 -10.04  -6.01    -3.17-226.174693             +0.0000
iter:  24  19:00:47 -10.98  -6.26    -4.11-226.174693             -0.0000
iter:  25  19:01:18  -9.92  -6.35    -3.26-226.174693             -0.0000
iter:  26  19:01:49 -10.23  -6.20    -3.89-226.174693             -0.0000
iter:  27  19:02:20 -11.54  -6.63    -4.27-226.174693             -0.0000
iter:  28  19:02:50 -12.44  -6.64    -4.99-226.174693             +0.0000
iter:  29  19:03:21 -11.11  -6.68    -4.00-226.174693             +0.0000
iter:  30  19:03:52 -11.58  -6.93    -4.46-226.174693             -0.0000
iter:  31  19:04:23 -12.94  -7.00    -5.30-226.174693             -0.0000
iter:  32  19:04:54 -11.94  -7.03    -4.41-226.174693             -0.0000
iter:  33  19:05:25 -11.60  -7.25    -4.83-226.174693             -0.0000
iter:  34  19:05:55 -12.14  -7.04    -4.05-226.174693             -0.0000
iter:  35  19:06:26 -12.46  -7.49    -4.67-226.174693             -0.0000
iter:  36  19:06:57 -13.21  -7.72    -5.12-226.174693             -0.0000
iter:  37  19:07:27 -13.07  -7.84    -4.78-226.174693             -0.0000
iter:  38  19:07:58 -14.30  -8.20    -6.16-226.174693             -0.0000

Converged after 38 iterations.

Dipole moment: (-0.003733, 0.004394, 0.001254) |e|*Ang

Total magnetic moment: (0.000000, 0.000000, -0.000000)
Local magnetic moments:
   0 O  ( 0.000000,  0.000000, -0.001827)
   1 O  ( 0.000000,  0.000000,  0.001826)
   2 O  ( 0.000000,  0.000000,  0.001789)
   3 O  ( 0.000000,  0.000000, -0.001826)
   4 O  ( 0.000000,  0.000000,  0.001781)
   5 O  ( 0.000000,  0.000000, -0.001821)
   6 O  ( 0.000000,  0.000000, -0.001828)
   7 O  ( 0.000000,  0.000000,  0.001876)
   8 O  ( 0.000000,  0.000000,  0.031100)
   9 O  ( 0.000000,  0.000000, -0.031150)
  10 O  ( 0.000000,  0.000000, -0.031036)
  11 O  ( 0.000000,  0.000000,  0.031226)
  12 Mn ( 0.000000,  0.000000,  4.396586)
  13 Mn ( 0.000000,  0.000000, -4.396823)
  14 Mn ( 0.000000,  0.000000, -4.395756)
  15 Mn ( 0.000000,  0.000000,  4.395771)
  16 P  ( 0.000000,  0.000000,  0.000839)
  17 P  ( 0.000000,  0.000000, -0.000879)
  18 P  ( 0.000000,  0.000000, -0.000856)
  19 P  ( 0.000000,  0.000000,  0.000860)
  20 O  ( 0.000000,  0.000000,  0.028458)
  21 O  ( 0.000000,  0.000000, -0.028379)
  22 O  ( 0.000000,  0.000000, -0.028445)
  23 O  ( 0.000000,  0.000000,  0.028375)
  24 Li ( 0.000000,  0.000000,  0.000000)
  25 Li ( 0.000000,  0.000000, -0.000007)
  26 Li ( 0.000000,  0.000000, -0.000001)
  27 Li ( 0.000000,  0.000000,  0.000005)

Energy contributions relative to reference atoms: (reference = -196157.275402)

Kinetic:       +277.894914
Potential:     -241.171767
External:        +0.000000
XC:            -264.785898
Entropy (-ST):   -0.000000
Local:           +1.888058
--------------------------
Free energy:   -226.174693
Extrapolated:  -226.174693

Spin contamination: 9.456300 electrons
Showing only first 2 kpts
                      Up                     Down
 Kpt  Band  Eigenvalues  Occupancy  Eigenvalues  Occupancy
  0    88      6.48625    0.01389      6.48442    0.01389
  0    89      6.61228    0.01389      6.60968    0.01389
  0    90      8.38996    0.00000      8.39089    0.00000
  0    91      8.46962    0.00000      8.46980    0.00000

  1    88      6.52570    0.01389      6.52415    0.01389
  1    89      6.62816    0.01389      6.62531    0.01389
  1    90      8.35200    0.00000      8.35128    0.00000
  1    91      8.43497    0.00000      8.43433    0.00000


Fermi level: 7.73837

Gap: 1.695 eV
Transition (v -> c):
  (s=0, k=21, n=89, [0.08, 0.42, -0.12]) -> (s=1, k=14, n=90, [0.08, 0.08, 0.12])

Forces in eV/Ang:
  0 O    -0.14966   -0.13393    0.05195
  1 O     0.00654    0.00390    0.00053
  2 O     0.00082    0.00089   -0.00109
  3 O     0.00604   -0.00101    0.00129
  4 O     0.00135   -0.00070    0.00009
  5 O     0.00507    0.00067    0.00123
  6 O    -0.01637   -0.00174    0.00041
  7 O     0.00071    0.00132   -0.00003
  8 O     0.01097   -0.00148   -0.00105
  9 O    -0.00491   -0.00221    0.00009
 10 O     0.00568    0.00071   -0.00041
 11 O     0.03378    0.03175   -0.00691
 12 Mn    0.01062    0.00165   -0.00282
 13 Mn    0.00935    0.00804    0.00451
 14 Mn   -0.00629   -0.00003   -0.00030
 15 Mn   -0.01084    0.00038    0.00332
 16 P     0.11135    0.08612   -0.04337
 17 P    -0.00781   -0.00461    0.00290
 18 P     0.00208    0.00080    0.00438
 19 P    -0.01179   -0.00016    0.00076
 20 O    -0.01174    0.00756   -0.00591
 21 O     0.00589    0.00336   -0.00115
 22 O     0.00265   -0.00179   -0.00247
 23 O     0.00437    0.00006   -0.00161
 24 Li   -0.00333    0.00017   -0.00043
 25 Li    0.00520    0.00308   -0.00204
 26 Li   -0.00202   -0.00024   -0.00053
 27 Li    0.00231   -0.00254   -0.00135

System changes: positions 

Initializing position-dependent things.

Density initialized from wave functions
                                           
                                           
                                           
                                           
                                           
               O     O  P  O               
            PO           OMn     O         
                  O          MO            
            O        Li O                  
             Mn  Mn          OP            
         O       O Li O                    
         Li     O P         O              
       Li                                  
                                           
                                           
                                           
                                           

Positions:
   0 O      3.381826    0.245721    1.027157    ( 0.0000,  0.0000,  0.0000)
   1 O      1.638710    5.670174    3.331211    ( 0.0000,  0.0000,  0.0000)
   2 O      6.659399    3.218528    3.580931    ( 0.0000,  0.0000,  0.0000)
   3 O      8.402291    2.707411    1.276874    ( 0.0000,  0.0000,  0.0000)
   4 O      6.659367    5.670151    3.580953    ( 0.0000,  0.0000,  0.0000)
   5 O      8.402320    0.255785    1.276901    ( 0.0000,  0.0000,  0.0000)
   6 O      3.381794    2.707426    1.027180    ( 0.0000,  0.0000,  0.0000)
   7 O      1.638738    3.218453    3.331239    ( 0.0000,  0.0000,  0.0000)
   8 O      0.514543    1.481579    1.283282    ( 0.0000,  0.0000,  0.0000)
   9 O      4.506054    4.444302    3.587213    ( 0.0000,  0.0000,  0.0000)
  10 O      9.526526    4.444333    3.324813    ( 0.0000,  0.0000,  0.0000)
  11 O      5.535111    1.481610    1.020863    ( 0.0000,  0.0000,  0.0000)
  12 Mn     2.224840    1.481415    2.441685    ( 0.0000,  0.0000,  1.0000)
  13 Mn     2.795761    4.444472    0.137561    ( 0.0000,  0.0000, -1.0000)
  14 Mn     7.816247    4.444498    2.166405    ( 0.0000,  0.0000, -1.0000)
  15 Mn     7.245392    1.481440    4.470562    ( 0.0000,  0.0000,  1.0000)
  16 P      4.118896    1.481596    0.405302    ( 0.0000,  0.0000,  0.0000)
  17 P      0.901666    4.444290    2.709347    ( 0.0000,  0.0000,  0.0000)
  18 P      5.922248    4.444317    4.202832    ( 0.0000,  0.0000,  0.0000)
  19 P      9.139418    1.481621    1.898793    ( 0.0000,  0.0000,  0.0000)
  20 O      4.117535    1.481578    3.488011    ( 0.0000,  0.0000,  0.0000)
  21 O      0.903053    4.444308    1.183930    ( 0.0000,  0.0000,  0.0000)
  22 O      5.923638    4.444334    1.120121    ( 0.0000,  0.0000,  0.0000)
  23 O      9.137993    1.481603    3.424205    ( 0.0000,  0.0000,  0.0000)
  24 Li    -0.000079   -0.000006    0.000048    ( 0.0000,  0.0000,  0.0000)
  25 Li     5.020651    0.000040    2.304102    ( 0.0000,  0.0000,  0.0000)
  26 Li    -0.000063    2.962934    0.000049    ( 0.0000,  0.0000,  0.0000)
  27 Li     5.020668    2.962944    2.304103    ( 0.0000,  0.0000,  0.0000)

Unit cell:
           periodic     x           y           z      points  spacing
  1. axis:    yes   10.041096    0.000054   -0.000022    60     0.1674
  2. axis:    yes    0.000032    5.925857    0.000001    35     0.1693
  3. axis:    yes   -0.000010    0.000001    4.608134    27     0.1707

  Lengths:  10.041096   5.925857   4.608134
  Angles:   89.999974  90.000250  89.999381

Effective grid spacing dv^(1/3) = 0.1691

                     log10-error:           total        iterations:
           time      wfs    density  force  energy       poisson  magmom
iter:   1  19:08:37  -3.34                -226.177848             +0.0013
iter:   2  19:09:01  -4.82  -3.25         -226.176963             +0.0004
iter:   3  19:09:25  -3.57  -3.29         -226.174794             -0.0000
iter:   4  19:09:48  -4.86  -3.45         -226.174108             +0.0001
iter:   5  19:10:12  -4.61  -3.70         -226.174485             +0.0001
iter:   6  19:10:35  -4.62  -3.68         -226.173902             +0.0000
iter:   7  19:10:59  -5.55  -4.11         -226.173917             +0.0000
iter:   8  19:11:23  -6.38  -4.13         -226.173888             +0.0000
iter:   9  19:11:46  -6.10  -4.47         -226.173897             -0.0000
iter:  10  19:12:10  -6.60  -4.47         -226.173886             -0.0000
iter:  11  19:12:40  -7.91  -4.99         -226.173886             -0.0000
iter:  12  19:13:04  -7.17  -5.00         -226.173888             -0.0000
iter:  13  19:13:27  -7.16  -4.84         -226.173886             -0.0000
iter:  14  19:13:58  -8.78  -5.30    -2.55-226.173886             -0.0000
iter:  15  19:14:29  -8.36  -5.46    -3.07-226.173886             -0.0000
iter:  16  19:14:59  -8.24  -5.49    -2.93-226.173886             -0.0000
iter:  17  19:15:30  -9.42  -5.70    -3.60-226.173886             -0.0000
iter:  18  19:16:01  -9.37  -5.95    -3.82-226.173886             -0.0000
iter:  19  19:16:32  -9.24  -6.01    -3.43-226.173886             -0.0000
iter:  20  19:17:03  -9.45  -5.99    -3.87-226.173886             -0.0000
iter:  21  19:17:33 -10.69  -6.44    -4.21-226.173886             -0.0000
iter:  22  19:18:04 -10.65  -6.45    -4.43-226.173886             -0.0000
iter:  23  19:18:35 -10.79  -6.62    -4.24-226.173886             +0.0000
iter:  24  19:19:06 -11.15  -6.64    -4.62-226.173886             +0.0000
iter:  25  19:19:36 -11.33  -6.94    -4.35-226.173886             +0.0000
iter:  26  19:20:07 -12.01  -7.04    -4.87-226.173886             +0.0000
iter:  27  19:20:38 -11.99  -7.18    -4.70-226.173886             +0.0000
iter:  28  19:21:09 -13.03  -7.58    -5.05-226.173886             -0.0000
iter:  29  19:21:39 -13.60  -7.71    -5.63-226.173886             -0.0000
iter:  30  19:22:10 -14.11  -7.79    -5.73-226.173886             -0.0000
iter:  31  19:22:41 -13.69  -7.85    -5.37-226.173886             -0.0000
iter:  32  19:23:12 -14.17  -8.08    -5.59-226.173886             -0.0000
iter:  33  19:23:42 -15.12  -8.34    -6.51-226.173886             -0.0000

Converged after 33 iterations.

Dipole moment: (0.001976, -0.077524, -0.003080) |e|*Ang

Total magnetic moment: (0.000000, 0.000000, -0.000000)
Local magnetic moments:
   0 O  ( 0.000000,  0.000000, -0.002216)
   1 O  ( 0.000000,  0.000000,  0.001776)
   2 O  ( 0.000000,  0.000000,  0.001822)
   3 O  ( 0.000000,  0.000000, -0.001801)
   4 O  ( 0.000000,  0.000000,  0.001823)
   5 O  ( 0.000000,  0.000000, -0.001793)
   6 O  ( 0.000000,  0.000000, -0.001669)
   7 O  ( 0.000000,  0.000000,  0.002053)
   8 O  ( 0.000000,  0.000000,  0.031096)
   9 O  ( 0.000000,  0.000000, -0.031106)
  10 O  ( 0.000000,  0.000000, -0.031115)
  11 O  ( 0.000000,  0.000000,  0.030852)
  12 Mn ( 0.000000,  0.000000,  4.395422)
  13 Mn ( 0.000000,  0.000000, -4.393906)
  14 Mn ( 0.000000,  0.000000, -4.395758)
  15 Mn ( 0.000000,  0.000000,  4.395619)
  16 P  ( 0.000000,  0.000000,  0.000469)
  17 P  ( 0.000000,  0.000000, -0.000880)
  18 P  ( 0.000000,  0.000000, -0.000891)
  19 P  ( 0.000000,  0.000000,  0.000862)
  20 O  ( 0.000000,  0.000000,  0.028258)
  21 O  ( 0.000000,  0.000000, -0.028465)
  22 O  ( 0.000000,  0.000000, -0.028419)
  23 O  ( 0.000000,  0.000000,  0.028441)
  24 Li ( 0.000000,  0.000000, -0.000001)
  25 Li ( 0.000000,  0.000000, -0.000032)
  26 Li ( 0.000000,  0.000000, -0.000001)
  27 Li ( 0.000000,  0.000000, -0.000002)

Energy contributions relative to reference atoms: (reference = -196157.275402)

Kinetic:       +277.120468
Potential:     -240.576672
External:        +0.000000
XC:            -264.607004
Entropy (-ST):   -0.000000
Local:           +1.889323
--------------------------
Free energy:   -226.173886
Extrapolated:  -226.173886

Spin contamination: 9.453887 electrons
Showing only first 2 kpts
                      Up                     Down
 Kpt  Band  Eigenvalues  Occupancy  Eigenvalues  Occupancy
  0    88      6.48590    0.01389      6.49456    0.01389
  0    89      6.61058    0.01389      6.61984    0.01389
  0    90      8.39676    0.00000      8.39049    0.00000
  0    91      8.47617    0.00000      8.46973    0.00000

  1    88      6.52604    0.01389      6.53442    0.01389
  1    89      6.62580    0.01389      6.63536    0.01389
  1    90      8.35849    0.00000      8.35136    0.00000
  1    91      8.44107    0.00000      8.43419    0.00000


Fermi level: 7.73837

Gap: 1.690 eV
Transition (v -> c):
  (s=1, k=1, n=89, [0.08, -0.42, -0.12]) -> (s=1, k=10, n=90, [0.08, -0.08, 0.12])

Forces in eV/Ang:
  0 O     0.12868    0.30920   -0.06065
  1 O    -0.00395    0.00149   -0.00203
  2 O     0.00094   -0.00377    0.00054
  3 O    -0.00103   -0.00058   -0.00023
  4 O     0.00102    0.00295    0.00108
  5 O    -0.00092    0.00033   -0.00005
  6 O    -0.00138   -0.05992    0.00297
  7 O     0.00107   -0.00317   -0.00020
  8 O     0.00135    0.00033    0.00036
  9 O     0.00864   -0.00615   -0.00323
 10 O    -0.00261   -0.00037    0.00126
 11 O    -0.02007   -0.00496    0.00422
 12 Mn    0.00169   -0.01498   -0.00690
 13 Mn   -0.01314   -0.02031   -0.01854
 14 Mn    0.00108    0.00011    0.00019
 15 Mn    0.00491   -0.00031   -0.00266
 16 P    -0.09479   -0.19513    0.07802
 17 P     0.00248    0.00469   -0.00449
 18 P    -0.00763    0.00157   -0.00013
 19 P     0.00117   -0.00013    0.00029
 20 O    -0.00558   -0.00189    0.00879
 21 O    -0.00603   -0.00420    0.00358
 22 O     0.00413   -0.00261   -0.00135
 23 O    -0.00060    0.00012   -0.00094
 24 Li    0.00156   -0.00115   -0.00027
 25 Li   -0.00313   -0.00689   -0.00109
 26 Li    0.00050    0.00113   -0.00009
 27 Li    0.00165    0.00450    0.00154

System changes: positions 

Initializing position-dependent things.

Density initialized from wave functions
                                           
                                           
                                           
                                           
                                           
               O     O  P  O               
            PO           OMn     O         
                  O          MO            
            O        Li O                  
             Mn  Mn          OP            
         O       O Li O                    
         Li     O P         O              
       Li                                  
                                           
                                           
                                           
                                           

Positions:
   0 O      3.381826    0.265721    1.027157    ( 0.0000,  0.0000,  0.0000)
   1 O      1.638710    5.670174    3.331211    ( 0.0000,  0.0000,  0.0000)
   2 O      6.659399    3.218528    3.580931    ( 0.0000,  0.0000,  0.0000)
   3 O      8.402291    2.707411    1.276874    ( 0.0000,  0.0000,  0.0000)
   4 O      6.659367    5.670151    3.580953    ( 0.0000,  0.0000,  0.0000)
   5 O      8.402320    0.255785    1.276901    ( 0.0000,  0.0000,  0.0000)
   6 O      3.381794    2.707426    1.027180    ( 0.0000,  0.0000,  0.0000)
   7 O      1.638738    3.218453    3.331239    ( 0.0000,  0.0000,  0.0000)
   8 O      0.514543    1.481579    1.283282    ( 0.0000,  0.0000,  0.0000)
   9 O      4.506054    4.444302    3.587213    ( 0.0000,  0.0000,  0.0000)
  10 O      9.526526    4.444333    3.324813    ( 0.0000,  0.0000,  0.0000)
  11 O      5.535111    1.481610    1.020863    ( 0.0000,  0.0000,  0.0000)
  12 Mn     2.224840    1.481415    2.441685    ( 0.0000,  0.0000,  1.0000)
  13 Mn     2.795761    4.444472    0.137561    ( 0.0000,  0.0000, -1.0000)
  14 Mn     7.816247    4.444498    2.166405    ( 0.0000,  0.0000, -1.0000)
  15 Mn     7.245392    1.481440    4.470562    ( 0.0000,  0.0000,  1.0000)
  16 P      4.118896    1.481596    0.405302    ( 0.0000,  0.0000,  0.0000)
  17 P      0.901666    4.444290    2.709347    ( 0.0000,  0.0000,  0.0000)
  18 P      5.922248    4.444317    4.202832    ( 0.0000,  0.0000,  0.0000)
  19 P      9.139418    1.481621    1.898793    ( 0.0000,  0.0000,  0.0000)
  20 O      4.117535    1.481578    3.488011    ( 0.0000,  0.0000,  0.0000)
  21 O      0.903053    4.444308    1.183930    ( 0.0000,  0.0000,  0.0000)
  22 O      5.923638    4.444334    1.120121    ( 0.0000,  0.0000,  0.0000)
  23 O      9.137993    1.481603    3.424205    ( 0.0000,  0.0000,  0.0000)
  24 Li    -0.000079   -0.000006    0.000048    ( 0.0000,  0.0000,  0.0000)
  25 Li     5.020651    0.000040    2.304102    ( 0.0000,  0.0000,  0.0000)
  26 Li    -0.000063    2.962934    0.000049    ( 0.0000,  0.0000,  0.0000)
  27 Li     5.020668    2.962944    2.304103    ( 0.0000,  0.0000,  0.0000)

Unit cell:
           periodic     x           y           z      points  spacing
  1. axis:    yes   10.041096    0.000054   -0.000022    60     0.1674
  2. axis:    yes    0.000032    5.925857    0.000001    35     0.1693
  3. axis:    yes   -0.000010    0.000001    4.608134    27     0.1707

  Lengths:  10.041096   5.925857   4.608134
  Angles:   89.999974  90.000250  89.999381

Effective grid spacing dv^(1/3) = 0.1691

                     log10-error:           total        iterations:
           time      wfs    density  force  energy       poisson  magmom
iter:   1  19:24:21  -3.08                -226.180670             -0.0028
iter:   2  19:24:45  -4.60  -3.14         -226.179120             -0.0008
iter:   3  19:25:08  -3.43  -3.18         -226.175157             +0.0000
iter:   4  19:25:32  -4.63  -3.38         -226.174323             -0.0002
iter:   5  19:25:55  -4.22  -3.61         -226.175822             -0.0001
iter:   6  19:26:19  -4.28  -3.41         -226.173877             -0.0000
iter:   7  19:26:42  -5.24  -3.99         -226.173900             -0.0000
iter:   8  19:27:06  -6.26  -4.04         -226.173861             -0.0000
iter:   9  19:27:29  -6.13  -4.37         -226.173867             -0.0000
iter:  10  19:27:52  -6.88  -4.46         -226.173856             -0.0000
iter:  11  19:28:23  -7.67  -4.84         -226.173856             -0.0000
iter:  12  19:28:47  -7.35  -4.89         -226.173857             -0.0000
iter:  13  19:29:10  -7.16  -4.86         -226.173856             -0.0000
iter:  14  19:29:40  -8.74  -5.22    -2.31-226.173856             -0.0000
iter:  15  19:30:11  -7.73  -5.32    -2.15-226.173856             -0.0000
iter:  16  19:30:42  -8.48  -5.27    -2.87-226.173856             -0.0000
iter:  17  19:31:13  -9.35  -5.65    -3.17-226.173856             -0.0000
iter:  18  19:31:44  -8.77  -5.74    -3.25-226.173856             -0.0000
iter:  19  19:32:14  -9.84  -6.05    -3.39-226.173856             -0.0000
iter:  20  19:32:45 -10.50  -6.28    -3.92-226.173856             -0.0000
iter:  21  19:33:16 -10.49  -6.31    -4.26-226.173856             -0.0000
iter:  22  19:33:47 -11.09  -6.42    -4.56-226.173856             -0.0000
iter:  23  19:34:18 -11.15  -6.47    -3.51-226.173856             +0.0000
iter:  24  19:34:49 -11.73  -6.54    -3.88-226.173856             -0.0000
iter:  25  19:35:20 -11.23  -6.57    -4.15-226.173856             -0.0000
iter:  26  19:35:51 -11.71  -6.76    -3.60-226.173856             -0.0000
iter:  27  19:36:22 -12.27  -6.83    -4.01-226.173856             +0.0000
iter:  28  19:36:53 -11.63  -6.99    -3.79-226.173856             +0.0000
iter:  29  19:37:24 -11.88  -7.13    -3.99-226.173856             +0.0000
iter:  30  19:37:54 -13.15  -7.54    -5.14-226.173856             +0.0000
iter:  31  19:38:25 -12.70  -7.60    -4.79-226.173856             +0.0000
iter:  32  19:38:56 -13.23  -7.78    -4.86-226.173856             -0.0000
iter:  33  19:39:27 -14.15  -7.86    -5.23-226.173856             -0.0000
iter:  34  19:39:57 -14.30  -7.93    -5.60-226.173856             -0.0000
iter:  35  19:40:28 -14.03  -7.99    -5.03-226.173856             -0.0000
iter:  36  19:40:59 -13.96  -8.16    -5.19-226.173856             -0.0000
iter:  37  19:41:30 -14.99  -8.22    -5.75-226.173856             -0.0000
iter:  38  19:42:00 -14.76  -8.29    -5.82-226.173856             -0.0000
iter:  39  19:42:31 -15.33  -8.44    -5.88-226.173856             -0.0000
iter:  40  19:43:02 -15.33  -8.58    -6.55-226.173856             -0.0000

Converged after 40 iterations.

Dipole moment: (-0.001117, 0.096221, 0.001638) |e|*Ang

Total magnetic moment: (0.000000, 0.000000, -0.000000)
Local magnetic moments:
   0 O  ( 0.000000,  0.000000, -0.001407)
   1 O  ( 0.000000,  0.000000,  0.001840)
   2 O  ( 0.000000,  0.000000,  0.001798)
   3 O  ( 0.000000,  0.000000, -0.001817)
   4 O  ( 0.000000,  0.000000,  0.001786)
   5 O  ( 0.000000,  0.000000, -0.001815)
   6 O  ( 0.000000,  0.000000, -0.001964)
   7 O  ( 0.000000,  0.000000,  0.001577)
   8 O  ( 0.000000,  0.000000,  0.031099)
   9 O  ( 0.000000,  0.000000, -0.031088)
  10 O  ( 0.000000,  0.000000, -0.031077)
  11 O  ( 0.000000,  0.000000,  0.031335)
  12 Mn ( 0.000000,  0.000000,  4.396074)
  13 Mn ( 0.000000,  0.000000, -4.397555)
  14 Mn ( 0.000000,  0.000000, -4.395716)
  15 Mn ( 0.000000,  0.000000,  4.395880)
  16 P  ( 0.000000,  0.000000,  0.001252)
  17 P  ( 0.000000,  0.000000, -0.000848)
  18 P  ( 0.000000,  0.000000, -0.000852)
  19 P  ( 0.000000,  0.000000,  0.000878)
  20 O  ( 0.000000,  0.000000,  0.028573)
  21 O  ( 0.000000,  0.000000, -0.028367)
  22 O  ( 0.000000,  0.000000, -0.028422)
  23 O  ( 0.000000,  0.000000,  0.028397)
  24 Li ( 0.000000,  0.000000,  0.000001)
  25 Li ( 0.000000,  0.000000,  0.000030)
  26 Li ( 0.000000,  0.000000,  0.000001)
  27 Li ( 0.000000,  0.000000,  0.000002)

Energy contributions relative to reference atoms: (reference = -196157.275402)

Kinetic:       +278.151488
Potential:     -241.374991
External:        +0.000000
XC:            -264.837759
Entropy (-ST):   -0.000000
Local:           +1.887407
--------------------------
Free energy:   -226.173856
Extrapolated:  -226.173856

Spin contamination: 9.456478 electrons
Showing only first 2 kpts
                      Up                     Down
 Kpt  Band  Eigenvalues  Occupancy  Eigenvalues  Occupancy
  0    88      6.49072    0.01389      6.48173    0.01389
  0    89      6.61577    0.01389      6.60718    0.01389
  0    90      8.38833    0.00000      8.39497    0.00000
  0    91      8.46791    0.00000      8.47412    0.00000

  1    88      6.53031    0.01389      6.52150    0.01389
  1    89      6.63153    0.01389      6.62273    0.01389
  1    90      8.35032    0.00000      8.35778    0.00000
  1    91      8.43343    0.00000      8.44004    0.00000


Fermi level: 7.73837

Gap: 1.692 eV
Transition (v -> c):
  (s=0, k=2, n=89, [0.08, -0.42, 0.12]) -> (s=0, k=9, n=90, [0.08, -0.08, -0.12])

Forces in eV/Ang:
  0 O    -0.13555   -0.31875    0.06675
  1 O     0.00466   -0.00217    0.00196
  2 O    -0.00166    0.00291    0.00063
  3 O     0.00152    0.00111    0.00072
  4 O    -0.00146   -0.00183    0.00037
  5 O     0.00116   -0.00107    0.00074
  6 O     0.00135    0.06126   -0.00361
  7 O    -0.00061    0.00418    0.00033
  8 O    -0.00102   -0.00054    0.00016
  9 O    -0.00947    0.00634    0.00473
 10 O     0.00183    0.00058   -0.00085
 11 O     0.02135    0.00461   -0.00459
 12 Mn   -0.00113    0.01520    0.00674
 13 Mn    0.01175    0.01843    0.01740
 14 Mn   -0.00064   -0.00009    0.00017
 15 Mn   -0.00540    0.00026    0.00215
 16 P     0.10162    0.20493   -0.08357
 17 P    -0.00260   -0.00461    0.00467
 18 P     0.00864   -0.00148   -0.00074
 19 P    -0.00178    0.00002   -0.00083
 20 O     0.00538    0.00185   -0.00756
 21 O     0.00645    0.00404   -0.00225
 22 O    -0.00464    0.00248   -0.00072
 23 O     0.00110    0.00003   -0.00089
 24 Li   -0.00122    0.00084   -0.00018
 25 Li    0.00267    0.00714    0.00067
 26 Li   -0.00015   -0.00082   -0.00037
 27 Li   -0.00218   -0.00476   -0.00202

System changes: positions 

Initializing position-dependent things.

Density initialized from wave functions
                                           
                                           
                                           
                                           
                                           
               O     O  P  O               
            PO           OMn     O         
                  O          MO            
            O        Li O                  
             Mn  Mn          OP            
         O       O Li O                    
         Li     O P         O              
       Li                                  
                                           
                                           
                                           
                                           

Positions:
   0 O      3.381826    0.255721    1.017157    ( 0.0000,  0.0000,  0.0000)
   1 O      1.638710    5.670174    3.331211    ( 0.0000,  0.0000,  0.0000)
   2 O      6.659399    3.218528    3.580931    ( 0.0000,  0.0000,  0.0000)
   3 O      8.402291    2.707411    1.276874    ( 0.0000,  0.0000,  0.0000)
   4 O      6.659367    5.670151    3.580953    ( 0.0000,  0.0000,  0.0000)
   5 O      8.402320    0.255785    1.276901    ( 0.0000,  0.0000,  0.0000)
   6 O      3.381794    2.707426    1.027180    ( 0.0000,  0.0000,  0.0000)
   7 O      1.638738    3.218453    3.331239    ( 0.0000,  0.0000,  0.0000)
   8 O      0.514543    1.481579    1.283282    ( 0.0000,  0.0000,  0.0000)
   9 O      4.506054    4.444302    3.587213    ( 0.0000,  0.0000,  0.0000)
  10 O      9.526526    4.444333    3.324813    ( 0.0000,  0.0000,  0.0000)
  11 O      5.535111    1.481610    1.020863    ( 0.0000,  0.0000,  0.0000)
  12 Mn     2.224840    1.481415    2.441685    ( 0.0000,  0.0000,  1.0000)
  13 Mn     2.795761    4.444472    0.137561    ( 0.0000,  0.0000, -1.0000)
  14 Mn     7.816247    4.444498    2.166405    ( 0.0000,  0.0000, -1.0000)
  15 Mn     7.245392    1.481440    4.470562    ( 0.0000,  0.0000,  1.0000)
  16 P      4.118896    1.481596    0.405302    ( 0.0000,  0.0000,  0.0000)
  17 P      0.901666    4.444290    2.709347    ( 0.0000,  0.0000,  0.0000)
  18 P      5.922248    4.444317    4.202832    ( 0.0000,  0.0000,  0.0000)
  19 P      9.139418    1.481621    1.898793    ( 0.0000,  0.0000,  0.0000)
  20 O      4.117535    1.481578    3.488011    ( 0.0000,  0.0000,  0.0000)
  21 O      0.903053    4.444308    1.183930    ( 0.0000,  0.0000,  0.0000)
  22 O      5.923638    4.444334    1.120121    ( 0.0000,  0.0000,  0.0000)
  23 O      9.137993    1.481603    3.424205    ( 0.0000,  0.0000,  0.0000)
  24 Li    -0.000079   -0.000006    0.000048    ( 0.0000,  0.0000,  0.0000)
  25 Li     5.020651    0.000040    2.304102    ( 0.0000,  0.0000,  0.0000)
  26 Li    -0.000063    2.962934    0.000049    ( 0.0000,  0.0000,  0.0000)
  27 Li     5.020668    2.962944    2.304103    ( 0.0000,  0.0000,  0.0000)

Unit cell:
           periodic     x           y           z      points  spacing
  1. axis:    yes   10.041096    0.000054   -0.000022    60     0.1674
  2. axis:    yes    0.000032    5.925857    0.000001    35     0.1693
  3. axis:    yes   -0.000010    0.000001    4.608134    27     0.1707

  Lengths:  10.041096   5.925857   4.608134
  Angles:   89.999974  90.000250  89.999381

Effective grid spacing dv^(1/3) = 0.1691

                     log10-error:           total        iterations:
           time      wfs    density  force  energy       poisson  magmom
iter:   1  19:43:41  -3.60                -226.175738             +0.0024
iter:   2  19:44:05  -5.13  -3.57         -226.175586             +0.0007
iter:   3  19:44:28  -4.30  -3.60         -226.175239             -0.0001
iter:   4  19:44:52  -5.48  -3.79         -226.174900             +0.0002
iter:   5  19:45:15  -4.80  -4.00         -226.175270             +0.0001
iter:   6  19:45:38  -5.16  -3.85         -226.174823             +0.0000
iter:   7  19:46:02  -6.10  -4.43         -226.174821             +0.0000
iter:   8  19:46:25  -6.95  -4.53         -226.174819             +0.0000
iter:   9  19:46:56  -7.56  -4.84         -226.174818             +0.0000
iter:  10  19:47:20  -7.22  -4.96         -226.174817             +0.0000
iter:  11  19:47:50  -8.70  -5.23    -1.79-226.174817             +0.0000
iter:  12  19:48:21  -7.98  -5.28    -2.84-226.174817             -0.0000
iter:  13  19:48:52  -8.43  -5.41    -2.49-226.174817             -0.0000
iter:  14  19:49:23  -8.90  -5.46    -2.62-226.174817             -0.0000
iter:  15  19:49:53  -9.23  -5.70    -3.28-226.174817             -0.0000
iter:  16  19:50:24  -9.46  -5.68    -3.01-226.174817             +0.0000
iter:  17  19:50:55 -10.01  -5.80    -2.96-226.174817             +0.0000
iter:  18  19:51:26  -9.69  -5.83    -2.87-226.174817             -0.0000
iter:  19  19:51:57 -10.13  -5.95    -3.37-226.174817             -0.0000
iter:  20  19:52:28  -9.96  -6.01    -3.89-226.174817             -0.0000
iter:  21  19:52:58 -10.80  -6.03    -3.67-226.174817             -0.0000
iter:  22  19:53:29  -9.60  -6.08    -3.16-226.174817             -0.0000
iter:  23  19:54:00 -10.76  -6.42    -3.69-226.174817             -0.0000
iter:  24  19:54:31 -11.41  -6.47    -4.21-226.174817             -0.0000
iter:  25  19:55:02 -10.95  -6.53    -3.73-226.174817             -0.0000
iter:  26  19:55:32 -11.73  -6.93    -4.34-226.174817             -0.0000
iter:  27  19:56:03 -12.59  -6.92    -4.56-226.174817             -0.0000
iter:  28  19:56:34 -11.58  -6.96    -4.24-226.174817             -0.0000
iter:  29  19:57:05 -12.67  -7.24    -4.61-226.174817             -0.0000
iter:  30  19:57:35 -12.75  -7.29    -4.49-226.174817             +0.0000
iter:  31  19:58:06 -12.88  -7.37    -4.95-226.174817             +0.0000
iter:  32  19:58:37 -12.53  -7.43    -4.85-226.174817             +0.0000
iter:  33  19:59:08 -13.76  -7.49    -5.35-226.174817             +0.0000
iter:  34  19:59:38 -12.35  -7.55    -4.81-226.174817             +0.0000
iter:  35  20:00:09 -13.72  -7.91    -5.40-226.174817             +0.0000
iter:  36  20:00:40 -14.00  -8.02    -5.44-226.174817             +0.0000
iter:  37  20:01:11 -14.71  -8.14    -5.34-226.174817             -0.0000
iter:  38  20:01:41 -14.45  -8.24    -5.95-226.174817             -0.0000
iter:  39  20:02:12 -14.91  -8.33    -5.76-226.174817             +0.0000
iter:  40  20:02:43 -14.37  -8.35    -5.79-226.174817             +0.0000
iter:  41  20:03:14 -14.76  -8.50    -5.87-226.174817             +0.0000
iter:  42  20:03:45 -15.63  -8.62    -6.78-226.174817             +0.0000

Converged after 42 iterations.

Dipole moment: (-0.000142, 0.002424, -0.009779) |e|*Ang

Total magnetic moment: (0.000000, 0.000000, 0.000000)
Local magnetic moments:
   0 O  ( 0.000000,  0.000000, -0.002090)
   1 O  ( 0.000000,  0.000000,  0.001760)
   2 O  ( 0.000000,  0.000000,  0.001796)
   3 O  ( 0.000000,  0.000000, -0.001818)
   4 O  ( 0.000000,  0.000000,  0.001793)
   5 O  ( 0.000000,  0.000000, -0.001808)
   6 O  ( 0.000000,  0.000000, -0.001829)
   7 O  ( 0.000000,  0.000000,  0.001955)
   8 O  ( 0.000000,  0.000000,  0.031078)
   9 O  ( 0.000000,  0.000000, -0.031152)
  10 O  ( 0.000000,  0.000000, -0.031089)
  11 O  ( 0.000000,  0.000000,  0.031002)
  12 Mn ( 0.000000,  0.000000,  4.396296)
  13 Mn ( 0.000000,  0.000000, -4.395328)
  14 Mn ( 0.000000,  0.000000, -4.395758)
  15 Mn ( 0.000000,  0.000000,  4.395734)
  16 P  ( 0.000000,  0.000000,  0.000654)
  17 P  ( 0.000000,  0.000000, -0.000872)
  18 P  ( 0.000000,  0.000000, -0.000879)
  19 P  ( 0.000000,  0.000000,  0.000858)
  20 O  ( 0.000000,  0.000000,  0.028419)
  21 O  ( 0.000000,  0.000000, -0.028438)
  22 O  ( 0.000000,  0.000000, -0.028433)
  23 O  ( 0.000000,  0.000000,  0.028415)
  24 Li ( 0.000000,  0.000000,  0.000001)
  25 Li ( 0.000000,  0.000000, -0.000007)
  26 Li ( 0.000000,  0.000000, -0.000001)
  27 Li ( 0.000000,  0.000000, -0.000001)

Energy contributions relative to reference atoms: (reference = -196157.275402)

Kinetic:       +277.876350
Potential:     -241.161139
External:        +0.000000
XC:            -264.777617
Entropy (-ST):   -0.000000
Local:           +1.887590
--------------------------
Free energy:   -226.174817
Extrapolated:  -226.174817

Spin contamination: 9.455355 electrons
Showing only first 2 kpts
                      Up                     Down
 Kpt  Band  Eigenvalues  Occupancy  Eigenvalues  Occupancy
  0    88      6.48549    0.01389      6.48988    0.01389
  0    89      6.61125    0.01389      6.61449    0.01389
  0    90      8.39217    0.00000      8.39018    0.00000
  0    91      8.47146    0.00000      8.47002    0.00000

  1    88      6.52559    0.01389      6.52956    0.01389
  1    89      6.62618    0.01389      6.62969    0.01389
  1    90      8.35428    0.00000      8.35268    0.00000
  1    91      8.43665    0.00000      8.43530    0.00000


Fermi level: 7.73837

Gap: 1.697 eV
Transition (v -> c):
  (s=1, k=21, n=89, [0.08, 0.42, -0.12]) -> (s=1, k=13, n=90, [0.08, 0.08, -0.12])

Forces in eV/Ang:
  0 O    -0.05242   -0.06450    0.12511
  1 O     0.00083    0.00157   -0.00873
  2 O     0.00132   -0.00037    0.00133
  3 O     0.00128   -0.00020    0.00026
  4 O     0.00042    0.00091    0.00026
  5 O     0.00100    0.00003    0.00038
  6 O    -0.00069   -0.00365    0.00876
  7 O     0.00014    0.00021    0.00012
  8 O     0.00341   -0.00042    0.00073
  9 O     0.00349   -0.00234   -0.00431
 10 O     0.00052    0.00021    0.00059
 11 O    -0.00365   -0.00066    0.00596
 12 Mn    0.00963   -0.00064   -0.00374
 13 Mn   -0.00534   -0.02113   -0.01128
 14 Mn   -0.00075   -0.00014    0.00052
 15 Mn   -0.00212    0.00023   -0.00047
 16 P     0.04275    0.07265   -0.07743
 17 P    -0.00223   -0.00033   -0.00084
 18 P    -0.00251   -0.00041   -0.00306
 19 P    -0.00263   -0.00009    0.00036
 20 O     0.00829    0.01916   -0.03472
 21 O     0.00009   -0.00006    0.00095
 22 O    -0.00096    0.00072   -0.00026
 23 O     0.00094    0.00005   -0.00107
 24 Li   -0.00011   -0.00014   -0.00024
 25 Li    0.00056    0.00138    0.00003
 26 Li   -0.00006    0.00022   -0.00027
 27 Li   -0.00121   -0.00223    0.00142

System changes: positions 

Initializing position-dependent things.

Density initialized from wave functions
                                           
                                           
                                           
                                           
                                           
               O     O  P  O               
            PO           OMn     O         
                  O          MO            
            O        Li O                  
             Mn  Mn          OP            
         O       O Li O                    
         Li     O P         O              
       Li                                  
                                           
                                           
                                           
                                           

Positions:
   0 O      3.381826    0.255721    1.037157    ( 0.0000,  0.0000,  0.0000)
   1 O      1.638710    5.670174    3.331211    ( 0.0000,  0.0000,  0.0000)
   2 O      6.659399    3.218528    3.580931    ( 0.0000,  0.0000,  0.0000)
   3 O      8.402291    2.707411    1.276874    ( 0.0000,  0.0000,  0.0000)
   4 O      6.659367    5.670151    3.580953    ( 0.0000,  0.0000,  0.0000)
   5 O      8.402320    0.255785    1.276901    ( 0.0000,  0.0000,  0.0000)
   6 O      3.381794    2.707426    1.027180    ( 0.0000,  0.0000,  0.0000)
   7 O      1.638738    3.218453    3.331239    ( 0.0000,  0.0000,  0.0000)
   8 O      0.514543    1.481579    1.283282    ( 0.0000,  0.0000,  0.0000)
   9 O      4.506054    4.444302    3.587213    ( 0.0000,  0.0000,  0.0000)
  10 O      9.526526    4.444333    3.324813    ( 0.0000,  0.0000,  0.0000)
  11 O      5.535111    1.481610    1.020863    ( 0.0000,  0.0000,  0.0000)
  12 Mn     2.224840    1.481415    2.441685    ( 0.0000,  0.0000,  1.0000)
  13 Mn     2.795761    4.444472    0.137561    ( 0.0000,  0.0000, -1.0000)
  14 Mn     7.816247    4.444498    2.166405    ( 0.0000,  0.0000, -1.0000)
  15 Mn     7.245392    1.481440    4.470562    ( 0.0000,  0.0000,  1.0000)
  16 P      4.118896    1.481596    0.405302    ( 0.0000,  0.0000,  0.0000)
  17 P      0.901666    4.444290    2.709347    ( 0.0000,  0.0000,  0.0000)
  18 P      5.922248    4.444317    4.202832    ( 0.0000,  0.0000,  0.0000)
  19 P      9.139418    1.481621    1.898793    ( 0.0000,  0.0000,  0.0000)
  20 O      4.117535    1.481578    3.488011    ( 0.0000,  0.0000,  0.0000)
  21 O      0.903053    4.444308    1.183930    ( 0.0000,  0.0000,  0.0000)
  22 O      5.923638    4.444334    1.120121    ( 0.0000,  0.0000,  0.0000)
  23 O      9.137993    1.481603    3.424205    ( 0.0000,  0.0000,  0.0000)
  24 Li    -0.000079   -0.000006    0.000048    ( 0.0000,  0.0000,  0.0000)
  25 Li     5.020651    0.000040    2.304102    ( 0.0000,  0.0000,  0.0000)
  26 Li    -0.000063    2.962934    0.000049    ( 0.0000,  0.0000,  0.0000)
  27 Li     5.020668    2.962944    2.304103    ( 0.0000,  0.0000,  0.0000)

Unit cell:
           periodic     x           y           z      points  spacing
  1. axis:    yes   10.041096    0.000054   -0.000022    60     0.1674
  2. axis:    yes    0.000032    5.925857    0.000001    35     0.1693
  3. axis:    yes   -0.000010    0.000001    4.608134    27     0.1707

  Lengths:  10.041096   5.925857   4.608134
  Angles:   89.999974  90.000250  89.999381

Effective grid spacing dv^(1/3) = 0.1691

                     log10-error:           total        iterations:
           time      wfs    density  force  energy       poisson  magmom
iter:   1  20:04:24  -3.36                -226.177188             -0.0020
iter:   2  20:04:47  -4.77  -3.33         -226.176724             -0.0006
iter:   3  20:05:11  -3.89  -3.37         -226.175328             +0.0000
iter:   4  20:05:34  -5.39  -3.56         -226.174996             -0.0001
iter:   5  20:05:58  -4.46  -3.72         -226.175645             -0.0001
iter:   6  20:06:21  -4.71  -3.56         -226.174814             -0.0000
iter:   7  20:06:45  -5.61  -4.18         -226.174831             -0.0000
iter:   8  20:07:08  -6.45  -4.19         -226.174808             -0.0000
iter:   9  20:07:32  -6.38  -4.61         -226.174815             -0.0000
iter:  10  20:07:55  -6.88  -4.51         -226.174807             -0.0000
iter:  11  20:08:25  -7.54  -5.03         -226.174807             -0.0000
iter:  12  20:08:56  -8.78  -5.13    -2.73-226.174807             -0.0000
iter:  13  20:09:27  -8.42  -5.20    -2.55-226.174807             -0.0000
iter:  14  20:09:58  -8.84  -5.33    -3.21-226.174807             -0.0000
iter:  15  20:10:29  -8.75  -5.43    -2.26-226.174807             -0.0000
iter:  16  20:11:00  -9.22  -5.69    -2.70-226.174807             -0.0000
iter:  17  20:11:30  -9.94  -5.93    -3.60-226.174807             -0.0000
iter:  18  20:12:01 -11.12  -6.02    -3.99-226.174807             -0.0000
iter:  19  20:12:32 -10.57  -6.02    -3.35-226.174807             -0.0000
iter:  20  20:13:03 -10.07  -6.10    -3.38-226.174807             -0.0000
iter:  21  20:13:34 -11.18  -6.23    -4.05-226.174807             -0.0000
iter:  22  20:14:05 -10.90  -6.27    -4.05-226.174807             -0.0000
iter:  23  20:14:36 -10.67  -6.40    -3.78-226.174807             -0.0000
iter:  24  20:15:06 -11.54  -6.61    -4.73-226.174807             +0.0000
iter:  25  20:15:37 -11.64  -6.63    -3.70-226.174807             -0.0000
iter:  26  20:16:08 -11.98  -6.72    -4.14-226.174807             +0.0000
iter:  27  20:16:39 -10.94  -6.78    -3.98-226.174807             -0.0000
iter:  28  20:17:10 -11.77  -6.89    -4.12-226.174807             +0.0000
iter:  29  20:17:41 -12.07  -7.04    -4.86-226.174807             -0.0000
iter:  30  20:18:11 -12.24  -7.26    -5.09-226.174807             -0.0000
iter:  31  20:18:42 -12.67  -7.40    -4.77-226.174807             -0.0000
iter:  32  20:19:13 -12.84  -7.83    -5.05-226.174807             +0.0000
iter:  33  20:19:44 -14.01  -8.21    -5.76-226.174807             +0.0000
iter:  34  20:20:15 -14.75  -8.26    -6.20-226.174807             +0.0000

Converged after 34 iterations.

Dipole moment: (0.001007, -0.002478, 0.007697) |e|*Ang

Total magnetic moment: (0.000000, 0.000000, 0.000000)
Local magnetic moments:
   0 O  ( 0.000000,  0.000000, -0.001528)
   1 O  ( 0.000000,  0.000000,  0.001856)
   2 O  ( 0.000000,  0.000000,  0.001823)
   3 O  ( 0.000000,  0.000000, -0.001800)
   4 O  ( 0.000000,  0.000000,  0.001816)
   5 O  ( 0.000000,  0.000000, -0.001800)
   6 O  ( 0.000000,  0.000000, -0.001797)
   7 O  ( 0.000000,  0.000000,  0.001671)
   8 O  ( 0.000000,  0.000000,  0.031118)
   9 O  ( 0.000000,  0.000000, -0.031042)
  10 O  ( 0.000000,  0.000000, -0.031103)
  11 O  ( 0.000000,  0.000000,  0.031189)
  12 Mn ( 0.000000,  0.000000,  4.395207)
  13 Mn ( 0.000000,  0.000000, -4.396220)
  14 Mn ( 0.000000,  0.000000, -4.395715)
  15 Mn ( 0.000000,  0.000000,  4.395770)
  16 P  ( 0.000000,  0.000000,  0.001079)
  17 P  ( 0.000000,  0.000000, -0.000856)
  18 P  ( 0.000000,  0.000000, -0.000863)
  19 P  ( 0.000000,  0.000000,  0.000883)
  20 O  ( 0.000000,  0.000000,  0.028415)
  21 O  ( 0.000000,  0.000000, -0.028394)
  22 O  ( 0.000000,  0.000000, -0.028407)
  23 O  ( 0.000000,  0.000000,  0.028423)
  24 Li ( 0.000000,  0.000000, -0.000001)
  25 Li ( 0.000000,  0.000000,  0.000008)
  26 Li ( 0.000000,  0.000000,  0.000001)
  27 Li ( 0.000000,  0.000000,  0.000001)

Energy contributions relative to reference atoms: (reference = -196157.275402)

Kinetic:       +277.375516
Potential:     -240.774815
External:        +0.000000
XC:            -264.664716
Entropy (-ST):   -0.000000
Local:           +1.889208
--------------------------
Free energy:   -226.174807
Extrapolated:  -226.174807

Spin contamination: 9.455048 electrons
Showing only first 2 kpts
                      Up                     Down
 Kpt  Band  Eigenvalues  Occupancy  Eigenvalues  Occupancy
  0    88      6.49112    0.01389      6.48664    0.01389
  0    89      6.61520    0.01389      6.61185    0.01389
  0    90      8.39326    0.00000      8.39515    0.00000
  0    91      8.47236    0.00000      8.47396    0.00000

  1    88      6.53071    0.01389      6.52672    0.01389
  1    89      6.63130    0.01389      6.62761    0.01389
  1    90      8.35486    0.00000      8.35639    0.00000
  1    91      8.43757    0.00000      8.43900    0.00000


Fermi level: 7.73837

Gap: 1.697 eV
Transition (v -> c):
  (s=0, k=22, n=89, [0.08, 0.42, 0.12]) -> (s=0, k=14, n=90, [0.08, 0.08, 0.12])

Forces in eV/Ang:
  0 O     0.05116    0.06280   -0.12634
  1 O    -0.00033   -0.00242    0.00864
  2 O    -0.00202   -0.00047   -0.00016
  3 O    -0.00080    0.00074    0.00023
  4 O    -0.00085    0.00019    0.00120
  5 O    -0.00077   -0.00076    0.00031
  6 O     0.00065    0.00293   -0.00928
  7 O     0.00029    0.00074   -0.00004
  8 O    -0.00311    0.00023   -0.00021
  9 O    -0.00429    0.00245    0.00585
 10 O    -0.00131   -0.00002   -0.00020
 11 O     0.00455    0.00031   -0.00619
 12 Mn   -0.00916    0.00095    0.00373
 13 Mn    0.00455    0.02086    0.01124
 14 Mn    0.00120    0.00016   -0.00014
 15 Mn    0.00165   -0.00028   -0.00007
 16 P    -0.04196   -0.07081    0.07789
 17 P     0.00213    0.00049    0.00109
 18 P     0.00351    0.00051    0.00212
 19 P     0.00203   -0.00002   -0.00090
 20 O    -0.00817   -0.01847    0.03566
 21 O     0.00039   -0.00011    0.00034
 22 O     0.00038   -0.00083   -0.00180
 23 O    -0.00044    0.00010   -0.00076
 24 Li    0.00046   -0.00016   -0.00022
 25 Li   -0.00084   -0.00113   -0.00029
 26 Li    0.00042    0.00008   -0.00019
 27 Li    0.00069    0.00194   -0.00185

System changes: positions 

Initializing position-dependent things.

Density initialized from wave functions
                                           
                                           
                                           
                                           
                                           
               O     O  P  O               
            PO           OMn     O         
                  O          MO            
            O        Li O                  
             Mn  Mn          OP            
         O       O Li O                    
         Li     O P         O              
       Li                                  
                                           
                                           
                                           
                                           

Positions:
   0 O      3.381826    0.255721    1.027157    ( 0.0000,  0.0000,  0.0000)
   1 O      1.628710    5.670174    3.331211    ( 0.0000,  0.0000,  0.0000)
   2 O      6.659399    3.218528    3.580931    ( 0.0000,  0.0000,  0.0000)
   3 O      8.402291    2.707411    1.276874    ( 0.0000,  0.0000,  0.0000)
   4 O      6.659367    5.670151    3.580953    ( 0.0000,  0.0000,  0.0000)
   5 O      8.402320    0.255785    1.276901    ( 0.0000,  0.0000,  0.0000)
   6 O      3.381794    2.707426    1.027180    ( 0.0000,  0.0000,  0.0000)
   7 O      1.638738    3.218453    3.331239    ( 0.0000,  0.0000,  0.0000)
   8 O      0.514543    1.481579    1.283282    ( 0.0000,  0.0000,  0.0000)
   9 O      4.506054    4.444302    3.587213    ( 0.0000,  0.0000,  0.0000)
  10 O      9.526526    4.444333    3.324813    ( 0.0000,  0.0000,  0.0000)
  11 O      5.535111    1.481610    1.020863    ( 0.0000,  0.0000,  0.0000)
  12 Mn     2.224840    1.481415    2.441685    ( 0.0000,  0.0000,  1.0000)
  13 Mn     2.795761    4.444472    0.137561    ( 0.0000,  0.0000, -1.0000)
  14 Mn     7.816247    4.444498    2.166405    ( 0.0000,  0.0000, -1.0000)
  15 Mn     7.245392    1.481440    4.470562    ( 0.0000,  0.0000,  1.0000)
  16 P      4.118896    1.481596    0.405302    ( 0.0000,  0.0000,  0.0000)
  17 P      0.901666    4.444290    2.709347    ( 0.0000,  0.0000,  0.0000)
  18 P      5.922248    4.444317    4.202832    ( 0.0000,  0.0000,  0.0000)
  19 P      9.139418    1.481621    1.898793    ( 0.0000,  0.0000,  0.0000)
  20 O      4.117535    1.481578    3.488011    ( 0.0000,  0.0000,  0.0000)
  21 O      0.903053    4.444308    1.183930    ( 0.0000,  0.0000,  0.0000)
  22 O      5.923638    4.444334    1.120121    ( 0.0000,  0.0000,  0.0000)
  23 O      9.137993    1.481603    3.424205    ( 0.0000,  0.0000,  0.0000)
  24 Li    -0.000079   -0.000006    0.000048    ( 0.0000,  0.0000,  0.0000)
  25 Li     5.020651    0.000040    2.304102    ( 0.0000,  0.0000,  0.0000)
  26 Li    -0.000063    2.962934    0.000049    ( 0.0000,  0.0000,  0.0000)
  27 Li     5.020668    2.962944    2.304103    ( 0.0000,  0.0000,  0.0000)

Unit cell:
           periodic     x           y           z      points  spacing
  1. axis:    yes   10.041096    0.000054   -0.000022    60     0.1674
  2. axis:    yes    0.000032    5.925857    0.000001    35     0.1693
  3. axis:    yes   -0.000010    0.000001    4.608134    27     0.1707

  Lengths:  10.041096   5.925857   4.608134
  Angles:   89.999974  90.000250  89.999381

Effective grid spacing dv^(1/3) = 0.1691

                     log10-error:           total        iterations:
           time      wfs    density  force  energy       poisson  magmom
iter:   1  20:20:54  -3.54                -226.175854             +0.0009
iter:   2  20:21:17  -4.91  -3.39         -226.175636             +0.0003
[...]
iter:   7  17:30:54  -7.28  -4.69         -226.175303             +0.0000
iter:   8  17:31:25  -7.68  -4.73         -226.175302             +0.0000
iter:   9  17:31:56  -8.00  -5.15    -2.38-226.175302             +0.0000
iter:  10  17:32:26  -7.95  -5.01    -2.34-226.175302             +0.0000
iter:  11  17:32:57  -9.24  -5.58    -3.53-226.175302             +0.0000
iter:  12  17:33:28  -9.58  -5.69    -3.79-226.175302             -0.0000
iter:  13  17:33:59 -10.45  -5.79    -3.72-226.175302             -0.0000
iter:  14  17:34:30  -9.90  -5.85    -3.49-226.175302             -0.0000
iter:  15  17:35:00 -10.76  -6.01    -4.33-226.175302             -0.0000
iter:  16  17:35:31 -11.41  -6.06    -4.24-226.175302             -0.0000
iter:  17  17:36:02 -11.09  -6.12    -4.08-226.175302             -0.0000
iter:  18  17:36:33 -11.81  -6.39    -4.62-226.175302             -0.0000
iter:  19  17:37:03 -10.88  -6.43    -3.69-226.175302             -0.0000
iter:  20  17:37:34 -11.99  -6.74    -4.83-226.175302             -0.0000
iter:  21  17:38:05 -11.97  -6.79    -4.66-226.175302             -0.0000
iter:  22  17:38:36 -12.36  -6.92    -4.48-226.175302             -0.0000
iter:  23  17:39:07 -12.48  -7.00    -4.92-226.175302             -0.0000
iter:  24  17:39:37 -13.28  -7.03    -5.53-226.175302             -0.0000
iter:  25  17:40:08 -12.48  -7.06    -4.74-226.175302             -0.0000
iter:  26  17:40:39 -13.34  -7.24    -5.65-226.175302             -0.0000
iter:  27  17:41:10 -13.16  -7.28    -5.23-226.175302             +0.0000
iter:  28  17:41:41 -13.60  -7.40    -5.73-226.175302             +0.0000
iter:  29  17:42:11 -13.66  -7.48    -5.04-226.175302             +0.0000
iter:  30  17:42:42 -14.13  -7.64    -5.28-226.175302             +0.0000
iter:  31  17:43:13 -14.16  -7.67    -5.52-226.175302             +0.0000
iter:  32  17:43:44 -13.84  -7.71    -5.60-226.175302             +0.0000
iter:  33  17:44:15 -14.03  -7.86    -5.70-226.175302             +0.0000
iter:  34  17:44:45 -14.62  -7.94    -6.02-226.175302             +0.0000

Converged after 34 iterations.

Dipole moment: (-0.002380, -0.000352, -0.000467) |e|*Ang

Total magnetic moment: (0.000000, 0.000000, 0.000000)
Local magnetic moments:
   0 O  ( 0.000000,  0.000000, -0.001806)
   1 O  ( 0.000000,  0.000000,  0.001812)
   2 O  ( 0.000000,  0.000000,  0.001835)
   3 O  ( 0.000000,  0.000000, -0.001807)
   4 O  ( 0.000000,  0.000000,  0.001807)
   5 O  ( 0.000000,  0.000000, -0.001801)
   6 O  ( 0.000000,  0.000000, -0.001788)
   7 O  ( 0.000000,  0.000000,  0.001816)
   8 O  ( 0.000000,  0.000000,  0.031138)
   9 O  ( 0.000000,  0.000000, -0.031144)
  10 O  ( 0.000000,  0.000000, -0.031055)
  11 O  ( 0.000000,  0.000000,  0.031050)
  12 Mn ( 0.000000,  0.000000,  4.395694)
  13 Mn ( 0.000000,  0.000000, -4.395726)
  14 Mn ( 0.000000,  0.000000, -4.395806)
  15 Mn ( 0.000000,  0.000000,  4.395807)
  16 P  ( 0.000000,  0.000000,  0.000880)
  17 P  ( 0.000000,  0.000000, -0.000872)
  18 P  ( 0.000000,  0.000000, -0.000857)
  19 P  ( 0.000000,  0.000000,  0.000863)
  20 O  ( 0.000000,  0.000000,  0.028428)
  21 O  ( 0.000000,  0.000000, -0.028425)
  22 O  ( 0.000000,  0.000000, -0.028410)
  23 O  ( 0.000000,  0.000000,  0.028410)
  24 Li ( 0.000000,  0.000000, -0.000000)
  25 Li ( 0.000000,  0.000000,  0.000001)
  26 Li ( 0.000000,  0.000000, -0.000000)
  27 Li ( 0.000000,  0.000000, -0.000027)

Energy contributions relative to reference atoms: (reference = -196157.275402)

Kinetic:       +277.624627
Potential:     -240.967007
External:        +0.000000
XC:            -264.721321
Entropy (-ST):   -0.000000
Local:           +1.888398
--------------------------
Free energy:   -226.175302
Extrapolated:  -226.175302

Spin contamination: 9.455209 electrons
Showing only first 2 kpts
                      Up                     Down
 Kpt  Band  Eigenvalues  Occupancy  Eigenvalues  Occupancy
  0    88      6.48815    0.01389      6.48824    0.01389
  0    89      6.61326    0.01389      6.61327    0.01389
  0    90      8.39243    0.00000      8.39261    0.00000
  0    91      8.47220    0.00000      8.47201    0.00000

  1    88      6.52796    0.01389      6.52811    0.01389
  1    89      6.62886    0.01389      6.62871    0.01389
  1    90      8.35428    0.00000      8.35445    0.00000
  1    91      8.43743    0.00000      8.43721    0.00000


Fermi level: 7.73837

Gap: 1.699 eV
Transition (v -> c):
  (s=1, k=2, n=89, [0.08, -0.42, 0.12]) -> (s=0, k=9, n=90, [0.08, -0.08, -0.12])

Forces in eV/Ang:
  0 O    -0.00267    0.00203   -0.00135
  1 O     0.00252   -0.00007    0.00018
  2 O    -0.00544    0.00251    0.00143
  3 O     0.00375   -0.00112    0.00053
  4 O    -0.00275    0.00246   -0.00023
  5 O     0.00231   -0.00004    0.00059
  6 O    -0.00546    0.00261    0.00029
  7 O     0.00373   -0.00090    0.00032
  8 O     0.00481   -0.00024   -0.00006
  9 O    -0.01325    0.00231   -0.00004
 10 O     0.00427   -0.00005   -0.00012
 11 O    -0.01230    0.00208   -0.00100
 12 Mn   -0.00719   -0.00434    0.00019
 13 Mn   -0.00247    0.00419   -0.00159
 14 Mn   -0.00731   -0.00427    0.00057
 15 Mn   -0.00242    0.00411   -0.00179
 16 P     0.01660   -0.01271   -0.00132
 17 P    -0.00693    0.00172    0.00014
 18 P     0.01720   -0.01264   -0.00193
 19 P    -0.00716    0.00159   -0.00025
 20 O    -0.00679    0.00128    0.00026
 21 O     0.00272   -0.00047    0.00055
 22 O    -0.00690    0.00122   -0.00150
 23 O     0.00273   -0.00032   -0.00103
 24 Li   -0.00140    0.00022   -0.00019
 25 Li    0.00378   -0.00019   -0.00104
 26 Li   -0.00192   -0.00023    0.00001
 27 Li    0.02792    0.00924    0.00839

System changes: positions 

Initializing position-dependent things.

Density initialized from wave functions
                                           
                                           
                                           
                                           
                                           
               O     O  P  O               
            PO           OMn     O         
                  O          MO            
            O        Li O                  
             Mn  Mn          OP            
         O       O Li O                    
         Li     O P         O              
       Li                                  
                                           
                                           
                                           
                                           

Positions:
   0 O      3.381826    0.255721    1.027157    ( 0.0000,  0.0000,  0.0000)
   1 O      1.638710    5.670174    3.331211    ( 0.0000,  0.0000,  0.0000)
   2 O      6.659399    3.218528    3.580931    ( 0.0000,  0.0000,  0.0000)
   3 O      8.402291    2.707411    1.276874    ( 0.0000,  0.0000,  0.0000)
   4 O      6.659367    5.670151    3.580953    ( 0.0000,  0.0000,  0.0000)
   5 O      8.402320    0.255785    1.276901    ( 0.0000,  0.0000,  0.0000)
   6 O      3.381794    2.707426    1.027180    ( 0.0000,  0.0000,  0.0000)
   7 O      1.638738    3.218453    3.331239    ( 0.0000,  0.0000,  0.0000)
   8 O      0.514543    1.481579    1.283282    ( 0.0000,  0.0000,  0.0000)
   9 O      4.506054    4.444302    3.587213    ( 0.0000,  0.0000,  0.0000)
  10 O      9.526526    4.444333    3.324813    ( 0.0000,  0.0000,  0.0000)
  11 O      5.535111    1.481610    1.020863    ( 0.0000,  0.0000,  0.0000)
  12 Mn     2.224840    1.481415    2.441685    ( 0.0000,  0.0000,  1.0000)
  13 Mn     2.795761    4.444472    0.137561    ( 0.0000,  0.0000, -1.0000)
  14 Mn     7.816247    4.444498    2.166405    ( 0.0000,  0.0000, -1.0000)
  15 Mn     7.245392    1.481440    4.470562    ( 0.0000,  0.0000,  1.0000)
  16 P      4.118896    1.481596    0.405302    ( 0.0000,  0.0000,  0.0000)
  17 P      0.901666    4.444290    2.709347    ( 0.0000,  0.0000,  0.0000)
  18 P      5.922248    4.444317    4.202832    ( 0.0000,  0.0000,  0.0000)
  19 P      9.139418    1.481621    1.898793    ( 0.0000,  0.0000,  0.0000)
  20 O      4.117535    1.481578    3.488011    ( 0.0000,  0.0000,  0.0000)
  21 O      0.903053    4.444308    1.183930    ( 0.0000,  0.0000,  0.0000)
  22 O      5.923638    4.444334    1.120121    ( 0.0000,  0.0000,  0.0000)
  23 O      9.137993    1.481603    3.424205    ( 0.0000,  0.0000,  0.0000)
  24 Li    -0.000079   -0.000006    0.000048    ( 0.0000,  0.0000,  0.0000)
  25 Li     5.020651    0.000040    2.304102    ( 0.0000,  0.0000,  0.0000)
  26 Li    -0.000063    2.962934    0.000049    ( 0.0000,  0.0000,  0.0000)
  27 Li     5.030668    2.962944    2.304103    ( 0.0000,  0.0000,  0.0000)

Unit cell:
           periodic     x           y           z      points  spacing
  1. axis:    yes   10.041096    0.000054   -0.000022    60     0.1674
  2. axis:    yes    0.000032    5.925857    0.000001    35     0.1693
  3. axis:    yes   -0.000010    0.000001    4.608134    27     0.1707

  Lengths:  10.041096   5.925857   4.608134
  Angles:   89.999974  90.000250  89.999381

Effective grid spacing dv^(1/3) = 0.1691

                     log10-error:           total        iterations:
           time      wfs    density  force  energy       poisson  magmom
iter:   1  17:45:25  -3.87                -226.175394             -0.0001
iter:   2  17:45:48  -5.19  -3.68         -226.175413             -0.0000
iter:   3  17:46:11  -5.38  -3.71         -226.175315             +0.0000
iter:   4  17:46:35  -6.07  -4.11         -226.175320             -0.0000
iter:   5  17:46:58  -5.90  -4.13         -226.175314             -0.0000
iter:   6  17:47:22  -6.31  -4.17         -226.175299             -0.0000
iter:   7  17:47:45  -7.25  -4.55         -226.175299             -0.0000
iter:   8  17:48:16  -7.46  -4.68         -226.175297             -0.0000
iter:   9  17:48:47  -7.71  -5.01    -2.01-226.175298             -0.0000
iter:  10  17:49:17  -7.99  -4.84    -1.89-226.175297             -0.0000
iter:  11  17:49:48  -9.04  -5.42    -3.57-226.175297             -0.0000
iter:  12  17:50:19  -9.44  -5.55    -3.09-226.175297             -0.0000
iter:  13  17:50:50  -9.86  -5.68    -3.61-226.175297             -0.0000
iter:  14  17:51:21 -10.76  -5.79    -3.68-226.175297             -0.0000
iter:  15  17:51:51  -9.88  -5.85    -3.12-226.175297             -0.0000
iter:  16  17:52:22 -10.31  -6.05    -3.76-226.175297             -0.0000
iter:  17  17:52:53 -10.32  -6.13    -3.57-226.175297             -0.0000
iter:  18  17:53:24 -11.52  -6.27    -4.09-226.175297             -0.0000
iter:  19  17:53:55 -10.47  -6.33    -3.62-226.175297             -0.0000
iter:  20  17:54:26 -11.06  -6.48    -4.32-226.175297             -0.0000
iter:  21  17:54:56 -12.33  -6.84    -4.90-226.175297             -0.0000
iter:  22  17:55:27 -11.64  -6.88    -4.41-226.175297             -0.0000
iter:  23  17:55:58 -12.41  -7.13    -4.98-226.175297             -0.0000
iter:  24  17:56:29 -12.54  -7.55    -5.14-226.175297             -0.0000
iter:  25  17:57:00 -13.02  -7.48    -5.29-226.175297             -0.0000
iter:  26  17:57:31 -13.57  -7.77    -5.22-226.175297             -0.0000
iter:  27  17:58:01 -14.03  -7.83    -5.56-226.175297             -0.0000
iter:  28  17:58:32 -14.38  -8.00    -5.60-226.175297             +0.0000
iter:  29  17:59:03 -14.85  -8.06    -5.85-226.175297             +0.0000
iter:  30  17:59:34 -14.63  -8.11    -5.82-226.175297             -0.0000
iter:  31  18:00:05 -15.26  -8.22    -6.40-226.175297             -0.0000

Converged after 31 iterations.

Dipole moment: (0.003239, 0.000322, -0.001012) |e|*Ang

Total magnetic moment: (0.000000, 0.000000, -0.000000)
Local magnetic moments:
   0 O  ( 0.000000,  0.000000, -0.001810)
   1 O  ( 0.000000,  0.000000,  0.001806)
   2 O  ( 0.000000,  0.000000,  0.001784)
   3 O  ( 0.000000,  0.000000, -0.001811)
   4 O  ( 0.000000,  0.000000,  0.001802)
   5 O  ( 0.000000,  0.000000, -0.001807)
   6 O  ( 0.000000,  0.000000, -0.001839)
   7 O  ( 0.000000,  0.000000,  0.001811)
   8 O  ( 0.000000,  0.000000,  0.031057)
   9 O  ( 0.000000,  0.000000, -0.031051)
  10 O  ( 0.000000,  0.000000, -0.031136)
  11 O  ( 0.000000,  0.000000,  0.031142)
  12 Mn ( 0.000000,  0.000000,  4.395835)
  13 Mn ( 0.000000,  0.000000, -4.395837)
  14 Mn ( 0.000000,  0.000000, -4.395665)
  15 Mn ( 0.000000,  0.000000,  4.395696)
  16 P  ( 0.000000,  0.000000,  0.000852)
  17 P  ( 0.000000,  0.000000, -0.000857)
  18 P  ( 0.000000,  0.000000, -0.000885)
  19 P  ( 0.000000,  0.000000,  0.000878)
  20 O  ( 0.000000,  0.000000,  0.028406)
  21 O  ( 0.000000,  0.000000, -0.028407)
  22 O  ( 0.000000,  0.000000, -0.028431)
  23 O  ( 0.000000,  0.000000,  0.028428)
  24 Li ( 0.000000,  0.000000,  0.000000)
  25 Li ( 0.000000,  0.000000, -0.000001)
  26 Li ( 0.000000,  0.000000,  0.000000)
  27 Li ( 0.000000,  0.000000,  0.000027)

Energy contributions relative to reference atoms: (reference = -196157.275402)

Kinetic:       +277.624655
Potential:     -240.967024
External:        +0.000000
XC:            -264.721327
Entropy (-ST):   -0.000000
Local:           +1.888398
--------------------------
Free energy:   -226.175297
Extrapolated:  -226.175297

Spin contamination: 9.455209 electrons
Showing only first 2 kpts
                      Up                     Down
 Kpt  Band  Eigenvalues  Occupancy  Eigenvalues  Occupancy
  0    88      6.48828    0.01389      6.48815    0.01389
  0    89      6.61328    0.01389      6.61322    0.01389
  0    90      8.39260    0.00000      8.39247    0.00000
  0    91      8.47199    0.00000      8.47220    0.00000

  1    88      6.52815    0.01389      6.52797    0.01389
  1    89      6.62872    0.01389      6.62880    0.01389
  1    90      8.35444    0.00000      8.35432    0.00000
  1    91      8.43719    0.00000      8.43742    0.00000


Fermi level: 7.73837

Gap: 1.699 eV
Transition (v -> c):
  (s=0, k=2, n=89, [0.08, -0.42, 0.12]) -> (s=1, k=9, n=90, [0.08, -0.08, -0.12])

Forces in eV/Ang:
  0 O     0.00240   -0.00179    0.00054
  1 O    -0.00186   -0.00072   -0.00030
  2 O     0.00512   -0.00328    0.00003
  3 O    -0.00327    0.00166   -0.00003
  4 O     0.00232   -0.00136    0.00167
  5 O    -0.00207   -0.00069    0.00011
  6 O     0.00509   -0.00319   -0.00112
  7 O    -0.00330    0.00188   -0.00024
  8 O    -0.00451    0.00005    0.00059
  9 O     0.01239   -0.00208    0.00162
 10 O    -0.00504    0.00024    0.00052
 11 O     0.01333   -0.00231    0.00066
 12 Mn    0.00790    0.00426   -0.00057
 13 Mn    0.00185   -0.00411    0.00149
 14 Mn    0.00778    0.00434   -0.00019
 15 Mn    0.00190   -0.00418    0.00128
 16 P    -0.01685    0.01263    0.00167
 17 P     0.00679   -0.00158    0.00009
 18 P    -0.01626    0.01271    0.00106
 19 P     0.00656   -0.00172   -0.00030
 20 O     0.00650   -0.00122    0.00112
 21 O    -0.00224    0.00032    0.00077
 22 O     0.00640   -0.00128   -0.00064
 23 O    -0.00223    0.00047   -0.00081
 24 Li    0.00175   -0.00052   -0.00027
 25 Li   -0.00428    0.00048    0.00059
 26 Li    0.00227    0.00054   -0.00047
 27 Li   -0.02843   -0.00953   -0.00884

System changes: positions 

Initializing position-dependent things.

Density initialized from wave functions
                                           
                                           
                                           
                                           
                                           
               O     O  P  O               
            PO           OMn     O         
                  O          MO            
            O        Li O                  
             Mn  Mn          OP            
         O       O Li O                    
         Li     O P         O              
       Li                                  
                                           
                                           
                                           
                                           

Positions:
   0 O      3.381826    0.255721    1.027157    ( 0.0000,  0.0000,  0.0000)
   1 O      1.638710    5.670174    3.331211    ( 0.0000,  0.0000,  0.0000)
   2 O      6.659399    3.218528    3.580931    ( 0.0000,  0.0000,  0.0000)
   3 O      8.402291    2.707411    1.276874    ( 0.0000,  0.0000,  0.0000)
   4 O      6.659367    5.670151    3.580953    ( 0.0000,  0.0000,  0.0000)
   5 O      8.402320    0.255785    1.276901    ( 0.0000,  0.0000,  0.0000)
   6 O      3.381794    2.707426    1.027180    ( 0.0000,  0.0000,  0.0000)
   7 O      1.638738    3.218453    3.331239    ( 0.0000,  0.0000,  0.0000)
   8 O      0.514543    1.481579    1.283282    ( 0.0000,  0.0000,  0.0000)
   9 O      4.506054    4.444302    3.587213    ( 0.0000,  0.0000,  0.0000)
  10 O      9.526526    4.444333    3.324813    ( 0.0000,  0.0000,  0.0000)
  11 O      5.535111    1.481610    1.020863    ( 0.0000,  0.0000,  0.0000)
  12 Mn     2.224840    1.481415    2.441685    ( 0.0000,  0.0000,  1.0000)
  13 Mn     2.795761    4.444472    0.137561    ( 0.0000,  0.0000, -1.0000)
  14 Mn     7.816247    4.444498    2.166405    ( 0.0000,  0.0000, -1.0000)
  15 Mn     7.245392    1.481440    4.470562    ( 0.0000,  0.0000,  1.0000)
  16 P      4.118896    1.481596    0.405302    ( 0.0000,  0.0000,  0.0000)
  17 P      0.901666    4.444290    2.709347    ( 0.0000,  0.0000,  0.0000)
  18 P      5.922248    4.444317    4.202832    ( 0.0000,  0.0000,  0.0000)
  19 P      9.139418    1.481621    1.898793    ( 0.0000,  0.0000,  0.0000)
  20 O      4.117535    1.481578    3.488011    ( 0.0000,  0.0000,  0.0000)
  21 O      0.903053    4.444308    1.183930    ( 0.0000,  0.0000,  0.0000)
  22 O      5.923638    4.444334    1.120121    ( 0.0000,  0.0000,  0.0000)
  23 O      9.137993    1.481603    3.424205    ( 0.0000,  0.0000,  0.0000)
  24 Li    -0.000079   -0.000006    0.000048    ( 0.0000,  0.0000,  0.0000)
  25 Li     5.020651    0.000040    2.304102    ( 0.0000,  0.0000,  0.0000)
  26 Li    -0.000063    2.962934    0.000049    ( 0.0000,  0.0000,  0.0000)
  27 Li     5.020668    2.952944    2.304103    ( 0.0000,  0.0000,  0.0000)

Unit cell:
           periodic     x           y           z      points  spacing
  1. axis:    yes   10.041096    0.000054   -0.000022    60     0.1674
  2. axis:    yes    0.000032    5.925857    0.000001    35     0.1693
  3. axis:    yes   -0.000010    0.000001    4.608134    27     0.1707

  Lengths:  10.041096   5.925857   4.608134
  Angles:   89.999974  90.000250  89.999381

Effective grid spacing dv^(1/3) = 0.1691

                     log10-error:           total        iterations:
           time      wfs    density  force  energy       poisson  magmom
iter:   1  18:00:44  -4.17                -226.175300             +0.0000
iter:   2  18:01:07  -5.46  -3.78         -226.175302             +0.0000
iter:   3  18:01:30  -5.32  -3.80         -226.175240             -0.0000
iter:   4  18:01:54  -6.70  -4.17         -226.175234             +0.0000
iter:   5  18:02:17  -6.35  -4.19         -226.175225             +0.0000
iter:   6  18:02:41  -6.61  -4.32         -226.175221             +0.0000
iter:   7  18:03:11  -7.88  -4.63         -226.175220             +0.0000
iter:   8  18:03:42  -7.57  -4.89    -2.39-226.175220             +0.0000
iter:   9  18:04:12  -7.67  -5.13    -2.15-226.175220             +0.0000
iter:  10  18:04:43  -7.98  -4.99    -2.11-226.175220             +0.0000
iter:  11  18:05:14  -8.99  -5.66    -3.74-226.175220             +0.0000
iter:  12  18:05:45  -9.49  -5.66    -3.20-226.175220             +0.0000
iter:  13  18:06:16 -10.02  -5.80    -3.34-226.175220             +0.0000
iter:  14  18:06:47  -9.58  -5.85    -3.45-226.175220             +0.0000
iter:  15  18:07:17  -9.83  -5.91    -3.44-226.175220             +0.0000
iter:  16  18:07:48 -10.75  -6.32    -3.99-226.175220             +0.0000
iter:  17  18:08:19 -11.34  -6.42    -3.93-226.175220             -0.0000
