
  ___ ___ ___ _ _ _  
 |   |   |_  | | | | 
 | | | | | . | | | | 
 |__ |  _|___|_____|  21.6.1b1
 |___|_|             

User:   madkru@c099.nifl.fysik.dtu.dk
Date:   Fri Oct 21 17:26:56 2022
Arch:   x86_64
Pid:    49013
Python: 3.8.6
gpaw:   /home/niflheim/madkru/new_venv/gpaw/gpaw (1f0dfc9eae)
_gpaw:  /home/niflheim/madkru/new_venv/gpaw/build/lib.linux-x86_64-skylake-3.8/
        _gpaw.cpython-38-x86_64-linux-gnu.so (c1e45bfab3)
ase:    /home/niflheim/madkru/new_venv/ase/ase (version 3.23.0b1-ca38c75a67)
numpy:  /home/modules/software/SciPy-bundle/2020.11-foss-2020b/lib/python3.8/site-packages/numpy (version 1.19.4)
scipy:  /home/modules/software/SciPy-bundle/2020.11-foss-2020b/lib/python3.8/site-packages/scipy (version 1.5.4)
libxc:  4.3.4
units:  Angstrom and eV
cores: 40
OpenMP: False
OMP_NUM_THREADS: 1

Input parameters:
  convergence: {forces: 0.0001}
  kpts: [4 4 6]
  maxiter: 5000
  mode: {ecut: 800.0,
         gammacentered: False,
         name: pw}
  occupations: {fixmagmom: False,
                name: fermi-dirac,
                width: 0.05}

System changes: positions, numbers, cell, pbc, initial_charges, initial_magmoms 

Initialize ...

O-setup:
  name: Oxygen
  id: 9b9d51c344dea68c822856295a461509
  Z: 8.0
  valence: 6
  core: 2
  charge: 0.0
  file: /home/modules/software/GPAW-setups/0.9.20000/O.LDA.gz
  compensation charges: gauss, rc=0.21, lmax=2
  cutoffs: 1.17(filt), 0.83(core),
  valence states:
                energy  radius
    2s(2.00)   -23.752   0.688
    2p(4.00)    -9.195   0.598
    *s           3.459   0.688
    *p          18.016   0.598
    *d           0.000   0.619

  Using partial waves for O as LCAO basis

Mn-setup:
  name: Manganese
  id: 0d715a8018be061a6e9ea6f2d364ac92
  Z: 25.0
  valence: 15
  core: 10
  charge: 0.0
  file: /home/modules/software/GPAW-setups/0.9.20000/Mn.LDA.gz
  compensation charges: gauss, rc=0.38, lmax=2
  cutoffs: 2.14(filt), 0.86(core),
  valence states:
                energy  radius
    3s(2.00)   -85.387   1.275
    4s(2.00)    -5.282   1.275
    3p(6.00)   -54.493   1.281
    4p(0.00)    -1.471   1.281
    3d(5.00)    -7.009   1.138
    *d          20.203   1.138

  Using partial waves for Mn as LCAO basis

P-setup:
  name: Phosphorus
  id: a5561c299094968922a179ab894d2e2d
  Z: 15.0
  valence: 5
  core: 10
  charge: 0.0
  file: /home/modules/software/GPAW-setups/0.9.20000/P.LDA.gz
  compensation charges: gauss, rc=0.30, lmax=2
  cutoffs: 1.69(filt), 1.81(core),
  valence states:
                energy  radius
    3s(2.00)   -14.015   0.953
    3p(3.00)    -5.596   0.953
    *s          13.197   0.953
    *p          21.615   0.953
    *d           0.000   0.953

  Using partial waves for P as LCAO basis

Li-setup:
  name: Lithium
  id: b73562207f97a71b6967473b66fe8b65
  Z: 3.0
  valence: 1
  core: 2
  charge: 0.0
  file: /home/modules/software/GPAW-setups/0.9.20000/Li.LDA.gz
  compensation charges: gauss, rc=0.33, lmax=2
  cutoffs: 1.91(filt), 2.55(core),
  valence states:
                energy  radius
    2s(1.00)    -2.874   1.058
    2p(0.00)    -1.126   1.058
    *s          24.338   1.058

  Using partial waves for Li as LCAO basis

Reference energy: -196157.275402

Spin-polarized calculation.
Magnetic moment: 0.000000

Convergence criteria:
  Maximum total energy change: 0.0005 eV / electron
  Maximum integral of absolute density change: 0.0001 electrons
  Maximum integral of absolute eigenstate change: 4e-08 eV^2
  Maximum change in atomic force: 0.0001 eV / Ang
  Maximum number of iterations: 5000

Symmetries present (total): 1

  ( 1  0  0)
  ( 0  1  0)
  ( 0  0  1)

96 k-points: 4 x 4 x 6 Monkhorst-Pack grid
48 k-points in the irreducible part of the Brillouin zone
       k-points in crystal coordinates                weights
   0:     0.12500000   -0.37500000   -0.41666667          2/96
   1:     0.12500000   -0.37500000   -0.25000000          2/96
   2:     0.12500000   -0.37500000   -0.08333333          2/96
   3:     0.12500000   -0.37500000    0.08333333          2/96
   4:     0.12500000   -0.37500000    0.25000000          2/96
   5:     0.12500000   -0.37500000    0.41666667          2/96
   6:     0.12500000   -0.12500000   -0.41666667          2/96
   7:     0.12500000   -0.12500000   -0.25000000          2/96
   8:     0.12500000   -0.12500000   -0.08333333          2/96
   9:     0.12500000   -0.12500000    0.08333333          2/96
          ...
  47:     0.37500000    0.37500000    0.41666667          2/96

Wave functions: Plane wave expansion
  Cutoff energy: 800.000 eV
  Number of coefficients (min, max): 15502, 15560
  Pulay-stress correction: 0.000000 eV/Ang^3 (de/decut=0.000000)
  Using FFTW library
  ScaLapack parameters: grid=1x1, blocksize=None
  Wavefunction extrapolation:
    Improved wavefunction reuse through dual PAW basis 

Occupation numbers: Fermi-Dirac: width=0.0500 eV
 

Eigensolver
   Davidson(niter=2) 

Densities:
  Coarse grid: 70*40*32 grid
  Fine grid: 140*80*64 grid
  Total Charge: 0.000000 

Density mixing:
  Method: difference
  Backend: pulay
  Linear mixing parameter: 0.05
  Mixing with 5 old densities
  Damping of long wave oscillations: 50 

Hamiltonian:
  XC and Coulomb potentials evaluated on a 140*80*64 grid
  Using the LDA Exchange-Correlation functional
  External potential:
    <gpaw.external.NoExternalPotential object at 0x2b89fefeacd0>
 

Memory estimate:
  Process memory now: 199.82 MiB
  Calculator: 172.17 MiB
    Density: 62.50 MiB
      Arrays: 23.93 MiB
      Localized functions: 29.00 MiB
      Mixer: 9.57 MiB
    Hamiltonian: 18.61 MiB
      Arrays: 17.77 MiB
      XC: 0.00 MiB
      Poisson: 0.00 MiB
      vbar: 0.84 MiB
    Wavefunctions: 91.06 MiB
      Arrays psit_nG: 53.18 MiB
      Eigensolver: 29.70 MiB
      Projections: 1.20 MiB
      Projectors: 3.32 MiB
      PW-descriptor: 3.66 MiB

Total number of cores used: 40
Parallelization over k-points: 40

Number of atoms: 28
Number of atomic orbitals: 148
Number of bands in calculation: 112
Number of valence electrons: 180
Bands to converge: occupied

... initialized

Initializing position-dependent things.

Density initialized from atomic densities
Creating initial wave functions:
  112 bands from LCAO basis set

     .-------------------------.  
    /|                         |  
   / |   O         P  O      O |  
  /  |PO        O   OMn        |  
 *   |       O          Mn     |  
 |   |O         Li        O    |  
 |   .--Mn---------O-----------.  
 |  /      MO LiO        OP   /   
 | Oi     O  P         O     /    
 |/                         /     
 Li------------------------*      

Positions:
   0 O      3.692380    0.284870    1.076928    ( 0.0000,  0.0000,  0.0000)
   1 O      1.537620    5.815130    3.446928    ( 0.0000,  0.0000,  0.0000)
   2 O      6.767620    3.334870    3.663072    ( 0.0000,  0.0000,  0.0000)
   3 O      8.922380    2.765130    1.293072    ( 0.0000,  0.0000,  0.0000)
   4 O      6.767620    5.815130    3.663072    ( 0.0000,  0.0000,  0.0000)
   5 O      8.922380    0.284870    1.293072    ( 0.0000,  0.0000,  0.0000)
   6 O      3.692380    2.765130    1.076928    ( 0.0000,  0.0000,  0.0000)
   7 O      1.537620    3.334870    3.446928    ( 0.0000,  0.0000,  0.0000)
   8 O      0.529276    1.525000    1.174098    ( 0.0000,  0.0000,  0.0000)
   9 O      4.700724    4.575000    3.544098    ( 0.0000,  0.0000,  0.0000)
  10 O      9.930724    4.575000    3.565902    ( 0.0000,  0.0000,  0.0000)
  11 O      5.759276    1.525000    1.195902    ( 0.0000,  0.0000,  0.0000)
  12 Mn     2.331534    1.525000    2.477124    ( 0.0000,  0.0000,  1.0000)
  13 Mn     2.898466    4.575000    0.107124    ( 0.0000,  0.0000, -1.0000)
  14 Mn     8.128466    4.575000    2.262876    ( 0.0000,  0.0000, -1.0000)
  15 Mn     7.561534    1.525000    4.632876    ( 0.0000,  0.0000,  1.0000)
  16 P      4.369142    1.525000    0.421386    ( 0.0000,  0.0000,  0.0000)
  17 P      0.860858    4.575000    2.791386    ( 0.0000,  0.0000,  0.0000)
  18 P      6.090858    4.575000    4.318614    ( 0.0000,  0.0000,  0.0000)
  19 P      9.599142    1.525000    1.948614    ( 0.0000,  0.0000,  0.0000)
  20 O      4.421442    1.525000    3.567324    ( 0.0000,  0.0000,  0.0000)
  21 O      0.808558    4.575000    1.197324    ( 0.0000,  0.0000,  0.0000)
  22 O      6.038558    4.575000    1.172676    ( 0.0000,  0.0000,  0.0000)
  23 O      9.651442    1.525000    3.542676    ( 0.0000,  0.0000,  0.0000)
  24 Li     0.000000    0.000000    0.000000    ( 0.0000,  0.0000,  0.0000)
  25 Li     5.230000    0.000000    2.370000    ( 0.0000,  0.0000,  0.0000)
  26 Li     0.000000    3.050000    0.000000    ( 0.0000,  0.0000,  0.0000)
  27 Li     5.230000    3.050000    2.370000    ( 0.0000,  0.0000,  0.0000)

Unit cell:
           periodic     x           y           z      points  spacing
  1. axis:    yes   10.460000    0.000000    0.000000    70     0.1494
  2. axis:    yes    0.000000    6.100000    0.000000    40     0.1525
  3. axis:    yes    0.000000    0.000000    4.740000    32     0.1481

  Lengths:  10.460000   6.100000   4.740000
  Angles:   90.000000  90.000000  90.000000

Effective grid spacing dv^(1/3) = 0.1500

                     log10-error:           total        iterations:
           time      wfs    density  force  energy       poisson  magmom
iter:   1  17:28:13                       -232.404081             -0.0000
iter:   2  17:28:25  -0.60  -0.92         -235.644098             +0.0000
iter:   3  17:28:37  -0.52  -0.96         -226.509436             -0.0000
iter:   4  17:28:48  -1.05  -1.23         -225.819429             -0.0000
iter:   5  17:29:00  -1.53  -1.37         -226.291674             -0.0000
iter:   6  17:29:12  -1.56  -1.45         -225.821123             -0.0000
iter:   7  17:29:23  -1.71  -2.08         -225.767833             -0.0000
iter:   8  17:29:35  -1.99  -1.82         -225.368382             -0.0000
iter:   9  17:29:47  -3.07  -2.57         -225.371441             -0.0000
iter:  10  17:29:59  -3.02  -2.60         -225.379959             -0.0000
iter:  11  17:30:10  -2.87  -2.46         -225.354591             -0.0000
iter:  12  17:30:22  -4.47  -3.19         -225.354600             -0.0000
iter:  13  17:30:34  -4.98  -3.25         -225.354399             -0.0000
iter:  14  17:30:45  -4.15  -3.27         -225.355702             -0.0000
iter:  15  17:30:57  -4.40  -3.19         -225.354216             -0.0000
iter:  16  17:31:09  -5.62  -3.93         -225.354204             -0.0000
iter:  17  17:31:20  -6.09  -3.79         -225.354179             -0.0000
iter:  18  17:31:32  -6.27  -4.07         -225.354135             -0.0000
iter:  19  17:31:44  -6.71  -4.18         -225.354126             -0.0000
iter:  20  17:31:56  -6.84  -4.22         -225.354125             -0.0000
iter:  21  17:32:12  -7.40  -4.28         -225.354128             +0.0000
iter:  22  17:32:30  -8.73  -4.36    -2.91-225.354128             -0.0000
iter:  23  17:32:47  -7.43  -4.40    -2.27-225.354128             -0.0000
iter:  24  17:32:59  -7.06  -4.47         -225.354133             -0.0000
iter:  25  17:33:16  -8.21  -4.55    -2.54-225.354133             -0.0000
iter:  26  17:33:33  -8.21  -4.57    -2.88-225.354132             +0.0000
iter:  27  17:33:51  -8.26  -4.58    -2.94-225.354131             +0.0000
iter:  28  17:34:03  -7.18  -4.58         -225.354127             +0.0000
iter:  29  17:34:20  -7.51  -4.73    -2.33-225.354128             +0.0000
iter:  30  17:34:37  -8.28  -4.88    -2.99-225.354127             +0.0000
iter:  31  17:34:54  -8.86  -4.98    -3.23-225.354127             -0.0000
iter:  32  17:35:12  -8.75  -5.05    -3.04-225.354127             -0.0000
iter:  33  17:35:29  -9.23  -5.34    -3.48-225.354127             -0.0000
iter:  34  17:35:46  -8.87  -5.50    -3.58-225.354127             -0.0000
iter:  35  17:36:04 -10.35  -5.62    -3.94-225.354127             -0.0000
iter:  36  17:36:21  -9.35  -5.66    -3.81-225.354127             -0.0000
iter:  37  17:36:38 -10.55  -5.77    -4.40-225.354127             -0.0000

Converged after 37 iterations.

Dipole moment: (-0.000000, -0.000000, -0.000000) |e|*Ang

Total magnetic moment: (0.000000, 0.000000, -0.000000)
Local magnetic moments:
   0 O  ( 0.000000,  0.000000,  0.000740)
   1 O  ( 0.000000,  0.000000, -0.000740)
   2 O  ( 0.000000,  0.000000, -0.000740)
   3 O  ( 0.000000,  0.000000,  0.000740)
   4 O  ( 0.000000,  0.000000, -0.000740)
   5 O  ( 0.000000,  0.000000,  0.000740)
   6 O  ( 0.000000,  0.000000,  0.000740)
   7 O  ( 0.000000,  0.000000, -0.000740)
   8 O  ( 0.000000,  0.000000,  0.030901)
   9 O  ( 0.000000,  0.000000, -0.030901)
  10 O  ( 0.000000,  0.000000, -0.030901)
  11 O  ( 0.000000,  0.000000,  0.030901)
  12 Mn ( 0.000000,  0.000000,  4.499827)
  13 Mn ( 0.000000,  0.000000, -4.499827)
  14 Mn ( 0.000000,  0.000000, -4.499827)
  15 Mn ( 0.000000,  0.000000,  4.499827)
  16 P  ( 0.000000,  0.000000,  0.000493)
  17 P  ( 0.000000,  0.000000, -0.000493)
  18 P  ( 0.000000,  0.000000, -0.000493)
  19 P  ( 0.000000,  0.000000,  0.000493)
  20 O  ( 0.000000,  0.000000,  0.021588)
  21 O  ( 0.000000,  0.000000, -0.021588)
  22 O  ( 0.000000,  0.000000, -0.021588)
  23 O  ( 0.000000,  0.000000,  0.021588)
  24 Li ( 0.000000,  0.000000, -0.000000)
  25 Li ( 0.000000,  0.000000, -0.000000)
  26 Li ( 0.000000,  0.000000, -0.000000)
  27 Li ( 0.000000,  0.000000, -0.000000)

Energy contributions relative to reference atoms: (reference = -196157.275402)

Kinetic:       +202.114827
Potential:     -186.163344
External:        +0.000000
XC:            -244.656381
Entropy (-ST):   -0.000000
Local:           +3.350771
--------------------------
Free energy:   -225.354127
Extrapolated:  -225.354127

Spin contamination: 9.660369 electrons
Showing only first 2 kpts
                      Up                     Down
 Kpt  Band  Eigenvalues  Occupancy  Eigenvalues  Occupancy
  0    88      4.29606    1.00000      4.29606    1.00000
  0    89      4.43731    1.00000      4.43731    1.00000
  0    90      6.79940    0.00000      6.79940    0.00000
  0    91      6.80905    0.00000      6.80905    0.00000

  1    88      4.31720    1.00000      4.31720    1.00000
  1    89      4.42829    1.00000      4.42829    1.00000
  1    90      6.75035    0.00000      6.75035    0.00000
  1    91      6.77246    0.00000      6.77246    0.00000


Fermi level: 5.55976

Gap: 2.241 eV
Transition (v -> c):
  (s=0, k=20, n=89, [0.12, 0.38, -0.08]) -> (s=0, k=9, n=90, [0.12, -0.12, 0.08])
Stress tensor:
     0.036269    -0.000000    -0.000000
    -0.000000     0.020213     0.000000
    -0.000000     0.000000     0.097617

Forces in eV/Ang:
  0 O    -1.51028   -0.69476   -0.57972
  1 O     1.51028    0.69476   -0.57972
  2 O     1.51028   -0.69476    0.57972
  3 O    -1.51028    0.69476    0.57972
  4 O     1.51028    0.69476    0.57972
  5 O    -1.51028   -0.69476    0.57972
  6 O    -1.51028    0.69476   -0.57972
  7 O     1.51028   -0.69476   -0.57972
  8 O     0.44352   -0.00000    2.08647
  9 O    -0.44352    0.00000    2.08647
 10 O    -0.44352    0.00000   -2.08647
 11 O     0.44352    0.00000   -2.08647
 12 Mn   -0.29954   -0.00000   -0.13523
 13 Mn    0.29954    0.00000   -0.13523
 14 Mn    0.29954    0.00000    0.13523
 15 Mn   -0.29954    0.00000    0.13523
 16 P     1.77304   -0.00000   -0.74810
 17 P    -1.77304   -0.00000   -0.74810
 18 P    -1.77304   -0.00000    0.74810
 19 P     1.77304   -0.00000    0.74810
 20 O    -0.95829   -0.00000    2.76009
 21 O     0.95829   -0.00000    2.76009
 22 O     0.95829   -0.00000   -2.76009
 23 O    -0.95829   -0.00000   -2.76009
 24 Li   -0.00000   -0.00000   -0.00000
 25 Li   -0.00000   -0.00000    0.00000
 26 Li   -0.00000    0.00000    0.00000
 27 Li   -0.00000    0.00000    0.00000

System changes: cell, positions 

Initialize ...

O-setup:
  name: Oxygen
  id: 9b9d51c344dea68c822856295a461509
  Z: 8.0
  valence: 6
  core: 2
  charge: 0.0
  file: /home/modules/software/GPAW-setups/0.9.20000/O.LDA.gz
  compensation charges: gauss, rc=0.21, lmax=2
  cutoffs: 1.17(filt), 0.83(core),
  valence states:
                energy  radius
    2s(2.00)   -23.752   0.688
    2p(4.00)    -9.195   0.598
    *s           3.459   0.688
    *p          18.016   0.598
    *d           0.000   0.619

  Using partial waves for O as LCAO basis

Mn-setup:
  name: Manganese
  id: 0d715a8018be061a6e9ea6f2d364ac92
  Z: 25.0
  valence: 15
  core: 10
  charge: 0.0
  file: /home/modules/software/GPAW-setups/0.9.20000/Mn.LDA.gz
  compensation charges: gauss, rc=0.38, lmax=2
  cutoffs: 2.14(filt), 0.86(core),
  valence states:
                energy  radius
    3s(2.00)   -85.387   1.275
    4s(2.00)    -5.282   1.275
    3p(6.00)   -54.493   1.281
    4p(0.00)    -1.471   1.281
    3d(5.00)    -7.009   1.138
    *d          20.203   1.138

  Using partial waves for Mn as LCAO basis

P-setup:
  name: Phosphorus
  id: a5561c299094968922a179ab894d2e2d
  Z: 15.0
  valence: 5
  core: 10
  charge: 0.0
  file: /home/modules/software/GPAW-setups/0.9.20000/P.LDA.gz
  compensation charges: gauss, rc=0.30, lmax=2
  cutoffs: 1.69(filt), 1.81(core),
  valence states:
                energy  radius
    3s(2.00)   -14.015   0.953
    3p(3.00)    -5.596   0.953
    *s          13.197   0.953
    *p          21.615   0.953
    *d           0.000   0.953

  Using partial waves for P as LCAO basis

Li-setup:
  name: Lithium
  id: b73562207f97a71b6967473b66fe8b65
  Z: 3.0
  valence: 1
  core: 2
  charge: 0.0
  file: /home/modules/software/GPAW-setups/0.9.20000/Li.LDA.gz
  compensation charges: gauss, rc=0.33, lmax=2
  cutoffs: 1.91(filt), 2.55(core),
  valence states:
                energy  radius
    2s(1.00)    -2.874   1.058
    2p(0.00)    -1.126   1.058
    *s          24.338   1.058

  Using partial waves for Li as LCAO basis

Reference energy: -196157.275402

Spin-polarized calculation.
Magnetic moment: 0.000000

Convergence criteria:
  Maximum total energy change: 0.0005 eV / electron
  Maximum integral of absolute density change: 0.0001 electrons
  Maximum integral of absolute eigenstate change: 4e-08 eV^2
  Maximum change in atomic force: 0.0001 eV / Ang
  Maximum number of iterations: 5000

Symmetries present (total): 1

  ( 1  0  0)
  ( 0  1  0)
  ( 0  0  1)

96 k-points: 4 x 4 x 6 Monkhorst-Pack grid
48 k-points in the irreducible part of the Brillouin zone
       k-points in crystal coordinates                weights
   0:     0.12500000   -0.37500000   -0.41666667          2/96
   1:     0.12500000   -0.37500000   -0.25000000          2/96
   2:     0.12500000   -0.37500000   -0.08333333          2/96
   3:     0.12500000   -0.37500000    0.08333333          2/96
   4:     0.12500000   -0.37500000    0.25000000          2/96
   5:     0.12500000   -0.37500000    0.41666667          2/96
   6:     0.12500000   -0.12500000   -0.41666667          2/96
   7:     0.12500000   -0.12500000   -0.25000000          2/96
   8:     0.12500000   -0.12500000   -0.08333333          2/96
   9:     0.12500000   -0.12500000    0.08333333          2/96
          ...
  47:     0.37500000    0.37500000    0.41666667          2/96

Wave functions: Plane wave expansion
  Cutoff energy: 800.000 eV
  Number of coefficients (min, max): 15488, 15553
  Pulay-stress correction: 0.000000 eV/Ang^3 (de/decut=0.000000)
  Using FFTW library
  ScaLapack parameters: grid=1x1, blocksize=None
  Wavefunction extrapolation:
    Improved wavefunction reuse through dual PAW basis 

Occupation numbers: Fermi-Dirac: width=0.0500 eV
 

Eigensolver
   Davidson(niter=2) 

Densities:
  Coarse grid: 70*40*32 grid
  Fine grid: 140*80*64 grid
  Total Charge: 0.000000 

Density mixing:
  Method: difference
  Backend: pulay
  Linear mixing parameter: 0.05
  Mixing with 5 old densities
  Damping of long wave oscillations: 50 

Hamiltonian:
  XC and Coulomb potentials evaluated on a 140*80*64 grid
  Using the LDA Exchange-Correlation functional
  External potential:
    <gpaw.external.NoExternalPotential object at 0x2b8a0440b070>
 

Memory estimate:
  Process memory now: 889.62 MiB
  Calculator: 172.10 MiB
    Density: 62.47 MiB
      Arrays: 23.93 MiB
      Localized functions: 28.98 MiB
      Mixer: 9.57 MiB
    Hamiltonian: 18.61 MiB
      Arrays: 17.77 MiB
      XC: 0.00 MiB
      Poisson: 0.00 MiB
      vbar: 0.84 MiB
    Wavefunctions: 91.02 MiB
      Arrays psit_nG: 53.16 MiB
      Eigensolver: 29.68 MiB
      Projections: 1.20 MiB
      Projectors: 3.32 MiB
      PW-descriptor: 3.66 MiB

Total number of cores used: 40
Parallelization over k-points: 40

Number of atoms: 28
Number of atomic orbitals: 148
Number of bands in calculation: 112
Number of valence electrons: 180
Bands to converge: occupied

... initialized

Initializing position-dependent things.

Density initialized from atomic densities
Creating initial wave functions:
  112 bands from LCAO basis set

                                            
                                            
                                            
                                            
                                            
              O          P O                
                     O    Mn      O         
            PO            O                 
                   O  Li      MnO           
            O Mn         O                  
                 MO Li         OP           
         Oi           O      O              
                O  P                        
       Li                                   
                                            
                                            
                                            
                                            

Positions:
   0 O      3.670071    0.274914    1.068071    ( 0.0000,  0.0000,  0.0000)
   1 O      1.558884    5.824406    3.436796    ( 0.0000,  0.0000,  0.0000)
   2 O      6.787838    3.324575    3.669379    ( 0.0000,  0.0000,  0.0000)
   3 O      8.899026    2.774746    1.300654    ( 0.0000,  0.0000,  0.0000)
   4 O      6.787838    5.824406    3.669379    ( 0.0000,  0.0000,  0.0000)
   5 O      8.899026    0.274914    1.300654    ( 0.0000,  0.0000,  0.0000)
   6 O      3.670071    2.774746    1.068071    ( 0.0000,  0.0000,  0.0000)
   7 O      1.558884    3.324575    3.436796    ( 0.0000,  0.0000,  0.0000)
   8 O      0.535505    1.524830    1.203257    ( 0.0000,  0.0000,  0.0000)
   9 O      4.693450    4.574490    3.571982    ( 0.0000,  0.0000,  0.0000)
  10 O      9.922404    4.574490    3.534193    ( 0.0000,  0.0000,  0.0000)
  11 O      5.764460    1.524830    1.165468    ( 0.0000,  0.0000,  0.0000)
  12 Mn     2.326790    1.524830    2.473861    ( 0.0000,  0.0000,  1.0000)
  13 Mn     2.902165    4.574490    0.105136    ( 0.0000,  0.0000, -1.0000)
  14 Mn     8.131120    4.574490    2.263589    ( 0.0000,  0.0000, -1.0000)
  15 Mn     7.555744    1.524830    4.632314    ( 0.0000,  0.0000,  1.0000)
  16 P      4.393593    1.524830    0.410478    ( 0.0000,  0.0000,  0.0000)
  17 P      0.835362    4.574490    2.779203    ( 0.0000,  0.0000,  0.0000)
  18 P      6.064316    4.574490    4.326972    ( 0.0000,  0.0000,  0.0000)
  19 P      9.622547    1.524830    1.958247    ( 0.0000,  0.0000,  0.0000)
  20 O      4.406871    1.524830    3.604814    ( 0.0000,  0.0000,  0.0000)
  21 O      0.822084    4.574490    1.236089    ( 0.0000,  0.0000,  0.0000)
  22 O      6.051038    4.574490    1.132636    ( 0.0000,  0.0000,  0.0000)
  23 O      9.635826    1.524830    3.501361    ( 0.0000,  0.0000,  0.0000)
  24 Li    -0.000000   -0.000000   -0.000000    ( 0.0000,  0.0000,  0.0000)
  25 Li     5.228955   -0.000000    2.368725    ( 0.0000,  0.0000,  0.0000)
  26 Li    -0.000000    3.049660    0.000000    ( 0.0000,  0.0000,  0.0000)
  27 Li     5.228955    3.049660    2.368725    ( 0.0000,  0.0000,  0.0000)

Unit cell:
           periodic     x           y           z      points  spacing
  1. axis:    yes   10.457909    0.000000    0.000000    70     0.1494
  2. axis:    yes    0.000000    6.099320   -0.000000    40     0.1525
  3. axis:    yes    0.000000   -0.000000    4.737450    32     0.1480

  Lengths:  10.457909   6.099320   4.737450
  Angles:   90.000000  90.000000  90.000000

Effective grid spacing dv^(1/3) = 0.1500

                     log10-error:           total        iterations:
           time      wfs    density  force  energy       poisson  magmom
iter:   1  17:38:33                       -232.709299             -0.0000
iter:   2  17:38:45  -0.58  -0.92         -235.607360             -0.0000
iter:   3  17:38:57  -0.45  -0.96         -222.821652             -0.0000
iter:   4  17:39:08  -0.99  -1.24         -225.762362             -0.0000
iter:   5  17:39:20  -1.87  -1.37         -226.579926             -0.0000
iter:   6  17:39:32  -1.96  -1.67         -226.637870             -0.0000
iter:   7  17:39:44  -3.03  -2.23         -226.540192             -0.0000
iter:   8  17:39:55  -1.84  -2.26         -226.417959             -0.0000
iter:   9  17:40:07  -2.63  -2.15         -226.337912             -0.0000
iter:  10  17:40:19  -2.62  -2.48         -226.299104             -0.0000
iter:  11  17:40:30  -3.02  -2.52         -226.298609             -0.0000
iter:  12  17:40:42  -3.44  -2.64         -226.286325             -0.0000
iter:  13  17:40:53  -4.90  -3.21         -226.286278             -0.0000
iter:  14  17:41:05  -4.80  -3.27         -226.286506             -0.0000
iter:  15  17:41:17  -5.21  -3.33         -226.286298             -0.0000
iter:  16  17:41:28  -4.98  -3.47         -226.285840             -0.0000
iter:  17  17:41:40  -5.76  -3.51         -226.285766             -0.0000
iter:  18  17:41:52  -5.11  -3.56         -226.285801             -0.0000
iter:  19  17:42:03  -5.40  -3.72         -226.285941             -0.0000
iter:  20  17:42:15  -6.17  -3.87         -226.285942             -0.0000
iter:  21  17:42:27  -6.09  -3.82         -226.285866             -0.0000
iter:  22  17:42:38  -5.82  -3.83         -226.286112             -0.0000
iter:  23  17:42:50  -6.54  -3.79         -226.286130             -0.0000
iter:  24  17:43:02  -7.04  -3.81         -226.286140             -0.0000
iter:  25  17:43:13  -5.18  -3.79         -226.285713             -0.0000
iter:  26  17:43:25  -6.05  -3.88         -226.285693             -0.0000
iter:  27  17:43:37  -6.27  -3.90         -226.285708             -0.0000
iter:  28  17:43:48  -6.99  -3.93         -226.285717             -0.0000
iter:  29  17:44:00  -7.17  -3.97         -226.285730             -0.0000
iter:  30  17:44:12  -6.46  -3.95         -226.285703             +0.0000
iter:  31  17:44:23  -6.67  -4.00         -226.285704             +0.0000
iter:  32  17:44:35  -7.32  -4.04         -226.285703             +0.0000
iter:  33  17:44:52  -7.41  -4.16         -226.285704             +0.0000
iter:  34  17:45:04  -6.45  -4.26         -226.285706             +0.0000
iter:  35  17:45:21  -7.75  -4.44    -2.19-226.285702             +0.0000
iter:  36  17:45:33  -7.27  -4.50         -226.285697             +0.0000
iter:  37  17:45:49  -7.41  -4.56    -2.47-226.285696             +0.0000
iter:  38  17:46:07  -7.86  -4.65    -3.05-226.285696             +0.0000
iter:  39  17:46:24  -8.57  -4.70    -3.49-226.285695             +0.0000
iter:  40  17:46:41  -8.11  -4.74    -2.48-226.285695             +0.0000
iter:  41  17:46:58  -8.92  -5.51    -3.78-226.285695             +0.0000
iter:  42  17:47:16  -9.46  -5.65    -3.60-226.285695             +0.0000
iter:  43  17:47:33 -10.42  -5.74    -4.10-226.285695             +0.0000

Converged after 43 iterations.

Dipole moment: (0.000000, 0.000000, 0.000000) |e|*Ang

Total magnetic moment: (0.000000, 0.000000, 0.000000)
Local magnetic moments:
   0 O  ( 0.000000,  0.000000, -0.000382)
   1 O  ( 0.000000,  0.000000,  0.000382)
   2 O  ( 0.000000,  0.000000,  0.000382)
   3 O  ( 0.000000,  0.000000, -0.000382)
   4 O  ( 0.000000,  0.000000,  0.000382)
   5 O  ( 0.000000,  0.000000, -0.000382)
   6 O  ( 0.000000,  0.000000, -0.000382)
   7 O  ( 0.000000,  0.000000,  0.000382)
   8 O  ( 0.000000,  0.000000,  0.030245)
   9 O  ( 0.000000,  0.000000, -0.030245)
  10 O  ( 0.000000,  0.000000, -0.030245)
  11 O  ( 0.000000,  0.000000,  0.030245)
  12 Mn ( 0.000000,  0.000000,  4.492919)
  13 Mn ( 0.000000,  0.000000, -4.492919)
  14 Mn ( 0.000000,  0.000000, -4.492919)
  15 Mn ( 0.000000,  0.000000,  4.492919)
  16 P  ( 0.000000,  0.000000,  0.000604)
  17 P  ( 0.000000,  0.000000, -0.000604)
  18 P  ( 0.000000,  0.000000, -0.000604)
  19 P  ( 0.000000,  0.000000,  0.000604)
  20 O  ( 0.000000,  0.000000,  0.020019)
  21 O  ( 0.000000,  0.000000, -0.020019)
  22 O  ( 0.000000,  0.000000, -0.020019)
  23 O  ( 0.000000,  0.000000,  0.020019)
  24 Li ( 0.000000,  0.000000,  0.000000)
  25 Li ( 0.000000,  0.000000, -0.000000)
  26 Li ( 0.000000,  0.000000,  0.000000)
  27 Li ( 0.000000,  0.000000, -0.000000)

Energy contributions relative to reference atoms: (reference = -196157.275402)

Kinetic:       +206.487111
Potential:     -190.169990
External:        +0.000000
XC:            -245.933534
Entropy (-ST):   -0.000000
Local:           +3.330717
--------------------------
Free energy:   -226.285695
Extrapolated:  -226.285695

Spin contamination: 9.639234 electrons
Showing only first 2 kpts
                      Up                     Down
 Kpt  Band  Eigenvalues  Occupancy  Eigenvalues  Occupancy
  0    88      4.39402    1.00000      4.39402    1.00000
  0    89      4.50297    1.00000      4.50297    1.00000
  0    90      6.90233    0.00000      6.90233    0.00000
  0    91      6.92664    0.00000      6.92664    0.00000

  1    88      4.40786    1.00000      4.40786    1.00000
  1    89      4.50414    1.00000      4.50414    1.00000
  1    90      6.85912    0.00000      6.85912    0.00000
  1    91      6.88965    0.00000      6.88965    0.00000


Fermi level: 5.64798

Gap: 2.277 eV
Transition (v -> c):
  (s=0, k=21, n=89, [0.12, 0.38, 0.08]) -> (s=0, k=15, n=90, [0.12, 0.12, 0.08])
Stress tensor:
     0.035151     0.000000    -0.000000
     0.000000     0.046595     0.000000
    -0.000000     0.000000     0.063498

Forces in eV/Ang:
  0 O    -0.78808    0.06679   -0.65920
  1 O     0.78808   -0.06679   -0.65920
  2 O     0.78808    0.06679    0.65920
  3 O    -0.78808   -0.06679    0.65920
  4 O     0.78808   -0.06679    0.65920
  5 O    -0.78808    0.06679    0.65920
  6 O    -0.78808   -0.06679   -0.65920
  7 O     0.78808    0.06679   -0.65920
  8 O     0.66601   -0.00000    1.44749
  9 O    -0.66601   -0.00000    1.44749
 10 O    -0.66601   -0.00000   -1.44749
 11 O     0.66601    0.00000   -1.44749
 12 Mn   -0.15828   -0.00000   -0.14985
 13 Mn    0.15828   -0.00000   -0.14985
 14 Mn    0.15828    0.00000    0.14985
 15 Mn   -0.15828   -0.00000    0.14985
 16 P    -0.21580    0.00000    0.87367
 17 P     0.21580   -0.00000    0.87367
 18 P     0.21580    0.00000   -0.87367
 19 P    -0.21580   -0.00000   -0.87367
 20 O    -0.59374   -0.00000    0.98136
 21 O     0.59374   -0.00000    0.98136
 22 O     0.59374   -0.00000   -0.98136
 23 O    -0.59374    0.00000   -0.98136
 24 Li    0.00000    0.00000    0.00000
 25 Li    0.00000    0.00000   -0.00000
 26 Li    0.00000   -0.00000    0.00000
 27 Li    0.00000   -0.00000   -0.00000

System changes: cell, positions 

Initialize ...

O-setup:
  name: Oxygen
  id: 9b9d51c344dea68c822856295a461509
  Z: 8.0
  valence: 6
  core: 2
  charge: 0.0
  file: /home/modules/software/GPAW-setups/0.9.20000/O.LDA.gz
  compensation charges: gauss, rc=0.21, lmax=2
  cutoffs: 1.17(filt), 0.83(core),
  valence states:
                energy  radius
    2s(2.00)   -23.752   0.688
    2p(4.00)    -9.195   0.598
    *s           3.459   0.688
    *p          18.016   0.598
    *d           0.000   0.619

  Using partial waves for O as LCAO basis

Mn-setup:
  name: Manganese
  id: 0d715a8018be061a6e9ea6f2d364ac92
  Z: 25.0
  valence: 15
  core: 10
  charge: 0.0
  file: /home/modules/software/GPAW-setups/0.9.20000/Mn.LDA.gz
  compensation charges: gauss, rc=0.38, lmax=2
  cutoffs: 2.14(filt), 0.86(core),
  valence states:
                energy  radius
    3s(2.00)   -85.387   1.275
    4s(2.00)    -5.282   1.275
    3p(6.00)   -54.493   1.281
    4p(0.00)    -1.471   1.281
    3d(5.00)    -7.009   1.138
    *d          20.203   1.138

  Using partial waves for Mn as LCAO basis

P-setup:
  name: Phosphorus
  id: a5561c299094968922a179ab894d2e2d
  Z: 15.0
  valence: 5
  core: 10
  charge: 0.0
  file: /home/modules/software/GPAW-setups/0.9.20000/P.LDA.gz
  compensation charges: gauss, rc=0.30, lmax=2
  cutoffs: 1.69(filt), 1.81(core),
  valence states:
                energy  radius
    3s(2.00)   -14.015   0.953
    3p(3.00)    -5.596   0.953
    *s          13.197   0.953
    *p          21.615   0.953
    *d           0.000   0.953

  Using partial waves for P as LCAO basis

Li-setup:
  name: Lithium
  id: b73562207f97a71b6967473b66fe8b65
  Z: 3.0
  valence: 1
  core: 2
  charge: 0.0
  file: /home/modules/software/GPAW-setups/0.9.20000/Li.LDA.gz
  compensation charges: gauss, rc=0.33, lmax=2
  cutoffs: 1.91(filt), 2.55(core),
  valence states:
                energy  radius
    2s(1.00)    -2.874   1.058
    2p(0.00)    -1.126   1.058
    *s          24.338   1.058

  Using partial waves for Li as LCAO basis

Reference energy: -196157.275402

Spin-polarized calculation.
Magnetic moment: 0.000000

Convergence criteria:
  Maximum total energy change: 0.0005 eV / electron
  Maximum integral of absolute density change: 0.0001 electrons
  Maximum integral of absolute eigenstate change: 4e-08 eV^2
  Maximum change in atomic force: 0.0001 eV / Ang
  Maximum number of iterations: 5000

Symmetries present (total): 1

  ( 1  0  0)
  ( 0  1  0)
  ( 0  0  1)

96 k-points: 4 x 4 x 6 Monkhorst-Pack grid
48 k-points in the irreducible part of the Brillouin zone
       k-points in crystal coordinates                weights
   0:     0.12500000   -0.37500000   -0.41666667          2/96
   1:     0.12500000   -0.37500000   -0.25000000          2/96
   2:     0.12500000   -0.37500000   -0.08333333          2/96
   3:     0.12500000   -0.37500000    0.08333333          2/96
   4:     0.12500000   -0.37500000    0.25000000          2/96
   5:     0.12500000   -0.37500000    0.41666667          2/96
   6:     0.12500000   -0.12500000   -0.41666667          2/96
   7:     0.12500000   -0.12500000   -0.25000000          2/96
   8:     0.12500000   -0.12500000   -0.08333333          2/96
   9:     0.12500000   -0.12500000    0.08333333          2/96
          ...
  47:     0.37500000    0.37500000    0.41666667          2/96

Wave functions: Plane wave expansion
  Cutoff energy: 800.000 eV
  Number of coefficients (min, max): 15461, 15527
  Pulay-stress correction: 0.000000 eV/Ang^3 (de/decut=0.000000)
  Using FFTW library
  ScaLapack parameters: grid=1x1, blocksize=None
  Wavefunction extrapolation:
    Improved wavefunction reuse through dual PAW basis 

Occupation numbers: Fermi-Dirac: width=0.0500 eV
 

Eigensolver
   Davidson(niter=2) 

Densities:
  Coarse grid: 70*40*32 grid
  Fine grid: 140*80*64 grid
  Total Charge: 0.000000 

Density mixing:
  Method: difference
  Backend: pulay
  Linear mixing parameter: 0.05
  Mixing with 5 old densities
  Damping of long wave oscillations: 50 

Hamiltonian:
  XC and Coulomb potentials evaluated on a 140*80*64 grid
  Using the LDA Exchange-Correlation functional
  External potential:
    <gpaw.external.NoExternalPotential object at 0x2b89ff969370>
 

Memory estimate:
  Process memory now: 924.81 MiB
  Calculator: 171.91 MiB
    Density: 62.42 MiB
      Arrays: 23.93 MiB
      Localized functions: 28.93 MiB
      Mixer: 9.57 MiB
    Hamiltonian: 18.61 MiB
      Arrays: 17.77 MiB
      XC: 0.00 MiB
      Poisson: 0.00 MiB
      vbar: 0.84 MiB
    Wavefunctions: 90.88 MiB
      Arrays psit_nG: 53.07 MiB
      Eigensolver: 29.64 MiB
      Projections: 1.20 MiB
      Projectors: 3.31 MiB
      PW-descriptor: 3.65 MiB

Total number of cores used: 40
Parallelization over k-points: 40

Number of atoms: 28
Number of atomic orbitals: 148
Number of bands in calculation: 112
Number of valence electrons: 180
Bands to converge: occupied

... initialized

Initializing position-dependent things.

Density initialized from atomic densities
Creating initial wave functions:
  112 bands from LCAO basis set

                                            
                                            
                                            
                                            
                                            
               O         P O                
                     O     Mn     O         
            PO            O                 
                   O  Li      MnO           
            O Mn         O                  
                 MO Li         OP           
         Oi           O      O              
                O  P                        
       Li                                   
                                            
                                            
                                            
                                            

Positions:
   0 O      3.641706    0.272300    1.048698    ( 0.0000,  0.0000,  0.0000)
   1 O      1.585189    5.824217    3.415567    ( 0.0000,  0.0000,  0.0000)
   2 O      6.812084    3.320559    3.685039    ( 0.0000,  0.0000,  0.0000)
   3 O      8.868602    2.775958    1.318170    ( 0.0000,  0.0000,  0.0000)
   4 O      6.812084    5.824217    3.685039    ( 0.0000,  0.0000,  0.0000)
   5 O      8.868602    0.272300    1.318170    ( 0.0000,  0.0000,  0.0000)
   6 O      3.641706    2.775958    1.048698    ( 0.0000,  0.0000,  0.0000)
   7 O      1.585189    3.320559    3.415567    ( 0.0000,  0.0000,  0.0000)
   8 O      0.553216    1.524129    1.247728    ( 0.0000,  0.0000,  0.0000)
   9 O      4.673679    4.572388    3.614596    ( 0.0000,  0.0000,  0.0000)
  10 O      9.900575    4.572388    3.486009    ( 0.0000,  0.0000,  0.0000)
  11 O      5.780111    1.524129    1.119141    ( 0.0000,  0.0000,  0.0000)
  12 Mn     2.320489    1.524129    2.467688    ( 0.0000,  0.0000,  1.0000)
  13 Mn     2.906407    4.572388    0.100820    ( 0.0000,  0.0000, -1.0000)
  14 Mn     8.133302    4.572388    2.266049    ( 0.0000,  0.0000, -1.0000)
  15 Mn     7.547384    1.524129    4.632917    ( 0.0000,  0.0000,  1.0000)
  16 P      4.397166    1.524129    0.425939    ( 0.0000,  0.0000,  0.0000)
  17 P      0.829730    4.572388    2.792808    ( 0.0000,  0.0000,  0.0000)
  18 P      6.056625    4.572388    4.307798    ( 0.0000,  0.0000,  0.0000)
  19 P      9.624061    1.524129    1.940930    ( 0.0000,  0.0000,  0.0000)
  20 O      4.385895    1.524129    3.640571    ( 0.0000,  0.0000,  0.0000)
  21 O      0.841000    4.572388    1.273703    ( 0.0000,  0.0000,  0.0000)
  22 O      6.067895    4.572388    1.093166    ( 0.0000,  0.0000,  0.0000)
  23 O      9.612791    1.524129    3.460035    ( 0.0000,  0.0000,  0.0000)
  24 Li    -0.000000   -0.000000   -0.000000    ( 0.0000,  0.0000,  0.0000)
  25 Li     5.226895   -0.000000    2.366869    ( 0.0000,  0.0000,  0.0000)
  26 Li    -0.000000    3.048259    0.000000    ( 0.0000,  0.0000,  0.0000)
  27 Li     5.226895    3.048259    2.366869    ( 0.0000,  0.0000,  0.0000)

Unit cell:
           periodic     x           y           z      points  spacing
  1. axis:    yes   10.453791    0.000000    0.000000    70     0.1493
  2. axis:    yes    0.000000    6.096517   -0.000000    40     0.1524
  3. axis:    yes    0.000000   -0.000000    4.733737    32     0.1479

  Lengths:  10.453791   6.096517   4.733737
  Angles:   90.000000  90.000000  90.000000

Effective grid spacing dv^(1/3) = 0.1499

                     log10-error:           total        iterations:
           time      wfs    density  force  energy       poisson  magmom
iter:   1  17:49:29                       -232.696189             +0.0000
iter:   2  17:49:41  -0.56  -0.93         -235.077536             +0.0000
iter:   3  17:49:52  -0.56  -0.97         -218.368964             +0.0000
iter:   4  17:50:04  -0.94  -1.24         -217.397868             +0.0000
iter:   5  17:50:15  -1.66  -1.33         -217.525063             +0.0000
iter:   6  17:50:27  -1.51  -1.49         -217.414762             -0.0000
iter:   7  17:50:38  -2.22  -1.83         -217.611328             -0.0000
iter:   8  17:50:50  -2.34  -1.89         -216.268715             -0.0000
iter:   9  17:51:01  -3.39  -1.98         -216.489827             -0.0000
iter:  10  17:51:12  -2.90  -2.01         -216.480358             -0.0000
iter:  11  17:51:24  -2.31  -2.04         -216.090397             -0.0000
iter:  12  17:51:36  -2.50  -2.29         -216.327470             -0.0000
iter:  13  17:51:47  -3.35  -2.32         -216.141176             +0.0000
iter:  14  17:51:58  -3.29  -2.43         -216.342501             +0.0000
iter:  15  17:52:10  -3.82  -2.44         -216.427046             +0.0000
iter:  16  17:52:21  -3.09  -2.47         -216.277866             +0.0002
iter:  17  17:52:33  -3.67  -2.42         -216.254942             +0.0001
iter:  18  17:52:44  -3.82  -2.40         -216.274057             +0.0004
iter:  19  17:52:56  -4.39  -2.50         -216.273983             +0.0014
iter:  20  17:53:07  -4.21  -2.58         -216.332722             -0.0226
iter:  21  17:53:19  -3.64  -2.55         -216.273988             +0.0576
iter:  22  17:53:30  -3.46  -2.65         -216.515471             -0.0190
iter:  23  17:53:42  -3.91  -2.59         -216.518250             +0.0448
iter:  24  17:53:53  -3.59  -2.60         -216.663949             +0.0144
iter:  25  17:54:05  -2.95  -2.57         -217.111314             -0.0274
iter:  26  17:54:16  -3.01  -2.18         -216.657790             +0.0431
iter:  27  17:54:27  -3.88  -2.57         -216.658200             +0.0419
iter:  28  17:54:39  -3.30  -2.57         -216.880917             +0.0564
iter:  29  17:54:50  -2.99  -2.38         -216.620066             -0.0397
iter:  30  17:55:02  -3.06  -2.54         -216.307103             -0.1442
iter:  31  17:55:13  -2.81  -2.40         -216.772690             -0.0025
iter:  32  17:55:25  -3.42  -2.50         -216.987115             -0.0032
iter:  33  17:55:36  -3.53  -2.29         -216.754957             +0.0087
iter:  34  17:55:48  -4.01  -2.52         -216.763487             +0.0040
iter:  35  17:55:59  -4.02  -2.50         -216.823466             +0.0064
iter:  36  17:56:11  -3.95  -2.41         -216.758225             +0.0034
iter:  37  17:56:22  -4.07  -2.51         -216.737450             +0.0009
iter:  38  17:56:34  -4.13  -2.53         -216.755331             +0.0019
iter:  39  17:56:45  -4.17  -2.50         -216.745020             -0.0141
iter:  40  17:56:57  -3.74  -2.55         -216.769461             -0.0048
iter:  41  17:57:08  -3.68  -2.52         -216.731545             +0.0110
iter:  42  17:57:20  -3.72  -2.57         -216.818901             -0.0152
iter:  43  17:57:31  -3.62  -2.41         -216.737485             -0.0128
iter:  44  17:57:42  -3.67  -2.62         -216.771862             -0.0226
iter:  45  17:57:54  -3.48  -2.51         -216.791071             -0.0403
iter:  46  17:58:05  -3.30  -2.52         -217.009003             -0.0149
iter:  47  17:58:17  -3.23  -2.27         -217.006207             -0.1162
iter:  48  17:58:28  -2.85  -2.34         -218.535742             -0.0169
iter:  49  17:58:40  -2.47  -2.01         -217.633252             -0.1091
iter:  50  17:58:51  -2.37  -2.08         -220.364887             -0.3896
iter:  51  17:59:03  -2.55  -2.04         -222.029167             -0.4264
iter:  52  17:59:14  -3.10  -2.00         -222.197261             -0.6948
iter:  53  17:59:26  -2.73  -1.98         -222.221079             -0.9031
iter:  54  17:59:37  -2.17  -1.98         -223.918441             -1.5810
iter:  55  17:59:49  -2.50  -1.75         -222.318309             -1.4785
iter:  56  18:00:00  -1.60  -1.99         -226.084934             -1.8968
iter:  57  18:00:12  -2.24  -1.66         -222.341428             -1.9076
iter:  58  18:00:23  -3.22  -2.01         -222.640026             -2.4193
iter:  59  18:00:34  -3.95  -2.02         -222.413252             -1.8210
iter:  60  18:00:46  -2.38  -2.00         -222.918615             -1.7008
iter:  61  18:00:57  -2.75  -1.94         -222.494439             -2.2031
iter:  62  18:01:09  -2.50  -2.02         -222.840056             -2.8168
iter:  63  18:01:20  -2.91  -2.11         -222.986404             -3.5905
iter:  64  18:01:32  -3.01  -2.18         -223.831149             -4.5902
iter:  65  18:01:43  -3.03  -2.15         -225.354881             -6.4861
iter:  66  18:01:55  -3.20  -2.04         -226.131449             -7.4208
iter:  67  18:02:06  -2.40  -2.03         -227.220775             -9.9911
iter:  68  18:02:17  -3.46  -2.00         -227.230427             -9.9944
iter:  69  18:02:29  -2.03  -2.00         -227.314241             -9.9990
iter:  70  18:02:40  -2.39  -2.09         -227.159683             -9.9984
iter:  71  18:02:52  -2.20  -2.09         -227.240814             -9.9996
iter:  72  18:03:03  -2.78  -2.25         -227.278431             -10.0013
iter:  73  18:03:15  -1.64  -2.28         -227.066869             -10.0705
iter:  74  18:03:26  -2.81  -2.33         -226.955630             -9.9855
iter:  75  18:03:38  -2.10  -2.39         -226.962670             -9.9568
iter:  76  18:03:49  -3.02  -2.59         -226.815599             -9.9909
iter:  77  18:04:00  -3.40  -2.83         -226.801226             -10.0022
iter:  78  18:04:12  -3.52  -2.92         -226.787090             -10.0019
iter:  79  18:04:23  -3.82  -2.98         -226.784526             -10.0006
iter:  80  18:04:35  -4.27  -3.07         -226.782388             -10.0009
iter:  81  18:04:46  -5.18  -3.21         -226.782451             -10.0002
iter:  82  18:04:58  -4.50  -3.25         -226.780617             -10.0000
iter:  83  18:05:09  -4.99  -3.49         -226.780255             -10.0000
iter:  84  18:05:20  -5.05  -3.58         -226.780397             -10.0000
iter:  85  18:05:32  -5.72  -3.74         -226.780094             -10.0000
iter:  86  18:05:43  -5.38  -3.84         -226.779898             -10.0000
iter:  87  18:05:55  -6.41  -4.12         -226.779881             -10.0000
iter:  88  18:06:06  -6.32  -4.15         -226.779854             -10.0000
iter:  89  18:06:18  -6.04  -4.25         -226.779865             -10.0000
iter:  90  18:06:29  -7.18  -4.26         -226.779856             -10.0000
iter:  91  18:06:41  -6.49  -4.32         -226.779845             -10.0000
iter:  92  18:06:52  -7.21  -4.46         -226.779844             -10.0000
iter:  93  18:07:09  -7.83  -4.72         -226.779842             -10.0000
iter:  94  18:07:21  -7.36  -4.79         -226.779841             -10.0000
iter:  95  18:07:37  -7.96  -4.97    -2.63-226.779841             -10.0000
iter:  96  18:07:54  -8.73  -5.05    -3.45-226.779841             -10.0000
iter:  97  18:08:11  -9.15  -5.03    -3.18-226.779841             -10.0000
iter:  98  18:08:28  -9.24  -5.06    -3.41-226.779841             -10.0000
iter:  99  18:08:45  -8.28  -5.10    -2.91-226.779841             -10.0000
iter: 100  18:09:02  -9.08  -5.40    -3.31-226.779841             -10.0000
iter: 101  18:09:19  -8.58  -5.49    -3.06-226.779841             -10.0000
iter: 102  18:09:36  -9.34  -5.77    -3.63-226.779841             -10.0000
iter: 103  18:09:53 -10.35  -5.88    -4.46-226.779841             -10.0000

Converged after 103 iterations.

Dipole moment: (0.002555, 0.000289, -0.001464) |e|*Ang

Total magnetic moment: (0.000000, 0.000000, -10.000000)
Local magnetic moments:
   0 O  ( 0.000000,  0.000000, -0.004278)
   1 O  ( 0.000000,  0.000000,  0.000078)
   2 O  ( 0.000000,  0.000000, -0.056592)
   3 O  ( 0.000000,  0.000000, -0.053149)
   4 O  ( 0.000000,  0.000000, -0.056592)
   5 O  ( 0.000000,  0.000000, -0.053149)
   6 O  ( 0.000000,  0.000000, -0.004278)
   7 O  ( 0.000000,  0.000000,  0.000078)
   8 O  ( 0.000000,  0.000000,  0.023044)
   9 O  ( 0.000000,  0.000000, -0.036813)
  10 O  ( 0.000000,  0.000000, -0.031750)
  11 O  ( 0.000000,  0.000000, -0.031617)
  12 Mn ( 0.000000,  0.000000,  4.483491)
  13 Mn ( 0.000000,  0.000000, -4.490584)
  14 Mn ( 0.000000,  0.000000, -4.510944)
  15 Mn ( 0.000000,  0.000000, -4.515150)
  16 P  ( 0.000000,  0.000000, -0.007687)
  17 P  ( 0.000000,  0.000000, -0.000504)
  18 P  ( 0.000000,  0.000000, -0.016944)
  19 P  ( 0.000000,  0.000000, -0.008693)
  20 O  ( 0.000000,  0.000000,  0.017683)
  21 O  ( 0.000000,  0.000000, -0.020588)
  22 O  ( 0.000000,  0.000000, -0.021293)
  23 O  ( 0.000000,  0.000000, -0.020384)
  24 Li ( 0.000000,  0.000000, -0.000143)
  25 Li ( 0.000000,  0.000000, -0.001306)
  26 Li ( 0.000000,  0.000000, -0.000143)
  27 Li ( 0.000000,  0.000000, -0.001306)

Energy contributions relative to reference atoms: (reference = -196157.275402)

Kinetic:       +219.649952
Potential:     -200.744779
External:        +0.000000
XC:            -248.973155
Entropy (-ST):   -0.000000
Local:           +3.288141
--------------------------
Free energy:   -226.779841
Extrapolated:  -226.779841

Spin contamination: 4.788356 electrons
Showing only first 2 kpts
                      Up                     Down
 Kpt  Band  Eigenvalues  Occupancy  Eigenvalues  Occupancy
  0    88      7.06337    0.00000      3.62669    1.00000
  0    89      7.10327    0.00000      4.18228    1.00000
  0    90      7.13475    0.00000      4.25289    1.00000
  0    91      7.22541    0.00000      4.30081    1.00000

  1    88      7.00151    0.00000      3.65772    1.00000
  1    89      7.07617    0.00000      4.18571    1.00000
  1    90      7.11059    0.00000      4.24503    1.00000
  1    91      7.21256    0.00000      4.34015    1.00000


Fermi level: 5.83860

Gap: 1.904 eV
Transition (v -> c):
  (s=1, k=15, n=94, [0.12, 0.12, 0.08]) -> (s=0, k=12, n=85, [0.12, 0.12, -0.42])
Stress tensor:
     0.033180    -0.000000     0.000077
    -0.000000     0.049647    -0.000000
     0.000077    -0.000000     0.027708

Forces in eV/Ang:
  0 O    -0.33980    0.28854   -0.24746
  1 O     0.33981   -0.27527   -0.25557
  2 O     0.28460    0.32984    0.26373
  3 O    -0.28187   -0.32159    0.26700
  4 O     0.28460   -0.32984    0.26373
  5 O    -0.28187    0.32159    0.26700
  6 O    -0.33980   -0.28854   -0.24746
  7 O     0.33981    0.27527   -0.25557
  8 O     0.59459    0.00000    0.60462
  9 O    -0.58306   -0.00000    0.59173
 10 O    -0.58445    0.00000   -0.60581
 11 O     0.57490   -0.00000   -0.59880
 12 Mn   -0.02063    0.00000   -0.07005
 13 Mn    0.00478   -0.00000   -0.06589
 14 Mn    0.03694   -0.00000    0.02757
 15 Mn   -0.03653   -0.00000    0.02611
 16 P    -1.16291   -0.00000    0.86197
 17 P     1.16964    0.00000    0.86272
 18 P     1.15762   -0.00000   -0.86338
 19 P    -1.15829    0.00000   -0.86445
 20 O    -0.36701   -0.00000   -0.42353
 21 O     0.36550   -0.00000   -0.41732
 22 O     0.36527    0.00000    0.43592
 23 O    -0.36314    0.00000    0.43641
 24 Li    0.00171    0.00142    0.00156
 25 Li   -0.00104   -0.00172    0.00216
 26 Li    0.00171   -0.00142    0.00156
 27 Li   -0.00104    0.00172    0.00216

System changes: cell, positions 

Initialize ...

O-setup:
  name: Oxygen
  id: 9b9d51c344dea68c822856295a461509
  Z: 8.0
  valence: 6
  core: 2
  charge: 0.0
  file: /home/modules/software/GPAW-setups/0.9.20000/O.LDA.gz
  compensation charges: gauss, rc=0.21, lmax=2
  cutoffs: 1.17(filt), 0.83(core),
  valence states:
                energy  radius
    2s(2.00)   -23.752   0.688
    2p(4.00)    -9.195   0.598
    *s           3.459   0.688
    *p          18.016   0.598
    *d           0.000   0.619

  Using partial waves for O as LCAO basis

Mn-setup:
  name: Manganese
  id: 0d715a8018be061a6e9ea6f2d364ac92
  Z: 25.0
  valence: 15
  core: 10
  charge: 0.0
  file: /home/modules/software/GPAW-setups/0.9.20000/Mn.LDA.gz
  compensation charges: gauss, rc=0.38, lmax=2
  cutoffs: 2.14(filt), 0.86(core),
  valence states:
                energy  radius
    3s(2.00)   -85.387   1.275
    4s(2.00)    -5.282   1.275
    3p(6.00)   -54.493   1.281
    4p(0.00)    -1.471   1.281
    3d(5.00)    -7.009   1.138
    *d          20.203   1.138

  Using partial waves for Mn as LCAO basis

P-setup:
  name: Phosphorus
  id: a5561c299094968922a179ab894d2e2d
  Z: 15.0
  valence: 5
  core: 10
  charge: 0.0
  file: /home/modules/software/GPAW-setups/0.9.20000/P.LDA.gz
  compensation charges: gauss, rc=0.30, lmax=2
  cutoffs: 1.69(filt), 1.81(core),
  valence states:
                energy  radius
    3s(2.00)   -14.015   0.953
    3p(3.00)    -5.596   0.953
    *s          13.197   0.953
    *p          21.615   0.953
    *d           0.000   0.953

  Using partial waves for P as LCAO basis

Li-setup:
  name: Lithium
  id: b73562207f97a71b6967473b66fe8b65
  Z: 3.0
  valence: 1
  core: 2
  charge: 0.0
  file: /home/modules/software/GPAW-setups/0.9.20000/Li.LDA.gz
  compensation charges: gauss, rc=0.33, lmax=2
  cutoffs: 1.91(filt), 2.55(core),
  valence states:
                energy  radius
    2s(1.00)    -2.874   1.058
    2p(0.00)    -1.126   1.058
    *s          24.338   1.058

  Using partial waves for Li as LCAO basis

Reference energy: -196157.275402

Spin-polarized calculation.
Magnetic moment: 0.000000

Convergence criteria:
  Maximum total energy change: 0.0005 eV / electron
  Maximum integral of absolute density change: 0.0001 electrons
  Maximum integral of absolute eigenstate change: 4e-08 eV^2
  Maximum change in atomic force: 0.0001 eV / Ang
  Maximum number of iterations: 5000

Symmetries present (total): 1

  ( 1  0  0)
  ( 0  1  0)
  ( 0  0  1)

96 k-points: 4 x 4 x 6 Monkhorst-Pack grid
48 k-points in the irreducible part of the Brillouin zone
       k-points in crystal coordinates                weights
   0:     0.12500000   -0.37500000   -0.41666667          2/96
   1:     0.12500000   -0.37500000   -0.25000000          2/96
   2:     0.12500000   -0.37500000   -0.08333333          2/96
   3:     0.12500000   -0.37500000    0.08333333          2/96
   4:     0.12500000   -0.37500000    0.25000000          2/96
   5:     0.12500000   -0.37500000    0.41666667          2/96
   6:     0.12500000   -0.12500000   -0.41666667          2/96
   7:     0.12500000   -0.12500000   -0.25000000          2/96
   8:     0.12500000   -0.12500000   -0.08333333          2/96
   9:     0.12500000   -0.12500000    0.08333333          2/96
          ...
  47:     0.37500000    0.37500000    0.41666667          2/96

Wave functions: Plane wave expansion
  Cutoff energy: 800.000 eV
  Number of coefficients (min, max): 15440, 15501
  Pulay-stress correction: 0.000000 eV/Ang^3 (de/decut=0.000000)
  Using FFTW library
  ScaLapack parameters: grid=1x1, blocksize=None
  Wavefunction extrapolation:
    Improved wavefunction reuse through dual PAW basis 

Occupation numbers: Fermi-Dirac: width=0.0500 eV
 

Eigensolver
   Davidson(niter=2) 

Densities:
  Coarse grid: 70*40*32 grid
  Fine grid: 140*80*64 grid
  Total Charge: 0.000000 

Density mixing:
  Method: difference
  Backend: pulay
  Linear mixing parameter: 0.05
  Mixing with 5 old densities
  Damping of long wave oscillations: 50 

Hamiltonian:
  XC and Coulomb potentials evaluated on a 140*80*64 grid
  Using the LDA Exchange-Correlation functional
  External potential:
    <gpaw.external.NoExternalPotential object at 0x2b89ffa311f0>
 

Memory estimate:
  Process memory now: 947.03 MiB
  Calculator: 171.73 MiB
    Density: 62.38 MiB
      Arrays: 23.93 MiB
      Localized functions: 28.89 MiB
      Mixer: 9.57 MiB
    Hamiltonian: 18.61 MiB
      Arrays: 17.77 MiB
      XC: 0.00 MiB
      Poisson: 0.00 MiB
      vbar: 0.84 MiB
    Wavefunctions: 90.74 MiB
      Arrays psit_nG: 52.98 MiB
      Eigensolver: 29.59 MiB
      Projections: 1.20 MiB
      Projectors: 3.31 MiB
      PW-descriptor: 3.65 MiB

Total number of cores used: 40
Parallelization over k-points: 40

Number of atoms: 28
Number of atomic orbitals: 148
Number of bands in calculation: 112
Number of valence electrons: 180
Bands to converge: occupied

... initialized

Initializing position-dependent things.

Density initialized from atomic densities
Creating initial wave functions:
  112 bands from LCAO basis set

                                            
                                            
                                            
                                            
                                            
               O         P O                
                     O    OMn     O         
            PO                              
                   O  Li      MnO           
            O Mn         O                  
                 MO Li        O P           
         Oi           O      O              
                O  P                        
       Li                                   
                                            
                                            
                                            
                                            

Positions:
   0 O      3.620456    0.274152    1.036510    ( 0.0000,  0.0000,  0.0000)
   1 O      1.604295    5.819452    3.401886    ( 0.0000,  0.0000,  0.0000)
   2 O      6.827915    3.321664    3.694896    ( 0.0000,  0.0000,  0.0000)
   3 O      8.846397    2.771837    1.329422    ( 0.0000,  0.0000,  0.0000)
   4 O      6.827915    5.818333    3.694896    ( 0.0000,  0.0000,  0.0000)
   5 O      8.846397    0.274829    1.329422    ( 0.0000,  0.0000,  0.0000)
   6 O      3.620456    2.772514    1.036510    ( 0.0000,  0.0000,  0.0000)
   7 O      1.604295    3.320545    3.401886    ( 0.0000,  0.0000,  0.0000)
   8 O      0.570921    1.523333    1.278692    ( 0.0000,  0.0000,  0.0000)
   9 O      4.654066    4.569999    3.643966    ( 0.0000,  0.0000,  0.0000)
  10 O      9.878791    4.569999    3.452357    ( 0.0000,  0.0000,  0.0000)
  11 O      5.795271    1.523333    1.086963    ( 0.0000,  0.0000,  0.0000)
  12 Mn     2.316568    1.523333    2.463362    ( 0.0000,  0.0000,  1.0000)
  13 Mn     2.907859    4.569999    0.097907    ( 0.0000,  0.0000, -1.0000)
  14 Mn     8.133271    4.569999    2.266842    ( 0.0000,  0.0000, -1.0000)
  15 Mn     7.540994    1.523333    4.632352    ( 0.0000,  0.0000,  1.0000)
  16 P      4.381321    1.523333    0.442780    ( 0.0000,  0.0000,  0.0000)
  17 P      0.843568    4.569999    2.808337    ( 0.0000,  0.0000,  0.0000)
  18 P      6.068074    4.569999    4.288265    ( 0.0000,  0.0000,  0.0000)
  19 P      9.606169    1.523333    1.922701    ( 0.0000,  0.0000,  0.0000)
  20 O      4.368027    1.523333    3.651111    ( 0.0000,  0.0000,  0.0000)
  21 O      0.856692    4.569999    1.285700    ( 0.0000,  0.0000,  0.0000)
  22 O      6.081441    4.569999    1.080216    ( 0.0000,  0.0000,  0.0000)
  23 O      9.592860    1.523333    3.445764    ( 0.0000,  0.0000,  0.0000)
  24 Li     0.000035    0.000029    0.000032    ( 0.0000,  0.0000,  0.0000)
  25 Li     5.224730   -0.000035    2.365581    ( 0.0000,  0.0000,  0.0000)
  26 Li     0.000035    3.046637    0.000032    ( 0.0000,  0.0000,  0.0000)
  27 Li     5.224730    3.046701    2.365581    ( 0.0000,  0.0000,  0.0000)

Unit cell:
           periodic     x           y           z      points  spacing
  1. axis:    yes   10.449507    0.000000   -0.000006    70     0.1493
  2. axis:    yes    0.000000    6.093332   -0.000000    40     0.1523
  3. axis:    yes   -0.000003   -0.000000    4.731080    32     0.1478

  Lengths:  10.449507   6.093332   4.731080
  Angles:   90.000000  90.000070  90.000000

Effective grid spacing dv^(1/3) = 0.1498

                     log10-error:           total        iterations:
           time      wfs    density  force  energy       poisson  magmom
iter:   1  18:11:48                       -232.670650             +0.0000
iter:   2  18:12:00  -0.55  -0.93         -234.515505             -0.0004
iter:   3  18:12:11  -0.62  -0.97         -219.079489             -0.0007
iter:   4  18:12:23  -0.89  -1.23         -217.724715             +0.0025
iter:   5  18:12:34  -1.82  -1.34         -218.419288             +0.0001
iter:   6  18:12:46  -1.89  -1.42         -226.775652             -0.0019
iter:   7  18:12:57  -1.97  -1.31         -218.180745             -0.2827
iter:   8  18:13:09  -2.46  -1.71         -219.187160             -0.4508
iter:   9  18:13:20  -2.23  -1.64         -221.535423             -0.4832
iter:  10  18:13:31  -2.75  -1.78         -220.721409             -0.2685
iter:  11  18:13:43  -2.23  -1.80         -225.073459             -0.2500
iter:  12  18:13:54  -2.18  -1.73         -228.236563             +0.0488
iter:  13  18:14:06  -2.78  -1.71         -228.182807             +0.0250
iter:  14  18:14:17  -1.76  -1.73         -228.424065             +0.0067
iter:  15  18:14:29  -3.07  -1.83         -228.011504             +0.0897
iter:  16  18:14:40  -1.54  -1.84         -227.650311             +0.3081
iter:  17  18:14:52  -2.07  -1.97         -228.229569             +0.0468
iter:  18  18:15:03  -2.79  -1.90         -227.469514             +0.3525
iter:  19  18:15:15  -2.09  -2.04         -227.185724             +0.4011
iter:  20  18:15:26  -2.21  -2.20         -227.401669             +0.1126
iter:  21  18:15:37  -3.19  -2.27         -227.273815             +0.0533
iter:  22  18:15:49  -2.39  -2.39         -227.096020             +0.0142
iter:  23  18:16:00  -3.53  -2.58         -227.089626             +0.0133
iter:  24  18:16:12  -3.53  -2.76         -227.080244             +0.0035
iter:  25  18:16:23  -3.62  -3.10         -227.086552             -0.0001
iter:  26  18:16:35  -4.01  -3.22         -227.077460             -0.0015
iter:  27  18:16:46  -4.80  -3.26         -227.078533             -0.0002
iter:  28  18:16:58  -5.44  -3.33         -227.078240             -0.0000
iter:  29  18:17:09  -4.75  -3.35         -227.076887             +0.0000
iter:  30  18:17:20  -5.06  -3.43         -227.077543             +0.0000
iter:  31  18:17:32  -5.91  -3.48         -227.077600             +0.0000
iter:  32  18:17:43  -5.13  -3.51         -227.076950             +0.0000
iter:  33  18:17:55  -6.07  -3.62         -227.076943             +0.0000
iter:  34  18:18:06  -4.78  -3.66         -227.076755             +0.0000
iter:  35  18:18:18  -5.84  -3.78         -227.076640             +0.0000
iter:  36  18:18:29  -6.22  -4.01         -227.076619             +0.0000
iter:  37  18:18:40  -6.18  -4.09         -227.076603             +0.0000
iter:  38  18:18:52  -6.72  -4.30         -227.076604             -0.0000
iter:  39  18:19:03  -7.03  -4.46         -227.076601             -0.0000
iter:  40  18:19:20  -7.56  -4.58         -227.076598             -0.0000
iter:  41  18:19:37  -7.59  -4.72    -2.79-227.076600             -0.0000
iter:  42  18:19:54  -8.66  -4.77    -3.11-227.076599             -0.0000
iter:  43  18:20:11  -7.45  -4.80    -2.51-227.076597             -0.0000
iter:  44  18:20:28  -8.55  -4.88    -3.43-227.076597             -0.0000
iter:  45  18:20:45  -8.34  -4.92    -2.78-227.076597             -0.0000
iter:  46  18:21:02  -8.64  -5.05    -3.10-227.076597             -0.0000
iter:  47  18:21:19  -9.07  -5.13    -3.10-227.076597             -0.0000
iter:  48  18:21:36  -9.63  -5.22    -3.61-227.076597             -0.0000
iter:  49  18:21:53  -8.62  -5.29    -3.15-227.076597             -0.0000
iter:  50  18:22:10  -9.20  -5.56    -3.40-227.076597             -0.0000
iter:  51  18:22:27  -9.22  -5.64    -3.60-227.076597             -0.0000
iter:  52  18:22:44  -9.92  -5.90    -3.85-227.076597             -0.0000
iter:  53  18:23:01 -10.80  -6.02    -4.46-227.076597             -0.0000

Converged after 53 iterations.

Dipole moment: (0.008502, 0.001245, 0.012991) |e|*Ang

Total magnetic moment: (0.000000, 0.000000, -0.000000)
Local magnetic moments:
   0 O  ( 0.000000,  0.000000,  0.000067)
   1 O  ( 0.000000,  0.000000, -0.000063)
   2 O  ( 0.000000,  0.000000,  0.000002)
   3 O  ( 0.000000,  0.000000, -0.000000)
   4 O  ( 0.000000,  0.000000,  0.000002)
   5 O  ( 0.000000,  0.000000, -0.000000)
   6 O  ( 0.000000,  0.000000,  0.000067)
   7 O  ( 0.000000,  0.000000, -0.000063)
   8 O  ( 0.000000,  0.000000,  0.030475)
   9 O  ( 0.000000,  0.000000, -0.030449)
  10 O  ( 0.000000,  0.000000, -0.030432)
  11 O  ( 0.000000,  0.000000,  0.030431)
  12 Mn ( 0.000000,  0.000000,  4.478166)
  13 Mn ( 0.000000,  0.000000, -4.478317)
  14 Mn ( 0.000000,  0.000000, -4.478692)
  15 Mn ( 0.000000,  0.000000,  4.478776)
  16 P  ( 0.000000,  0.000000,  0.000600)
  17 P  ( 0.000000,  0.000000, -0.000585)
  18 P  ( 0.000000,  0.000000, -0.000622)
  19 P  ( 0.000000,  0.000000,  0.000620)
  20 O  ( 0.000000,  0.000000,  0.019965)
  21 O  ( 0.000000,  0.000000, -0.019971)
  22 O  ( 0.000000,  0.000000, -0.019976)
  23 O  ( 0.000000,  0.000000,  0.019978)
  24 Li ( 0.000000,  0.000000,  0.000003)
  25 Li ( 0.000000,  0.000000, -0.000002)
  26 Li ( 0.000000,  0.000000,  0.000003)
  27 Li ( 0.000000,  0.000000, -0.000002)

Energy contributions relative to reference atoms: (reference = -196157.275402)

Kinetic:       +222.466855
Potential:     -203.062261
External:        +0.000000
XC:            -249.750762
Entropy (-ST):   -0.000000
Local:           +3.269571
--------------------------
Free energy:   -227.076597
Extrapolated:  -227.076597

Spin contamination: 9.611626 electrons
Showing only first 2 kpts
                      Up                     Down
 Kpt  Band  Eigenvalues  Occupancy  Eigenvalues  Occupancy
  0    88      4.62735    1.00000      4.62696    1.00000
  0    89      4.73836    1.00000      4.73798    1.00000
  0    90      7.04128    0.00000      7.04122    0.00000
  0    91      7.09232    0.00000      7.09288    0.00000

  1    88      4.64012    1.00000      4.63971    1.00000
  1    89      4.74407    1.00000      4.74375    1.00000
  1    90      7.00918    0.00000      7.00879    0.00000
  1    91      7.05447    0.00000      7.05535    0.00000


Fermi level: 5.84428

Gap: 2.197 eV
Transition (v -> c):
  (s=0, k=3, n=89, [0.12, -0.38, 0.08]) -> (s=1, k=8, n=90, [0.12, -0.12, -0.08])
Stress tensor:
     0.040762    -0.000000    -0.000019
    -0.000000     0.042031     0.000000
    -0.000019     0.000000     0.020240

Forces in eV/Ang:
  0 O    -0.21604    0.18691    0.09569
  1 O     0.21405   -0.19456    0.09740
  2 O     0.24436    0.14578   -0.10967
  3 O    -0.24244   -0.15104   -0.11022
  4 O     0.24436   -0.14578   -0.10967
  5 O    -0.24244    0.15104   -0.11022
  6 O    -0.21604   -0.18691    0.09569
  7 O     0.21405    0.19456    0.09740
  8 O    -0.05362   -0.00000    0.28005
  9 O     0.04600   -0.00000    0.28266
 10 O     0.05690   -0.00000   -0.27811
 11 O    -0.04553   -0.00000   -0.27783
 12 Mn    0.06002   -0.00000    0.03098
 13 Mn   -0.05507   -0.00000    0.03133
 14 Mn   -0.06178    0.00000   -0.03004
 15 Mn    0.06053    0.00000   -0.03046
 16 P    -0.73299    0.00000    0.06637
 17 P     0.72416   -0.00000    0.07295
 18 P     0.68662   -0.00000   -0.03759
 19 P    -0.68494   -0.00000   -0.03656
 20 O    -0.31644    0.00000   -0.55720
 21 O     0.31794   -0.00000   -0.56385
 22 O     0.32038   -0.00000    0.55123
 23 O    -0.32111    0.00000    0.55076
 24 Li    0.00129    0.00149   -0.00034
 25 Li   -0.00175   -0.00142   -0.00018
 26 Li    0.00129   -0.00149   -0.00034
 27 Li   -0.00175    0.00142   -0.00018

System changes: cell, positions 

Initialize ...

O-setup:
  name: Oxygen
  id: 9b9d51c344dea68c822856295a461509
  Z: 8.0
  valence: 6
  core: 2
  charge: 0.0
  file: /home/modules/software/GPAW-setups/0.9.20000/O.LDA.gz
  compensation charges: gauss, rc=0.21, lmax=2
  cutoffs: 1.17(filt), 0.83(core),
  valence states:
                energy  radius
    2s(2.00)   -23.752   0.688
    2p(4.00)    -9.195   0.598
    *s           3.459   0.688
    *p          18.016   0.598
    *d           0.000   0.619

  Using partial waves for O as LCAO basis

Mn-setup:
  name: Manganese
  id: 0d715a8018be061a6e9ea6f2d364ac92
  Z: 25.0
  valence: 15
  core: 10
  charge: 0.0
  file: /home/modules/software/GPAW-setups/0.9.20000/Mn.LDA.gz
  compensation charges: gauss, rc=0.38, lmax=2
  cutoffs: 2.14(filt), 0.86(core),
  valence states:
                energy  radius
    3s(2.00)   -85.387   1.275
    4s(2.00)    -5.282   1.275
    3p(6.00)   -54.493   1.281
    4p(0.00)    -1.471   1.281
    3d(5.00)    -7.009   1.138
    *d          20.203   1.138

  Using partial waves for Mn as LCAO basis

P-setup:
  name: Phosphorus
  id: a5561c299094968922a179ab894d2e2d
  Z: 15.0
  valence: 5
  core: 10
  charge: 0.0
  file: /home/modules/software/GPAW-setups/0.9.20000/P.LDA.gz
  compensation charges: gauss, rc=0.30, lmax=2
  cutoffs: 1.69(filt), 1.81(core),
  valence states:
                energy  radius
    3s(2.00)   -14.015   0.953
    3p(3.00)    -5.596   0.953
    *s          13.197   0.953
    *p          21.615   0.953
    *d           0.000   0.953

  Using partial waves for P as LCAO basis

Li-setup:
  name: Lithium
  id: b73562207f97a71b6967473b66fe8b65
  Z: 3.0
  valence: 1
  core: 2
  charge: 0.0
  file: /home/modules/software/GPAW-setups/0.9.20000/Li.LDA.gz
  compensation charges: gauss, rc=0.33, lmax=2
  cutoffs: 1.91(filt), 2.55(core),
  valence states:
                energy  radius
    2s(1.00)    -2.874   1.058
    2p(0.00)    -1.126   1.058
    *s          24.338   1.058

  Using partial waves for Li as LCAO basis

Reference energy: -196157.275402

Spin-polarized calculation.
Magnetic moment: 0.000000

Convergence criteria:
  Maximum total energy change: 0.0005 eV / electron
  Maximum integral of absolute density change: 0.0001 electrons
  Maximum integral of absolute eigenstate change: 4e-08 eV^2
  Maximum change in atomic force: 0.0001 eV / Ang
  Maximum number of iterations: 5000

Symmetries present (total): 1

  ( 1  0  0)
  ( 0  1  0)
  ( 0  0  1)

96 k-points: 4 x 4 x 6 Monkhorst-Pack grid
48 k-points in the irreducible part of the Brillouin zone
       k-points in crystal coordinates                weights
   0:     0.12500000   -0.37500000   -0.41666667          2/96
   1:     0.12500000   -0.37500000   -0.25000000          2/96
   2:     0.12500000   -0.37500000   -0.08333333          2/96
   3:     0.12500000   -0.37500000    0.08333333          2/96
   4:     0.12500000   -0.37500000    0.25000000          2/96
   5:     0.12500000   -0.37500000    0.41666667          2/96
   6:     0.12500000   -0.12500000   -0.41666667          2/96
   7:     0.12500000   -0.12500000   -0.25000000          2/96
   8:     0.12500000   -0.12500000   -0.08333333          2/96
   9:     0.12500000   -0.12500000    0.08333333          2/96
          ...
  47:     0.37500000    0.37500000    0.41666667          2/96

Wave functions: Plane wave expansion
  Cutoff energy: 800.000 eV
  Number of coefficients (min, max): 15424, 15484
  Pulay-stress correction: 0.000000 eV/Ang^3 (de/decut=0.000000)
  Using FFTW library
  ScaLapack parameters: grid=1x1, blocksize=None
  Wavefunction extrapolation:
    Improved wavefunction reuse through dual PAW basis 

Occupation numbers: Fermi-Dirac: width=0.0500 eV
 

Eigensolver
   Davidson(niter=2) 

Densities:
  Coarse grid: 70*40*32 grid
  Fine grid: 140*80*64 grid
  Total Charge: 0.000000 

Density mixing:
  Method: difference
  Backend: pulay
  Linear mixing parameter: 0.05
  Mixing with 5 old densities
  Damping of long wave oscillations: 50 

Hamiltonian:
  XC and Coulomb potentials evaluated on a 140*80*64 grid
  Using the LDA Exchange-Correlation functional
  External potential:
    <gpaw.external.NoExternalPotential object at 0x2b89ffa310d0>
 

Memory estimate:
  Process memory now: 964.29 MiB
  Calculator: 171.60 MiB
    Density: 62.35 MiB
      Arrays: 23.93 MiB
      Localized functions: 28.85 MiB
      Mixer: 9.57 MiB
    Hamiltonian: 18.61 MiB
      Arrays: 17.77 MiB
      XC: 0.00 MiB
      Poisson: 0.00 MiB
      vbar: 0.83 MiB
    Wavefunctions: 90.64 MiB
      Arrays psit_nG: 52.92 MiB
      Eigensolver: 29.56 MiB
      Projections: 1.20 MiB
      Projectors: 3.30 MiB
      PW-descriptor: 3.65 MiB

Total number of cores used: 40
Parallelization over k-points: 40

Number of atoms: 28
Number of atomic orbitals: 148
Number of bands in calculation: 112
Number of valence electrons: 180
Bands to converge: occupied

... initialized

Initializing position-dependent things.

Density initialized from atomic densities
Creating initial wave functions:
  112 bands from LCAO basis set

                                            
                                            
                                            
                                            
                                            
               O         P O                
                     O    OMn     O         
            PO                              
                   O  Li      MnO           
            O Mn         O                  
                 MO Li        O P           
         Oi           O      O              
                O  P                        
       Li                                   
                                            
                                            
                                            
                                            

Positions:
   0 O      3.604599    0.277107    1.032813    ( 0.0000,  0.0000,  0.0000)
   1 O      1.617556    5.813223    3.397168    ( 0.0000,  0.0000,  0.0000)
   2 O      6.838975    3.322376    3.696355    ( 0.0000,  0.0000,  0.0000)
   3 O      8.827732    2.767875    1.331901    ( 0.0000,  0.0000,  0.0000)
   4 O      6.838975    5.812848    3.696355    ( 0.0000,  0.0000,  0.0000)
   5 O      8.827732    0.277200    1.331901    ( 0.0000,  0.0000,  0.0000)
   6 O      3.604599    2.767968    1.032813    ( 0.0000,  0.0000,  0.0000)
   7 O      1.617556    3.322002    3.397168    ( 0.0000,  0.0000,  0.0000)
   8 O      0.576121    1.522537    1.298911    ( 0.0000,  0.0000,  0.0000)
   9 O      4.646211    4.567612    3.663158    ( 0.0000,  0.0000,  0.0000)
  10 O      9.868605    4.567612    3.430144    ( 0.0000,  0.0000,  0.0000)
  11 O      5.797986    1.522537    1.065807    ( 0.0000,  0.0000,  0.0000)
  12 Mn     2.315052    1.522537    2.461676    ( 0.0000,  0.0000,  1.0000)
  13 Mn     2.906843    4.567612    0.097264    ( 0.0000,  0.0000, -1.0000)
  14 Mn     8.129728    4.567612    2.266297    ( 0.0000,  0.0000, -1.0000)
  15 Mn     7.536852    1.522537    4.630777    ( 0.0000,  0.0000,  1.0000)
  16 P      4.363509    1.522537    0.448214    ( 0.0000,  0.0000,  0.0000)
  17 P      0.858675    4.567612    2.812899    ( 0.0000,  0.0000,  0.0000)
  18 P      6.079772    4.567612    4.281401    ( 0.0000,  0.0000,  0.0000)
  19 P      9.586841    1.522537    1.916868    ( 0.0000,  0.0000,  0.0000)
  20 O      4.352112    1.522537    3.648453    ( 0.0000,  0.0000,  0.0000)
  21 O      0.870078    4.567612    1.283948    ( 0.0000,  0.0000,  0.0000)
  22 O      6.092323    4.567612    1.080785    ( 0.0000,  0.0000,  0.0000)
  23 O      9.574312    1.522537    3.445311    ( 0.0000,  0.0000,  0.0000)
  24 Li     0.000071    0.000068    0.000033    ( 0.0000,  0.0000,  0.0000)
  25 Li     5.222135   -0.000074    2.364574    ( 0.0000,  0.0000,  0.0000)
  26 Li     0.000071    3.045007    0.000033    ( 0.0000,  0.0000,  0.0000)
  27 Li     5.222135    3.045149    2.364574    ( 0.0000,  0.0000,  0.0000)

Unit cell:
           periodic     x           y           z      points  spacing
  1. axis:    yes   10.444399    0.000000   -0.000006    70     0.1492
  2. axis:    yes    0.000000    6.090150   -0.000000    40     0.1523
  3. axis:    yes   -0.000003   -0.000000    4.729051    32     0.1478

  Lengths:  10.444399   6.090150   4.729051
  Angles:   90.000000  90.000071  90.000000

Effective grid spacing dv^(1/3) = 0.1497

                     log10-error:           total        iterations:
           time      wfs    density  force  energy       poisson  magmom
iter:   1  18:24:57                       -232.703252             +0.0000
iter:   2  18:25:09  -0.54  -0.93         -234.122071             -0.0003
iter:   3  18:25:20  -0.65  -0.97         -219.610973             -0.0004
iter:   4  18:25:32  -0.87  -1.22         -217.977384             +0.0034
iter:   5  18:25:43  -1.93  -1.34         -218.133639             -0.0005
iter:   6  18:25:55  -1.81  -1.45         -228.129799             -0.0041
iter:   7  18:26:06  -1.98  -1.33         -218.805791             +0.5538
iter:   8  18:26:18  -2.54  -1.73         -219.088003             +0.7456
iter:   9  18:26:29  -2.20  -1.72         -222.117804             +0.8388
iter:  10  18:26:41  -2.97  -1.78         -221.686538             +1.4719
iter:  11  18:26:52  -2.32  -1.79         -224.983496             +2.8534
iter:  12  18:27:04  -2.41  -1.72         -226.783342             +2.4601
iter:  13  18:27:15  -2.77  -1.73         -227.714684             +1.3839
iter:  14  18:27:27  -1.78  -1.74         -226.474005             -2.5253
iter:  15  18:27:38  -1.66  -1.81         -230.567512             -0.0132
iter:  16  18:27:50  -2.45  -1.78         -228.349281             -0.7034
iter:  17  18:28:01  -2.60  -1.92         -227.722403             -0.5568
iter:  18  18:28:13  -2.00  -1.93         -227.309195             -0.3196
iter:  19  18:28:24  -1.88  -2.02         -227.763512             -0.1592
iter:  20  18:28:36  -2.94  -2.08         -227.440655             -0.0999
iter:  21  18:28:47  -2.17  -2.15         -227.286569             +0.1187
iter:  22  18:28:59  -3.49  -2.44         -227.279771             +0.0265
iter:  23  18:29:10  -2.68  -2.49         -227.217830             -0.0057
iter:  24  18:29:22  -2.93  -2.70         -227.193152             +0.0045
iter:  25  18:29:33  -4.00  -2.94         -227.179766             -0.0001
iter:  26  18:29:45  -3.75  -3.04         -227.173252             -0.0009
iter:  27  18:29:56  -4.69  -3.28         -227.173117             -0.0002
iter:  28  18:30:08  -5.06  -3.34         -227.172332             +0.0001
iter:  29  18:30:19  -5.24  -3.37         -227.172287             +0.0000
iter:  30  18:30:31  -5.28  -3.41         -227.172563             +0.0000
iter:  31  18:30:42  -5.64  -3.49         -227.172080             -0.0000
iter:  32  18:30:54  -4.86  -3.58         -227.171634             -0.0000
iter:  33  18:31:05  -5.79  -3.63         -227.171511             -0.0000
iter:  34  18:31:17  -4.99  -3.66         -227.171428             -0.0000
iter:  35  18:31:28  -6.25  -3.77         -227.171338             -0.0000
iter:  36  18:31:40  -5.82  -3.79         -227.171306             -0.0000
iter:  37  18:31:51  -6.06  -3.83         -227.171353             -0.0000
iter:  38  18:32:03  -6.43  -3.91         -227.171325             -0.0000
iter:  39  18:32:14  -6.00  -3.96         -227.171346             -0.0000
iter:  40  18:32:26  -5.83  -4.11         -227.171314             -0.0000
iter:  41  18:32:37  -6.31  -4.41         -227.171292             -0.0000
iter:  42  18:32:54  -7.76  -4.92         -227.171291             -0.0000
iter:  43  18:33:11  -7.59  -5.01    -2.69-227.171291             -0.0000
iter:  44  18:33:28  -8.34  -5.08    -3.05-227.171290             -0.0000
iter:  45  18:33:45  -8.90  -5.15    -3.01-227.171290             -0.0000
iter:  46  18:34:02  -8.67  -5.27    -2.81-227.171290             -0.0000
iter:  47  18:34:19  -8.47  -5.42    -3.24-227.171290             +0.0000
iter:  48  18:34:36  -8.40  -5.44    -3.04-227.171290             -0.0000
iter:  49  18:34:53  -9.24  -5.68    -3.43-227.171290             -0.0000
iter:  50  18:35:10  -9.15  -5.85    -3.47-227.171290             -0.0000
iter:  51  18:35:27  -9.60  -6.02    -3.63-227.171290             -0.0000
[...]
 25 Li   -0.00014    0.00003   -0.00011
 26 Li    0.00013    0.00004   -0.00016
 27 Li   -0.00014   -0.00003   -0.00011

System changes: cell, positions 

Initialize ...

O-setup:
  name: Oxygen
  id: 9b9d51c344dea68c822856295a461509
  Z: 8.0
  valence: 6
  core: 2
  charge: 0.0
  file: /home/modules/software/GPAW-setups/0.9.20000/O.LDA.gz
  compensation charges: gauss, rc=0.21, lmax=2
  cutoffs: 1.17(filt), 0.83(core),
  valence states:
                energy  radius
    2s(2.00)   -23.752   0.688
    2p(4.00)    -9.195   0.598
    *s           3.459   0.688
    *p          18.016   0.598
    *d           0.000   0.619

  Using partial waves for O as LCAO basis

Mn-setup:
  name: Manganese
  id: 0d715a8018be061a6e9ea6f2d364ac92
  Z: 25.0
  valence: 15
  core: 10
  charge: 0.0
  file: /home/modules/software/GPAW-setups/0.9.20000/Mn.LDA.gz
  compensation charges: gauss, rc=0.38, lmax=2
  cutoffs: 2.14(filt), 0.86(core),
  valence states:
                energy  radius
    3s(2.00)   -85.387   1.275
    4s(2.00)    -5.282   1.275
    3p(6.00)   -54.493   1.281
    4p(0.00)    -1.471   1.281
    3d(5.00)    -7.009   1.138
    *d          20.203   1.138

  Using partial waves for Mn as LCAO basis

P-setup:
  name: Phosphorus
  id: a5561c299094968922a179ab894d2e2d
  Z: 15.0
  valence: 5
  core: 10
  charge: 0.0
  file: /home/modules/software/GPAW-setups/0.9.20000/P.LDA.gz
  compensation charges: gauss, rc=0.30, lmax=2
  cutoffs: 1.69(filt), 1.81(core),
  valence states:
                energy  radius
    3s(2.00)   -14.015   0.953
    3p(3.00)    -5.596   0.953
    *s          13.197   0.953
    *p          21.615   0.953
    *d           0.000   0.953

  Using partial waves for P as LCAO basis

Li-setup:
  name: Lithium
  id: b73562207f97a71b6967473b66fe8b65
  Z: 3.0
  valence: 1
  core: 2
  charge: 0.0
  file: /home/modules/software/GPAW-setups/0.9.20000/Li.LDA.gz
  compensation charges: gauss, rc=0.33, lmax=2
  cutoffs: 1.91(filt), 2.55(core),
  valence states:
                energy  radius
    2s(1.00)    -2.874   1.058
    2p(0.00)    -1.126   1.058
    *s          24.338   1.058

  Using partial waves for Li as LCAO basis

Reference energy: -196157.275402

Spin-polarized calculation.
Magnetic moment: 0.000000

Convergence criteria:
  Maximum total energy change: 0.0005 eV / electron
  Maximum integral of absolute density change: 0.0001 electrons
  Maximum integral of absolute eigenstate change: 4e-08 eV^2
  Maximum change in atomic force: 0.0001 eV / Ang
  Maximum number of iterations: 5000

Symmetries present (total): 1

  ( 1  0  0)
  ( 0  1  0)
  ( 0  0  1)

96 k-points: 4 x 4 x 6 Monkhorst-Pack grid
48 k-points in the irreducible part of the Brillouin zone
       k-points in crystal coordinates                weights
   0:     0.12500000   -0.37500000   -0.41666667          2/96
   1:     0.12500000   -0.37500000   -0.25000000          2/96
   2:     0.12500000   -0.37500000   -0.08333333          2/96
   3:     0.12500000   -0.37500000    0.08333333          2/96
   4:     0.12500000   -0.37500000    0.25000000          2/96
   5:     0.12500000   -0.37500000    0.41666667          2/96
   6:     0.12500000   -0.12500000   -0.41666667          2/96
   7:     0.12500000   -0.12500000   -0.25000000          2/96
   8:     0.12500000   -0.12500000   -0.08333333          2/96
   9:     0.12500000   -0.12500000    0.08333333          2/96
          ...
  47:     0.37500000    0.37500000    0.41666667          2/96

Wave functions: Plane wave expansion
  Cutoff energy: 800.000 eV
  Number of coefficients (min, max): 14786, 14832
  Pulay-stress correction: 0.000000 eV/Ang^3 (de/decut=0.000000)
  Using FFTW library
  ScaLapack parameters: grid=1x1, blocksize=None
  Wavefunction extrapolation:
    Improved wavefunction reuse through dual PAW basis 

Occupation numbers: Fermi-Dirac: width=0.0500 eV
 

Eigensolver
   Davidson(niter=2) 

Densities:
  Coarse grid: 70*40*32 grid
  Fine grid: 140*80*64 grid
  Total Charge: 0.000000 

Density mixing:
  Method: difference
  Backend: pulay
  Linear mixing parameter: 0.05
  Mixing with 5 old densities
  Damping of long wave oscillations: 50 

Hamiltonian:
  XC and Coulomb potentials evaluated on a 140*80*64 grid
  Using the LDA Exchange-Correlation functional
  External potential:
    <gpaw.external.NoExternalPotential object at 0x2b8a0adf2340>
 

Memory estimate:
  Process memory now: 1221.69 MiB
  Calculator: 166.82 MiB
    Density: 61.14 MiB
      Arrays: 23.93 MiB
      Localized functions: 27.65 MiB
      Mixer: 9.57 MiB
    Hamiltonian: 18.57 MiB
      Arrays: 17.77 MiB
      XC: 0.00 MiB
      Poisson: 0.00 MiB
      vbar: 0.80 MiB
    Wavefunctions: 87.11 MiB
      Arrays psit_nG: 50.70 MiB
      Eigensolver: 28.40 MiB
      Projections: 1.20 MiB
      Projectors: 3.17 MiB
      PW-descriptor: 3.64 MiB

Total number of cores used: 40
Parallelization over k-points: 40

Number of atoms: 28
Number of atomic orbitals: 148
Number of bands in calculation: 112
Number of valence electrons: 180
Bands to converge: occupied

... initialized

Initializing position-dependent things.

Density initialized from atomic densities
Creating initial wave functions:
  112 bands from LCAO basis set

                                            
                                            
                                            
                                            
                                            
               O         P  O               
                     O    Mn      O         
            PO                              
                  O   Li      MO            
            O Mn         O                  
                 On Li        OP            
         Oi           O     O               
                O P                         
       Li                                   
                                            
                                            
                                            
                                            

Positions:
   0 O      3.443326    0.270221    1.016638    ( 0.0000,  0.0000,  0.0000)
   1 O      1.686528    5.731896    3.356759    ( 0.0000,  0.0000,  0.0000)
   2 O      6.816194    3.271233    3.663541    ( 0.0000,  0.0000,  0.0000)
   3 O      8.573433    2.730875    1.323412    ( 0.0000,  0.0000,  0.0000)
   4 O      6.816194    5.731924    3.663541    ( 0.0000,  0.0000,  0.0000)
   5 O      8.573434    0.270177    1.323412    ( 0.0000,  0.0000,  0.0000)
   6 O      3.443325    2.730831    1.016638    ( 0.0000,  0.0000,  0.0000)
   7 O      1.686528    3.271261    3.356759    ( 0.0000,  0.0000,  0.0000)
   8 O      0.478891    1.500526    1.346084    ( 0.0000,  0.0000,  0.0000)
   9 O      4.650985    4.501578    3.686166    ( 0.0000,  0.0000,  0.0000)
  10 O      9.781033    4.501578    3.334144    ( 0.0000,  0.0000,  0.0000)
  11 O      5.608586    1.500526    0.993991    ( 0.0000,  0.0000,  0.0000)
  12 Mn     2.257754    1.500526    2.446095    ( 0.0000,  0.0000,  1.0000)
  13 Mn     2.872075    4.501578    0.105999    ( 0.0000,  0.0000, -1.0000)
  14 Mn     8.002166    4.501578    2.234368    ( 0.0000,  0.0000, -1.0000)
  15 Mn     7.387440    1.500526    4.574488    ( 0.0000,  0.0000,  1.0000)
  16 P      4.181398    1.500526    0.390823    ( 0.0000,  0.0000,  0.0000)
  17 P      0.948459    4.501578    2.730971    ( 0.0000,  0.0000,  0.0000)
  18 P      6.078177    4.501579    4.289363    ( 0.0000,  0.0000,  0.0000)
  19 P      9.311447    1.500526    1.949237    ( 0.0000,  0.0000,  0.0000)
  20 O      4.165910    1.500526    3.539877    ( 0.0000,  0.0000,  0.0000)
  21 O      0.963972    4.501578    1.199782    ( 0.0000,  0.0000,  0.0000)
  22 O      6.094000    4.501579    1.140303    ( 0.0000,  0.0000,  0.0000)
  23 O      9.295646    1.500526    3.480412    ( 0.0000,  0.0000,  0.0000)
  24 Li    -0.000037   -0.000002    0.000043    ( 0.0000,  0.0000,  0.0000)
  25 Li     5.129899    0.000005    2.340158    ( 0.0000,  0.0000,  0.0000)
  26 Li    -0.000036    3.001054    0.000043    ( 0.0000,  0.0000,  0.0000)
  27 Li     5.129899    3.001048    2.340158    ( 0.0000,  0.0000,  0.0000)

Unit cell:
           periodic     x           y           z      points  spacing
  1. axis:    yes   10.259757   -0.000000   -0.000010    70     0.1466
  2. axis:    yes   -0.000000    6.002104   -0.000000    40     0.1501
  3. axis:    yes   -0.000005   -0.000000    4.680241    32     0.1463

  Lengths:  10.259757   6.002104   4.680241
  Angles:   90.000001  90.000110  90.000000

Effective grid spacing dv^(1/3) = 0.1476

                     log10-error:           total        iterations:
           time      wfs    density  force  energy       poisson  magmom
iter:   1  09:04:02                       -234.565635             +0.0000
iter:   2  09:04:13  -0.46  -0.94         -232.979235             +0.0000
iter:   3  09:04:25  -0.58  -0.99         -221.631432             +0.0000
iter:   4  09:04:36  -1.06  -1.26         -220.616564             +0.0019
iter:   5  09:04:47  -1.67  -1.36         -226.000056             -0.0008
iter:   6  09:04:58  -1.80  -1.31         -222.931325             -0.0432
iter:   7  09:05:09  -1.88  -1.51         -221.293310             -0.1500
iter:   8  09:05:21  -2.23  -1.89         -223.660910             -0.2755
iter:   9  09:05:32  -2.71  -1.80         -224.574538             -0.5280
iter:  10  09:05:43  -2.47  -1.80         -227.829924             -0.2468
iter:  11  09:05:54  -2.36  -1.75         -228.947382             +0.1979
iter:  12  09:06:05  -3.08  -1.71         -229.186175             +0.0377
iter:  13  09:06:17  -2.45  -1.72         -228.616014             +0.0116
iter:  14  09:06:28  -1.97  -1.75         -228.334263             +0.0082
iter:  15  09:06:39  -2.43  -1.87         -228.021756             +0.0040
iter:  16  09:06:50  -2.70  -2.27         -227.976991             +0.0017
iter:  17  09:07:01  -2.29  -2.44         -227.873788             -0.0001
iter:  18  09:07:13  -3.35  -2.60         -227.863672             +0.0003
iter:  19  09:07:24  -2.94  -2.68         -227.830232             +0.0004
iter:  20  09:07:35  -3.96  -2.98         -227.825303             +0.0001
iter:  21  09:07:46  -4.37  -3.13         -227.818940             +0.0000
iter:  22  09:07:57  -4.81  -3.16         -227.817824             +0.0000
iter:  23  09:08:09  -4.25  -3.24         -227.816182             +0.0000
iter:  24  09:08:20  -5.00  -3.30         -227.815933             +0.0000
iter:  25  09:08:31  -4.40  -3.33         -227.815222             +0.0000
iter:  26  09:08:42  -5.22  -3.75         -227.815352             +0.0000
iter:  27  09:08:54  -5.94  -3.85         -227.815175             -0.0000
iter:  28  09:09:05  -5.74  -3.92         -227.815149             +0.0000
iter:  29  09:09:16  -6.40  -4.21         -227.815128             +0.0000
iter:  30  09:09:27  -6.47  -4.24         -227.815122             +0.0000
iter:  31  09:09:38  -6.84  -4.35         -227.815113             +0.0000
iter:  32  09:09:54  -7.65  -4.55         -227.815112             +0.0000
iter:  33  09:10:06  -7.06  -4.60         -227.815110             -0.0000
iter:  34  09:10:17  -7.10  -4.79         -227.815110             +0.0000
iter:  35  09:10:33  -8.33  -4.98    -2.47-227.815110             -0.0000
iter:  36  09:10:50  -8.16  -5.02    -3.23-227.815110             -0.0000
iter:  37  09:11:07  -7.98  -5.05    -2.81-227.815110             -0.0000
iter:  38  09:11:23  -8.29  -5.11    -3.18-227.815109             -0.0000
iter:  39  09:11:40  -8.25  -5.29    -3.37-227.815109             -0.0000
iter:  40  09:11:56  -8.52  -5.34    -3.09-227.815109             -0.0000
iter:  41  09:12:13  -8.77  -5.51    -3.48-227.815109             -0.0000
iter:  42  09:12:30  -9.29  -5.83    -3.90-227.815109             -0.0000
iter:  43  09:12:46  -9.31  -5.82    -3.75-227.815109             -0.0000
iter:  44  09:13:03 -10.37  -6.12    -4.07-227.815109             -0.0000

Converged after 44 iterations.

Dipole moment: (0.006883, 0.000040, -0.005140) |e|*Ang

Total magnetic moment: (0.000000, 0.000000, -0.000000)
Local magnetic moments:
   0 O  ( 0.000000,  0.000000, -0.001295)
   1 O  ( 0.000000,  0.000000,  0.001299)
   2 O  ( 0.000000,  0.000000,  0.001299)
   3 O  ( 0.000000,  0.000000, -0.001298)
   4 O  ( 0.000000,  0.000000,  0.001299)
   5 O  ( 0.000000,  0.000000, -0.001298)
   6 O  ( 0.000000,  0.000000, -0.001295)
   7 O  ( 0.000000,  0.000000,  0.001299)
   8 O  ( 0.000000,  0.000000,  0.029767)
   9 O  ( 0.000000,  0.000000, -0.029762)
  10 O  ( 0.000000,  0.000000, -0.029770)
  11 O  ( 0.000000,  0.000000,  0.029772)
  12 Mn ( 0.000000,  0.000000,  4.424073)
  13 Mn ( 0.000000,  0.000000, -4.424084)
  14 Mn ( 0.000000,  0.000000, -4.424137)
  15 Mn ( 0.000000,  0.000000,  4.424135)
  16 P  ( 0.000000,  0.000000,  0.001254)
  17 P  ( 0.000000,  0.000000, -0.001254)
  18 P  ( 0.000000,  0.000000, -0.001255)
  19 P  ( 0.000000,  0.000000,  0.001256)
  20 O  ( 0.000000,  0.000000,  0.026655)
  21 O  ( 0.000000,  0.000000, -0.026655)
  22 O  ( 0.000000,  0.000000, -0.026641)
  23 O  ( 0.000000,  0.000000,  0.026640)
  24 Li ( 0.000000,  0.000000, -0.000000)
  25 Li ( 0.000000,  0.000000,  0.000000)
  26 Li ( 0.000000,  0.000000, -0.000000)
  27 Li ( 0.000000,  0.000000,  0.000000)

Energy contributions relative to reference atoms: (reference = -196157.275402)

Kinetic:       +258.173354
Potential:     -231.250510
External:        +0.000000
XC:            -257.894329
Entropy (-ST):   -0.000000
Local:           +3.156376
--------------------------
Free energy:   -227.815109
Extrapolated:  -227.815109

Spin contamination: 9.511098 electrons
Showing only first 2 kpts
                      Up                     Down
 Kpt  Band  Eigenvalues  Occupancy  Eigenvalues  Occupancy
  0    88      5.75108    1.00000      5.75115    1.00000
  0    89      5.85579    1.00000      5.85586    1.00000
  0    90      7.82009    0.00000      7.81998    0.00000
  0    91      7.88933    0.00000      7.88922    0.00000

  1    88      5.77148    1.00000      5.77155    1.00000
  1    89      5.86169    1.00000      5.86177    1.00000
  1    90      7.78884    0.00000      7.78872    0.00000
  1    91      7.85624    0.00000      7.85616    0.00000


Fermi level: 6.79840

Gap: 1.854 eV
Transition (v -> c):
  (s=1, k=20, n=89, [0.12, 0.38, -0.08]) -> (s=1, k=14, n=90, [0.12, 0.12, -0.08])
Stress tensor:
     0.000036     0.000000    -0.000001
     0.000000    -0.000095    -0.000000
    -0.000001    -0.000000     0.000078

Forces in eV/Ang:
  0 O     0.00052   -0.00002   -0.00021
  1 O    -0.00043   -0.00025    0.00008
  2 O     0.00040   -0.00000   -0.00011
  3 O    -0.00030   -0.00013   -0.00007
  4 O     0.00040    0.00000   -0.00011
  5 O    -0.00030    0.00014   -0.00007
  6 O     0.00052    0.00002   -0.00021
  7 O    -0.00043    0.00025    0.00008
  8 O    -0.00002   -0.00000    0.00029
  9 O    -0.00014   -0.00000    0.00087
 10 O    -0.00046    0.00000    0.00063
 11 O     0.00044   -0.00000    0.00081
 12 Mn   -0.00024    0.00000   -0.00056
 13 Mn    0.00069   -0.00000   -0.00071
 14 Mn   -0.00059    0.00000   -0.00041
 15 Mn    0.00071   -0.00000   -0.00045
 16 P     0.00031    0.00000    0.00038
 17 P    -0.00008    0.00000    0.00029
 18 P     0.00026   -0.00000   -0.00029
 19 P    -0.00050    0.00000   -0.00025
 20 O    -0.00090   -0.00000    0.00005
 21 O     0.00063   -0.00000   -0.00004
 22 O    -0.00049   -0.00000    0.00016
 23 O     0.00027    0.00000    0.00047
 24 Li    0.00001   -0.00005   -0.00016
 25 Li   -0.00002    0.00005   -0.00017
 26 Li    0.00000    0.00005   -0.00016
 27 Li   -0.00002   -0.00005   -0.00017

Writing to LiMnPO4_relaxed.gpw (mode='')

Timing:                              incl.     excl.
-----------------------------------------------------------
Forces:                            349.773   349.773   0.6% |
Hamiltonian:                        69.377     0.259   0.0% |
 Atomic:                            11.367    11.367   0.0% |
  XC Correction:                     0.000     0.000   0.0% |
 Calculate atomic Hamiltonians:     28.580    28.580   0.1% |
 Communicate:                        0.016     0.016   0.0% |
 Initialize Hamiltonian:             0.071     0.071   0.0% |
 Poisson:                            0.285     0.285   0.0% |
 XC 3D grid:                        28.800    28.800   0.1% |
LCAO initialization:              2371.751    34.027   0.1% |
 LCAO eigensolver:                 690.017     0.021   0.0% |
  Calculate projections:             0.295     0.295   0.0% |
  DenseAtomicCorrection:             0.390     0.390   0.0% |
  Distribute overlap matrix:         0.023     0.023   0.0% |
  Orbital Layouts:                   1.202     1.202   0.0% |
  Potential matrix:                687.298   687.298   1.2% |
  Sum over cells:                    0.787     0.787   0.0% |
 LCAO to grid:                    1576.415  1576.415   2.8% ||
 Set positions (LCAO WFS):          71.292    17.006   0.0% |
  Basic WFS set positions:           0.070     0.070   0.0% |
  Basis functions set positions:     0.012     0.012   0.0% |
  P tci:                            23.035    23.035   0.0% |
  ST tci:                           22.323    22.323   0.0% |
  mktci:                             8.846     8.846   0.0% |
PWDescriptor:                        1.544     1.544   0.0% |
SCF-cycle:                       51372.359 20796.193  36.6% |--------------|
 Davidson:                       18303.858  4655.658   8.2% |--|
  Apply H:                        2262.839  2180.836   3.8% |-|
   HMM T:                           82.003    82.003   0.1% |
  Subspace diag:                  3238.558     1.638   0.0% |
   calc_h_matrix:                 2576.585   389.261   0.7% |
    Apply H:                      2187.324  2105.838   3.7% ||
     HMM T:                         81.485    81.485   0.1% |
   diagonalize:                     34.519    34.519   0.1% |
   rotate_psi:                     625.817   625.817   1.1% |
  calc. matrices:                 6720.891  2219.267   3.9% |-|
   Apply H:                       4501.624  4344.274   7.6% |--|
    HMM T:                         157.350   157.350   0.3% |
  diagonalize:                     358.015   358.015   0.6% |
  rotate_psi:                     1067.896  1067.896   1.9% ||
 Density:                         4372.340     0.139   0.0% |
  Atomic density matrices:          27.442    27.442   0.0% |
  Mix:                            2060.820  2060.820   3.6% ||
  Multipole moments:                 2.734     2.734   0.0% |
  Pseudo density:                 2281.206  2280.998   4.0% |-|
   Symmetrize density:               0.208     0.208   0.0% |
 Forces:                          4205.872  4205.872   7.4% |--|
 Hamiltonian:                     3667.789    15.906   0.0% |
  Atomic:                          242.975   242.956   0.4% |
   XC Correction:                    0.018     0.018   0.0% |
  Calculate atomic Hamiltonians:  1761.955  1761.955   3.1% ||
  Communicate:                       0.851     0.851   0.0% |
  Poisson:                          17.194    17.194   0.0% |
  XC 3D grid:                     1628.908  1628.908   2.9% ||
 Orthonormalize:                    26.307     0.037   0.0% |
  calc_s_matrix:                     3.495     3.495   0.0% |
  inverse-cholesky:                  0.166     0.166   0.0% |
  projections:                      17.157    17.157   0.0% |
  rotate_psi_s:                      5.452     5.452   0.0% |
Set symmetry:                        0.236     0.236   0.0% |
Stress:                           2069.480     0.007   0.0% |
 Stress tensor:                   2069.473  2069.473   3.6% ||
Other:                             571.444   571.444   1.0% |
-----------------------------------------------------------
Total:                                     56805.964 100.0%

Memory usage: 1.19 GiB
Date: Sat Oct 22 09:13:42 2022
