
  ___ ___ ___ _ _ _  
 |   |   |_  | | | | 
 | | | | | . | | | | 
 |__ |  _|___|_____|  21.6.1b1
 |___|_|             

User:   madkru@c054.nifl.fysik.dtu.dk
Date:   Tue Oct 11 08:31:08 2022
Arch:   x86_64
Pid:    29574
Python: 3.8.6
gpaw:   /home/niflheim/madkru/new_venv/gpaw/gpaw (1f0dfc9eae)
_gpaw:  /home/niflheim/madkru/new_venv/gpaw/build/lib.linux-x86_64-skylake-3.8/
        _gpaw.cpython-38-x86_64-linux-gnu.so (c1e45bfab3)
ase:    /home/niflheim/madkru/new_venv/ase/ase (version 3.23.0b1-ca38c75a67)
numpy:  /home/modules/software/SciPy-bundle/2020.11-foss-2020b/lib/python3.8/site-packages/numpy (version 1.19.4)
scipy:  /home/modules/software/SciPy-bundle/2020.11-foss-2020b/lib/python3.8/site-packages/scipy (version 1.5.4)
libxc:  4.3.4
units:  Angstrom and eV
cores: 40
OpenMP: False
OMP_NUM_THREADS: 1

Input parameters:
  convergence: {density: 1e-09}
  eigensolver: {name: dav,
                niter: 3}
  experimental: {magmoms: [[0. 0. 0.]
 [0. 0. 0.]
 [0. 0. 0.]
 ...
 [0. 0. 0.]
 [0. 0. 0.]
 [0. 0. 0.]],
                 soc: True}
  kpts: {gamma: True,
         size: (4, 4, 6)}
  maxiter: 5000
  mixer: {backend: pulay,
          beta: 0.02,
          beta_m: 0.02,
          method: difference,
          nmaxold: 2,
          nmaxold_m: 2,
          weight: 100,
          weight_m: 100}
  mode: {ecut: 800.0,
         gammacentered: False,
         name: pw}
  occupations: {fixmagmom: False,
                name: fermi-dirac,
                width: 0.001}
  symmetry: off

System changes: positions, numbers, cell, pbc, initial_charges, initial_magmoms 

Initialize ...

O-setup:
  name: Oxygen
  id: 9b9d51c344dea68c822856295a461509
  Z: 8.0
  valence: 6
  core: 2
  charge: 0.0
  file: /home/modules/software/GPAW-setups/0.9.20000/O.LDA.gz
  compensation charges: gauss, rc=0.21, lmax=2
  cutoffs: 1.17(filt), 0.83(core),
  valence states:
                energy  radius
    2s(2.00)   -23.752   0.688
    2p(4.00)    -9.195   0.598
    *s           3.459   0.688
    *p          18.016   0.598
    *d           0.000   0.619

  Using partial waves for O as LCAO basis

Mn-setup:
  name: Manganese
  id: 0d715a8018be061a6e9ea6f2d364ac92
  Z: 25.0
  valence: 15
  core: 10
  charge: 0.0
  file: /home/modules/software/GPAW-setups/0.9.20000/Mn.LDA.gz
  compensation charges: gauss, rc=0.38, lmax=2
  cutoffs: 2.14(filt), 0.86(core),
  valence states:
                energy  radius
    3s(2.00)   -85.387   1.275
    4s(2.00)    -5.282   1.275
    3p(6.00)   -54.493   1.281
    4p(0.00)    -1.471   1.281
    3d(5.00)    -7.009   1.138
    *d          20.203   1.138

  Using partial waves for Mn as LCAO basis

P-setup:
  name: Phosphorus
  id: a5561c299094968922a179ab894d2e2d
  Z: 15.0
  valence: 5
  core: 10
  charge: 0.0
  file: /home/modules/software/GPAW-setups/0.9.20000/P.LDA.gz
  compensation charges: gauss, rc=0.30, lmax=2
  cutoffs: 1.69(filt), 1.81(core),
  valence states:
                energy  radius
    3s(2.00)   -14.015   0.953
    3p(3.00)    -5.596   0.953
    *s          13.197   0.953
    *p          21.615   0.953
    *d           0.000   0.953

  Using partial waves for P as LCAO basis

Li-setup:
  name: Lithium
  id: b73562207f97a71b6967473b66fe8b65
  Z: 3.0
  valence: 1
  core: 2
  charge: 0.0
  file: /home/modules/software/GPAW-setups/0.9.20000/Li.LDA.gz
  compensation charges: gauss, rc=0.33, lmax=2
  cutoffs: 1.91(filt), 2.55(core),
  valence states:
                energy  radius
    2s(1.00)    -2.874   1.058
    2p(0.00)    -1.126   1.058
    *s          24.338   1.058

  Using partial waves for Li as LCAO basis

Reference energy: -196157.275402

Non-collinear calculation.
Magnetic moment: (0.000000, 0.000000, 0.000000)

Convergence criteria:
  Maximum total energy change: 0.0005 eV / electron
  Maximum integral of absolute density change: 1e-09 electrons
  Maximum integral of absolute eigenstate change: 4e-08 eV^2
  Maximum number of iterations: 5000

Symmetries present (total): 1

  ( 1  0  0)
  ( 0  1  0)
  ( 0  0  1)

96 k-points: 4 x 4 x 6 Monkhorst-Pack grid + [1/8,1/8,1/12]
96 k-points in the irreducible part of the Brillouin zone
       k-points in crystal coordinates                weights
   0:    -0.25000000   -0.25000000   -0.33333333          1/96
   1:    -0.25000000   -0.25000000   -0.16666667          1/96
   2:    -0.25000000   -0.25000000    0.00000000          1/96
   3:    -0.25000000   -0.25000000    0.16666667          1/96
   4:    -0.25000000   -0.25000000    0.33333333          1/96
   5:    -0.25000000   -0.25000000    0.50000000          1/96
   6:    -0.25000000    0.00000000   -0.33333333          1/96
   7:    -0.25000000    0.00000000   -0.16666667          1/96
   8:    -0.25000000    0.00000000    0.00000000          1/96
   9:    -0.25000000    0.00000000    0.16666667          1/96
          ...
  95:     0.50000000    0.50000000    0.50000000          1/96

Wave functions: Plane wave expansion
  Cutoff energy: 800.000 eV
  Number of coefficients (min, max): 14048, 14124
  Pulay-stress correction: 0.000000 eV/Ang^3 (de/decut=0.000000)
  Using FFTW library
  ScaLapack parameters: grid=1x1, blocksize=None
  Wavefunction extrapolation:
    Improved wavefunction reuse through dual PAW basis 

Occupation numbers: Fermi-Dirac: width=0.0010 eV
 

Eigensolver
   Davidson(niter=3) 

Densities:
  Coarse grid: 70*40*32 grid
  Fine grid: 140*80*64 grid
  Total Charge: 0.000000 

Density mixing:
  Method: difference
  Backend: pulay
  Linear mixing parameter: 0.02
  Mixing with 2 old densities
  Damping of long wave oscillations: 100 

Hamiltonian:
  XC and Coulomb potentials evaluated on a 140*80*64 grid
  Using the LDA Exchange-Correlation functional
  External potential:
    <gpaw.external.NoExternalPotential object at 0x2baaa9379100>
 

Memory estimate:
  Process memory now: 228.06 MiB
  Calculator: 233.22 MiB
    Density: 55.00 MiB
      Arrays: 17.77 MiB
      Localized functions: 26.29 MiB
      Mixer: 10.94 MiB
    Hamiltonian: 12.38 MiB
      Arrays: 11.62 MiB
      XC: 0.00 MiB
      Poisson: 0.00 MiB
      vbar: 0.76 MiB
    Wavefunctions: 165.84 MiB
      Arrays psit_nG: 96.55 MiB
      Eigensolver: 57.02 MiB
      Projections: 2.41 MiB
      Projectors: 6.02 MiB
      PW-descriptor: 3.85 MiB

Total number of cores used: 40
Parallelization over k-points: 40

Number of atoms: 28
Number of atomic orbitals: 148
Number of bands in calculation: 224
Number of valence electrons: 180
Bands to converge: occupied

... initialized

Initializing position-dependent things.

Density initialized from atomic densities
Creating initial wave functions:
  148 bands from LCAO basis set
  76 bands from random numbers

                                           
                                           
                                           
                                           
                                           
               O     O  P  O               
            PO           OMn     O         
                  O          MO            
            O        Li O                  
             Mn  On          OP            
         O         Li O                    
         Li     O P         O              
       Li                                  
                                           
                                           
                                           
                                           

Positions:
   0 O      3.387778    0.254425    1.029032    ( 0.0000,  0.0000,  0.0000)
   1 O      1.644646    5.668858    3.329375    ( 0.0000,  0.0000,  0.0000)
   2 O      6.665325    3.219897    3.582786    ( 0.0000,  0.0000,  0.0000)
   3 O      8.408267    2.708767    1.274989    ( 0.0000,  0.0000,  0.0000)
   4 O      6.665306    5.668850    3.582813    ( 0.0000,  0.0000,  0.0000)
   5 O      8.408244    0.254474    1.275027    ( 0.0000,  0.0000,  0.0000)
   6 O      3.387763    2.708803    1.029055    ( 0.0000,  0.0000,  0.0000)
   7 O      1.644663    3.219796    3.329400    ( 0.0000,  0.0000,  0.0000)
   8 O      0.518151    1.481556    1.280105    ( 0.0000,  0.0000,  0.0000)
   9 O      4.509630    4.444343    3.590379    ( 0.0000,  0.0000,  0.0000)
  10 O      9.530111    4.444355    3.321674    ( 0.0000,  0.0000,  0.0000)
  11 O      5.538708    1.481636    1.024021    ( 0.0000,  0.0000,  0.0000)
  12 Mn     2.216410    1.481434    2.441302    ( 0.0000,  0.0000,  0.0000)
  13 Mn     2.787313    4.444505    0.137974    ( 5.0000,  0.0000,  0.0000)
  14 Mn     7.807797    4.444500    2.165995    (-5.0000,  0.0000,  0.0000)
  15 Mn     7.236953    1.481487    4.470943    (-5.0000,  0.0000,  0.0000)
  16 P      4.120500    1.481631    0.407706    ( 5.0000,  0.0000,  0.0000)
  17 P      0.903260    4.444308    2.706973    ( 0.0000,  0.0000,  0.0000)
  18 P      5.923832    4.444356    4.205227    ( 0.0000,  0.0000,  0.0000)
  19 P      9.141034    1.481628    1.896377    ( 0.0000,  0.0000,  0.0000)
  20 O      4.122495    1.481607    3.490339    ( 0.0000,  0.0000,  0.0000)
  21 O      0.908029    4.444312    1.181636    ( 0.0000,  0.0000,  0.0000)
  22 O      5.928584    4.444353    1.122439    ( 0.0000,  0.0000,  0.0000)
  23 O      9.142970    1.481615    3.421865    ( 0.0000,  0.0000,  0.0000)
  24 Li    -0.013765    0.000536   -0.005211    ( 0.0000,  0.0000,  0.0000)
  25 Li     5.007083    0.000642    2.309325    ( 0.0000,  0.0000,  0.0000)
  26 Li    -0.013606    2.962231   -0.005253    ( 0.0000,  0.0000,  0.0000)
  27 Li     5.007063    2.962271    2.309433    ( 0.0000,  0.0000,  0.0000)

Unit cell:
           periodic     x           y           z      points  spacing
  1. axis:    yes   10.041096    0.000054   -0.000022    70     0.1434
  2. axis:    yes    0.000032    5.925857    0.000001    40     0.1481
  3. axis:    yes   -0.000010    0.000001    4.608134    32     0.1440

  Lengths:  10.041096   5.925857   4.608134
  Angles:   89.999974  90.000250  89.999381

Effective grid spacing dv^(1/3) = 0.1452

                     log10-error:    total        iterations:
           time      wfs    density  energy       poisson
iter:   1  08:35:24                -251.851584            -1.0,+0.0,+0.0
iter:   2  08:36:55  -1.22  -0.92  -243.294927            -0.9,+0.0,-0.0
iter:   3  08:38:26  -2.27  -0.96  -239.384058            -1.0,+0.0,-0.0
iter:   4  08:39:57  -2.34  -1.01  -234.928768            -1.0,+0.0,-0.0
iter:   5  08:41:28  -1.43  -1.05  -225.968995            -1.1,+0.0,-0.0
iter:   6  08:43:00  -1.96  -1.25  -225.887960            -2.7,+0.0,-0.0
iter:   7  08:44:31  -2.78  -1.37  -225.847241            -3.6,-0.0,-0.0
iter:   8  08:46:02  -4.43  -1.38  -225.770856            -3.7,+0.0,-0.0
iter:   9  08:47:33  -1.83  -1.39  -225.861394            -3.8,-0.0,-0.0
iter:  10  08:49:05  -3.57  -1.73  -225.670056            -3.8,-0.0,-0.0
iter:  11  08:50:36  -2.98  -1.76  -225.258496            -3.8,-0.0,-0.0
iter:  12  08:52:07  -2.53  -1.83  -225.286326            -3.8,-0.0,-0.0
iter:  13  08:53:38  -3.94  -1.83  -225.146057            -3.8,-0.0,-0.0
iter:  14  08:55:09  -4.74  -1.86  -225.127509            -3.8,-0.0,-0.0
iter:  15  08:56:40  -2.74  -1.88  -225.177309            -3.8,-0.0,+0.0
iter:  16  08:58:11  -4.27  -2.06  -225.225455            -3.9,-0.0,+0.0
iter:  17  08:59:42  -4.00  -2.11  -225.296619            -4.0,+0.0,+0.0
iter:  18  09:01:13  -4.25  -2.25  -225.384911            -4.5,-0.0,+0.0
iter:  19  09:02:44  -4.23  -2.36  -225.398783            -5.0,+0.0,+0.0
iter:  20  09:04:15  -4.75  -2.41  -225.395585            -5.1,-0.0,-0.0
iter:  21  09:05:46  -4.49  -2.42  -225.359985            -5.2,-0.0,-0.0
iter:  22  09:07:17  -3.31  -2.47  -225.294037            -5.5,-0.0,-0.0
iter:  23  09:08:48  -4.55  -2.61  -225.288691            -5.5,+0.0,+0.0
iter:  24  09:10:19  -4.18  -2.64  -225.289691            -5.5,-0.0,-0.0
iter:  25  09:11:50  -5.65  -2.55  -225.292635            -5.5,-0.0,-0.0
iter:  26  09:13:21  -5.71  -2.56  -225.287346            -5.5,-0.0,+0.0
iter:  27  09:14:52  -4.17  -2.56  -225.275362            -5.5,-0.0,+0.1
iter:  28  09:16:23  -5.04  -2.65  -225.265336            -5.5,-0.0,+0.0
iter:  29  09:17:54  -5.88  -2.67  -225.261139            -5.5,-0.0,+0.0
iter:  30  09:19:24  -4.80  -2.69  -225.286951            -5.5,-0.0,+0.1
iter:  31  09:20:55  -4.78  -2.65  -225.251775            -5.5,-0.0,+0.0
iter:  32  09:22:25  -5.71  -2.70  -225.244935            -5.5,-0.0,+0.0
iter:  33  09:23:55  -5.36  -2.71  -225.259039            -5.5,-0.0,+0.0
iter:  34  09:25:26  -5.28  -2.76  -225.237276            -5.5,-0.0,+0.0
iter:  35  09:26:56  -6.48  -2.73  -225.235966            -5.5,-0.0,+0.0
iter:  36  09:28:27  -4.87  -2.75  -225.231307            -5.5,+0.0,+0.0
iter:  37  09:29:58  -5.63  -2.91  -225.238608            -5.5,-0.0,+0.0
iter:  38  09:31:28  -6.09  -2.87  -225.235124            -5.5,-0.0,+0.0
iter:  39  09:32:58  -5.41  -2.92  -225.239211            -5.5,+0.0,+0.0
iter:  40  09:34:29  -5.68  -2.88  -225.249177            -5.5,+0.0,+0.0
iter:  41  09:36:00  -6.03  -2.82  -225.253754            -5.5,+0.0,+0.0
iter:  42  09:37:30  -5.30  -2.82  -225.261048            -5.5,+0.0,+0.1
iter:  43  09:39:01  -5.00  -2.77  -225.294543            -5.5,+0.0,+0.1
iter:  44  09:40:31  -5.05  -2.78  -225.309242            -5.4,+0.0,+0.1
iter:  45  09:42:02  -6.01  -2.77  -225.308560            -5.4,+0.0,+0.1
iter:  46  09:43:32  -4.53  -2.76  -225.301170            -5.4,+0.1,+0.0
iter:  47  09:45:03  -5.47  -2.87  -225.295527            -5.4,+0.1,+0.0
iter:  48  09:46:34  -4.95  -2.92  -225.301497            -5.4,+0.1,+0.0
iter:  49  09:48:05  -5.41  -2.94  -225.302532            -5.4,+0.1,-0.0
iter:  50  09:49:35  -5.89  -2.90  -225.303496            -5.4,+0.0,-0.0
iter:  51  09:51:05  -5.55  -2.94  -225.303344            -5.4,+0.1,-0.0
iter:  52  09:52:36  -5.92  -2.96  -225.303467            -5.4,+0.0,-0.0
iter:  53  09:54:06  -6.30  -2.97  -225.304777            -5.4,+0.0,-0.0
iter:  54  09:55:36  -5.69  -2.98  -225.307154            -5.4,+0.0,-0.0
iter:  55  09:57:07  -5.84  -3.00  -225.303583            -5.4,+0.0,-0.0
iter:  56  09:58:37  -6.34  -3.03  -225.301989            -5.5,+0.0,-0.0
iter:  57  10:00:08  -5.85  -3.05  -225.305240            -5.4,+0.0,-0.0
iter:  58  10:01:39  -6.94  -3.09  -225.306387            -5.4,+0.0,-0.0
iter:  59  10:03:09  -5.03  -3.11  -225.314600            -5.4,+0.1,-0.0
iter:  60  10:04:40  -5.52  -3.15  -225.327586            -5.4,+0.1,-0.0
iter:  61  10:06:10  -4.90  -3.00  -225.301366            -5.3,+0.1,-0.0
iter:  62  10:07:40  -5.95  -3.07  -225.302494            -5.4,+0.1,-0.0
iter:  63  10:09:11  -5.60  -3.07  -225.302353            -5.3,+0.2,-0.0
iter:  64  10:10:41  -5.01  -2.95  -225.303147            -5.4,+0.1,-0.0
iter:  65  10:12:11  -5.48  -3.19  -225.304440            -5.4,+0.1,-0.1
iter:  66  10:13:42  -5.79  -3.22  -225.299565            -5.4,+0.1,-0.1
iter:  67  10:15:12  -6.88  -3.22  -225.302004            -5.4,+0.1,-0.1
iter:  68  10:16:42  -5.38  -3.24  -225.270338            -5.4,+0.1,-0.1
iter:  69  10:18:12  -5.59  -3.29  -225.300376            -5.4,+0.1,-0.1
iter:  70  10:19:42  -7.02  -3.24  -225.298084            -5.4,+0.1,-0.1
iter:  71  10:21:12  -5.24  -3.24  -225.338620            -5.4,+0.1,-0.1
iter:  72  10:22:42  -5.34  -3.02  -225.294020            -5.4,+0.1,-0.1
iter:  73  10:24:12  -6.92  -3.26  -225.298313            -5.4,+0.1,-0.1
iter:  74  10:25:42  -4.63  -3.26  -225.401022            -5.4,+0.1,-0.1
iter:  75  10:27:12  -4.58  -2.76  -225.281424            -5.4,+0.1,-0.1
iter:  76  10:28:42  -5.86  -3.33  -225.275005            -5.3,+0.1,-0.1
iter:  77  10:30:12  -6.77  -3.35  -225.273368            -5.3,+0.1,-0.1
iter:  78  10:31:42  -5.63  -3.37  -225.285924            -5.4,+0.1,-0.1
iter:  79  10:33:12  -5.79  -3.44  -225.276213            -5.3,+0.1,-0.1
iter:  80  10:34:42  -6.80  -3.39  -225.277180            -5.4,+0.1,-0.1
iter:  81  10:36:12  -5.88  -3.43  -225.275529            -5.3,+0.1,-0.1
iter:  82  10:37:42  -6.03  -3.46  -225.273050            -5.3,+0.1,-0.1
iter:  83  10:39:12  -7.55  -3.43  -225.273513            -5.3,+0.1,-0.1
iter:  84  10:40:42  -6.76  -3.45  -225.273926            -5.3,+0.1,-0.1
iter:  85  10:42:12  -5.01  -3.47  -225.283468            -5.1,+0.1,-0.1
iter:  86  10:43:42  -5.39  -2.90  -225.271918            -5.2,+0.1,-0.1
iter:  87  10:45:12  -6.75  -3.37  -225.272018            -5.2,+0.1,-0.1
iter:  88  10:46:42  -5.86  -3.32  -225.277941            -5.1,+0.1,-0.1
iter:  89  10:48:12  -6.16  -3.00  -225.273362            -5.2,+0.1,-0.1
iter:  90  10:49:42  -6.46  -3.27  -225.274533            -5.2,+0.1,-0.1
iter:  91  10:51:12  -4.91  -3.29  -225.301832            -5.0,+0.1,-0.1
iter:  92  10:52:41  -5.01  -2.89  -225.276626            -5.1,+0.1,-0.1
iter:  93  10:54:11  -5.51  -3.14  -225.275120            -5.1,+0.1,-0.1
iter:  94  10:55:41  -4.63  -3.03  -225.287178            -5.1,+0.1,-0.1
iter:  95  10:57:11  -5.85  -3.44  -225.290089            -5.1,+0.1,-0.1
iter:  96  10:58:41  -6.29  -3.45  -225.293108            -5.1,+0.1,-0.1
iter:  97  11:00:11  -5.05  -3.48  -225.313466            -5.1,+0.1,-0.1
iter:  98  11:01:41  -5.79  -3.44  -225.301706            -5.1,+0.1,-0.1
iter:  99  11:03:10  -7.34  -3.56  -225.301835            -5.1,+0.1,-0.1
iter: 100  11:04:40  -5.84  -3.57  -225.301975            -5.0,+0.1,-0.1
iter: 101  11:06:10  -6.35  -3.03  -225.299685            -5.1,+0.1,-0.1
iter: 102  11:07:39  -7.66  -3.48  -225.299598            -5.1,+0.1,-0.1
iter: 103  11:09:09  -7.06  -3.45  -225.298910            -5.1,+0.1,-0.1
iter: 104  11:10:39  -5.65  -3.41  -225.297839            -5.0,+0.1,-0.1
iter: 105  11:12:09  -7.16  -3.55  -225.298097            -5.0,+0.1,-0.1
