
  ___ ___ ___ _ _ _  
 |   |   |_  | | | | 
 | | | | | . | | | | 
 |__ |  _|___|_____|  21.6.1b1
 |___|_|             

User:   madkru@c064.nifl.fysik.dtu.dk
Date:   Tue Jul 19 10:09:21 2022
Arch:   x86_64
Pid:    221212
Python: 3.8.6
gpaw:   /home/niflheim/madkru/new_venv/gpaw/gpaw (1f0dfc9eae)
_gpaw:  /home/niflheim/madkru/new_venv/gpaw/build/lib.linux-x86_64-skylake-3.8/
        _gpaw.cpython-38-x86_64-linux-gnu.so (c1e45bfab3)
ase:    /home/niflheim/madkru/new_venv/ase/ase (version 3.23.0b1-ca38c75a67)
numpy:  /home/modules/software/SciPy-bundle/2020.11-foss-2020b/lib/python3.8/site-packages/numpy (version 1.19.4)
scipy:  /home/modules/software/SciPy-bundle/2020.11-foss-2020b/lib/python3.8/site-packages/scipy (version 1.5.4)
libxc:  4.3.4
units:  Angstrom and eV
cores: 40
OpenMP: False
OMP_NUM_THREADS: 1

Input parameters:
  convergence: {forces: 0.0001}
  kpts: [12 12  1]
  mode: {ecut: 600.0,
         gammacentered: False,
         name: pw}
  occupations: {fixmagmom: False,
                name: fermi-dirac,
                width: 0.001}

System changes: positions, numbers, cell, pbc, initial_charges, initial_magmoms 

Initialize ...

Cr-setup:
  name: Chromium
  id: 444e8044bc0f91048286c984738d87f5
  Z: 24.0
  valence: 6
  core: 18
  charge: 0.0
  file: /home/modules/software/GPAW-setups/0.9.20000/Cr.LDA.gz
  compensation charges: gauss, rc=0.35, lmax=2
  cutoffs: 2.14(filt), 3.04(core),
  valence states:
                energy  radius
    4s(1.00)    -4.191   1.164
    4p(0.00)    -1.079   1.217
    3d(5.00)    -3.128   1.111
    *s          23.021   1.164
    *p          26.132   1.217
    *d          24.083   1.111

  Using partial waves for Cr as LCAO basis

I-setup:
  name: Iodine
  id: b559721c0c096a7b4c8fc0e0f4de5cf4
  Z: 53.0
  valence: 7
  core: 46
  charge: 0.0
  file: /home/modules/software/GPAW-setups/0.9.20000/I.LDA.gz
  compensation charges: gauss, rc=0.37, lmax=2
  cutoffs: 2.06(filt), 2.90(core),
  valence states:
                energy  radius
    5s(2.00)   -17.626   1.164
    5p(5.00)    -7.241   1.164
    *s           9.585   1.164
    *p          19.970   1.164
    *d           0.000   1.164

  Using partial waves for I as LCAO basis

Reference energy: -2434708.556191

Spin-polarized calculation.
Magnetic moment: 0.000000

Convergence criteria:
  Maximum total energy change: 0.0005 eV / electron
  Maximum integral of absolute density change: 0.0001 electrons
  Maximum integral of absolute eigenstate change: 4e-08 eV^2
  Maximum change in atomic force: 0.0001 eV / Ang
  Maximum number of iterations: 333

Symmetries present (total): 1

  ( 1  0  0)
  ( 0  1  0)
  ( 0  0  1)

144 k-points: 12 x 12 x 1 Monkhorst-Pack grid
72 k-points in the irreducible part of the Brillouin zone
       k-points in crystal coordinates                weights
   0:     0.04166667   -0.45833333    0.00000000          2/144
   1:     0.04166667   -0.37500000    0.00000000          2/144
   2:     0.04166667   -0.29166667    0.00000000          2/144
   3:     0.04166667   -0.20833333    0.00000000          2/144
   4:     0.04166667   -0.12500000    0.00000000          2/144
   5:     0.04166667   -0.04166667    0.00000000          2/144
   6:     0.04166667    0.04166667    0.00000000          2/144
   7:     0.04166667    0.12500000    0.00000000          2/144
   8:     0.04166667    0.20833333    0.00000000          2/144
   9:     0.04166667    0.29166667    0.00000000          2/144
          ...
  71:     0.45833333    0.45833333    0.00000000          2/144

Wave functions: Plane wave expansion
  Cutoff energy: 600.000 eV
  Number of coefficients (min, max): 39797, 39902
  Pulay-stress correction: 0.000000 eV/Ang^3 (de/decut=0.000000)
  Using FFTW library
  ScaLapack parameters: grid=1x1, blocksize=None
  Wavefunction extrapolation:
    Improved wavefunction reuse through dual PAW basis 

Occupation numbers: Fermi-Dirac: width=0.0010 eV
 

Eigensolver
   Davidson(niter=2) 

Densities:
  Coarse grid: 42*42*160 grid
  Fine grid: 84*84*320 grid
  Total Charge: 0.000000 

Density mixing:
  Method: difference
  Backend: pulay
  Linear mixing parameter: 0.05
  Mixing with 5 old densities
  Damping of long wave oscillations: 50 

Hamiltonian:
  XC and Coulomb potentials evaluated on a 84*84*320 grid
  Using the LDA Exchange-Correlation functional
  External potential:
    <gpaw.external.NoExternalPotential object at 0x2b30dd4b3b80>
 

Memory estimate:
  Process memory now: 292.10 MiB
  Calculator: 363.42 MiB
    Density: 158.40 MiB
      Arrays: 75.37 MiB
      Localized functions: 52.88 MiB
      Mixer: 30.15 MiB
    Hamiltonian: 57.28 MiB
      Arrays: 55.99 MiB
      XC: 0.00 MiB
      Poisson: 0.00 MiB
      vbar: 1.29 MiB
    Wavefunctions: 147.75 MiB
      Arrays psit_nG: 84.02 MiB
      Eigensolver: 45.78 MiB
      Projections: 0.48 MiB
      Projectors: 6.08 MiB
      PW-descriptor: 11.38 MiB

Total number of cores used: 40
Parallelization over k-points: 40

Number of atoms: 16
Number of atomic orbitals: 84
Number of bands in calculation: 69
Number of valence electrons: 108
Bands to converge: occupied

... initialized

Initializing position-dependent things.

Density initialized from atomic densities
Creating initial wave functions:
  69 bands from LCAO basis set

                                          
                                          
                                          
                                          
                      I                   
            I                             
                    I                     
                        Cr                
           I                              
                  I  Cr                   
                         I                
                                          
                                          
                       I                  
                               I          
                  Cr I                    
                         Cr               
            I                             
                    I                     
                          I               
                                          
                                          
                                          
                                          

Positions:
   0 Cr     3.555363    2.052690    9.031768    ( 0.0000,  0.0000,  3.4336)
   1 Cr     0.000000    4.105380    9.031768    ( 0.0000,  0.0000,  3.4336)
   2 I      4.561629   -0.000000    7.428941    ( 0.0000,  0.0000, -0.1299)
   3 I      1.274549    2.207584    7.428941    ( 0.0000,  0.0000, -0.1299)
   4 I     -2.280814    3.950487    7.428941    ( 0.0000,  0.0000, -0.1299)
   5 I      2.549098    0.000002   10.634596    ( 0.0000,  0.0000, -0.1299)
   6 I      2.280816    3.950486   10.634596    ( 0.0000,  0.0000, -0.1299)
   7 I      5.836176    2.207582   10.634596    ( 0.0000,  0.0000, -0.1299)
   8 Cr     2.549098    4.105380   15.764545    ( 0.0000,  0.0000, -3.4336)
   9 Cr     2.549098    0.000000   15.764544    ( 0.0000,  0.0000, -3.4336)
  10 I      3.555363    2.052690   14.161717    ( 0.0000,  0.0000,  0.1299)
  11 I      0.268283    4.260274   14.161717    ( 0.0000,  0.0000,  0.1299)
  12 I     -3.287080    6.003177   14.161717    ( 0.0000,  0.0000,  0.1299)
  13 I      1.542832    2.052692   17.367372    ( 0.0000,  0.0000,  0.1299)
  14 I      1.274551    6.003176   17.367372    ( 0.0000,  0.0000,  0.1299)
  15 I     -2.280816    4.260272   17.367372    ( 0.0000,  0.0000,  0.1299)

Unit cell:
           periodic     x           y           z      points  spacing
  1. axis:    yes    7.110727   -0.000000    0.000000    42     0.1466
  2. axis:    yes   -3.555363    6.158070    0.000000    42     0.1466
  3. axis:    no     0.000000   -0.000000   27.269192   160     0.1704

  Lengths:   7.110727   7.110727  27.269192
  Angles:   90.000000  90.000000 120.000000

Effective grid spacing dv^(1/3) = 0.1617

                     log10-error:           total        iterations:
           time      wfs    density  force  energy       poisson  magmom
iter:   1  10:10:05                        -74.354155             -0.0000
iter:   2  10:10:29  -1.35  -1.02          -70.225797             +0.0000
iter:   3  10:10:54  -2.02  -1.32          -69.803333             +0.0000
iter:   4  10:11:18  -1.66  -1.39          -70.007461             -0.0000
iter:   5  10:11:43  -2.78  -1.51          -69.739742             +0.0000
iter:   6  10:12:08  -2.17  -1.97          -69.605116             +0.0000
iter:   7  10:12:33  -3.01  -2.19          -69.604274             +0.0000
iter:   8  10:12:57  -3.49  -2.32          -69.595708             -0.0000
iter:   9  10:13:22  -3.79  -2.85          -69.597175             -0.0000
iter:  10  10:13:47  -3.77  -3.03          -69.597557             -0.0000
iter:  11  10:14:11  -3.97  -3.13          -69.597779             +0.0000
iter:  12  10:14:36  -4.09  -3.34          -69.598048             -0.0000
iter:  13  10:15:01  -4.12  -3.54          -69.598243             +0.0000
iter:  14  10:15:25  -4.18  -3.57          -69.598399             +0.0000
iter:  15  10:15:50  -4.18  -3.55          -69.598496             +0.0000
iter:  16  10:16:15  -4.39  -3.52          -69.598600             +0.0000
iter:  17  10:16:39  -4.59  -3.56          -69.598666             +0.0000
iter:  18  10:17:04  -4.65  -3.55          -69.598722             +0.0000
iter:  19  10:17:29  -4.75  -3.59          -69.598770             +0.0000
iter:  20  10:17:53  -4.82  -3.57          -69.598789             +0.0000
iter:  21  10:18:18  -4.88  -3.58          -69.598814             +0.0000
iter:  22  10:18:43  -5.05  -3.63          -69.598833             +0.0000
iter:  23  10:19:07  -5.29  -3.56          -69.598882             +0.0000
iter:  24  10:19:32  -5.34  -3.47          -69.598877             +0.0000
iter:  25  10:19:57  -5.50  -3.59          -69.598897             +0.0000
iter:  26  10:20:21  -5.59  -3.55          -69.598869             +0.0000
iter:  27  10:20:46  -5.74  -3.51          -69.598894             +0.0000
iter:  28  10:21:11  -5.80  -3.57          -69.598895             +0.0000
iter:  29  10:21:35  -5.93  -3.56          -69.598902             -0.0000
iter:  30  10:22:00  -6.08  -3.52          -69.598895             -0.0000
iter:  31  10:22:24  -5.74  -3.58          -69.598902             -0.0000
iter:  32  10:22:49  -6.33  -3.73          -69.598888             -0.0000
iter:  33  10:23:14  -6.57  -3.79          -69.598886             -0.0000
iter:  34  10:23:38  -6.58  -3.83          -69.598882             -0.0000
iter:  35  10:24:03  -6.85  -3.93          -69.598882             -0.0000
iter:  36  10:24:28  -6.89  -4.00          -69.598882             -0.0000
iter:  37  10:24:52  -6.85  -4.07          -69.598881             -0.0000
iter:  38  10:25:17  -6.94  -4.25          -69.598880             -0.0000
iter:  39  10:25:42  -7.25  -4.50          -69.598880             -0.0000
iter:  40  10:26:06  -7.39  -4.66          -69.598880             -0.0000
iter:  41  10:26:38  -7.55  -4.84          -69.598880             -0.0000
iter:  42  10:27:11  -7.49  -4.95    -3.26 -69.598880             -0.0000
iter:  43  10:27:44  -7.52  -5.15    -3.13 -69.598880             -0.0000
iter:  44  10:28:17  -7.68  -5.20    -3.98 -69.598880             -0.0000
iter:  45  10:28:50  -7.75  -5.21    -3.36 -69.598880             -0.0000
iter:  46  10:29:23  -7.92  -5.14    -3.62 -69.598880             -0.0000
iter:  47  10:29:56  -7.99  -5.18    -4.42 -69.598880             -0.0000

Converged after 47 iterations.

Dipole moment: (-26.910010, 16.017372, -0.000260) |e|*Ang

Total magnetic moment: (0.000000, 0.000000, -0.000000)
Local magnetic moments:
   0 Cr ( 0.000000,  0.000000,  3.015393)
   1 Cr ( 0.000000,  0.000000,  3.015255)
   2 I  ( 0.000000,  0.000000, -0.065857)
   3 I  ( 0.000000,  0.000000, -0.065946)
   4 I  ( 0.000000,  0.000000, -0.065479)
   5 I  ( 0.000000,  0.000000, -0.064094)
   6 I  ( 0.000000,  0.000000, -0.064311)
   7 I  ( 0.000000,  0.000000, -0.062566)
   8 Cr ( 0.000000,  0.000000, -3.015253)
   9 Cr ( 0.000000,  0.000000, -3.015395)
  10 I  ( 0.000000,  0.000000,  0.064094)
  11 I  ( 0.000000,  0.000000,  0.064311)
  12 I  ( 0.000000,  0.000000,  0.062566)
  13 I  ( 0.000000,  0.000000,  0.065857)
  14 I  ( 0.000000,  0.000000,  0.065946)
  15 I  ( 0.000000,  0.000000,  0.065479)

Energy contributions relative to reference atoms: (reference = -2434708.556191)

Kinetic:        -27.303949
Potential:       +4.316311
External:        +0.000000
XC:             -46.759707
Entropy (-ST):   -0.000000
Local:           +0.148466
--------------------------
Free energy:    -69.598880
Extrapolated:   -69.598880

Spin contamination: 7.447514 electrons
Showing only first 2 kpts
                      Up                     Down
 Kpt  Band  Eigenvalues  Occupancy  Eigenvalues  Occupancy
  0    52     -2.07361    1.00000     -2.07361    1.00000
  0    53     -1.91741    1.00000     -1.91741    1.00000
  0    54     -0.84976    0.00000     -0.84976    0.00000
  0    55     -0.83534    0.00000     -0.83534    0.00000

  1    52     -2.05309    1.00000     -2.05309    1.00000
  1    53     -1.90797    1.00000     -1.90797    1.00000
  1    54     -0.86334    0.00000     -0.86334    0.00000
  1    55     -0.82845    0.00000     -0.82845    0.00000


Fermi level: -1.57223

Gap: 1.006 eV
Transition (v -> c):
  (s=1, k=31, n=53, [0.21, 0.12, 0.00]) -> (s=0, k=5, n=54, [0.04, -0.04, 0.00])

Forces in eV/Ang:
  0 Cr   -0.01199    0.00292   -0.01559
  1 Cr    0.00726    0.01150   -0.01415
  2 I    -0.40060   -0.00367    0.75446
  3 I     0.20437    0.34624    0.75459
  4 I     0.20107   -0.34665    0.75127
  5 I     0.38931    0.00786   -0.67816
  6 I    -0.19540   -0.34012   -0.68012
  7 I    -0.18935    0.33659   -0.64904
  8 Cr   -0.00726   -0.01150    0.01416
  9 Cr    0.01199   -0.00292    0.01560
 10 I    -0.38931   -0.00787    0.67816
 11 I     0.19539    0.34012    0.68011
 12 I     0.18936   -0.33659    0.64903
 13 I     0.40061    0.00366   -0.75447
 14 I    -0.20437   -0.34623   -0.75460
 15 I    -0.20106    0.34665   -0.75128

System changes: positions 

Initializing position-dependent things.

Density initialized from wave functions
                                          
                                          
                                          
                                          
                      I                   
            I                             
                    I                     
                        Cr                
           I                              
                  I  Cr                   
                         I                
                                          
                                          
                       I                  
                               I          
                  Cr I                    
                         Cr               
            I                             
                    I                     
                          I               
                                          
                                          
                                          
                                          

Positions:
   0 Cr     3.555192    2.052732    9.031545    ( 0.0000,  0.0000,  3.4336)
   1 Cr     0.000104    4.105544    9.031566    ( 0.0000,  0.0000,  3.4336)
   2 I      4.555906   -0.000053    7.439719    ( 0.0000,  0.0000, -0.1299)
   3 I      1.277468    2.212530    7.439721    ( 0.0000,  0.0000, -0.1299)
   4 I     -2.277942    3.945534    7.439673    ( 0.0000,  0.0000, -0.1299)
   5 I      2.554659    0.000114   10.624908    ( 0.0000,  0.0000, -0.1299)
   6 I      2.278025    3.945627   10.624880    ( 0.0000,  0.0000, -0.1299)
   7 I      5.833471    2.212391   10.625324    ( 0.0000,  0.0000, -0.1299)
   8 Cr     2.548994    4.105216   15.764747    ( 0.0000,  0.0000, -3.4336)
   9 Cr     2.549269   -0.000042   15.764767    ( 0.0000,  0.0000, -3.4336)
  10 I      3.549802    2.052578   14.171405    ( 0.0000,  0.0000,  0.1299)
  11 I      0.271075    4.265133   14.171433    ( 0.0000,  0.0000,  0.1299)
  12 I     -3.284375    5.998368   14.170989    ( 0.0000,  0.0000,  0.1299)
  13 I      1.548555    2.052744   17.356594    ( 0.0000,  0.0000,  0.1299)
  14 I      1.271631    5.998230   17.356592    ( 0.0000,  0.0000,  0.1299)
  15 I     -2.283688    4.265225   17.356640    ( 0.0000,  0.0000,  0.1299)

Unit cell:
           periodic     x           y           z      points  spacing
  1. axis:    yes    7.110727   -0.000000    0.000000    42     0.1466
  2. axis:    yes   -3.555363    6.158070    0.000000    42     0.1466
  3. axis:    no     0.000000   -0.000000   27.269192   160     0.1704

  Lengths:   7.110727   7.110727  27.269192
  Angles:   90.000000  90.000000 120.000000

Effective grid spacing dv^(1/3) = 0.1617

                     log10-error:           total        iterations:
           time      wfs    density  force  energy       poisson  magmom
iter:   1  10:30:37  -3.50                 -69.709346             -0.0000
iter:   2  10:31:01  -4.51  -2.94          -69.709252             -0.0000
iter:   3  10:31:26  -4.56  -2.98          -69.708862             +0.0000
iter:   4  10:31:50  -5.40  -3.21          -69.708783             -0.0000
iter:   5  10:32:15  -5.39  -3.33          -69.708744             +0.0000
iter:   6  10:32:39  -5.89  -3.63          -69.708719             -0.0000
iter:   7  10:33:04  -6.10  -3.64          -69.708709             +0.0000
iter:   8  10:33:28  -6.51  -3.98          -69.708702             +0.0000
iter:   9  10:33:53  -7.12  -4.04          -69.708699             +0.0000
iter:  10  10:34:25  -7.44  -4.38          -69.708699             +0.0000
iter:  11  10:34:58  -7.68  -4.52    -2.65 -69.708698             -0.0000
iter:  12  10:35:31  -7.66  -4.65    -2.55 -69.708698             +0.0000
iter:  13  10:36:04  -7.86  -4.74    -2.91 -69.708698             +0.0000
iter:  14  10:36:37  -7.86  -4.89    -3.27 -69.708698             +0.0000
iter:  15  10:37:10  -8.01  -5.23    -3.73 -69.708698             +0.0000
iter:  16  10:37:42  -8.11  -5.34    -3.85 -69.708698             +0.0000
iter:  17  10:38:15  -8.33  -5.37    -3.59 -69.708698             +0.0000
iter:  18  10:38:48  -8.36  -5.37    -4.13 -69.708698             +0.0000

Converged after 18 iterations.

Dipole moment: (-27.152146, 16.425168, -0.000262) |e|*Ang

Total magnetic moment: (0.000000, 0.000000, 0.000000)
Local magnetic moments:
   0 Cr ( 0.000000,  0.000000,  3.005897)
   1 Cr ( 0.000000,  0.000000,  3.005787)
   2 I  ( 0.000000,  0.000000, -0.064087)
   3 I  ( 0.000000,  0.000000, -0.064174)
   4 I  ( 0.000000,  0.000000, -0.063738)
   5 I  ( 0.000000,  0.000000, -0.062612)
   6 I  ( 0.000000,  0.000000, -0.062825)
   7 I  ( 0.000000,  0.000000, -0.061263)
   8 Cr ( 0.000000,  0.000000, -3.005785)
   9 Cr ( 0.000000,  0.000000, -3.005899)
  10 I  ( 0.000000,  0.000000,  0.062612)
  11 I  ( 0.000000,  0.000000,  0.062825)
  12 I  ( 0.000000,  0.000000,  0.061263)
  13 I  ( 0.000000,  0.000000,  0.064087)
  14 I  ( 0.000000,  0.000000,  0.064174)
  15 I  ( 0.000000,  0.000000,  0.063738)

Energy contributions relative to reference atoms: (reference = -2434708.556191)

Kinetic:        -23.862809
Potential:       +1.413911
External:        +0.000000
XC:             -47.416076
Entropy (-ST):   -0.000000
Local:           +0.156276
--------------------------
Free energy:    -69.708698
Extrapolated:   -69.708698

Spin contamination: 7.416007 electrons
Showing only first 2 kpts
                      Up                     Down
 Kpt  Band  Eigenvalues  Occupancy  Eigenvalues  Occupancy
  0    52     -2.06693    1.00000     -2.06693    1.00000
  0    53     -1.90347    1.00000     -1.90347    1.00000
  0    54     -0.82473    0.00000     -0.82473    0.00000
  0    55     -0.81195    0.00000     -0.81195    0.00000

  1    52     -2.04370    1.00000     -2.04370    1.00000
  1    53     -1.89534    1.00000     -1.89534    1.00000
  1    54     -0.83674    0.00000     -0.83674    0.00000
  1    55     -0.80462    0.00000     -0.80462    0.00000


Fermi level: -1.57223

Gap: 1.024 eV
Transition (v -> c):
  (s=1, k=31, n=53, [0.21, 0.12, 0.00]) -> (s=0, k=5, n=54, [0.04, -0.04, 0.00])

Forces in eV/Ang:
  0 Cr   -0.00975    0.00270   -0.00731
  1 Cr    0.00602    0.00967   -0.00591
  2 I    -0.37287   -0.00308    0.70047
  3 I     0.19003    0.32249    0.70048
  4 I     0.18735   -0.32287    0.69774
  5 I     0.36303    0.00723   -0.62667
  6 I    -0.18231   -0.31703   -0.62836
  7 I    -0.17752    0.31513   -0.60183
  8 Cr   -0.00602   -0.00967    0.00592
  9 Cr    0.00975   -0.00270    0.00732
 10 I    -0.36303   -0.00724    0.62667
 11 I     0.18230    0.31703    0.62836
 12 I     0.17752   -0.31512    0.60183
 13 I     0.37288    0.00307   -0.70047
 14 I    -0.19004   -0.32249   -0.70048
 15 I    -0.18734    0.32288   -0.69775

System changes: positions 

Initializing position-dependent things.

Density initialized from wave functions
                                          
                                          
                                          
                                          
                      I                   
            I                             
                    I                     
           I            Cr                
                  I                       
                     Cr                   
                         I                
                                          
                                          
                       I                  
                               I          
                  Cr                      
                      I  Cr               
            I                             
                    I                     
                          I               
                                          
                                          
                                          
                                          

Positions:
   0 Cr     3.553251    2.053269    9.030090    ( 0.0000,  0.0000,  3.4336)
   1 Cr     0.001302    4.107468    9.030388    ( 0.0000,  0.0000,  3.4336)
   2 I      4.481702   -0.000665    7.579116    ( 0.0000,  0.0000, -0.1299)
   3 I      1.315286    2.276708    7.579119    ( 0.0000,  0.0000, -0.1299)
   4 I     -2.240658    3.881282    7.578528    ( 0.0000,  0.0000, -0.1299)
   5 I      2.626904    0.001553   10.500197    ( 0.0000,  0.0000, -0.1299)
   6 I      2.241745    3.882537   10.499833    ( 0.0000,  0.0000, -0.1299)
   7 I      5.798145    2.275103   10.505557    ( 0.0000,  0.0000, -0.1299)
   8 Cr     2.547796    4.103292   15.765926    ( 0.0000,  0.0000, -3.4336)
   9 Cr     2.551210   -0.000579   15.766224    ( 0.0000,  0.0000, -3.4336)
  10 I      3.477557    2.051137   14.296117    ( 0.0000,  0.0000,  0.1299)
  11 I      0.307353    4.328223   14.296480    ( 0.0000,  0.0000,  0.1299)
  12 I     -3.249047    5.935657   14.290756    ( 0.0000,  0.0000,  0.1299)
  13 I      1.622759    2.053355   17.217197    ( 0.0000,  0.0000,  0.1299)
  14 I      1.233812    5.934052   17.217194    ( 0.0000,  0.0000,  0.1299)
  15 I     -2.320971    4.329478   17.217785    ( 0.0000,  0.0000,  0.1299)

Unit cell:
           periodic     x           y           z      points  spacing
  1. axis:    yes    7.110727   -0.000000    0.000000    42     0.1466
  2. axis:    yes   -3.555363    6.158070    0.000000    42     0.1466
  3. axis:    no     0.000000   -0.000000   27.269192   160     0.1704

  Lengths:   7.110727   7.110727  27.269192
  Angles:   90.000000  90.000000 120.000000

Effective grid spacing dv^(1/3) = 0.1617

                     log10-error:           total        iterations:
           time      wfs    density  force  energy       poisson  magmom
iter:   1  10:39:28  -1.26                 -70.315062             -0.0000
iter:   2  10:39:53  -2.26  -1.86          -70.310315             -0.0000
iter:   3  10:40:18  -2.42  -1.91          -70.259319             +0.0000
iter:   4  10:40:42  -3.16  -2.23          -70.253871             +0.0000
iter:   5  10:41:07  -3.61  -2.36          -70.248203             -0.0000
iter:   6  10:41:31  -3.94  -2.47          -70.245671             -0.0000
iter:   7  10:41:56  -4.21  -2.79          -70.243531             -0.0000
iter:   8  10:42:20  -4.80  -3.19          -70.243341             -0.0000
iter:   9  10:42:45  -5.22  -3.24          -70.243289             -0.0000
iter:  10  10:43:10  -5.24  -3.29          -70.243236             +0.0000
iter:  11  10:43:34  -5.19  -3.49          -70.243190             -0.0000
iter:  12  10:43:59  -5.51  -3.73          -70.243188             -0.0000
iter:  13  10:44:23  -5.74  -3.83          -70.243193             -0.0000
iter:  14  10:44:48  -5.72  -3.89          -70.243190             -0.0000
iter:  15  10:45:13  -5.75  -4.21          -70.243192             -0.0000
iter:  16  10:45:37  -5.91  -4.37          -70.243194             -0.0000
iter:  17  10:46:02  -5.99  -4.42          -70.243196             -0.0000
iter:  18  10:46:26  -6.09  -4.53          -70.243197             -0.0000
iter:  19  10:46:51  -6.18  -4.58          -70.243199             -0.0000
iter:  20  10:47:16  -6.25  -4.59          -70.243200             -0.0000
iter:  21  10:47:40  -6.41  -4.46          -70.243201             -0.0000
iter:  22  10:48:05  -6.46  -4.62          -70.243201             -0.0000
iter:  23  10:48:30  -6.58  -4.47          -70.243202             -0.0000
iter:  24  10:48:54  -6.73  -4.63          -70.243202             -0.0000
iter:  25  10:49:19  -6.75  -4.53          -70.243203             -0.0000
iter:  26  10:49:43  -6.81  -4.51          -70.243203             -0.0000
iter:  27  10:50:08  -6.90  -4.54          -70.243203             -0.0000
iter:  28  10:50:33  -6.98  -4.61          -70.243203             -0.0000
iter:  29  10:50:57  -7.11  -4.50          -70.243203             -0.0000
iter:  30  10:51:22  -7.29  -4.52          -70.243203             -0.0000
iter:  31  10:51:46  -7.34  -4.51          -70.243203             -0.0000
iter:  32  10:52:19  -7.51  -4.80          -70.243203             -0.0000
iter:  33  10:52:51  -7.62  -4.83    -3.07 -70.243203             -0.0000
iter:  34  10:53:24  -7.62  -4.73    -3.08 -70.243203             -0.0000
iter:  35  10:53:57  -7.75  -4.71    -3.55 -70.243203             -0.0000
iter:  36  10:54:30  -7.87  -4.70    -3.03 -70.243203             -0.0000
iter:  37  10:55:03  -8.08  -4.81    -3.53 -70.243203             -0.0000
iter:  38  10:55:36  -8.20  -4.89    -3.19 -70.243203             -0.0000
iter:  39  10:56:09  -8.13  -5.00    -3.17 -70.243203             -0.0000
iter:  40  10:56:41  -8.29  -5.12    -2.95 -70.243203             -0.0000
iter:  41  10:57:14  -8.48  -5.62    -4.26 -70.243203             -0.0000

Converged after 41 iterations.

Dipole moment: (-29.861095, 20.972832, -0.000263) |e|*Ang

Total magnetic moment: (0.000000, 0.000000, -0.000000)
Local magnetic moments:
   0 Cr ( 0.000000,  0.000000,  2.887862)
   1 Cr ( 0.000000,  0.000000,  2.888124)
   2 I  ( 0.000000,  0.000000, -0.042947)
   3 I  ( 0.000000,  0.000000, -0.043047)
   4 I  ( 0.000000,  0.000000, -0.042878)
   5 I  ( 0.000000,  0.000000, -0.044132)
   6 I  ( 0.000000,  0.000000, -0.044235)
   7 I  ( 0.000000,  0.000000, -0.044217)
   8 Cr ( 0.000000,  0.000000, -2.888124)
   9 Cr ( 0.000000,  0.000000, -2.887862)
  10 I  ( 0.000000,  0.000000,  0.044132)
  11 I  ( 0.000000,  0.000000,  0.044235)
  12 I  ( 0.000000,  0.000000,  0.044218)
  13 I  ( 0.000000,  0.000000,  0.042947)
  14 I  ( 0.000000,  0.000000,  0.043047)
  15 I  ( 0.000000,  0.000000,  0.042878)

Energy contributions relative to reference atoms: (reference = -2434708.556191)

Kinetic:        +32.033111
Potential:      -45.006544
External:        +0.000000
XC:             -57.455505
Entropy (-ST):   -0.000000
Local:           +0.185736
--------------------------
Free energy:    -70.243203
Extrapolated:   -70.243203

Spin contamination: 7.061583 electrons
Showing only first 2 kpts
                      Up                     Down
 Kpt  Band  Eigenvalues  Occupancy  Eigenvalues  Occupancy
  0    52     -1.93879    1.00000     -1.93879    1.00000
  0    53     -1.69931    1.00000     -1.69931    1.00000
  0    54     -0.50310    0.00000     -0.50310    0.00000
  0    55     -0.48806    0.00000     -0.48806    0.00000

  1    52     -1.87956    1.00000     -1.87956    1.00000
  1    53     -1.70426    1.00000     -1.70426    1.00000
  1    54     -0.49079    0.00000     -0.49079    0.00000
  1    55     -0.48054    0.00000     -0.48054    0.00000


Fermi level: -1.57223

Gap: 1.169 eV
Transition (v -> c):
  (s=0, k=60, n=53, [0.46, -0.46, 0.00]) -> (s=1, k=57, n=54, [0.38, 0.29, 0.00])

Forces in eV/Ang:
  0 Cr    0.02878    0.00024    0.11236
  1 Cr   -0.01550   -0.01898    0.11389
  2 I     0.11392    0.00897   -0.22343
  3 I    -0.06343   -0.09368   -0.22564
  4 I    -0.05111    0.09216   -0.21463
  5 I    -0.09329   -0.00167    0.24034
  6 I     0.04630    0.08385    0.24398
  7 I     0.03264   -0.06056    0.20917
  8 Cr    0.01550    0.01898   -0.11390
  9 Cr   -0.02878   -0.00024   -0.11237
 10 I     0.09329    0.00167   -0.24034
 11 I    -0.04630   -0.08385   -0.24397
 12 I    -0.03264    0.06056   -0.20916
 13 I    -0.11393   -0.00897    0.22344
 14 I     0.06343    0.09368    0.22564
 15 I     0.05111   -0.09216    0.21464

System changes: positions 

Initializing position-dependent things.

Density initialized from wave functions
                                          
                                          
                                          
                                          
                      I                   
            I                             
                    I                     
           I            Cr                
                  I                       
                     Cr                   
                         I                
                                          
                                          
                       I                  
                               I          
                  Cr                      
                     I   Cr               
            I                             
                    I                     
                          I               
                                          
                                          
                                          
                                          

Positions:
   0 Cr     3.554002    2.053149    9.031632    ( 0.0000,  0.0000,  3.4336)
   1 Cr     0.000863    4.106827    9.031883    ( 0.0000,  0.0000,  3.4336)
   2 I      4.499777   -0.000429    7.545061    ( 0.0000,  0.0000, -0.1299)
   3 I      1.306016    2.261128    7.545040    ( 0.0000,  0.0000, -0.1299)
   4 I     -2.249674    3.896862    7.544691    ( 0.0000,  0.0000, -0.1299)
   5 I      2.609497    0.001208   10.531100    ( 0.0000,  0.0000, -0.1299)
   6 I      2.250480    3.897764   10.530852    ( 0.0000,  0.0000, -0.1299)
   7 I      5.806517    2.260213   10.535003    ( 0.0000,  0.0000, -0.1299)
   8 Cr     2.548235    4.103933   15.764431    ( 0.0000,  0.0000, -3.4336)
   9 Cr     2.550459   -0.000459   15.764682    ( 0.0000,  0.0000, -3.4336)
  10 I      3.494964    2.051482   14.265213    ( 0.0000,  0.0000,  0.1299)
  11 I      0.298618    4.312996   14.265461    ( 0.0000,  0.0000,  0.1299)
  12 I     -3.257419    5.950547   14.261311    ( 0.0000,  0.0000,  0.1299)
  13 I      1.604685    2.053120   17.251253    ( 0.0000,  0.0000,  0.1299)
  14 I      1.243082    5.949632   17.251274    ( 0.0000,  0.0000,  0.1299)
  15 I     -2.311956    4.313897   17.251623    ( 0.0000,  0.0000,  0.1299)

Unit cell:
           periodic     x           y           z      points  spacing
  1. axis:    yes    7.110727   -0.000000    0.000000    42     0.1466
  2. axis:    yes   -3.555363    6.158070    0.000000    42     0.1466
  3. axis:    no     0.000000   -0.000000   27.269192   160     0.1704

  Lengths:   7.110727   7.110727  27.269192
  Angles:   90.000000  90.000000 120.000000

Effective grid spacing dv^(1/3) = 0.1617

                     log10-error:           total        iterations:
           time      wfs    density  force  energy       poisson  magmom
iter:   1  10:57:55  -2.42                 -70.292436             -0.0000
iter:   2  10:58:19  -3.45  -2.44          -70.291605             -0.0000
iter:   3  10:58:44  -3.57  -2.48          -70.287823             +0.0000
iter:   4  10:59:08  -4.50  -2.78          -70.287128             -0.0000
iter:   5  10:59:33  -4.69  -2.89          -70.286741             -0.0000
iter:   6  10:59:58  -4.83  -3.05          -70.286663             -0.0000
iter:   7  11:00:22  -5.34  -3.32          -70.286463             -0.0000
iter:   8  11:00:47  -5.92  -3.70          -70.286433             -0.0000
iter:   9  11:01:11  -6.27  -3.78          -70.286420             -0.0000
iter:  10  11:01:36  -6.15  -3.85          -70.286421             -0.0000
iter:  11  11:02:00  -6.01  -3.88          -70.286411             -0.0000
iter:  12  11:02:25  -6.57  -4.35          -70.286411             -0.0000
iter:  13  11:02:50  -6.83  -4.41          -70.286412             +0.0000
iter:  14  11:03:14  -6.78  -4.49          -70.286412             +0.0000
iter:  15  11:03:39  -6.97  -4.70          -70.286412             +0.0000
iter:  16  11:04:03  -7.04  -4.75          -70.286412             +0.0000
iter:  17  11:04:28  -7.18  -4.81          -70.286412             +0.0000
iter:  18  11:05:00  -7.46  -4.89          -70.286412             -0.0000
iter:  19  11:05:32  -7.52  -5.03    -3.26 -70.286412             +0.0000
iter:  20  11:06:05  -7.65  -5.03    -3.32 -70.286412             -0.0000
iter:  21  11:06:38  -7.63  -4.97    -3.19 -70.286412             -0.0000
iter:  22  11:07:11  -7.76  -5.08    -3.37 -70.286412             -0.0000
iter:  23  11:07:44  -7.90  -5.16    -3.66 -70.286413             -0.0000
iter:  24  11:08:17  -8.05  -5.18    -3.32 -70.286413             -0.0000
iter:  25  11:08:50  -8.17  -5.19    -4.03 -70.286413             -0.0000

Converged after 25 iterations.

Dipole moment: (-29.285477, 20.009618, -0.000264) |e|*Ang

Total magnetic moment: (0.000000, 0.000000, -0.000000)
Local magnetic moments:
   0 Cr ( 0.000000,  0.000000,  2.915936)
   1 Cr ( 0.000000,  0.000000,  2.916101)
   2 I  ( 0.000000,  0.000000, -0.047957)
   3 I  ( 0.000000,  0.000000, -0.048050)
   4 I  ( 0.000000,  0.000000, -0.047820)
   5 I  ( 0.000000,  0.000000, -0.048415)
   6 I  ( 0.000000,  0.000000, -0.048554)
   7 I  ( 0.000000,  0.000000, -0.048231)
   8 Cr ( 0.000000,  0.000000, -2.916101)
   9 Cr ( 0.000000,  0.000000, -2.915936)
  10 I  ( 0.000000,  0.000000,  0.048415)
  11 I  ( 0.000000,  0.000000,  0.048554)
  12 I  ( 0.000000,  0.000000,  0.048231)
  13 I  ( 0.000000,  0.000000,  0.047957)
  14 I  ( 0.000000,  0.000000,  0.048050)
  15 I  ( 0.000000,  0.000000,  0.047819)

Energy contributions relative to reference atoms: (reference = -2434708.556191)

Kinetic:        +16.231217
Potential:      -31.968117
External:        +0.000000
XC:             -54.721223
Entropy (-ST):   -0.000000
Local:           +0.171711
--------------------------
Free energy:    -70.286413
Extrapolated:   -70.286413

Spin contamination: 7.139156 electrons
Showing only first 2 kpts
                      Up                     Down
 Kpt  Band  Eigenvalues  Occupancy  Eigenvalues  Occupancy
  0    52     -1.98011    1.00000     -1.98011    1.00000
  0    53     -1.75309    1.00000     -1.75309    1.00000
  0    54     -0.58258    0.00000     -0.58258    0.00000
  0    55     -0.57140    0.00000     -0.57140    0.00000

  1    52     -1.92724    1.00000     -1.92724    1.00000
  1    53     -1.75552    1.00000     -1.75552    1.00000
  1    54     -0.57610    0.00000     -0.57610    0.00000
  1    55     -0.56382    0.00000     -0.56382    0.00000


Fermi level: -1.57223

Gap: 1.143 eV
Transition (v -> c):
  (s=0, k=60, n=53, [0.46, -0.46, 0.00]) -> (s=1, k=57, n=54, [0.38, 0.29, 0.00])

Forces in eV/Ang:
  0 Cr    0.01408    0.00073    0.06951
  1 Cr   -0.00721   -0.00870    0.07075
  2 I    -0.03042    0.00422    0.04945
  3 I     0.01284    0.02936    0.04822
  4 I     0.01865   -0.02964    0.05278
  5 I     0.03874    0.00092   -0.00803
  6 I    -0.02001   -0.03226   -0.00630
  7 I    -0.02750    0.04665   -0.02218
  8 Cr    0.00721    0.00870   -0.07075
  9 Cr   -0.01408   -0.00073   -0.06951
 10 I    -0.03874   -0.00092    0.00803
 11 I     0.02000    0.03226    0.00631
 12 I     0.02750   -0.04665    0.02218
 13 I     0.03042   -0.00423   -0.04945
 14 I    -0.01285   -0.02936   -0.04822
 15 I    -0.01865    0.02964   -0.05278

System changes: positions 

Initializing position-dependent things.

Density initialized from wave functions
                                          
                                          
                                          
                                          
                      I                   
            I                             
                    I                     
           I            Cr                
                  I                       
                     Cr                   
                         I                
                                          
                                          
                       I                  
                               I          
                  Cr                      
                     I   Cr               
            I                             
                    I                     
                          I               
                                          
                                          
                                          
                                          

Positions:
   0 Cr     3.554121    2.053177    9.032487    ( 0.0000,  0.0000,  3.4336)
   1 Cr     0.000809    4.106779    9.032764    ( 0.0000,  0.0000,  3.4336)
   2 I      4.496839   -0.000395    7.550481    ( 0.0000,  0.0000, -0.1299)
   3 I      1.307478    2.263708    7.550444    ( 0.0000,  0.0000, -0.1299)
   4 I     -2.248153    3.894275    7.550137    ( 0.0000,  0.0000, -0.1299)
   5 I      2.612478    0.001269   10.526713    ( 0.0000,  0.0000, -0.1299)
   6 I      2.248976    3.895181   10.526475    ( 0.0000,  0.0000, -0.1299)
   7 I      5.804948    2.262970   10.530601    ( 0.0000,  0.0000, -0.1299)
   8 Cr     2.548289    4.103981   15.763550    ( 0.0000,  0.0000, -3.4336)
   9 Cr     2.550341   -0.000487   15.763827    ( 0.0000,  0.0000, -3.4336)
  10 I      3.491983    2.051421   14.269601    ( 0.0000,  0.0000,  0.1299)
  11 I      0.300122    4.315579   14.269838    ( 0.0000,  0.0000,  0.1299)
  12 I     -3.255850    5.947790   14.265712    ( 0.0000,  0.0000,  0.1299)
  13 I      1.607622    2.053085   17.245833    ( 0.0000,  0.0000,  0.1299)
  14 I      1.241620    5.947052   17.245870    ( 0.0000,  0.0000,  0.1299)
  15 I     -2.313476    4.316485   17.246176    ( 0.0000,  0.0000,  0.1299)

Unit cell:
           periodic     x           y           z      points  spacing
  1. axis:    yes    7.110727   -0.000000    0.000000    42     0.1466
  2. axis:    yes   -3.555363    6.158070    0.000000    42     0.1466
  3. axis:    no     0.000000   -0.000000   27.269192   160     0.1704

  Lengths:   7.110727   7.110727  27.269192
  Angles:   90.000000  90.000000 120.000000

Effective grid spacing dv^(1/3) = 0.1617

                     log10-error:           total        iterations:
           time      wfs    density  force  energy       poisson  magmom
iter:   1  11:09:30  -4.00                 -70.288661             +0.0000
iter:   2  11:09:54  -5.05  -3.25          -70.288649             +0.0000
iter:   3  11:10:19  -5.20  -3.30          -70.288558             -0.0000
iter:   4  11:10:43  -6.02  -3.63          -70.288547             +0.0000
iter:   5  11:11:08  -6.48  -3.76          -70.288539             +0.0000
iter:   6  11:11:32  -6.67  -3.85          -70.288535             +0.0000
iter:   7  11:11:57  -6.94  -4.20          -70.288531             +0.0000
iter:   8  11:12:29  -7.62  -4.57          -70.288531             +0.0000
iter:   9  11:13:01  -8.14  -4.62    -2.92 -70.288531             +0.0000
iter:  10  11:13:34  -8.10  -4.69    -2.54 -70.288531             -0.0000
iter:  11  11:14:07  -8.40  -5.03    -3.02 -70.288531             -0.0000
iter:  12  11:14:40  -8.59  -5.20    -3.42 -70.288531             -0.0000
iter:  13  11:15:13  -8.74  -5.25    -3.84 -70.288531             +0.0000
iter:  14  11:15:45  -8.85  -5.28    -3.59 -70.288531             -0.0000
iter:  15  11:16:18  -8.95  -5.39    -3.41 -70.288531             -0.0000
iter:  16  11:16:51  -9.20  -5.50    -3.71 -70.288531             +0.0000
iter:  17  11:17:24  -9.37  -5.56    -3.83 -70.288531             -0.0000
iter:  18  11:17:56  -9.42  -5.63    -3.51 -70.288531             -0.0000
iter:  19  11:18:29  -9.51  -5.82    -4.11 -70.288531             +0.0000

Converged after 19 iterations.

Dipole moment: (-29.387571, 20.180630, -0.000263) |e|*Ang

Total magnetic moment: (0.000000, 0.000000, 0.000000)
Local magnetic moments:
   0 Cr ( 0.000000,  0.000000,  2.911502)
   1 Cr ( 0.000000,  0.000000,  2.911677)
   2 I  ( 0.000000,  0.000000, -0.047241)
   3 I  ( 0.000000,  0.000000, -0.047338)
   4 I  ( 0.000000,  0.000000, -0.047106)
   5 I  ( 0.000000,  0.000000, -0.047669)
   6 I  ( 0.000000,  0.000000, -0.047806)
   7 I  ( 0.000000,  0.000000, -0.047502)
   8 Cr ( 0.000000,  0.000000, -2.911676)
   9 Cr ( 0.000000,  0.000000, -2.911503)
  10 I  ( 0.000000,  0.000000,  0.047669)
  11 I  ( 0.000000,  0.000000,  0.047806)
  12 I  ( 0.000000,  0.000000,  0.047502)
  13 I  ( 0.000000,  0.000000,  0.047241)
  14 I  ( 0.000000,  0.000000,  0.047338)
  15 I  ( 0.000000,  0.000000,  0.047106)

Energy contributions relative to reference atoms: (reference = -2434708.556191)

Kinetic:        +18.626171
Potential:      -33.955327
External:        +0.000000
XC:             -55.138529
Entropy (-ST):   -0.000000
Local:           +0.179154
--------------------------
Free energy:    -70.288531
Extrapolated:   -70.288531

Spin contamination: 7.126372 electrons
Showing only first 2 kpts
                      Up                     Down
 Kpt  Band  Eigenvalues  Occupancy  Eigenvalues  Occupancy
  0    52     -1.97417    1.00000     -1.97417    1.00000
  0    53     -1.74509    1.00000     -1.74509    1.00000
  0    54     -0.57049    0.00000     -0.57049    0.00000
  0    55     -0.55892    0.00000     -0.55892    0.00000

  1    52     -1.92013    1.00000     -1.92013    1.00000
  1    53     -1.74794    1.00000     -1.74794    1.00000
  1    54     -0.56288    0.00000     -0.56288    0.00000
  1    55     -0.55156    0.00000     -0.55156    0.00000


Fermi level: -1.57223

Gap: 1.147 eV
Transition (v -> c):
  (s=0, k=60, n=53, [0.46, -0.46, 0.00]) -> (s=1, k=57, n=54, [0.38, 0.29, 0.00])

Forces in eV/Ang:
  0 Cr    0.01346    0.00063    0.06712
  1 Cr   -0.00683   -0.00832    0.06830
  2 I    -0.01000    0.00413    0.01268
  3 I     0.00274    0.01171    0.01150
  4 I     0.00833   -0.01175    0.01560
  5 I     0.01798    0.00068    0.03043
  6 I    -0.00963   -0.01414    0.03224
  7 I    -0.01702    0.02826    0.01623
  8 Cr    0.00683    0.00832   -0.06831
  9 Cr   -0.01346   -0.00063   -0.06712
 10 I    -0.01798   -0.00068   -0.03042
 11 I     0.00963    0.01414   -0.03223
 12 I     0.01702   -0.02826   -0.01622
 13 I     0.01000   -0.00413   -0.01268
 14 I    -0.00274   -0.01171   -0.01150
 15 I    -0.00833    0.01175   -0.01560

System changes: positions 

Initializing position-dependent things.

Density initialized from wave functions
                                          
                                          
                                          
                                          
                      I                   
            I                             
                    I                     
           I            Cr                
                  I                       
                     Cr                   
                         I                
                                          
                                          
                       I                  
                               I          
                  Cr                      
                     I   Cr               
            I                             
                    I                     
                          I               
                                          
                                          
                                          
                                          

Positions:
   0 Cr     3.554363    2.053193    9.033752    ( 0.0000,  0.0000,  3.4336)
   1 Cr     0.000687    4.106634    9.034054    ( 0.0000,  0.0000,  3.4336)
   2 I      4.496100   -0.000320    7.551752    ( 0.0000,  0.0000, -0.1299)
   3 I      1.307809    2.264405    7.551692    ( 0.0000,  0.0000, -0.1299)
   4 I     -2.247719    3.893576    7.551460    ( 0.0000,  0.0000, -0.1299)
   5 I      2.613356    0.001293   10.526354    ( 0.0000,  0.0000, -0.1299)
   6 I      2.248524    3.894444   10.526149    ( 0.0000,  0.0000, -0.1299)
   7 I      5.804363    2.263972   10.530009    ( 0.0000,  0.0000, -0.1299)
   8 Cr     2.548411    4.104126   15.762260    ( 0.0000,  0.0000, -3.4336)
   9 Cr     2.550098   -0.000503   15.762562    ( 0.0000,  0.0000, -3.4336)
  10 I      3.491106    2.051398   14.269959    ( 0.0000,  0.0000,  0.1299)
  11 I      0.300574    4.316316   14.270164    ( 0.0000,  0.0000,  0.1299)
  12 I     -3.255265    5.946788   14.266304    ( 0.0000,  0.0000,  0.1299)
  13 I      1.608361    2.053011   17.244562    ( 0.0000,  0.0000,  0.1299)
  14 I      1.241289    5.946355   17.244621    ( 0.0000,  0.0000,  0.1299)
  15 I     -2.313910    4.317184   17.244853    ( 0.0000,  0.0000,  0.1299)

Unit cell:
           periodic     x           y           z      points  spacing
  1. axis:    yes    7.110727   -0.000000    0.000000    42     0.1466
  2. axis:    yes   -3.555363    6.158070    0.000000    42     0.1466
  3. axis:    no     0.000000   -0.000000   27.269192   160     0.1704

  Lengths:   7.110727   7.110727  27.269192
  Angles:   90.000000  90.000000 120.000000

Effective grid spacing dv^(1/3) = 0.1617

                     log10-error:           total        iterations:
           time      wfs    density  force  energy       poisson  magmom
iter:   1  11:19:09  -4.65                 -70.289101             -0.0000
iter:   2  11:19:34  -5.78  -3.58          -70.289079             -0.0000
iter:   3  11:19:58  -5.62  -3.66          -70.289052             -0.0000
iter:   4  11:20:23  -6.85  -3.94          -70.289050             -0.0000
iter:   5  11:20:47  -6.63  -4.00          -70.289046             -0.0000
iter:   6  11:21:12  -6.65  -4.32          -70.289046             +0.0000
iter:   7  11:21:37  -7.36  -4.38          -70.289045             +0.0000
iter:   8  11:22:08  -8.08  -4.69          -70.289045             -0.0000
iter:   9  11:22:41  -8.26  -4.82    -3.01 -70.289045             -0.0000
iter:  10  11:23:14  -8.61  -4.98    -2.96 -70.289045             -0.0000
iter:  11  11:23:47  -8.82  -5.05    -3.55 -70.289045             -0.0000
iter:  12  11:24:20  -8.40  -5.13    -3.16 -70.289045             -0.0000
iter:  13  11:24:52  -8.59  -5.50    -3.86 -70.289045             +0.0000
iter:  14  11:25:25  -8.78  -5.54    -3.80 -70.289045             +0.0000
iter:  15  11:25:58  -8.78  -5.63    -3.43 -70.289045             +0.0000
iter:  16  11:26:31  -9.16  -5.82    -3.87 -70.289045             +0.0000
iter:  17  11:27:04  -9.38  -5.97    -4.67 -70.289045             +0.0000

Converged after 17 iterations.

Dipole moment: (-29.417666, 20.230992, -0.000262) |e|*Ang

Total magnetic moment: (0.000000, 0.000000, 0.000000)
Local magnetic moments:
   0 Cr ( 0.000000,  0.000000,  2.910575)
   1 Cr ( 0.000000,  0.000000,  2.910745)
   2 I  ( 0.000000,  0.000000, -0.047165)
   3 I  ( 0.000000,  0.000000, -0.047264)
   4 I  ( 0.000000,  0.000000, -0.047021)
   5 I  ( 0.000000,  0.000000, -0.047455)
   6 I  ( 0.000000,  0.000000, -0.047594)
   7 I  ( 0.000000,  0.000000, -0.047262)
   8 Cr ( 0.000000,  0.000000, -2.910745)
   9 Cr ( 0.000000,  0.000000, -2.910576)
  10 I  ( 0.000000,  0.000000,  0.047455)
  11 I  ( 0.000000,  0.000000,  0.047594)
  12 I  ( 0.000000,  0.000000,  0.047262)
  13 I  ( 0.000000,  0.000000,  0.047165)
  14 I  ( 0.000000,  0.000000,  0.047264)
  15 I  ( 0.000000,  0.000000,  0.047021)

Energy contributions relative to reference atoms: (reference = -2434708.556191)

Kinetic:        +19.117992
Potential:      -34.361519
External:        +0.000000
XC:             -55.225219
Entropy (-ST):   -0.000000
Local:           +0.179701
--------------------------
Free energy:    -70.289045
Extrapolated:   -70.289045

Spin contamination: 7.123685 electrons
Showing only first 2 kpts
                      Up                     Down
 Kpt  Band  Eigenvalues  Occupancy  Eigenvalues  Occupancy
  0    52     -1.97286    1.00000     -1.97286    1.00000
  0    53     -1.74367    1.00000     -1.74367    1.00000
  0    54     -0.56828    0.00000     -0.56828    0.00000
  0    55     -0.55671    0.00000     -0.55671    0.00000

  1    52     -1.91864    1.00000     -1.91864    1.00000
  1    53     -1.74661    1.00000     -1.74661    1.00000
  1    54     -0.56027    0.00000     -0.56027    0.00000
  1    55     -0.54956    0.00000     -0.54956    0.00000


Fermi level: -1.57223

Gap: 1.148 eV
Transition (v -> c):
  (s=0, k=60, n=53, [0.46, -0.46, 0.00]) -> (s=1, k=57, n=54, [0.38, 0.29, 0.00])

Forces in eV/Ang:
  0 Cr    0.01078    0.00062    0.05864
  1 Cr   -0.00533   -0.00648    0.05971
  2 I    -0.00686    0.00337    0.00853
  3 I     0.00184    0.00874    0.00755
  4 I     0.00630   -0.00833    0.01027
  5 I     0.01266    0.00077    0.04002
  6 I    -0.00699   -0.00965    0.04164
  7 I    -0.01340    0.02216    0.02802
  8 Cr    0.00533    0.00648   -0.05972
  9 Cr   -0.01078   -0.00062   -0.05865
 10 I    -0.01266   -0.00078   -0.04001
 11 I     0.00699    0.00965   -0.04164
 12 I     0.01340   -0.02216   -0.02802
 13 I     0.00686   -0.00337   -0.00853
 14 I    -0.00185   -0.00874   -0.00755
 15 I    -0.00630    0.00833   -0.01026

System changes: positions 

Initializing position-dependent things.

Density initialized from wave functions
                                          
                                          
                                          
                                          
                      I                   
            I                             
                    I                     
           I            Cr                
                  I                       
                     Cr                   
                         I                
                                          
                                          
                       I                  
                               I          
                  Cr                      
                     I   Cr               
            I                             
                    I                     
                          I               
                                          
                                          
                                          
                                          

Positions:
   0 Cr     3.555560    2.053266    9.040087    ( 0.0000,  0.0000,  3.4336)
   1 Cr     0.000089    4.105914    9.040507    ( 0.0000,  0.0000,  3.4336)
   2 I      4.493962    0.000049    7.555229    ( 0.0000,  0.0000, -0.1299)
   3 I      1.308694    2.266550    7.555060    ( 0.0000,  0.0000, -0.1299)
   4 I     -2.246334    3.891447    7.555167    ( 0.0000,  0.0000, -0.1299)
   5 I      2.616160    0.001390   10.527711    ( 0.0000,  0.0000, -0.1299)
   6 I      2.247054    3.892145   10.527673    ( 0.0000,  0.0000, -0.1299)
   7 I      5.802211    2.267610   10.530122    ( 0.0000,  0.0000, -0.1299)
   8 Cr     2.549009    4.104846   15.755807    ( 0.0000,  0.0000, -3.4336)
   9 Cr     2.548901   -0.000576   15.756226    ( 0.0000,  0.0000, -3.4336)
  10 I      3.488301    2.051300   14.268602    ( 0.0000,  0.0000,  0.1299)
  11 I      0.302044    4.318616   14.268640    ( 0.0000,  0.0000,  0.1299)
  12 I     -3.253113    5.943150   14.266191    ( 0.0000,  0.0000,  0.1299)
  13 I      1.610499    2.052641   17.241085    ( 0.0000,  0.0000,  0.1299)
  14 I      1.240404    5.944211   17.241254    ( 0.0000,  0.0000,  0.1299)
  15 I     -2.315295    4.319313   17.241146    ( 0.0000,  0.0000,  0.1299)

Unit cell:
           periodic     x           y           z      points  spacing
  1. axis:    yes    7.110727   -0.000000    0.000000    42     0.1466
  2. axis:    yes   -3.555363    6.158070    0.000000    42     0.1466
  3. axis:    no     0.000000   -0.000000   27.269192   160     0.1704

  Lengths:   7.110727   7.110727  27.269192
  Angles:   90.000000  90.000000 120.000000

Effective grid spacing dv^(1/3) = 0.1617

                     log10-error:           total        iterations:
           time      wfs    density  force  energy       poisson  magmom
iter:   1  11:27:44  -3.32                 -70.291877             -0.0000
iter:   2  11:28:09  -4.46  -2.95          -70.291440             -0.0000
iter:   3  11:28:33  -4.21  -3.04          -70.290923             -0.0000
iter:   4  11:28:58  -5.49  -3.30          -70.290876             -0.0000
iter:   5  11:29:22  -5.22  -3.36          -70.290807             -0.0000
iter:   6  11:29:47  -5.34  -3.69          -70.290805             +0.0000
iter:   7  11:30:11  -6.04  -3.75          -70.290794             +0.0000
iter:   8  11:30:36  -6.56  -4.06          -70.290792             +0.0000
iter:   9  11:31:00  -6.93  -4.18          -70.290791             +0.0000
iter:  10  11:31:25  -7.14  -4.33          -70.290790             +0.0000
iter:  11  11:31:50  -7.34  -4.47          -70.290790             +0.0000
iter:  12  11:32:14  -7.14  -4.59          -70.290790             +0.0000
iter:  13  11:32:39  -7.38  -4.81          -70.290790             +0.0000
iter:  14  11:33:11  -7.65  -4.84          -70.290790             -0.0000
iter:  15  11:33:43  -7.83  -4.96    -2.79 -70.290790             -0.0000
iter:  16  11:34:16  -8.15  -5.13    -3.65 -70.290790             -0.0000
iter:  17  11:34:49  -8.35  -5.15    -4.04 -70.290790             -0.0000

Converged after 17 iterations.

Dipole moment: (-29.514795, 20.393249, -0.000261) |e|*Ang

Total magnetic moment: (0.000000, 0.000000, -0.000000)
Local magnetic moments:
   0 Cr ( 0.000000,  0.000000,  2.908538)
   1 Cr ( 0.000000,  0.000000,  2.908678)
   2 I  ( 0.000000,  0.000000, -0.047210)
   3 I  ( 0.000000,  0.000000, -0.047320)
   4 I  ( 0.000000,  0.000000, -0.047034)
   5 I  ( 0.000000,  0.000000, -0.046808)
   6 I  ( 0.000000,  0.000000, -0.046962)
   7 I  ( 0.000000,  0.000000, -0.046475)
   8 Cr ( 0.000000,  0.000000, -2.908678)
   9 Cr ( 0.000000,  0.000000, -2.908538)
  10 I  ( 0.000000,  0.000000,  0.046808)
  11 I  ( 0.000000,  0.000000,  0.046962)
  12 I  ( 0.000000,  0.000000,  0.046475)
  13 I  ( 0.000000,  0.000000,  0.047210)
  14 I  ( 0.000000,  0.000000,  0.047320)
  15 I  ( 0.000000,  0.000000,  0.047034)

Energy contributions relative to reference atoms: (reference = -2434708.556191)

Kinetic:        +20.179629
Potential:      -35.234561
External:        +0.000000
XC:             -55.414975
Entropy (-ST):   -0.000000
Local:           +0.179116
--------------------------
Free energy:    -70.290790
Extrapolated:   -70.290790

Spin contamination: 7.117772 electrons
Showing only first 2 kpts
                      Up                     Down
 Kpt  Band  Eigenvalues  Occupancy  Eigenvalues  Occupancy
  0    52     -1.96966    1.00000     -1.96966    1.00000
  0    53     -1.74119    1.00000     -1.74119    1.00000
  0    54     -0.56471    0.00000     -0.56471    0.00000
  0    55     -0.55282    0.00000     -0.55282    0.00000

  1    52     -1.91524    1.00000     -1.91524    1.00000
  1    53     -1.74431    1.00000     -1.74431    1.00000
  1    54     -0.55511    0.00000     -0.55511    0.00000
  1    55     -0.54681    0.00000     -0.54681    0.00000


Fermi level: -1.57223

Gap: 1.150 eV
Transition (v -> c):
  (s=0, k=60, n=53, [0.46, -0.46, 0.00]) -> (s=1, k=57, n=54, [0.38, 0.29, 0.00])

Forces in eV/Ang:
  0 Cr   -0.00315    0.00070    0.01633
  1 Cr    0.00237    0.00314    0.01684
  2 I    -0.00305   -0.00052    0.00988
  3 I     0.00337    0.00418    0.00989
  4 I     0.00206   -0.00158    0.00565
  5 I    -0.00218    0.00146    0.06518
  6 I     0.00037    0.00253    0.06576
  7 I    -0.00073    0.00140    0.06559
  8 Cr   -0.00237   -0.00314   -0.01684
  9 Cr    0.00315   -0.00070   -0.01632
 10 I     0.00218   -0.00146   -0.06518
 11 I    -0.00037   -0.00253   -0.06576
 12 I     0.00073   -0.00140   -0.06559
 13 I     0.00305    0.00051   -0.00988
 14 I    -0.00337   -0.00418   -0.00989
 15 I    -0.00206    0.00158   -0.00565

System changes: positions 

Initializing position-dependent things.

Density initialized from wave functions
                                          
                                          
                                          
                                          
                      I                   
            I                             
                    I                     
           I            Cr                
                  I                       
                     Cr                   
                         I                
                                          
                                          
                       I                  
                               I          
                  Cr                      
                      I  Cr               
            I                             
                    I                     
                          I               
                                          
                                          
                                          
                                          

Positions:
   0 Cr     3.556794    2.053350    9.047162    ( 0.0000,  0.0000,  3.4336)
   1 Cr    -0.000515    4.105188    9.047714    ( 0.0000,  0.0000,  3.4336)
   2 I      4.492480    0.000439    7.557516    ( 0.0000,  0.0000, -0.1299)
   3 I      1.309267    2.268176    7.557231    ( 0.0000,  0.0000, -0.1299)
   4 I     -2.245248    3.889889    7.557624    ( 0.0000,  0.0000, -0.1299)
   5 I      2.618273    0.001505   10.531833    ( 0.0000,  0.0000, -0.1299)
   6 I      2.245914    3.890470   10.531987    ( 0.0000,  0.0000, -0.1299)
   7 I      5.800314    2.270786   10.532873    ( 0.0000,  0.0000, -0.1299)
   8 Cr     2.549613    4.105573   15.748600    ( 0.0000,  0.0000, -3.4336)
   9 Cr     2.547668   -0.000660   15.749152    ( 0.0000,  0.0000, -3.4336)
  10 I      3.486188    2.051185   14.264481    ( 0.0000,  0.0000,  0.1299)
  11 I      0.303184    4.320290   14.264327    ( 0.0000,  0.0000,  0.1299)
  12 I     -3.251216    5.939974   14.263441    ( 0.0000,  0.0000,  0.1299)
  13 I      1.611981    2.052250   17.238798    ( 0.0000,  0.0000,  0.1299)
  14 I      1.239831    5.942585   17.239083    ( 0.0000,  0.0000,  0.1299)
  15 I     -2.316380    4.320871   17.238690    ( 0.0000,  0.0000,  0.1299)

Unit cell:
           periodic     x           y           z      points  spacing
  1. axis:    yes    7.110727   -0.000000    0.000000    42     0.1466
  2. axis:    yes   -3.555363    6.158070    0.000000    42     0.1466
  3. axis:    no     0.000000   -0.000000   27.269192   160     0.1704

  Lengths:   7.110727   7.110727  27.269192
  Angles:   90.000000  90.000000 120.000000

Effective grid spacing dv^(1/3) = 0.1617

                     log10-error:           total        iterations:
           time      wfs    density  force  energy       poisson  magmom
iter:   1  11:35:29  -3.22                 -70.293300             -0.0000
iter:   2  11:35:54  -4.35  -2.97          -70.292957             -0.0000
iter:   3  11:36:18  -4.20  -3.05          -70.292496             -0.0000
iter:   4  11:36:43  -5.39  -3.29          -70.292445             -0.0000
iter:   5  11:37:08  -5.14  -3.34          -70.292379             -0.0000
iter:   6  11:37:32  -5.35  -3.67          -70.292373             -0.0000
iter:   7  11:37:57  -5.92  -3.75          -70.292362             -0.0000
iter:   8  11:38:21  -6.47  -4.05          -70.292361             -0.0000
iter:   9  11:38:46  -6.76  -4.20          -70.292360             -0.0000
iter:  10  11:39:10  -6.71  -4.33          -70.292360             -0.0000
iter:  11  11:39:35  -6.98  -4.62          -70.292360             -0.0000
iter:  12  11:39:59  -7.17  -4.72          -70.292360             -0.0000
iter:  13  11:40:31  -7.56  -4.80          -70.292360             +0.0000
iter:  14  11:41:04  -7.83  -4.86    -2.78 -70.292360             +0.0000
iter:  15  11:41:37  -7.89  -4.99    -3.25 -70.292360             +0.0000
iter:  16  11:42:09  -8.10  -5.16    -2.94 -70.292360             +0.0000
iter:  17  11:42:42  -8.21  -5.43    -3.39 -70.292360             +0.0000
iter:  18  11:43:15  -8.29  -5.58    -4.17 -70.292360             +0.0000

Converged after 18 iterations.

Dipole moment: (-29.590690, 20.519506, -0.000263) |e|*Ang

Total magnetic moment: (0.000000, 0.000000, 0.000000)
Local magnetic moments:
   0 Cr ( 0.000000,  0.000000,  2.908028)
   1 Cr ( 0.000000,  0.000000,  2.908131)
   2 I  ( 0.000000,  0.000000, -0.047507)
   3 I  ( 0.000000,  0.000000, -0.047627)
   4 I  ( 0.000000,  0.000000, -0.047307)
   5 I  ( 0.000000,  0.000000, -0.046408)
   6 I  ( 0.000000,  0.000000, -0.046579)
   7 I  ( 0.000000,  0.000000, -0.045915)
   8 Cr ( 0.000000,  0.000000, -2.908131)
   9 Cr ( 0.000000,  0.000000, -2.908028)
  10 I  ( 0.000000,  0.000000,  0.046408)
  11 I  ( 0.000000,  0.000000,  0.046579)
  12 I  ( 0.000000,  0.000000,  0.045915)
  13 I  ( 0.000000,  0.000000,  0.047507)
  14 I  ( 0.000000,  0.000000,  0.047627)
  15 I  ( 0.000000,  0.000000,  0.047307)

Energy contributions relative to reference atoms: (reference = -2434708.556191)

Kinetic:        +20.422040
Potential:      -35.433773
External:        +0.000000
XC:             -55.461567
Entropy (-ST):   -0.000000
Local:           +0.180941
--------------------------
Free energy:    -70.292360
Extrapolated:   -70.292360

Spin contamination: 7.116241 electrons
Showing only first 2 kpts
                      Up                     Down
 Kpt  Band  Eigenvalues  Occupancy  Eigenvalues  Occupancy
  0    52     -1.96821    1.00000     -1.96821    1.00000
  0    53     -1.74131    1.00000     -1.74131    1.00000
  0    54     -0.56593    0.00000     -0.56593    0.00000
  0    55     -0.55294    0.00000     -0.55294    0.00000

  1    52     -1.91399    1.00000     -1.91399    1.00000
  1    53     -1.74446    1.00000     -1.74446    1.00000
  1    54     -0.55494    0.00000     -0.55494    0.00000
  1    55     -0.54823    0.00000     -0.54823    0.00000


Fermi level: -1.57223

Gap: 1.151 eV
Transition (v -> c):
  (s=1, k=54, n=53, [0.38, 0.04, 0.00]) -> (s=0, k=57, n=54, [0.38, 0.29, 0.00])

Forces in eV/Ang:
  0 Cr   -0.01759    0.00099   -0.02580
  1 Cr    0.01017    0.01321   -0.02589
  2 I    -0.00533   -0.00412    0.02490
  3 I     0.00771    0.00495    0.02585
  4 I     0.00094   -0.00032    0.01500
  5 I    -0.00950    0.00224    0.07493
  6 I     0.00405    0.00809    0.07434
  7 I     0.00865   -0.01335    0.08898
  8 Cr   -0.01017   -0.01321    0.02589
  9 Cr    0.01759   -0.00099    0.02581
 10 I     0.00950   -0.00224   -0.07493
 11 I    -0.00405   -0.00809   -0.07435
 12 I    -0.00865    0.01335   -0.08898
 13 I     0.00533    0.00413   -0.02491
 14 I    -0.00770   -0.00495   -0.02585
 15 I    -0.00094    0.00032   -0.01500

System changes: positions 

Initializing position-dependent things.

Density initialized from wave functions
                                          
                                          
                                          
                                          
                      I                   
            I                             
                    I                     
           I            Cr                
                  I                       
                     Cr                   
                         I                
                                          
                                          
                       I                  
                               I          
                  Cr                      
                      I  Cr               
            I                             
                    I                     
                          I               
                                          
                                          
                                          
                                          

Positions:
   0 Cr     3.558204    2.053487    9.056712    ( 0.0000,  0.0000,  3.4336)
   1 Cr    -0.001179    4.104408    9.057447    ( 0.0000,  0.0000,  3.4336)
   2 I      4.490882    0.000919    7.560132    ( 0.0000,  0.0000, -0.1299)
   3 I      1.309920    2.270054    7.559701    ( 0.0000,  0.0000, -0.1299)
   4 I     -2.243996    3.888198    7.560288    ( 0.0000,  0.0000, -0.1299)
   5 I      2.620502    0.001701   10.540167    ( 0.0000,  0.0000, -0.1299)
   6 I      2.244668    3.888762   10.540586    ( 0.0000,  0.0000, -0.1299)
   7 I      5.798083    2.274518   10.539511    ( 0.0000,  0.0000, -0.1299)
   8 Cr     2.550277    4.106352   15.738866    ( 0.0000,  0.0000, -3.4336)
   9 Cr     2.546257   -0.000797   15.739601    ( 0.0000,  0.0000, -3.4336)
  10 I      3.483959    2.050989   14.256147    ( 0.0000,  0.0000,  0.1299)
  11 I      0.304430    4.321999   14.255729    ( 0.0000,  0.0000,  0.1299)
  12 I     -3.248984    5.936242   14.256803    ( 0.0000,  0.0000,  0.1299)
  13 I      1.613579    2.051770   17.236182    ( 0.0000,  0.0000,  0.1299)
  14 I      1.239178    5.940707   17.236614    ( 0.0000,  0.0000,  0.1299)
  15 I     -2.317632    4.322562   17.236026    ( 0.0000,  0.0000,  0.1299)

Unit cell:
           periodic     x           y           z      points  spacing
  1. axis:    yes    7.110727   -0.000000    0.000000    42     0.1466
  2. axis:    yes   -3.555363    6.158070    0.000000    42     0.1466
  3. axis:    no     0.000000   -0.000000   27.269192   160     0.1704

  Lengths:   7.110727   7.110727  27.269192
  Angles:   90.000000  90.000000 120.000000

Effective grid spacing dv^(1/3) = 0.1617

                     log10-error:           total        iterations:
           time      wfs    density  force  energy       poisson  magmom
iter:   1  11:43:56  -2.98                 -70.295238             +0.0000
iter:   2  11:44:20  -4.10  -2.95          -70.295036             +0.0000
iter:   3  11:44:45  -4.21  -3.00          -70.294586             +0.0000
iter:   4  11:45:09  -5.24  -3.21          -70.294524             +0.0000
iter:   5  11:45:34  -4.97  -3.27          -70.294450             +0.0000
iter:   6  11:45:58  -5.19  -3.57          -70.294435             +0.0000
iter:   7  11:46:23  -5.72  -3.67          -70.294418             +0.0000
iter:   8  11:46:47  -6.35  -4.02          -70.294417             +0.0000
iter:   9  11:47:12  -6.23  -4.13          -70.294418             +0.0000
iter:  10  11:47:36  -6.25  -4.15          -70.294417             +0.0000
iter:  11  11:48:01  -6.78  -4.61          -70.294417             +0.0000
iter:  12  11:48:26  -6.94  -4.69          -70.294417             +0.0000
iter:  13  11:48:50  -7.12  -4.72          -70.294417             -0.0000
iter:  14  11:49:15  -7.32  -4.76          -70.294417             -0.0000
iter:  15  11:49:39  -7.29  -4.84          -70.294417             -0.0000
iter:  16  11:50:11  -7.53  -4.77          -70.294417             -0.0000
iter:  17  11:50:44  -7.69  -5.11    -3.11 -70.294417             -0.0000
iter:  18  11:51:17  -7.88  -5.48    -3.31 -70.294417             +0.0000
iter:  19  11:51:50  -8.04  -5.59    -3.85 -70.294417             +0.0000
iter:  20  11:52:23  -8.21  -5.72    -4.00 -70.294417             +0.0000
iter:  21  11:52:55  -8.30  -5.87    -3.98 -70.294417             +0.0000
iter:  22  11:53:28  -8.39  -5.95    -4.04 -70.294417             +0.0000

Converged after 22 iterations.

Dipole moment: (-29.675927, 20.660274, -0.000263) |e|*Ang

Total magnetic moment: (0.000000, 0.000000, 0.000000)
Local magnetic moments:
   0 Cr ( 0.000000,  0.000000,  2.908624)
   1 Cr ( 0.000000,  0.000000,  2.908675)
   2 I  ( 0.000000,  0.000000, -0.048017)
   3 I  ( 0.000000,  0.000000, -0.048143)
   4 I  ( 0.000000,  0.000000, -0.047804)
   5 I  ( 0.000000,  0.000000, -0.046157)
   6 I  ( 0.000000,  0.000000, -0.046353)
   7 I  ( 0.000000,  0.000000, -0.045464)
   8 Cr ( 0.000000,  0.000000, -2.908675)
   9 Cr ( 0.000000,  0.000000, -2.908623)
  10 I  ( 0.000000,  0.000000,  0.046157)
  11 I  ( 0.000000,  0.000000,  0.046353)
  12 I  ( 0.000000,  0.000000,  0.045464)
  13 I  ( 0.000000,  0.000000,  0.048017)
  14 I  ( 0.000000,  0.000000,  0.048144)
  15 I  ( 0.000000,  0.000000,  0.047804)

Energy contributions relative to reference atoms: (reference = -2434708.556191)

Kinetic:        +20.052738
Potential:      -35.122519
External:        +0.000000
XC:             -55.405191
Entropy (-ST):   -0.000000
Local:           +0.180555
--------------------------
Free energy:    -70.294417
Extrapolated:   -70.294417

Spin contamination: 7.117761 electrons
Showing only first 2 kpts
                      Up                     Down
 Kpt  Band  Eigenvalues  Occupancy  Eigenvalues  Occupancy
  0    52     -1.96744    1.00000     -1.96744    1.00000
  0    53     -1.74303    1.00000     -1.74303    1.00000
  0    54     -0.57094    0.00000     -0.57094    0.00000
  0    55     -0.55606    0.00000     -0.55606    0.00000

  1    52     -1.91374    1.00000     -1.91374    1.00000
  1    53     -1.74606    1.00000     -1.74606    1.00000
  1    54     -0.55884    0.00000     -0.55884    0.00000
  1    55     -0.55259    0.00000     -0.55259    0.00000


Fermi level: -1.57223

Gap: 1.149 eV
Transition (v -> c):
  (s=1, k=54, n=53, [0.38, 0.04, 0.00]) -> (s=0, k=57, n=54, [0.38, 0.29, 0.00])

Forces in eV/Ang:
  0 Cr   -0.03482    0.00170   -0.07199
  1 Cr    0.01912    0.02543   -0.07283
  2 I    -0.01221   -0.00790    0.05299
  3 I     0.01447    0.00958    0.05491
  4 I     0.00203   -0.00312    0.03707
  5 I    -0.01297    0.00312    0.07310
  6 I     0.00607    0.01008    0.07107
  7 I     0.01767   -0.02678    0.10464
  8 Cr   -0.01912   -0.02543    0.07284
  9 Cr    0.03482   -0.00170    0.07200
 10 I     0.01297   -0.00312   -0.07310
 11 I    -0.00607   -0.01009   -0.07107
 12 I    -0.01767    0.02678   -0.10464
 13 I     0.01221    0.00790   -0.05299
 14 I    -0.01447   -0.00958   -0.05491
 15 I    -0.00204    0.00312   -0.03708

System changes: positions 

Initializing position-dependent things.

Density initialized from wave functions
                                          
                                          
                                          
                                          
                      I                   
            I                             
                    I                     
           I            Cr                
                  I                       
                     Cr                   
                         I                
                                          
                                          
                       I                  
                               I          
                  Cr                      
                      I  Cr               
            I                             
                    I                     
                          I               
                                          
                                          
                                          
                                          

Positions:
   0 Cr     3.559293    2.053693    9.067281    ( 0.0000,  0.0000,  3.4336)
   1 Cr    -0.001642    4.103926    9.068225    ( 0.0000,  0.0000,  3.4336)
   2 I      4.488851    0.001372    7.564074    ( 0.0000,  0.0000, -0.1299)
   3 I      1.310908    2.272412    7.563495    ( 0.0000,  0.0000, -0.1299)
   4 I     -2.242492    3.886196    7.563989    ( 0.0000,  0.0000, -0.1299)
   5 I      2.622850    0.002001   10.552280    ( 0.0000,  0.0000, -0.1299)
   6 I      2.243325    3.886985   10.552988    ( 0.0000,  0.0000, -0.1299)
   7 I      5.795735    2.278493   10.550116    ( 0.0000,  0.0000, -0.1299)
   8 Cr     2.550740    4.106834   15.728087    ( 0.0000,  0.0000, -3.4336)
   9 Cr     2.545169   -0.001003   15.729032    ( 0.0000,  0.0000, -3.4336)
  10 I      3.481611    2.050688   14.244034    ( 0.0000,  0.0000,  0.1299)
  11 I      0.305772    4.323776   14.243326    ( 0.0000,  0.0000,  0.1299)
  12 I     -3.246636    5.932267   14.246199    ( 0.0000,  0.0000,  0.1299)
  13 I      1.615609    2.051317   17.232241    ( 0.0000,  0.0000,  0.1299)
  14 I      1.238189    5.938349   17.232819    ( 0.0000,  0.0000,  0.1299)
  15 I     -2.319136    4.324564   17.232326    ( 0.0000,  0.0000,  0.1299)

Unit cell:
           periodic     x           y           z      points  spacing
  1. axis:    yes    7.110727   -0.000000    0.000000    42     0.1466
  2. axis:    yes   -3.555363    6.158070    0.000000    42     0.1466
  3. axis:    no     0.000000   -0.000000   27.269192   160     0.1704

  Lengths:   7.110727   7.110727  27.269192
  Angles:   90.000000  90.000000 120.000000

Effective grid spacing dv^(1/3) = 0.1617

                     log10-error:           total        iterations:
           time      wfs    density  force  energy       poisson  magmom
iter:   1  11:54:09  -2.91                 -70.297196             +0.0000
iter:   2  11:54:33  -4.00  -3.05          -70.297343             +0.0000
iter:   3  11:54:58  -4.59  -3.07          -70.297133             -0.0000
iter:   4  11:55:22  -5.01  -3.32          -70.297110             +0.0000
iter:   5  11:55:47  -5.36  -3.47          -70.297087             +0.0000
iter:   6  11:56:11  -5.58  -3.68          -70.297089             +0.0000
iter:   7  11:56:36  -5.87  -3.78          -70.297076             +0.0000
iter:   8  11:57:00  -6.12  -4.12          -70.297076             +0.0000
iter:   9  11:57:25  -6.52  -4.21          -70.297076             +0.0000
iter:  10  11:57:49  -6.52  -4.37          -70.297077             +0.0000
iter:  11  11:58:14  -6.85  -4.57          -70.297077             -0.0000
iter:  12  11:58:38  -7.06  -4.63          -70.297077             -0.0000
iter:  13  11:59:03  -7.21  -4.67          -70.297077             -0.0000
iter:  14  11:59:35  -7.44  -4.82          -70.297077             -0.0000
iter:  15  12:00:08  -7.65  -5.00    -3.06 -70.297077             -0.0000
iter:  16  12:00:41  -7.84  -5.36    -3.95 -70.297077             -0.0000
iter:  17  12:01:14  -7.94  -5.36    -4.21 -70.297077             -0.0000

Converged after 17 iterations.

Dipole moment: (-29.772028, 20.817504, -0.000263) |e|*Ang

Total magnetic moment: (0.000000, 0.000000, -0.000000)
Local magnetic moments:
   0 Cr ( 0.000000,  0.000000,  2.909934)
   1 Cr ( 0.000000,  0.000000,  2.909929)
   2 I  ( 0.000000,  0.000000, -0.048502)
   3 I  ( 0.000000,  0.000000, -0.048630)
   4 I  ( 0.000000,  0.000000, -0.048312)
   5 I  ( 0.000000,  0.000000, -0.046119)
   6 I  ( 0.000000,  0.000000, -0.046340)
   7 I  ( 0.000000,  0.000000, -0.045257)
   8 Cr ( 0.000000,  0.000000, -2.909930)
   9 Cr ( 0.000000,  0.000000, -2.909933)
  10 I  ( 0.000000,  0.000000,  0.046119)
  11 I  ( 0.000000,  0.000000,  0.046339)
  12 I  ( 0.000000,  0.000000,  0.045257)
  13 I  ( 0.000000,  0.000000,  0.048502)
  14 I  ( 0.000000,  0.000000,  0.048630)
  15 I  ( 0.000000,  0.000000,  0.048312)

Energy contributions relative to reference atoms: (reference = -2434708.556191)

Kinetic:        +19.316418
Potential:      -34.504161
External:        +0.000000
XC:             -55.289046
Entropy (-ST):   -0.000000
Local:           +0.179712
--------------------------
Free energy:    -70.297077
Extrapolated:   -70.297077

Spin contamination: 7.121387 electrons
Showing only first 2 kpts
                      Up                     Down
 Kpt  Band  Eigenvalues  Occupancy  Eigenvalues  Occupancy
  0    52     -1.96666    1.00000     -1.96666    1.00000
  0    53     -1.74481    1.00000     -1.74481    1.00000
  0    54     -0.57708    0.00000     -0.57708    0.00000
  0    55     -0.56064    0.00000     -0.56064    0.00000

  1    52     -1.91349    1.00000     -1.91348    1.00000
  1    53     -1.74761    1.00000     -1.74761    1.00000
  1    54     -0.56451    0.00000     -0.56451    0.00000
  1    55     -0.55795    0.00000     -0.55795    0.00000


Fermi level: -1.57223

Gap: 1.145 eV
Transition (v -> c):
  (s=1, k=54, n=53, [0.38, 0.04, 0.00]) -> (s=0, k=57, n=54, [0.38, 0.29, 0.00])

Forces in eV/Ang:
  0 Cr   -0.04846    0.00283   -0.10215
  1 Cr    0.02562    0.03538   -0.10374
  2 I    -0.01853   -0.01073    0.08289
  3 I     0.02008    0.01392    0.08555
  4 I     0.00310   -0.00590    0.06271
  5 I    -0.01221    0.00418    0.05867
  6 I     0.00599    0.00852    0.05526
  7 I     0.02399   -0.03521    0.10663
  8 Cr   -0.02562   -0.03538    0.10376
  9 Cr    0.04846   -0.00283    0.10217
 10 I     0.01221   -0.00417   -0.05868
 11 I    -0.00599   -0.00852   -0.05526
 12 I    -0.02399    0.03521   -0.10664
 13 I     0.01854    0.01073   -0.08290
 14 I    -0.02007   -0.01393   -0.08556
 15 I    -0.00311    0.00590   -0.06272

System changes: positions 

Initializing position-dependent things.

Density initialized from wave functions
                                          
                                          
                                          
                                          
                      I                   
            I                             
                    I                     
           I            Cr                
                  I                       
                     Cr                   
                         I                
                                          
                                          
                       I                  
                               I          
                  Cr                      
                      I  Cr               
            I                             
                    I                     
                          I               
                                          
                                          
                                          
                                          

Positions:
   0 Cr     3.560335    2.054169    9.085765    ( 0.0000,  0.0000,  3.4336)
   1 Cr    -0.001979    4.103784    9.087086    ( 0.0000,  0.0000,  3.4336)
   2 I      4.484064    0.002017    7.574455    ( 0.0000,  0.0000, -0.1299)
   3 I      1.313492    2.277682    7.573648    ( 0.0000,  0.0000, -0.1299)
[...]
  0    52     -1.91371    1.00000     -1.91372    1.00000
  0    53     -1.73130    1.00000     -1.73131    1.00000
  0    54     -0.55117    0.00000     -0.55117    0.00000
  0    55     -0.53861    0.00000     -0.53862    0.00000

  1    52     -1.85230    1.00000     -1.85231    1.00000
  1    53     -1.73799    1.00000     -1.73800    1.00000
  1    54     -0.54835    0.00000     -0.54835    0.00000
  1    55     -0.52907    0.00000     -0.52908    0.00000


Fermi level: -1.57223

Gap: 1.148 eV
Transition (v -> c):
  (s=0, k=60, n=53, [0.46, -0.46, 0.00]) -> (s=1, k=5, n=54, [0.04, -0.04, 0.00])

Forces in eV/Ang:
  0 Cr    0.00091   -0.00029    0.00076
  1 Cr   -0.00076    0.00064   -0.00068
  2 I    -0.00053   -0.00059    0.00065
  3 I    -0.00005    0.00064    0.00020
  4 I    -0.00028    0.00065   -0.00126
  5 I    -0.00029    0.00089   -0.00030
  6 I     0.00067   -0.00026    0.00019
  7 I    -0.00048   -0.00037    0.00020
  8 Cr    0.00075   -0.00065    0.00054
  9 Cr   -0.00090    0.00029   -0.00089
 10 I     0.00028   -0.00089    0.00035
 11 I    -0.00065    0.00028   -0.00015
 12 I     0.00048    0.00035   -0.00016
 13 I     0.00051    0.00060   -0.00060
 14 I     0.00006   -0.00063   -0.00015
 15 I     0.00029   -0.00067    0.00131

System changes: positions 

Initializing position-dependent things.

Density initialized from wave functions
                                          
                                          
                                          
                                          
                      I                   
            I                             
                    I                     
           I            Cr                
                  I                       
                     Cr                   
                         I                
                                          
                       I                  
                               I          
                  Cr                      
                      I  Cr               
            I                             
                    I                     
                          I               
                                          
                                          
                                          
                                          

Positions:
   0 Cr     3.613332    2.119981    9.277181    ( 0.0000,  0.0000,  3.4336)
   1 Cr     0.054648    4.171408    9.277400    ( 0.0000,  0.0000,  3.4336)
   2 I      4.553709    0.064806    7.796703    ( 0.0000,  0.0000, -0.1299)
   3 I      1.366773    2.331557    7.794674    ( 0.0000,  0.0000, -0.1299)
   4 I     -2.185642    3.948938    7.787541    ( 0.0000,  0.0000, -0.1299)
   5 I      2.659551    0.068212   10.751941    ( 0.0000,  0.0000, -0.1299)
   6 I      2.308221    3.968116   10.753660    ( 0.0000,  0.0000, -0.1299)
   7 I      5.852857    2.342070   10.785454    ( 0.0000,  0.0000, -0.1299)
   8 Cr     2.494448    4.039351   15.518828    ( 0.0000,  0.0000, -3.4336)
   9 Cr     2.491133   -0.067290   15.519047    ( 0.0000,  0.0000, -3.4336)
  10 I      3.444905    1.984485   14.044346    ( 0.0000,  0.0000,  0.1299)
  11 I      0.240888    4.242647   14.042630    ( 0.0000,  0.0000,  0.1299)
  12 I     -3.303762    5.868683   14.010833    ( 0.0000,  0.0000,  0.1299)
  13 I      1.550746    1.987891   16.999585    ( 0.0000,  0.0000,  0.1299)
  14 I      1.182333    5.879206   17.001614    ( 0.0000,  0.0000,  0.1299)
  15 I     -2.375989    4.261814   17.008748    ( 0.0000,  0.0000,  0.1299)

Unit cell:
           periodic     x           y           z      points  spacing
  1. axis:    yes    7.110727   -0.000000    0.000000    42     0.1466
  2. axis:    yes   -3.555363    6.158070    0.000000    42     0.1466
  3. axis:    no     0.000000   -0.000000   27.269192   160     0.1704

  Lengths:   7.110727   7.110727  27.269192
  Angles:   90.000000  90.000000 120.000000

Effective grid spacing dv^(1/3) = 0.1617

                     log10-error:           total        iterations:
           time      wfs    density  force  energy       poisson  magmom
iter:   1  19:55:21  -3.51                 -70.372555             -0.0000
iter:   2  19:55:45  -4.60  -3.33          -70.372562             -0.0000
iter:   3  19:56:10  -5.07  -3.36          -70.372491             -0.0000
iter:   4  19:56:34  -5.87  -3.59          -70.372479             -0.0000
iter:   5  19:56:59  -6.00  -3.69          -70.372466             -0.0000
iter:   6  19:57:24  -6.42  -4.03          -70.372466             -0.0000
iter:   7  19:57:48  -6.69  -4.08          -70.372464             -0.0000
iter:   8  19:58:13  -6.44  -4.24          -70.372465             -0.0000
iter:   9  19:58:37  -6.79  -4.38          -70.372464             -0.0000
iter:  10  19:59:02  -7.20  -4.69          -70.372464             -0.0000
iter:  11  19:59:27  -7.35  -4.73          -70.372464             +0.0000
iter:  12  19:59:59  -7.62  -4.81          -70.372464             +0.0000
iter:  13  20:00:32  -7.95  -5.04    -3.35 -70.372464             +0.0000
iter:  14  20:01:04  -8.23  -5.31    -3.45 -70.372464             +0.0000
iter:  15  20:01:37  -8.44  -5.31    -3.98 -70.372464             -0.0000
iter:  16  20:02:10  -8.59  -5.36    -3.37 -70.372464             -0.0000
iter:  17  20:02:43  -8.69  -5.52    -3.74 -70.372464             -0.0000
iter:  18  20:03:16  -8.86  -5.57    -3.93 -70.372464             -0.0000
iter:  19  20:03:49  -9.01  -5.60    -4.15 -70.372464             +0.0000

Converged after 19 iterations.

Dipole moment: (-29.729897, 18.557082, -0.000307) |e|*Ang

Total magnetic moment: (0.000000, 0.000000, 0.000000)
Local magnetic moments:
   0 Cr ( 0.000000,  0.000000,  2.907125)
   1 Cr ( 0.000000,  0.000000,  2.908107)
   2 I  ( 0.000000,  0.000000, -0.046855)
   3 I  ( 0.000000,  0.000000, -0.046883)
   4 I  ( 0.000000,  0.000000, -0.045838)
   5 I  ( 0.000000,  0.000000, -0.044601)
   6 I  ( 0.000000,  0.000000, -0.044636)
   7 I  ( 0.000000,  0.000000, -0.044041)
   8 Cr ( 0.000000,  0.000000, -2.908099)
   9 Cr ( 0.000000,  0.000000, -2.907132)
  10 I  ( 0.000000,  0.000000,  0.044595)
  11 I  ( 0.000000,  0.000000,  0.044630)
  12 I  ( 0.000000,  0.000000,  0.044036)
  13 I  ( 0.000000,  0.000000,  0.046860)
  14 I  ( 0.000000,  0.000000,  0.046888)
  15 I  ( 0.000000,  0.000000,  0.045843)

Energy contributions relative to reference atoms: (reference = -2434708.556191)

Kinetic:        +22.974582
Potential:      -37.074650
External:        +0.000000
XC:             -56.450813
Entropy (-ST):   -0.000000
Local:           +0.178417
--------------------------
Free energy:    -70.372464
Extrapolated:   -70.372464

Spin contamination: 7.111525 electrons
Showing only first 2 kpts
                      Up                     Down
 Kpt  Band  Eigenvalues  Occupancy  Eigenvalues  Occupancy
  0    52     -1.91482    1.00000     -1.91477    1.00000
  0    53     -1.73128    1.00000     -1.73123    1.00000
  0    54     -0.55098    0.00000     -0.55096    0.00000
  0    55     -0.53931    0.00000     -0.53926    0.00000

  1    52     -1.85336    1.00000     -1.85331    1.00000
  1    53     -1.73796    1.00000     -1.73791    1.00000
  1    54     -0.54837    0.00000     -0.54834    0.00000
  1    55     -0.52965    0.00000     -0.52961    0.00000


Fermi level: -1.57223

Gap: 1.148 eV
Transition (v -> c):
  (s=1, k=60, n=53, [0.46, -0.46, 0.00]) -> (s=0, k=5, n=54, [0.04, -0.04, 0.00])

Forces in eV/Ang:
  0 Cr   -0.00222    0.00092    0.00009
  1 Cr    0.00289   -0.00138   -0.00097
  2 I    -0.00092    0.00110    0.00029
  3 I    -0.00559    0.00178    0.00066
  4 I     0.00378    0.00010    0.00284
  5 I    -0.00028   -0.00587   -0.00036
  6 I    -0.00094    0.00212   -0.00051
  7 I     0.00085    0.00080    0.00055
  8 Cr   -0.00286    0.00140    0.00157
  9 Cr    0.00218   -0.00092    0.00052
 10 I     0.00037    0.00583    0.00016
 11 I     0.00085   -0.00218    0.00029
 12 I    -0.00085   -0.00072   -0.00073
 13 I     0.00100   -0.00114   -0.00048
 14 I     0.00552   -0.00183   -0.00084
 15 I    -0.00380    0.00001   -0.00305

System changes: positions 

Initializing position-dependent things.

Density initialized from wave functions
                                          
                                          
                                          
                                          
                      I                   
            I                             
                    I                     
           I            Cr                
                  I                       
                     Cr                   
                         I                
                                          
                       I                  
                               I          
                  Cr                      
                      I  Cr               
            I                             
                    I                     
                          I               
                                          
                                          
                                          
                                          

Positions:
   0 Cr     3.609852    2.117063    9.278684    ( 0.0000,  0.0000,  3.4336)
   1 Cr     0.052412    4.168274    9.278717    ( 0.0000,  0.0000,  3.4336)
   2 I      4.550037    0.062420    7.797582    ( 0.0000,  0.0000, -0.1299)
   3 I      1.362432    2.327868    7.796640    ( 0.0000,  0.0000, -0.1299)
   4 I     -2.187777    3.945682    7.789550    ( 0.0000,  0.0000, -0.1299)
   5 I      2.656842    0.064304   10.753353    ( 0.0000,  0.0000, -0.1299)
   6 I      2.305915    3.966499   10.754154    ( 0.0000,  0.0000, -0.1299)
   7 I      5.850210    2.339329   10.787026    ( 0.0000,  0.0000, -0.1299)
   8 Cr     2.496687    4.042487   15.517557    ( 0.0000,  0.0000, -3.4336)
   9 Cr     2.494610   -0.064373   15.517590    ( 0.0000,  0.0000, -3.4336)
  10 I      3.447620    1.988386   14.042925    ( 0.0000,  0.0000,  0.1299)
  11 I      0.243184    4.244261   14.042124    ( 0.0000,  0.0000,  0.1299)
  12 I     -3.301112    5.871431   14.009252    ( 0.0000,  0.0000,  0.1299)
  13 I      1.554425    1.990271   16.998696    ( 0.0000,  0.0000,  0.1299)
  14 I      1.186667    5.882893   16.999637    ( 0.0000,  0.0000,  0.1299)
  15 I     -2.373852    4.265078   17.006728    ( 0.0000,  0.0000,  0.1299)

Unit cell:
           periodic     x           y           z      points  spacing
  1. axis:    yes    7.110727   -0.000000    0.000000    42     0.1466
  2. axis:    yes   -3.555363    6.158070    0.000000    42     0.1466
  3. axis:    no     0.000000   -0.000000   27.269192   160     0.1704

  Lengths:   7.110727   7.110727  27.269192
  Angles:   90.000000  90.000000 120.000000

Effective grid spacing dv^(1/3) = 0.1617

                     log10-error:           total        iterations:
           time      wfs    density  force  energy       poisson  magmom
iter:   1  20:04:29  -3.65                 -70.372564             +0.0000
iter:   2  20:04:54  -4.74  -3.40          -70.372571             +0.0000
iter:   3  20:05:18  -5.23  -3.44          -70.372522             +0.0000
iter:   4  20:05:43  -6.00  -3.66          -70.372513             +0.0000
iter:   5  20:06:08  -6.15  -3.77          -70.372504             +0.0000
iter:   6  20:06:32  -6.59  -4.11          -70.372504             +0.0000
iter:   7  20:06:57  -6.82  -4.16          -70.372503             +0.0000
iter:   8  20:07:21  -6.56  -4.32          -70.372503             +0.0000
iter:   9  20:07:46  -6.91  -4.45          -70.372503             +0.0000
iter:  10  20:08:10  -7.31  -4.77          -70.372503             +0.0000
iter:  11  20:08:42  -7.48  -4.81          -70.372503             -0.0000
iter:  12  20:09:15  -7.76  -4.88    -3.02 -70.372503             -0.0000
iter:  13  20:09:48  -8.11  -5.14    -3.47 -70.372503             -0.0000
iter:  14  20:10:21  -8.39  -5.37    -3.51 -70.372503             -0.0000
iter:  15  20:10:54  -8.60  -5.39    -3.89 -70.372503             +0.0000
iter:  16  20:11:27  -8.78  -5.44    -3.45 -70.372503             +0.0000
iter:  17  20:12:00  -8.89  -5.57    -3.80 -70.372503             +0.0000
iter:  18  20:12:33  -9.07  -5.63    -3.93 -70.372503             +0.0000
iter:  19  20:13:06  -9.17  -5.65    -4.42 -70.372503             +0.0000

Converged after 19 iterations.

Dipole moment: (-29.811554, 18.691103, -0.000270) |e|*Ang

Total magnetic moment: (0.000000, 0.000000, 0.000000)
Local magnetic moments:
   0 Cr ( 0.000000,  0.000000,  2.907493)
   1 Cr ( 0.000000,  0.000000,  2.907603)
   2 I  ( 0.000000,  0.000000, -0.046855)
   3 I  ( 0.000000,  0.000000, -0.046811)
   4 I  ( 0.000000,  0.000000, -0.045874)
   5 I  ( 0.000000,  0.000000, -0.044561)
   6 I  ( 0.000000,  0.000000, -0.044513)
   7 I  ( 0.000000,  0.000000, -0.044125)
   8 Cr ( 0.000000,  0.000000, -2.907603)
   9 Cr ( 0.000000,  0.000000, -2.907494)
  10 I  ( 0.000000,  0.000000,  0.044560)
  11 I  ( 0.000000,  0.000000,  0.044513)
  12 I  ( 0.000000,  0.000000,  0.044125)
  13 I  ( 0.000000,  0.000000,  0.046855)
  14 I  ( 0.000000,  0.000000,  0.046811)
  15 I  ( 0.000000,  0.000000,  0.045874)

Energy contributions relative to reference atoms: (reference = -2434708.556191)

Kinetic:        +23.038607
Potential:      -37.124034
External:        +0.000000
XC:             -56.465450
Entropy (-ST):   -0.000000
Local:           +0.178374
--------------------------
Free energy:    -70.372503
Extrapolated:   -70.372503

Spin contamination: 7.111224 electrons
Showing only first 2 kpts
                      Up                     Down
 Kpt  Band  Eigenvalues  Occupancy  Eigenvalues  Occupancy
  0    52     -1.91388    1.00000     -1.91388    1.00000
  0    53     -1.73130    1.00000     -1.73130    1.00000
  0    54     -0.55118    0.00000     -0.55118    0.00000
  0    55     -0.53869    0.00000     -0.53869    0.00000

  1    52     -1.85247    1.00000     -1.85246    1.00000
  1    53     -1.73799    1.00000     -1.73799    1.00000
  1    54     -0.54839    0.00000     -0.54839    0.00000
  1    55     -0.52913    0.00000     -0.52913    0.00000


Fermi level: -1.57223

Gap: 1.148 eV
Transition (v -> c):
  (s=1, k=60, n=53, [0.46, -0.46, 0.00]) -> (s=0, k=5, n=54, [0.04, -0.04, 0.00])

Forces in eV/Ang:
  0 Cr    0.00027    0.00018    0.00034
  1 Cr   -0.00022    0.00018   -0.00043
  2 I    -0.00047   -0.00013    0.00048
  3 I    -0.00064    0.00059    0.00033
  4 I     0.00026    0.00045   -0.00032
  5 I    -0.00040   -0.00011   -0.00015
  6 I     0.00035   -0.00004    0.00010
  7 I    -0.00019    0.00004    0.00033
  8 Cr    0.00022   -0.00018    0.00046
  9 Cr   -0.00027   -0.00018   -0.00031
 10 I     0.00041    0.00010    0.00014
 11 I    -0.00036    0.00004   -0.00011
 12 I     0.00019   -0.00003   -0.00034
 13 I     0.00048    0.00013   -0.00050
 14 I     0.00064   -0.00059   -0.00034
 15 I    -0.00026   -0.00045    0.00030

Writing to CrI3_AB_prime_relaxed.gpw (mode='')

Timing:                                      incl.     excl.
-------------------------------------------------------------------
Density initialized from wave functions:   231.279   231.275   0.6% |
 Symmetrize density:                         0.004     0.004   0.0% |
Forces:                                    506.426   506.426   1.4% ||
Hamiltonian:                               136.428     0.899   0.0% |
 Atomic:                                     6.263     6.263   0.0% |
  XC Correction:                             0.000     0.000   0.0% |
 Calculate atomic Hamiltonians:             45.330    45.330   0.1% |
 Communicate:                                0.011     0.011   0.0% |
 Initialize Hamiltonian:                     0.004     0.004   0.0% |
 Poisson:                                    0.884     0.884   0.0% |
 XC 3D grid:                                83.037    83.037   0.2% |
LCAO initialization:                         6.060     0.143   0.0% |
 LCAO eigensolver:                           0.947     0.001   0.0% |
  Calculate projections:                     0.001     0.001   0.0% |
  DenseAtomicCorrection:                     0.002     0.002   0.0% |
  Distribute overlap matrix:                 0.000     0.000   0.0% |
  Orbital Layouts:                           0.017     0.017   0.0% |
  Potential matrix:                          0.925     0.925   0.0% |
  Sum over cells:                            0.001     0.001   0.0% |
 LCAO to grid:                               4.781     4.781   0.0% |
 Set positions (LCAO WFS):                   0.189     0.038   0.0% |
  Basic WFS set positions:                   0.001     0.001   0.0% |
  Basis functions set positions:             0.000     0.000   0.0% |
  P tci:                                     0.059     0.059   0.0% |
  ST tci:                                    0.049     0.049   0.0% |
  mktci:                                     0.043     0.043   0.0% |
PWDescriptor:                                0.615     0.615   0.0% |
Redistribute:                                0.122     0.122   0.0% |
SCF-cycle:                               34880.203 12294.857  33.9% |-------------|
 Davidson:                               12300.434  2044.703   5.6% |-|
  Apply H:                                2141.597  2070.278   5.7% |-|
   HMM T:                                   71.319    71.319   0.2% |
  Subspace diag:                          2571.250     0.516   0.0% |
   calc_h_matrix:                         2298.282   153.071   0.4% |
    Apply H:                              2145.211  2068.712   5.7% |-|
     HMM T:                                 76.498    76.498   0.2% |
   diagonalize:                              4.261     4.261   0.0% |
   rotate_psi:                             268.190   268.190   0.7% |
  calc. matrices:                         5067.352   854.515   2.4% ||
   Apply H:                               4212.837  4072.698  11.2% |---|
    HMM T:                                 140.139   140.139   0.4% |
  diagonalize:                              37.493    37.493   0.1% |
  rotate_psi:                              438.038   438.038   1.2% |
 Density:                                 3823.312     0.043   0.0% |
  Atomic density matrices:                   6.034     6.034   0.0% |
  Mix:                                    1113.463  1113.463   3.1% ||
  Multipole moments:                         0.534     0.534   0.0% |
  Pseudo density:                         2703.238  2703.163   7.5% |--|
   Symmetrize density:                       0.075     0.075   0.0% |
 Forces:                                  4068.980  4068.980  11.2% |---|
 Hamiltonian:                             2358.915    15.461   0.0% |
  Atomic:                                   96.832    96.827   0.3% |
   XC Correction:                            0.005     0.005   0.0% |
  Calculate atomic Hamiltonians:           787.575   787.575   2.2% ||
  Communicate:                               0.368     0.368   0.0% |
  Poisson:                                  14.893    14.893   0.0% |
  XC 3D grid:                             1443.785  1443.785   4.0% |-|
 Orthonormalize:                            33.706     0.031   0.0% |
  calc_s_matrix:                             3.996     3.996   0.0% |
  inverse-cholesky:                          0.080     0.080   0.0% |
  projections:                              21.249    21.249   0.1% |
  rotate_psi_s:                              8.350     8.350   0.0% |
Set symmetry:                                0.006     0.006   0.0% |
Other:                                     476.463   476.463   1.3% ||
-------------------------------------------------------------------
Total:                                             36237.602 100.0%

Memory usage: 1.44 GiB
Date: Tue Jul 19 20:13:19 2022
