
  ___ ___ ___ _ _ _  
 |   |   |_  | | | | 
 | | | | | . | | | | 
 |__ |  _|___|_____|  20.10.1b1
 |___|_|             

User:   madkru@i008.nifl.fysik.dtu.dk
Date:   Thu Mar 25 20:11:41 2021
Arch:   x86_64
Pid:    26969
Python: 3.7.4
gpaw:   /home/niflheim/madkru/venv_folder/gpaw/gpaw (d224efde0f)
_gpaw:  /home/niflheim/madkru/venv_folder/gpaw/build/lib.linux-x86_64-ivybridge-3.7/
        _gpaw.cpython-37m-x86_64-linux-gnu.so (4fd39e8b1e)
ase:    /home/niflheim/madkru/venv_folder/ase/ase (version 3.21.0b1-4d5a73cb29)
numpy:  /home/niflheim/madkru/venv_folder/lib/python3.7/site-packages/numpy (version 1.19.4)
scipy:  /home/niflheim/madkru/venv_folder/lib/python3.7/site-packages/scipy (version 1.5.4)
libxc:  4.3.4
units:  Angstrom and eV
cores: 64
OMP_NUM_THREADS: 1

Input parameters:
  convergence: {bands: occupied,
                density: 0.0001,
                eigenstates: 4e-08,
                energy: 0.0005,
                forces: 1e-06}
  kpts: [6 6 4]
  mode: {ecut: 600.0,
         gammacentered: False,
         name: pw}
  occupations: {fixmagmom: False,
                name: fermi-dirac,
                width: 0.001}
  symmetry: {point_group: False,
             time_reversal: False}

System changes: positions, numbers, cell, pbc, initial_charges, initial_magmoms 

Initialize ...

O-setup:
  name: Oxygen
  id: 9b9d51c344dea68c822856295a461509
  Z: 8.0
  valence: 6
  core: 2
  charge: 0.0
  file: /home/modules/software/GPAW-setups/0.9.20000/O.LDA.gz
  compensation charges: gauss, rc=0.21, lmax=2
  cutoffs: 1.17(filt), 0.83(core),
  valence states:
                energy  radius
    2s(2.00)   -23.752   0.688
    2p(4.00)    -9.195   0.598
    *s           3.459   0.688
    *p          18.016   0.598
    *d           0.000   0.619

  Using partial waves for O as LCAO basis

Mn-setup:
  name: Manganese
  id: 0d715a8018be061a6e9ea6f2d364ac92
  Z: 25.0
  valence: 15
  core: 10
  charge: 0.0
  file: /home/modules/software/GPAW-setups/0.9.20000/Mn.LDA.gz
  compensation charges: gauss, rc=0.38, lmax=2
  cutoffs: 2.14(filt), 0.86(core),
  valence states:
                energy  radius
    3s(2.00)   -85.387   1.275
    4s(2.00)    -5.282   1.275
    3p(6.00)   -54.493   1.281
    4p(0.00)    -1.471   1.281
    3d(5.00)    -7.009   1.138
    *d          20.203   1.138

  Using partial waves for Mn as LCAO basis

P-setup:
  name: Phosphorus
  id: a5561c299094968922a179ab894d2e2d
  Z: 15.0
  valence: 5
  core: 10
  charge: 0.0
  file: /home/modules/software/GPAW-setups/0.9.20000/P.LDA.gz
  compensation charges: gauss, rc=0.30, lmax=2
  cutoffs: 1.69(filt), 1.81(core),
  valence states:
                energy  radius
    3s(2.00)   -14.015   0.953
    3p(3.00)    -5.596   0.953
    *s          13.197   0.953
    *p          21.615   0.953
    *d           0.000   0.953

  Using partial waves for P as LCAO basis

Li-setup:
  name: Lithium
  id: b73562207f97a71b6967473b66fe8b65
  Z: 3.0
  valence: 1
  core: 2
  charge: 0.0
  file: /home/modules/software/GPAW-setups/0.9.20000/Li.LDA.gz
  compensation charges: gauss, rc=0.33, lmax=2
  cutoffs: 1.91(filt), 2.55(core),
  valence states:
                energy  radius
    2s(1.00)    -2.874   1.058
    2p(0.00)    -1.126   1.058
    *s          24.338   1.058

  Using partial waves for Li as LCAO basis

Reference energy: -196157.275402

Spin-polarized calculation.
Magnetic moment: 0.000000

Convergence criteria:
  Maximum total energy change: 0.0005 eV / electron
  Maximum integral of absolute density change: 0.0001 electrons
  Maximum integral of absolute eigenstate change: 4e-08 eV^2
  Maximum change in atomic force: 1e-06 eV / Ang
  Maximum number of iterations: 333

Symmetries present (total): 1

  ( 1  0  0)
  ( 0  1  0)
  ( 0  0  1)

144 k-points: 6 x 6 x 4 Monkhorst-Pack grid
144 k-points in the irreducible part of the Brillouin zone
       k-points in crystal coordinates                weights
   0:    -0.41666667   -0.41666667   -0.37500000          1/144
   1:    -0.41666667   -0.41666667   -0.12500000          1/144
   2:    -0.41666667   -0.41666667    0.12500000          1/144
   3:    -0.41666667   -0.41666667    0.37500000          1/144
   4:    -0.41666667   -0.25000000   -0.37500000          1/144
   5:    -0.41666667   -0.25000000   -0.12500000          1/144
   6:    -0.41666667   -0.25000000    0.12500000          1/144
   7:    -0.41666667   -0.25000000    0.37500000          1/144
   8:    -0.41666667   -0.08333333   -0.37500000          1/144
   9:    -0.41666667   -0.08333333   -0.12500000          1/144
          ...
 143:     0.41666667    0.41666667    0.37500000          1/144

Wave functions: Plane wave expansion
  Cutoff energy: 600.000 eV
  Number of coefficients (min, max): 9132, 9161
  Pulay-stress correction: 0.000000 eV/Ang^3 (de/decut=0.000000)
  Using FFTW library
  ScaLapack parameters: grid=1x1, blocksize=None
  Wavefunction extrapolation:
    Improved wavefunction reuse through dual PAW basis 

  Fermi-Dirac: width=0.0010 eV

Eigensolver
   Davidson(niter=2, smin=None, normalize=True) 

Densities:
  Coarse grid: 60*35*27 grid
  Fine grid: 120*70*54 grid
  Total Charge: 0.000000 

Density mixing:
  Method: difference
  Backend: pulay
  Linear mixing parameter: 0.05
  Mixing with 5 old densities
  Damping of long wave oscillations: 50 

Hamiltonian:
  XC and Coulomb potentials evaluated on a 120*70*54 grid
  Using the LDA Exchange-Correlation functional
 

Memory estimate:
  Process memory now: 13773.39 MiB
  Calculator: 322.47 MiB
    Density: 9.62 MiB
      Arrays: 3.79 MiB
      Localized functions: 4.27 MiB
      Mixer: 1.56 MiB
    Hamiltonian: 2.94 MiB
      Arrays: 2.82 MiB
      XC: 0.00 MiB
      Poisson: 0.00 MiB
      vbar: 0.12 MiB
    Wavefunctions: 309.91 MiB
      Arrays psit_nG: 281.81 MiB
      Eigensolver: 18.27 MiB
      Projections: 2.71 MiB
      Projectors: 4.40 MiB
      PW-descriptor: 2.71 MiB

Total number of cores used: 64
Parallelization over k-points: 16
Domain decomposition: 2 x 2 x 1

Number of atoms: 28
Number of atomic orbitals: 148
Number of bands in calculation: 112
Number of valence electrons: 180
Bands to converge: occupied

... initialized

Initializing position-dependent things.

Density initialized from atomic densities
Creating initial wave functions:
  112 bands from LCAO basis set

                                           
                                           
                                           
                                           
                                           
               O     O  P  O               
            PO           OMn     O         
                  O          MO            
            O        Li O                  
             Mn  Mn          OP            
         O       O Li O                    
         Li     O P         O              
       Li                                  
                                           
                                           
                                           
                                           

Positions:
   0 O     -1.280122   -2.495595   -1.112331    ( 0.0000,  0.0000,  0.0000)
   1 O     -3.023238    2.918858    1.191723    ( 0.0000,  0.0000,  0.0000)
   2 O      1.997451    0.467212    1.441442    ( 0.0000,  0.0000,  0.0000)
   3 O      3.740343   -0.043905   -0.862614    ( 0.0000,  0.0000,  0.0000)
   4 O      1.997419    2.918835    1.441465    ( 0.0000,  0.0000,  0.0000)
   5 O      3.740372   -2.495531   -0.862587    ( 0.0000,  0.0000,  0.0000)
   6 O     -1.280154   -0.043891   -1.112309    ( 0.0000,  0.0000,  0.0000)
   7 O     -3.023210    0.467136    1.191750    ( 0.0000,  0.0000,  0.0000)
   8 O     -4.147405   -1.269737   -0.856207    ( 0.0000,  0.0000,  0.0000)
   9 O     -0.155894    1.692986    1.447725    ( 0.0000,  0.0000,  0.0000)
  10 O      4.864578    1.693016    1.185324    ( 0.0000,  0.0000,  0.0000)
  11 O      0.873163   -1.269706   -1.118625    ( 0.0000,  0.0000,  0.0000)
  12 Mn    -2.437108   -1.269902    0.302197    ( 0.0000,  0.0000,  1.0000)
  13 Mn    -1.866187    1.693156   -2.001927    ( 0.0000,  0.0000, -1.0000)
  14 Mn     3.154299    1.693181    0.026917    ( 0.0000,  0.0000, -1.0000)
  15 Mn     2.583444   -1.269877    2.331074    ( 0.0000,  0.0000,  1.0000)
  16 P     -0.543052   -1.269720   -1.734187    ( 0.0000,  0.0000,  0.0000)
  17 P     -3.760282    1.692974    0.569859    ( 0.0000,  0.0000,  0.0000)
  18 P      1.260300    1.693000    2.063344    ( 0.0000,  0.0000,  0.0000)
  19 P      4.477470   -1.269695   -0.240696    ( 0.0000,  0.0000,  0.0000)
  20 O     -0.544413   -1.269738    1.348523    ( 0.0000,  0.0000,  0.0000)
  21 O     -3.758895    1.692992   -0.955558    ( 0.0000,  0.0000,  0.0000)
  22 O      1.251690    1.693018   -1.019367    ( 0.0000,  0.0000,  0.0000)
  23 O      4.476045   -1.269713    1.284716    ( 0.0000,  0.0000,  0.0000)
  24 Li    -4.662027   -2.751322   -2.139440    ( 0.0000,  0.0000,  0.0000)
  25 Li     0.358703   -2.751277    0.164614    ( 0.0000,  0.0000,  0.0000)
  26 Li    -4.662011    0.211617   -2.139439    ( 0.0000,  0.0000,  0.0000)
  27 Li     0.358720    0.211628    0.164615    ( 0.0000,  0.0000,  0.0000)

Unit cell:
           periodic     x           y           z      points  spacing
  1. axis:    yes   10.041096    0.000054   -0.000022    60     0.1674
  2. axis:    yes    0.000032    5.925857    0.000001    35     0.1693
  3. axis:    yes   -0.000010    0.000001    4.608134    27     0.1707

  Lengths:  10.041096   5.925857   4.608134
  Angles:   89.999974  90.000250  89.999381

Effective grid spacing dv^(1/3) = 0.1691

                     log10-error:           total        iterations:
           time      wfs    density  force  energy       poisson  magmom
iter:   1  20:13:14                       -233.727061             +0.0000
iter:   2  20:13:33  -0.47  -0.95         -231.547284             +0.0018
iter:   3  20:13:53  -0.61  -1.00         -220.788840             +0.0019
iter:   4  20:14:13  -1.19  -1.31         -220.773029             +0.3196
iter:   5  20:14:33  -2.12  -1.40         -223.038234             +0.1519
iter:   6  20:14:52  -2.16  -1.38         -223.447836             +0.2143
iter:   7  20:15:12  -2.15  -1.53         -223.756828             -0.2443
iter:   8  20:15:32  -2.53  -1.68         -225.469864             -1.1590
iter:   9  20:15:52  -2.43  -1.88         -226.406336             -0.2148
iter:  10  20:16:11  -2.12  -1.97         -226.320714             +0.0202
iter:  11  20:16:31  -2.94  -2.09         -226.299009             -0.0071
iter:  12  20:16:51  -2.48  -2.12         -226.238700             -0.0095
iter:  13  20:17:11  -3.80  -2.63         -226.222260             -0.0023
iter:  14  20:17:30  -2.71  -2.70         -226.200153             +0.0027
iter:  15  20:17:50  -3.87  -2.92         -226.184320             +0.0001
iter:  16  20:18:10  -4.19  -3.10         -226.177314             -0.0004
iter:  17  20:18:30  -4.40  -3.20         -226.179599             -0.0001
iter:  18  20:18:50  -3.74  -3.17         -226.176695             -0.0001
iter:  19  20:19:09  -5.13  -3.48         -226.175901             -0.0000
iter:  20  20:19:29  -5.04  -3.57         -226.175133             +0.0000
iter:  21  20:19:49  -5.47  -3.67         -226.175420             +0.0000
iter:  22  20:20:09  -5.63  -3.89         -226.175112             +0.0000
iter:  23  20:20:28  -5.84  -4.06         -226.175042             +0.0000
iter:  24  20:20:48  -6.56  -4.13         -226.175024             +0.0000
iter:  25  20:21:08  -6.67  -4.21         -226.175028             +0.0000
iter:  26  20:21:27  -7.19  -4.26         -226.175024             +0.0000
iter:  27  20:21:47  -6.77  -4.33         -226.175019             +0.0000
iter:  28  20:22:12  -7.89  -4.43         -226.175018             +0.0000
iter:  29  20:22:31  -7.21  -4.47         -226.175021             -0.0000
iter:  30  20:22:51  -7.39  -4.60         -226.175021             +0.0000
iter:  31  20:23:15  -8.45  -4.67    -2.05-226.175021             -0.0000
iter:  32  20:23:40  -8.25  -4.76    -2.76-226.175019             -0.0000
iter:  33  20:24:00  -7.18  -4.83         -226.175016             -0.0000
iter:  34  20:24:24  -8.31  -5.01    -2.63-226.175016             -0.0000
iter:  35  20:24:48  -8.82  -5.06    -3.50-226.175016             +0.0000
iter:  36  20:25:13  -9.19  -5.11    -3.38-226.175016             -0.0000
iter:  37  20:25:37  -9.47  -5.18    -3.40-226.175016             -0.0000
iter:  38  20:26:01  -9.81  -5.23    -3.88-226.175016             -0.0000
iter:  39  20:26:26  -9.61  -5.27    -2.92-226.175016             -0.0000
iter:  40  20:26:50  -9.48  -5.52    -3.84-226.175016             -0.0000
iter:  41  20:27:14  -9.97  -5.59    -4.00-226.175016             -0.0000
iter:  42  20:27:39  -8.87  -5.66    -3.40-226.175016             -0.0000
iter:  43  20:28:03  -9.91  -5.96    -3.85-226.175016             -0.0000
iter:  44  20:28:27 -10.22  -6.04    -3.99-226.175016             -0.0000
iter:  45  20:28:52 -10.33  -6.32    -4.04-226.175016             -0.0000
iter:  46  20:29:16 -11.20  -6.60    -4.86-226.175016             -0.0000
iter:  47  20:29:41 -10.68  -6.64    -4.48-226.175016             -0.0000
iter:  48  20:30:05 -11.37  -6.76    -4.49-226.175016             -0.0000
iter:  49  20:30:29 -11.24  -6.92    -4.67-226.175016             -0.0000
iter:  50  20:30:54 -11.75  -7.09    -4.76-226.175016             -0.0000
iter:  51  20:31:18 -12.22  -7.27    -4.96-226.175016             -0.0000
iter:  52  20:31:42 -13.26  -7.50    -5.97-226.175016             -0.0000
iter:  53  20:32:07 -13.01  -7.52    -5.29-226.175016             -0.0000
iter:  54  20:32:31 -12.70  -7.65    -5.26-226.175016             -0.0000
iter:  55  20:32:55 -13.93  -7.77    -5.92-226.175016             -0.0000
iter:  56  20:33:20 -14.77  -7.85    -6.48-226.175016             -0.0000

Converged after 56 iterations.

Dipole moment: (18.321122, -2.305833, -4.524976) |e|*Ang

Total magnetic moment: (0.000000, 0.000000, -0.000000)
Local magnetic moments:
   0 O  ( 0.000000,  0.000000, -0.001748)
   1 O  ( 0.000000,  0.000000,  0.001821)
   2 O  ( 0.000000,  0.000000,  0.001801)
   3 O  ( 0.000000,  0.000000, -0.001756)
   4 O  ( 0.000000,  0.000000,  0.001796)
   5 O  ( 0.000000,  0.000000, -0.001751)
   6 O  ( 0.000000,  0.000000, -0.001753)
   7 O  ( 0.000000,  0.000000,  0.001826)
   8 O  ( 0.000000,  0.000000,  0.031050)
   9 O  ( 0.000000,  0.000000, -0.031052)
  10 O  ( 0.000000,  0.000000, -0.031281)
  11 O  ( 0.000000,  0.000000,  0.031181)
  12 Mn ( 0.000000,  0.000000,  4.395804)
  13 Mn ( 0.000000,  0.000000, -4.395899)
  14 Mn ( 0.000000,  0.000000, -4.396245)
  15 Mn ( 0.000000,  0.000000,  4.395833)
  16 P  ( 0.000000,  0.000000,  0.000858)
  17 P  ( 0.000000,  0.000000, -0.000854)
  18 P  ( 0.000000,  0.000000, -0.000628)
  19 P  ( 0.000000,  0.000000,  0.000906)
  20 O  ( 0.000000,  0.000000,  0.028427)
  21 O  ( 0.000000,  0.000000, -0.028383)
  22 O  ( 0.000000,  0.000000, -0.028383)
  23 O  ( 0.000000,  0.000000,  0.028413)
  24 Li ( 0.000000,  0.000000,  0.000000)
  25 Li ( 0.000000,  0.000000,  0.000003)
  26 Li ( 0.000000,  0.000000,  0.000000)
  27 Li ( 0.000000,  0.000000,  0.000003)

Energy contributions relative to reference atoms: (reference = -196157.275402)

Kinetic:       +277.523559
Potential:     -240.883342
External:        +0.000000
XC:            -264.704199
Entropy (-ST):   -0.000000
Local:           +1.888966
--------------------------
Free energy:   -226.175016
Extrapolated:  -226.175016

Spin contamination: 9.455547 electrons
Showing only first 2 kpts
                      Up                     Down
 Kpt  Band  Eigenvalues  Occupancy  Eigenvalues  Occupancy
  0    88      6.52852    0.00694      6.52055    0.00694
  0    89      6.56320    0.00694      6.56020    0.00694
  0    90      8.41893    0.00000      8.42516    0.00000
  0    91      8.44844    0.00000      8.44704    0.00000

  1    88      6.56682    0.00694      6.55731    0.00694
  1    89      6.59537    0.00694      6.59241    0.00694
  1    90      8.37670    0.00000      8.38144    0.00000
  1    91      8.40536    0.00000      8.40408    0.00000


Fermi level: 7.58292

Gap: 1.696 eV
Transition (v -> c):
  (s=0, k=94, n=89, [0.08, 0.42, 0.12]) -> (s=0, k=86, n=90, [0.08, 0.08, 0.12])
Writing to born-0.01-22x-.gpw (mode='all')

Timing:                              incl.     excl.
-----------------------------------------------------------
Hamiltonian:                         0.219     0.002   0.0% |
 Atomic:                             0.053     0.053   0.0% |
  XC Correction:                     0.000     0.000   0.0% |
 Calculate atomic Hamiltonians:      0.075     0.075   0.0% |
 Communicate:                        0.002     0.002   0.0% |
 Initialize Hamiltonian:             0.000     0.000   0.0% |
 Poisson:                            0.001     0.001   0.0% |
 XC 3D grid:                         0.086     0.086   0.0% |
LCAO initialization:                68.656     0.647   0.0% |
 LCAO eigensolver:                  19.510     0.002   0.0% |
  Calculate projections:             0.029     0.029   0.0% |
  DenseAtomicCorrection:             0.045     0.045   0.0% |
  Distribute overlap matrix:         0.009     0.009   0.0% |
  Orbital Layouts:                   0.431     0.431   0.0% |
  Potential matrix:                 18.896    18.896   0.6% |
  Sum over cells:                    0.098     0.098   0.0% |
 LCAO to grid:                      47.147    47.147   1.5% ||
 Set positions (LCAO WFS):           1.352     0.194   0.0% |
  Basic WFS set positions:           0.001     0.001   0.0% |
  Basis functions set positions:     0.000     0.000   0.0% |
  P tci:                             0.524     0.524   0.0% |
  ST tci:                            0.381     0.381   0.0% |
  mktci:                             0.251     0.251   0.0% |
PWDescriptor:                        0.024     0.024   0.0% |
SCF-cycle:                        1228.301     2.094   0.1% |
 Davidson:                        1048.858   320.475  10.1% |---|
  Apply H:                          72.940    70.860   2.2% ||
   HMM T:                            2.080     2.080   0.1% |
  Subspace diag:                   152.403     0.162   0.0% |
   calc_h_matrix:                   98.234    25.252   0.8% |
    Apply H:                        72.981    70.863   2.2% ||
     HMM T:                          2.119     2.119   0.1% |
   diagonalize:                      7.628     7.628   0.2% |
   rotate_psi:                      46.379    46.379   1.5% ||
  calc. matrices:                  314.429   171.291   5.4% |-|
   Apply H:                        143.138   139.204   4.4% |-|
    HMM T:                           3.934     3.934   0.1% |
  diagonalize:                      88.212    88.212   2.8% ||
  rotate_psi:                      100.399   100.399   3.2% ||
 Density:                           42.444     0.001   0.0% |
  Atomic density matrices:           0.842     0.842   0.0% |
  Mix:                               5.801     5.801   0.2% |
  Multipole moments:                 0.021     0.021   0.0% |
  Pseudo density:                   35.779    35.777   1.1% |
   Symmetrize density:               0.002     0.002   0.0% |
 Forces:                           120.951   120.951   3.8% |-|
 Hamiltonian:                       11.885     0.117   0.0% |
  Atomic:                            2.795     2.794   0.1% |
   XC Correction:                    0.000     0.000   0.0% |
  Calculate atomic Hamiltonians:     4.136     4.136   0.1% |
  Communicate:                       0.093     0.093   0.0% |
  Poisson:                           0.033     0.033   0.0% |
  XC 3D grid:                        4.711     4.711   0.1% |
 Orthonormalize:                     2.069     0.003   0.0% |
  calc_s_matrix:                     0.242     0.242   0.0% |
  inverse-cholesky:                  0.074     0.074   0.0% |
  projections:                       1.318     1.318   0.0% |
  rotate_psi_s:                      0.432     0.432   0.0% |
Set symmetry:                        0.000     0.000   0.0% |
Other:                            1889.562  1889.562  59.3% |-----------------------|
-----------------------------------------------------------
Total:                                      3186.761 100.0%

Memory usage: 13.46 GiB
Date: Thu Mar 25 21:04:48 2021
