
  ___ ___ ___ _ _ _  
 |   |   |_  | | | | 
 | | | | | . | | | | 
 |__ |  _|___|_____|  21.1.1b1
 |___|_|             

User:   madkru@g043.nifl.fysik.dtu.dk
Date:   Mon Mar 29 21:22:26 2021
Arch:   x86_64
Pid:    9629
Python: 3.8.6
gpaw:   /home/niflheim/madkru/venv_madkru/gpaw/gpaw (e6f0d78a31)
_gpaw:  /home/niflheim/madkru/venv_madkru/gpaw/build/lib.linux-x86_64-sandybridge-3.8/
        _gpaw.cpython-38-x86_64-linux-gnu.so (e6f0d78a31)
ase:    /home/niflheim/madkru/venv_madkru/ase/ase (version 3.22.0b1-4d5a73cb29)
numpy:  /home/modules/software/SciPy-bundle/2020.11-foss-2020b/lib/python3.8/site-packages/numpy (version 1.19.4)
scipy:  /home/modules/software/SciPy-bundle/2020.11-foss-2020b/lib/python3.8/site-packages/scipy (version 1.5.4)
libxc:  4.3.4
units:  Angstrom and eV
cores: 64
OpenMP: False
OMP_NUM_THREADS: 1

Input parameters:
  convergence: {bands: occupied,
                density: 0.0001,
                eigenstates: 4e-08,
                energy: 0.0005,
                forces: 1e-06}
  kpts: [6 6 4]
  mode: {ecut: 600.0,
         gammacentered: False,
         name: pw}
  occupations: {fixmagmom: False,
                name: fermi-dirac,
                width: 0.001}
  symmetry: {point_group: False,
             time_reversal: False}

System changes: positions, numbers, cell, pbc, initial_charges, initial_magmoms 

Initialize ...

O-setup:
  name: Oxygen
  id: 9b9d51c344dea68c822856295a461509
  Z: 8.0
  valence: 6
  core: 2
  charge: 0.0
  file: /home/modules/software/GPAW-setups/0.9.20000/O.LDA.gz
  compensation charges: gauss, rc=0.21, lmax=2
  cutoffs: 1.17(filt), 0.83(core),
  valence states:
                energy  radius
    2s(2.00)   -23.752   0.688
    2p(4.00)    -9.195   0.598
    *s           3.459   0.688
    *p          18.016   0.598
    *d           0.000   0.619

  Using partial waves for O as LCAO basis

Mn-setup:
  name: Manganese
  id: 0d715a8018be061a6e9ea6f2d364ac92
  Z: 25.0
  valence: 15
  core: 10
  charge: 0.0
  file: /home/modules/software/GPAW-setups/0.9.20000/Mn.LDA.gz
  compensation charges: gauss, rc=0.38, lmax=2
  cutoffs: 2.14(filt), 0.86(core),
  valence states:
                energy  radius
    3s(2.00)   -85.387   1.275
    4s(2.00)    -5.282   1.275
    3p(6.00)   -54.493   1.281
    4p(0.00)    -1.471   1.281
    3d(5.00)    -7.009   1.138
    *d          20.203   1.138

  Using partial waves for Mn as LCAO basis

P-setup:
  name: Phosphorus
  id: a5561c299094968922a179ab894d2e2d
  Z: 15.0
  valence: 5
  core: 10
  charge: 0.0
  file: /home/modules/software/GPAW-setups/0.9.20000/P.LDA.gz
  compensation charges: gauss, rc=0.30, lmax=2
  cutoffs: 1.69(filt), 1.81(core),
  valence states:
                energy  radius
    3s(2.00)   -14.015   0.953
    3p(3.00)    -5.596   0.953
    *s          13.197   0.953
    *p          21.615   0.953
    *d           0.000   0.953

  Using partial waves for P as LCAO basis

Li-setup:
  name: Lithium
  id: b73562207f97a71b6967473b66fe8b65
  Z: 3.0
  valence: 1
  core: 2
  charge: 0.0
  file: /home/modules/software/GPAW-setups/0.9.20000/Li.LDA.gz
  compensation charges: gauss, rc=0.33, lmax=2
  cutoffs: 1.91(filt), 2.55(core),
  valence states:
                energy  radius
    2s(1.00)    -2.874   1.058
    2p(0.00)    -1.126   1.058
    *s          24.338   1.058

  Using partial waves for Li as LCAO basis

Reference energy: -196157.275402

Spin-polarized calculation.
Magnetic moment: 0.000000

Convergence criteria:
  Maximum total energy change: 0.0005 eV / electron
  Maximum integral of absolute density change: 0.0001 electrons
  Maximum integral of absolute eigenstate change: 4e-08 eV^2
  Maximum change in atomic force: 1e-06 eV / Ang
  Maximum number of iterations: 333

Symmetries present (total): 1

  ( 1  0  0)
  ( 0  1  0)
  ( 0  0  1)

144 k-points: 6 x 6 x 4 Monkhorst-Pack grid
144 k-points in the irreducible part of the Brillouin zone
       k-points in crystal coordinates                weights
   0:    -0.41666667   -0.41666667   -0.37500000          1/144
   1:    -0.41666667   -0.41666667   -0.12500000          1/144
   2:    -0.41666667   -0.41666667    0.12500000          1/144
   3:    -0.41666667   -0.41666667    0.37500000          1/144
   4:    -0.41666667   -0.25000000   -0.37500000          1/144
   5:    -0.41666667   -0.25000000   -0.12500000          1/144
   6:    -0.41666667   -0.25000000    0.12500000          1/144
   7:    -0.41666667   -0.25000000    0.37500000          1/144
   8:    -0.41666667   -0.08333333   -0.37500000          1/144
   9:    -0.41666667   -0.08333333   -0.12500000          1/144
          ...
 143:     0.41666667    0.41666667    0.37500000          1/144

Wave functions: Plane wave expansion
  Cutoff energy: 600.000 eV
  Number of coefficients (min, max): 9132, 9161
  Pulay-stress correction: 0.000000 eV/Ang^3 (de/decut=0.000000)
  Using FFTW library
  ScaLapack parameters: grid=1x1, blocksize=None
  Wavefunction extrapolation:
    Improved wavefunction reuse through dual PAW basis 

  Fermi-Dirac: width=0.0010 eV

Eigensolver
   Davidson(niter=2) 

Densities:
  Coarse grid: 60*35*27 grid
  Fine grid: 120*70*54 grid
  Total Charge: 0.000000 

Density mixing:
  Method: difference
  Backend: pulay
  Linear mixing parameter: 0.05
  Mixing with 5 old densities
  Damping of long wave oscillations: 50 

Hamiltonian:
  XC and Coulomb potentials evaluated on a 120*70*54 grid
  Using the LDA Exchange-Correlation functional
 

Memory estimate:
  Process memory now: 12249.22 MiB
  Calculator: 322.47 MiB
    Density: 9.62 MiB
      Arrays: 3.79 MiB
      Localized functions: 4.27 MiB
      Mixer: 1.56 MiB
    Hamiltonian: 2.94 MiB
      Arrays: 2.82 MiB
      XC: 0.00 MiB
      Poisson: 0.00 MiB
      vbar: 0.12 MiB
    Wavefunctions: 309.91 MiB
      Arrays psit_nG: 281.81 MiB
      Eigensolver: 18.27 MiB
      Projections: 2.71 MiB
      Projectors: 4.40 MiB
      PW-descriptor: 2.71 MiB

Total number of cores used: 64
Parallelization over k-points: 16
Domain decomposition: 2 x 2 x 1

Number of atoms: 28
Number of atomic orbitals: 148
Number of bands in calculation: 112
Number of valence electrons: 180
Bands to converge: occupied

... initialized

Initializing position-dependent things.

Density initialized from atomic densities
Creating initial wave functions:
  112 bands from LCAO basis set

                                           
                                           
                                           
                                           
                                           
               O     O  P  O               
            PO           OMn     O         
                  O          MO            
            O        Li O                  
             Mn  Mn          OP            
         O       O Li O                    
         Li     O P         O              
       Li                                  
                                           
                                           
                                           
                                           

Positions:
   0 O     -1.280122   -2.495595   -1.112331    ( 0.0000,  0.0000,  0.0000)
   1 O     -3.023238    2.918858    1.191723    ( 0.0000,  0.0000,  0.0000)
   2 O      1.997451    0.467212    1.441442    ( 0.0000,  0.0000,  0.0000)
   3 O      3.740343   -0.043905   -0.862614    ( 0.0000,  0.0000,  0.0000)
   4 O      1.997419    2.918835    1.441465    ( 0.0000,  0.0000,  0.0000)
   5 O      3.740372   -2.495531   -0.862587    ( 0.0000,  0.0000,  0.0000)
   6 O     -1.280154   -0.043891   -1.112309    ( 0.0000,  0.0000,  0.0000)
   7 O     -3.023210    0.467136    1.191750    ( 0.0000,  0.0000,  0.0000)
   8 O     -4.147405   -1.269737   -0.856207    ( 0.0000,  0.0000,  0.0000)
   9 O     -0.155894    1.692986    1.447725    ( 0.0000,  0.0000,  0.0000)
  10 O      4.864578    1.693016    1.185324    ( 0.0000,  0.0000,  0.0000)
  11 O      0.873163   -1.269706   -1.118625    ( 0.0000,  0.0000,  0.0000)
  12 Mn    -2.437108   -1.269902    0.302197    ( 0.0000,  0.0000,  1.0000)
  13 Mn    -1.866187    1.693156   -2.001927    ( 0.0000,  0.0000, -1.0000)
  14 Mn     3.154299    1.693181    0.026917    ( 0.0000,  0.0000, -1.0000)
  15 Mn     2.583444   -1.269877    2.331074    ( 0.0000,  0.0000,  1.0000)
  16 P     -0.543052   -1.269720   -1.734187    ( 0.0000,  0.0000,  0.0000)
  17 P     -3.760282    1.692974    0.569859    ( 0.0000,  0.0000,  0.0000)
  18 P      1.260300    1.693000    2.063344    ( 0.0000,  0.0000,  0.0000)
  19 P      4.477470   -1.269695   -0.240696    ( 0.0000,  0.0000,  0.0000)
  20 O     -0.544413   -1.269738    1.348523    ( 0.0000,  0.0000,  0.0000)
  21 O     -3.758895    1.692992   -0.955558    ( 0.0000,  0.0000,  0.0000)
  22 O      1.261690    1.693018   -1.019367    ( 0.0000,  0.0000,  0.0000)
  23 O      4.476045   -1.269713    1.284716    ( 0.0000,  0.0000,  0.0000)
  24 Li    -4.662027   -2.751322   -2.139440    ( 0.0000,  0.0000,  0.0000)
  25 Li     0.358703   -2.751277    0.164614    ( 0.0000,  0.0000,  0.0000)
  26 Li    -4.662011    0.211617   -2.129439    ( 0.0000,  0.0000,  0.0000)
  27 Li     0.358720    0.211628    0.164615    ( 0.0000,  0.0000,  0.0000)

Unit cell:
           periodic     x           y           z      points  spacing
  1. axis:    yes   10.041096    0.000054   -0.000022    60     0.1674
  2. axis:    yes    0.000032    5.925857    0.000001    35     0.1693
  3. axis:    yes   -0.000010    0.000001    4.608134    27     0.1707

  Lengths:  10.041096   5.925857   4.608134
  Angles:   89.999974  90.000250  89.999381

Effective grid spacing dv^(1/3) = 0.1691

                     log10-error:           total        iterations:
           time      wfs    density  force  energy       poisson  magmom
iter:   1  21:24:09                       -233.730198             +0.0000
iter:   2  21:24:29  -0.47  -0.95         -231.549941             +0.0026
iter:   3  21:24:49  -0.61  -1.00         -220.809924             +0.0027
iter:   4  21:25:09  -1.20  -1.31         -221.070934             +0.3805
iter:   5  21:25:29  -2.14  -1.39         -222.705971             +0.2089
iter:   6  21:25:49  -2.25  -1.38         -223.547446             +0.2216
iter:   7  21:26:09  -2.15  -1.54         -223.860244             -0.0134
iter:   8  21:26:29  -2.55  -1.72         -225.614605             -0.7589
iter:   9  21:26:49  -2.34  -1.93         -226.413956             +0.0362
iter:  10  21:27:09  -2.10  -2.04         -226.329669             +0.0143
iter:  11  21:27:29  -2.97  -2.19         -226.329210             +0.0069
iter:  12  21:27:49  -2.32  -2.21         -226.235805             -0.0026
iter:  13  21:28:09  -3.47  -2.61         -226.227555             +0.0012
iter:  14  21:28:29  -2.70  -2.74         -226.213385             +0.0016
iter:  15  21:28:49  -3.59  -2.82         -226.183963             +0.0004
iter:  16  21:29:08  -3.82  -3.13         -226.177058             +0.0001
iter:  17  21:29:28  -4.83  -3.28         -226.177845             +0.0000
iter:  18  21:29:48  -4.41  -3.35         -226.176137             +0.0000
iter:  19  21:30:08  -5.45  -3.44         -226.175943             +0.0000
iter:  20  21:30:28  -4.83  -3.51         -226.176357             +0.0000
iter:  21  21:30:48  -5.42  -3.54         -226.175793             +0.0000
iter:  22  21:31:08  -5.94  -3.80         -226.175562             +0.0000
iter:  23  21:31:28  -5.59  -3.90         -226.175293             +0.0000
iter:  24  21:31:48  -5.29  -4.00         -226.175282             +0.0000
iter:  25  21:32:08  -5.77  -4.12         -226.175213             +0.0000
iter:  26  21:32:28  -6.90  -4.36         -226.175215             -0.0000
iter:  27  21:32:48  -6.31  -4.44         -226.175222             -0.0000
iter:  28  21:33:08  -6.96  -4.49         -226.175214             +0.0000
iter:  29  21:33:28  -6.85  -4.70         -226.175213             +0.0000
iter:  30  21:33:47  -7.20  -4.88         -226.175212             +0.0000
iter:  31  21:34:07  -7.32  -4.87         -226.175210             +0.0000
iter:  32  21:34:33  -8.60  -5.16         -226.175210             +0.0000
iter:  33  21:34:58  -8.67  -5.24    -3.09-226.175210             +0.0000
iter:  34  21:35:22  -8.28  -5.37    -3.02-226.175210             -0.0000
iter:  35  21:35:47  -9.52  -5.58    -3.61-226.175210             +0.0000
iter:  36  21:36:12  -9.11  -5.64    -3.37-226.175210             +0.0000
iter:  37  21:36:37  -9.08  -5.81    -3.52-226.175210             +0.0000
iter:  38  21:37:02  -9.90  -5.93    -3.70-226.175210             +0.0000
iter:  39  21:37:27 -10.43  -6.02    -4.34-226.175210             +0.0000
iter:  40  21:37:52 -10.25  -6.06    -3.49-226.175210             -0.0000
iter:  41  21:38:17 -10.22  -6.39    -4.33-226.175210             -0.0000
iter:  42  21:38:42 -11.13  -6.69    -5.13-226.175210             -0.0000
iter:  43  21:39:07 -11.07  -6.75    -4.35-226.175210             -0.0000
iter:  44  21:39:32 -11.87  -6.91    -4.97-226.175210             -0.0000
iter:  45  21:39:57 -11.93  -7.11    -4.92-226.175210             -0.0000
iter:  46  21:40:22 -11.56  -7.19    -5.17-226.175210             -0.0000
iter:  47  21:40:47 -12.05  -7.28    -4.95-226.175210             -0.0000
iter:  48  21:41:11 -12.98  -7.70    -5.51-226.175210             -0.0000
iter:  49  21:41:36 -13.40  -7.79    -5.71-226.175210             -0.0000
iter:  50  21:42:01 -13.79  -7.86    -5.89-226.175210             -0.0000
iter:  51  21:42:26 -13.65  -7.92    -5.50-226.175210             -0.0000
iter:  52  21:42:51 -14.39  -8.26    -6.12-226.175210             -0.0000

Converged after 52 iterations.

Dipole moment: (18.326987, -2.307451, -4.518701) |e|*Ang

Total magnetic moment: (0.000000, 0.000000, -0.000000)
Local magnetic moments:
   0 O  ( 0.000000,  0.000000, -0.001808)
   1 O  ( 0.000000,  0.000000,  0.001814)
   2 O  ( 0.000000,  0.000000,  0.001812)
   3 O  ( 0.000000,  0.000000, -0.001814)
   4 O  ( 0.000000,  0.000000,  0.001805)
   5 O  ( 0.000000,  0.000000, -0.001798)
   6 O  ( 0.000000,  0.000000, -0.001812)
   7 O  ( 0.000000,  0.000000,  0.001809)
   8 O  ( 0.000000,  0.000000,  0.031053)
   9 O  ( 0.000000,  0.000000, -0.031100)
  10 O  ( 0.000000,  0.000000, -0.031140)
  11 O  ( 0.000000,  0.000000,  0.031093)
  12 Mn ( 0.000000,  0.000000,  4.395775)
  13 Mn ( 0.000000,  0.000000, -4.395752)
  14 Mn ( 0.000000,  0.000000, -4.395726)
  15 Mn ( 0.000000,  0.000000,  4.395783)
  16 P  ( 0.000000,  0.000000,  0.000866)
  17 P  ( 0.000000,  0.000000, -0.000863)
  18 P  ( 0.000000,  0.000000, -0.000871)
  19 P  ( 0.000000,  0.000000,  0.000872)
  20 O  ( 0.000000,  0.000000,  0.028423)
  21 O  ( 0.000000,  0.000000, -0.028397)
  22 O  ( 0.000000,  0.000000, -0.028414)
  23 O  ( 0.000000,  0.000000,  0.028438)
  24 Li ( 0.000000,  0.000000, -0.000002)
  25 Li ( 0.000000,  0.000000,  0.000000)
  26 Li ( 0.000000,  0.000000,  0.000012)
  27 Li ( 0.000000,  0.000000,  0.000000)

Energy contributions relative to reference atoms: (reference = -196157.275402)

Kinetic:       +277.625605
Potential:     -240.967772
External:        +0.000000
XC:            -264.721483
Entropy (-ST):   -0.000000
Local:           +1.888440
--------------------------
Free energy:   -226.175210
Extrapolated:  -226.175210

Spin contamination: 9.455315 electrons
Showing only first 2 kpts
                      Up                     Down
 Kpt  Band  Eigenvalues  Occupancy  Eigenvalues  Occupancy
  0    88      6.53047    1.00000      6.53051    1.00000
  0    89      6.56407    1.00000      6.56412    1.00000
  0    90      8.42668    0.00000      8.42683    0.00000
  0    91      8.44823    0.00000      8.44846    0.00000

  1    88      6.56896    1.00000      6.56891    1.00000
  1    89      6.59595    1.00000      6.59613    1.00000
  1    90      8.38310    0.00000      8.38308    0.00000
  1    91      8.40524    0.00000      8.40522    0.00000


Fermi level: 7.64658

Gap: 1.699 eV
Transition (v -> c):
  (s=1, k=74, n=89, [0.08, -0.42, 0.12]) -> (s=1, k=82, n=90, [0.08, -0.08, 0.12])
Writing to born-0.01-26z+.gpw (mode='all')

Timing:                              incl.     excl.
-----------------------------------------------------------
Hamiltonian:                         0.246     0.003   0.0% |
 Atomic:                             0.066     0.066   0.0% |
  XC Correction:                     0.000     0.000   0.0% |
 Calculate atomic Hamiltonians:      0.084     0.084   0.0% |
 Communicate:                        0.000     0.000   0.0% |
 Initialize Hamiltonian:             0.000     0.000   0.0% |
 Poisson:                            0.001     0.001   0.0% |
 XC 3D grid:                         0.091     0.091   0.0% |
LCAO initialization:                78.543     0.673   0.0% |
 LCAO eigensolver:                  21.823     0.003   0.0% |
  Calculate projections:             0.030     0.030   0.0% |
  DenseAtomicCorrection:             0.043     0.043   0.0% |
  Distribute overlap matrix:         0.110     0.110   0.0% |
  Orbital Layouts:                   0.279     0.279   0.0% |
  Potential matrix:                 21.270    21.270   0.7% |
  Sum over cells:                    0.087     0.087   0.0% |
 LCAO to grid:                      54.692    54.692   1.8% ||
 Set positions (LCAO WFS):           1.355     0.194   0.0% |
  Basic WFS set positions:           0.001     0.001   0.0% |
  Basis functions set positions:     0.000     0.000   0.0% |
  P tci:                             0.533     0.533   0.0% |
  ST tci:                            0.399     0.399   0.0% |
  mktci:                             0.226     0.226   0.0% |
PWDescriptor:                        0.025     0.025   0.0% |
SCF-cycle:                        1145.210     4.062   0.1% |
 Davidson:                         981.310   303.978   9.9% |---|
  Apply H:                          70.134    68.147   2.2% ||
   HMM T:                            1.987     1.987   0.1% |
  Subspace diag:                   142.747     0.147   0.0% |
   calc_h_matrix:                   92.785    23.912   0.8% |
    Apply H:                        68.873    67.015   2.2% ||
     HMM T:                          1.858     1.858   0.1% |
   diagonalize:                      5.393     5.393   0.2% |
   rotate_psi:                      44.422    44.422   1.5% ||
  calc. matrices:                  294.620   158.369   5.2% |-|
   Apply H:                        136.251   132.641   4.3% |-|
    HMM T:                           3.610     3.610   0.1% |
  diagonalize:                      81.227    81.227   2.7% ||
  rotate_psi:                       88.603    88.603   2.9% ||
 Density:                           40.488     0.001   0.0% |
  Atomic density matrices:           0.679     0.679   0.0% |
  Mix:                               6.572     6.572   0.2% |
  Multipole moments:                 0.018     0.018   0.0% |
  Pseudo density:                   33.218    33.216   1.1% |
   Symmetrize density:               0.001     0.001   0.0% |
 Forces:                           105.058   105.058   3.4% ||
 Hamiltonian:                       12.208     0.106   0.0% |
  Atomic:                            2.900     2.899   0.1% |
   XC Correction:                    0.000     0.000   0.0% |
  Calculate atomic Hamiltonians:     4.399     4.399   0.1% |
  Communicate:                       0.055     0.055   0.0% |
  Poisson:                           0.043     0.043   0.0% |
  XC 3D grid:                        4.706     4.706   0.2% |
 Orthonormalize:                     2.083     0.003   0.0% |
  calc_s_matrix:                     0.244     0.244   0.0% |
  inverse-cholesky:                  0.041     0.041   0.0% |
  projections:                       1.352     1.352   0.0% |
  rotate_psi_s:                      0.443     0.443   0.0% |
Set symmetry:                        0.000     0.000   0.0% |
Other:                            1833.419  1833.419  60.0% |-----------------------|
-----------------------------------------------------------
Total:                                      3057.442 100.0%

Memory usage: 11.97 GiB
Date: Mon Mar 29 22:13:24 2021
