
  ___ ___ ___ _ _ _  
 |   |   |_  | | | | 
 | | | | | . | | | | 
 |__ |  _|___|_____|  21.1.1b1
 |___|_|             

User:   madkru@g043.nifl.fysik.dtu.dk
Date:   Mon Mar 29 18:45:19 2021
Arch:   x86_64
Pid:    9629
Python: 3.8.6
gpaw:   /home/niflheim/madkru/venv_madkru/gpaw/gpaw (e6f0d78a31)
_gpaw:  /home/niflheim/madkru/venv_madkru/gpaw/build/lib.linux-x86_64-sandybridge-3.8/
        _gpaw.cpython-38-x86_64-linux-gnu.so (e6f0d78a31)
ase:    /home/niflheim/madkru/venv_madkru/ase/ase (version 3.22.0b1-4d5a73cb29)
numpy:  /home/modules/software/SciPy-bundle/2020.11-foss-2020b/lib/python3.8/site-packages/numpy (version 1.19.4)
scipy:  /home/modules/software/SciPy-bundle/2020.11-foss-2020b/lib/python3.8/site-packages/scipy (version 1.5.4)
libxc:  4.3.4
units:  Angstrom and eV
cores: 64
OpenMP: False
OMP_NUM_THREADS: 1

Input parameters:
  convergence: {bands: occupied,
                density: 0.0001,
                eigenstates: 4e-08,
                energy: 0.0005,
                forces: 1e-06}
  kpts: [6 6 4]
  mode: {ecut: 600.0,
         gammacentered: False,
         name: pw}
  occupations: {fixmagmom: False,
                name: fermi-dirac,
                width: 0.001}
  symmetry: {point_group: False,
             time_reversal: False}

System changes: positions, numbers, cell, pbc, initial_charges, initial_magmoms 

Initialize ...

O-setup:
  name: Oxygen
  id: 9b9d51c344dea68c822856295a461509
  Z: 8.0
  valence: 6
  core: 2
  charge: 0.0
  file: /home/modules/software/GPAW-setups/0.9.20000/O.LDA.gz
  compensation charges: gauss, rc=0.21, lmax=2
  cutoffs: 1.17(filt), 0.83(core),
  valence states:
                energy  radius
    2s(2.00)   -23.752   0.688
    2p(4.00)    -9.195   0.598
    *s           3.459   0.688
    *p          18.016   0.598
    *d           0.000   0.619

  Using partial waves for O as LCAO basis

Mn-setup:
  name: Manganese
  id: 0d715a8018be061a6e9ea6f2d364ac92
  Z: 25.0
  valence: 15
  core: 10
  charge: 0.0
  file: /home/modules/software/GPAW-setups/0.9.20000/Mn.LDA.gz
  compensation charges: gauss, rc=0.38, lmax=2
  cutoffs: 2.14(filt), 0.86(core),
  valence states:
                energy  radius
    3s(2.00)   -85.387   1.275
    4s(2.00)    -5.282   1.275
    3p(6.00)   -54.493   1.281
    4p(0.00)    -1.471   1.281
    3d(5.00)    -7.009   1.138
    *d          20.203   1.138

  Using partial waves for Mn as LCAO basis

P-setup:
  name: Phosphorus
  id: a5561c299094968922a179ab894d2e2d
  Z: 15.0
  valence: 5
  core: 10
  charge: 0.0
  file: /home/modules/software/GPAW-setups/0.9.20000/P.LDA.gz
  compensation charges: gauss, rc=0.30, lmax=2
  cutoffs: 1.69(filt), 1.81(core),
  valence states:
                energy  radius
    3s(2.00)   -14.015   0.953
    3p(3.00)    -5.596   0.953
    *s          13.197   0.953
    *p          21.615   0.953
    *d           0.000   0.953

  Using partial waves for P as LCAO basis

Li-setup:
  name: Lithium
  id: b73562207f97a71b6967473b66fe8b65
  Z: 3.0
  valence: 1
  core: 2
  charge: 0.0
  file: /home/modules/software/GPAW-setups/0.9.20000/Li.LDA.gz
  compensation charges: gauss, rc=0.33, lmax=2
  cutoffs: 1.91(filt), 2.55(core),
  valence states:
                energy  radius
    2s(1.00)    -2.874   1.058
    2p(0.00)    -1.126   1.058
    *s          24.338   1.058

  Using partial waves for Li as LCAO basis

Reference energy: -196157.275402

Spin-polarized calculation.
Magnetic moment: 0.000000

Convergence criteria:
  Maximum total energy change: 0.0005 eV / electron
  Maximum integral of absolute density change: 0.0001 electrons
  Maximum integral of absolute eigenstate change: 4e-08 eV^2
  Maximum change in atomic force: 1e-06 eV / Ang
  Maximum number of iterations: 333

Symmetries present (total): 1

  ( 1  0  0)
  ( 0  1  0)
  ( 0  0  1)

144 k-points: 6 x 6 x 4 Monkhorst-Pack grid
144 k-points in the irreducible part of the Brillouin zone
       k-points in crystal coordinates                weights
   0:    -0.41666667   -0.41666667   -0.37500000          1/144
   1:    -0.41666667   -0.41666667   -0.12500000          1/144
   2:    -0.41666667   -0.41666667    0.12500000          1/144
   3:    -0.41666667   -0.41666667    0.37500000          1/144
   4:    -0.41666667   -0.25000000   -0.37500000          1/144
   5:    -0.41666667   -0.25000000   -0.12500000          1/144
   6:    -0.41666667   -0.25000000    0.12500000          1/144
   7:    -0.41666667   -0.25000000    0.37500000          1/144
   8:    -0.41666667   -0.08333333   -0.37500000          1/144
   9:    -0.41666667   -0.08333333   -0.12500000          1/144
          ...
 143:     0.41666667    0.41666667    0.37500000          1/144

Wave functions: Plane wave expansion
  Cutoff energy: 600.000 eV
  Number of coefficients (min, max): 9132, 9161
  Pulay-stress correction: 0.000000 eV/Ang^3 (de/decut=0.000000)
  Using FFTW library
  ScaLapack parameters: grid=1x1, blocksize=None
  Wavefunction extrapolation:
    Improved wavefunction reuse through dual PAW basis 

  Fermi-Dirac: width=0.0010 eV

Eigensolver
   Davidson(niter=2) 

Densities:
  Coarse grid: 60*35*27 grid
  Fine grid: 120*70*54 grid
  Total Charge: 0.000000 

Density mixing:
  Method: difference
  Backend: pulay
  Linear mixing parameter: 0.05
  Mixing with 5 old densities
  Damping of long wave oscillations: 50 

Hamiltonian:
  XC and Coulomb potentials evaluated on a 120*70*54 grid
  Using the LDA Exchange-Correlation functional
 

Memory estimate:
  Process memory now: 12134.39 MiB
  Calculator: 322.47 MiB
    Density: 9.62 MiB
      Arrays: 3.79 MiB
      Localized functions: 4.27 MiB
      Mixer: 1.56 MiB
    Hamiltonian: 2.94 MiB
      Arrays: 2.82 MiB
      XC: 0.00 MiB
      Poisson: 0.00 MiB
      vbar: 0.12 MiB
    Wavefunctions: 309.91 MiB
      Arrays psit_nG: 281.81 MiB
      Eigensolver: 18.27 MiB
      Projections: 2.71 MiB
      Projectors: 4.40 MiB
      PW-descriptor: 2.71 MiB

Total number of cores used: 64
Parallelization over k-points: 16
Domain decomposition: 2 x 2 x 1

Number of atoms: 28
Number of atomic orbitals: 148
Number of bands in calculation: 112
Number of valence electrons: 180
Bands to converge: occupied

... initialized

Initializing position-dependent things.

Density initialized from atomic densities
Creating initial wave functions:
  112 bands from LCAO basis set

                                           
                                           
                                           
                                           
                                           
               O     O  P  O               
            PO           OMn     O         
                  O          MO            
            O        Li O                  
             Mn  Mn          OP            
         O       O Li O                    
         Li     O P         O              
       Li                                  
                                           
                                           
                                           
                                           

Positions:
   0 O     -1.280122   -2.495595   -1.112331    ( 0.0000,  0.0000,  0.0000)
   1 O     -3.023238    2.918858    1.191723    ( 0.0000,  0.0000,  0.0000)
   2 O      1.997451    0.467212    1.441442    ( 0.0000,  0.0000,  0.0000)
   3 O      3.740343   -0.043905   -0.862614    ( 0.0000,  0.0000,  0.0000)
   4 O      1.997419    2.918835    1.441465    ( 0.0000,  0.0000,  0.0000)
   5 O      3.740372   -2.495531   -0.862587    ( 0.0000,  0.0000,  0.0000)
   6 O     -1.280154   -0.043891   -1.112309    ( 0.0000,  0.0000,  0.0000)
   7 O     -3.023210    0.467136    1.191750    ( 0.0000,  0.0000,  0.0000)
   8 O     -4.147405   -1.269737   -0.856207    ( 0.0000,  0.0000,  0.0000)
   9 O     -0.155894    1.692986    1.447725    ( 0.0000,  0.0000,  0.0000)
  10 O      4.864578    1.693016    1.185324    ( 0.0000,  0.0000,  0.0000)
  11 O      0.873163   -1.269706   -1.118625    ( 0.0000,  0.0000,  0.0000)
  12 Mn    -2.437108   -1.269902    0.302197    ( 0.0000,  0.0000,  1.0000)
  13 Mn    -1.866187    1.693156   -2.001927    ( 0.0000,  0.0000, -1.0000)
  14 Mn     3.154299    1.693181    0.026917    ( 0.0000,  0.0000, -1.0000)
  15 Mn     2.583444   -1.269877    2.331074    ( 0.0000,  0.0000,  1.0000)
  16 P     -0.543052   -1.269720   -1.734187    ( 0.0000,  0.0000,  0.0000)
  17 P     -3.760282    1.692974    0.569859    ( 0.0000,  0.0000,  0.0000)
  18 P      1.260300    1.693000    2.063344    ( 0.0000,  0.0000,  0.0000)
  19 P      4.477470   -1.269695   -0.240696    ( 0.0000,  0.0000,  0.0000)
  20 O     -0.544413   -1.269738    1.348523    ( 0.0000,  0.0000,  0.0000)
  21 O     -3.758895    1.692992   -0.955558    ( 0.0000,  0.0000,  0.0000)
  22 O      1.261690    1.693018   -1.019367    ( 0.0000,  0.0000,  0.0000)
  23 O      4.476045   -1.269713    1.284716    ( 0.0000,  0.0000,  0.0000)
  24 Li    -4.662027   -2.751322   -2.139440    ( 0.0000,  0.0000,  0.0000)
  25 Li     0.358703   -2.751277    0.164614    ( 0.0000,  0.0000,  0.0000)
  26 Li    -4.672011    0.211617   -2.139439    ( 0.0000,  0.0000,  0.0000)
  27 Li     0.358720    0.211628    0.164615    ( 0.0000,  0.0000,  0.0000)

Unit cell:
           periodic     x           y           z      points  spacing
  1. axis:    yes   10.041096    0.000054   -0.000022    60     0.1674
  2. axis:    yes    0.000032    5.925857    0.000001    35     0.1693
  3. axis:    yes   -0.000010    0.000001    4.608134    27     0.1707

  Lengths:  10.041096   5.925857   4.608134
  Angles:   89.999974  90.000250  89.999381

Effective grid spacing dv^(1/3) = 0.1691

                     log10-error:           total        iterations:
           time      wfs    density  force  energy       poisson  magmom
iter:   1  18:47:01                       -233.730334             +0.0000
iter:   2  18:47:21  -0.47  -0.95         -231.549991             +0.0003
iter:   3  18:47:41  -0.61  -1.00         -220.795883             +0.0003
iter:   4  18:48:01  -1.17  -1.31         -220.716258             +0.1006
iter:   5  18:48:21  -2.10  -1.41         -222.854995             +0.0157
iter:   6  18:48:41  -2.14  -1.40         -222.995483             +0.0735
iter:   7  18:49:01  -2.06  -1.54         -224.050887             +0.3245
iter:   8  18:49:21  -2.50  -1.72         -225.380116             +0.5389
iter:   9  18:49:41  -2.51  -1.89         -226.324884             +0.1572
iter:  10  18:50:00  -1.94  -1.95         -226.357532             -0.0229
iter:  11  18:50:20  -2.88  -2.10         -226.342013             +0.0027
iter:  12  18:50:40  -2.41  -2.13         -226.224112             +0.0056
iter:  13  18:51:00  -3.78  -2.62         -226.211381             +0.0011
iter:  14  18:51:20  -2.95  -2.69         -226.182962             -0.0019
iter:  15  18:51:40  -4.10  -3.02         -226.181115             -0.0002
iter:  16  18:52:00  -4.53  -3.12         -226.177515             +0.0006
iter:  17  18:52:20  -5.17  -3.20         -226.177423             +0.0001
iter:  18  18:52:39  -4.37  -3.29         -226.175767             +0.0000
iter:  19  18:52:59  -5.01  -3.49         -226.175444             +0.0000
iter:  20  18:53:19  -5.89  -3.60         -226.175408             +0.0000
iter:  21  18:53:39  -5.75  -3.63         -226.175385             -0.0000
iter:  22  18:53:59  -5.80  -3.69         -226.175436             -0.0000
iter:  23  18:54:19  -6.37  -3.78         -226.175455             -0.0000
iter:  24  18:54:39  -5.99  -3.85         -226.175389             -0.0000
iter:  25  18:54:59  -6.29  -4.09         -226.175348             -0.0000
iter:  26  18:55:19  -6.46  -4.19         -226.175312             -0.0000
iter:  27  18:55:38  -6.93  -4.29         -226.175303             -0.0000
iter:  28  18:56:03  -7.50  -4.37         -226.175305             +0.0000
iter:  29  18:56:28  -7.51  -4.46    -2.27-226.175299             -0.0000
iter:  30  18:56:53  -8.10  -4.50    -2.78-226.175298             +0.0000
iter:  31  18:57:13  -7.04  -4.54         -226.175294             -0.0000
iter:  32  18:57:38  -7.61  -4.95    -2.35-226.175294             +0.0000
iter:  33  18:58:03  -8.62  -5.02    -3.26-226.175294             +0.0000
iter:  34  18:58:28  -7.77  -5.06    -2.82-226.175294             +0.0000
iter:  35  18:58:52  -8.34  -5.29    -2.97-226.175294             +0.0000
iter:  36  18:59:17  -9.63  -5.40    -3.47-226.175294             +0.0000
iter:  37  18:59:42 -10.14  -5.45    -3.86-226.175294             +0.0000
iter:  38  19:00:07  -9.15  -5.49    -3.49-226.175294             +0.0000
iter:  39  19:00:32  -9.44  -5.59    -3.70-226.175294             +0.0000
iter:  40  19:00:57 -10.29  -5.65    -3.56-226.175294             +0.0000
iter:  41  19:01:22  -9.89  -5.67    -3.42-226.175294             +0.0000
iter:  42  19:01:47 -10.42  -5.93    -4.18-226.175294             -0.0000
iter:  43  19:02:12  -9.53  -6.09    -3.71-226.175294             -0.0000
iter:  44  19:02:36 -10.87  -6.39    -4.45-226.175294             +0.0000
iter:  45  19:03:01 -10.63  -6.54    -4.20-226.175294             +0.0000
iter:  46  19:03:27 -10.69  -6.63    -4.34-226.175294             +0.0000
iter:  47  19:03:51 -11.65  -6.72    -4.69-226.175294             +0.0000
iter:  48  19:04:16 -12.33  -6.82    -4.93-226.175294             +0.0000
iter:  49  19:04:41 -12.31  -6.88    -4.86-226.175294             +0.0000
iter:  50  19:05:06 -12.32  -6.94    -5.20-226.175294             +0.0000
iter:  51  19:05:31 -11.51  -6.98    -4.64-226.175294             +0.0000
iter:  52  19:05:56 -12.04  -7.04    -4.93-226.175294             +0.0000
iter:  53  19:06:21 -12.85  -7.21    -5.48-226.175294             +0.0000
iter:  54  19:06:46 -12.74  -7.27    -4.99-226.175294             +0.0000
iter:  55  19:07:10 -13.18  -7.39    -5.63-226.175294             +0.0000
iter:  56  19:07:35 -13.35  -7.42    -5.44-226.175294             +0.0000
iter:  57  19:08:00 -13.57  -7.50    -5.62-226.175294             +0.0000
iter:  58  19:08:25 -13.72  -7.57    -5.86-226.175294             +0.0000
iter:  59  19:08:50 -14.16  -7.65    -5.77-226.175294             +0.0000
iter:  60  19:09:15 -13.60  -7.72    -5.56-226.175294             +0.0000
iter:  61  19:09:40 -14.27  -7.94    -6.06-226.175294             +0.0000

Converged after 61 iterations.

Dipole moment: (18.324121, -2.307847, -4.524523) |e|*Ang

Total magnetic moment: (0.000000, 0.000000, 0.000000)
Local magnetic moments:
   0 O  ( 0.000000,  0.000000, -0.001805)
   1 O  ( 0.000000,  0.000000,  0.001811)
   2 O  ( 0.000000,  0.000000,  0.001812)
   3 O  ( 0.000000,  0.000000, -0.001783)
   4 O  ( 0.000000,  0.000000,  0.001808)
   5 O  ( 0.000000,  0.000000, -0.001802)
   6 O  ( 0.000000,  0.000000, -0.001811)
   7 O  ( 0.000000,  0.000000,  0.001839)
   8 O  ( 0.000000,  0.000000,  0.031052)
   9 O  ( 0.000000,  0.000000, -0.031057)
  10 O  ( 0.000000,  0.000000, -0.031142)
  11 O  ( 0.000000,  0.000000,  0.031136)
  12 Mn ( 0.000000,  0.000000,  4.395820)
  13 Mn ( 0.000000,  0.000000, -4.395852)
  14 Mn ( 0.000000,  0.000000, -4.395680)
  15 Mn ( 0.000000,  0.000000,  4.395681)
  16 P  ( 0.000000,  0.000000,  0.000858)
  17 P  ( 0.000000,  0.000000, -0.000850)
  18 P  ( 0.000000,  0.000000, -0.000879)
  19 P  ( 0.000000,  0.000000,  0.000884)
  20 O  ( 0.000000,  0.000000,  0.028408)
  21 O  ( 0.000000,  0.000000, -0.028406)
  22 O  ( 0.000000,  0.000000, -0.028429)
  23 O  ( 0.000000,  0.000000,  0.028430)
  24 Li ( 0.000000,  0.000000,  0.000001)
  25 Li ( 0.000000,  0.000000, -0.000000)
  26 Li ( 0.000000,  0.000000, -0.000027)
  27 Li ( 0.000000,  0.000000, -0.000000)

Energy contributions relative to reference atoms: (reference = -196157.275402)

Kinetic:       +277.624694
Potential:     -240.967112
External:        +0.000000
XC:            -264.721316
Entropy (-ST):   -0.000000
Local:           +1.888440
--------------------------
Free energy:   -226.175294
Extrapolated:  -226.175294

Spin contamination: 9.455313 electrons
Showing only first 2 kpts
                      Up                     Down
 Kpt  Band  Eigenvalues  Occupancy  Eigenvalues  Occupancy
  0    88      6.52991    1.00000      6.53043    1.00000
  0    89      6.56462    1.00000      6.56422    1.00000
  0    90      8.42551    0.00000      8.42655    0.00000
  0    91      8.44962    0.00000      8.44849    0.00000

  1    88      6.56814    1.00000      6.56891    1.00000
  1    89      6.59682    1.00000      6.59609    1.00000
  1    90      8.38199    0.00000      8.38279    0.00000
  1    91      8.40634    0.00000      8.40549    0.00000


Fermi level: 7.56827

Gap: 1.699 eV
Transition (v -> c):
  (s=1, k=73, n=89, [0.08, -0.42, -0.12]) -> (s=0, k=82, n=90, [0.08, -0.08, 0.12])
Writing to born-0.01-26x-.gpw (mode='all')

Timing:                              incl.     excl.
-----------------------------------------------------------
Hamiltonian:                         0.262     0.002   0.0% |
 Atomic:                             0.089     0.089   0.0% |
  XC Correction:                     0.000     0.000   0.0% |
 Calculate atomic Hamiltonians:      0.079     0.079   0.0% |
 Communicate:                        0.000     0.000   0.0% |
 Initialize Hamiltonian:             0.000     0.000   0.0% |
 Poisson:                            0.001     0.001   0.0% |
 XC 3D grid:                         0.091     0.091   0.0% |
LCAO initialization:                77.383     0.674   0.0% |
 LCAO eigensolver:                  21.663     0.002   0.0% |
  Calculate projections:             0.029     0.029   0.0% |
  DenseAtomicCorrection:             0.043     0.043   0.0% |
  Distribute overlap matrix:         0.046     0.046   0.0% |
  Orbital Layouts:                   0.277     0.277   0.0% |
  Potential matrix:                 21.181    21.181   0.6% |
  Sum over cells:                    0.085     0.085   0.0% |
 LCAO to grid:                      53.665    53.665   1.6% ||
 Set positions (LCAO WFS):           1.380     0.195   0.0% |
  Basic WFS set positions:           0.002     0.002   0.0% |
  Basis functions set positions:     0.000     0.000   0.0% |
  P tci:                             0.530     0.530   0.0% |
  ST tci:                            0.398     0.398   0.0% |
  mktci:                             0.256     0.256   0.0% |
PWDescriptor:                        0.024     0.024   0.0% |
SCF-cycle:                        1381.479     3.512   0.1% |
 Davidson:                        1149.102   356.631  10.8% |---|
  Apply H:                          81.712    79.347   2.4% ||
   HMM T:                            2.365     2.365   0.1% |
  Subspace diag:                   167.153     0.173   0.0% |
   calc_h_matrix:                  108.664    28.134   0.9% |
    Apply H:                        80.531    78.304   2.4% ||
     HMM T:                          2.226     2.226   0.1% |
   diagonalize:                      6.255     6.255   0.2% |
   rotate_psi:                      52.061    52.061   1.6% ||
  calc. matrices:                  345.037   185.893   5.6% |-|
   Apply H:                        159.144   154.830   4.7% |-|
    HMM T:                           4.314     4.314   0.1% |
  diagonalize:                      94.740    94.740   2.9% ||
  rotate_psi:                      103.829   103.829   3.2% ||
 Density:                           47.789     0.001   0.0% |
  Atomic density matrices:           0.793     0.793   0.0% |
  Mix:                               7.706     7.706   0.2% |
  Multipole moments:                 0.022     0.022   0.0% |
  Pseudo density:                   39.267    39.265   1.2% |
   Symmetrize density:               0.002     0.002   0.0% |
 Forces:                           164.782   164.782   5.0% |-|
 Hamiltonian:                       14.221     0.121   0.0% |
  Atomic:                            3.380     3.379   0.1% |
   XC Correction:                    0.000     0.000   0.0% |
  Calculate atomic Hamiltonians:     5.064     5.064   0.2% |
  Communicate:                       0.063     0.063   0.0% |
  Poisson:                           0.049     0.049   0.0% |
  XC 3D grid:                        5.545     5.545   0.2% |
 Orthonormalize:                     2.073     0.003   0.0% |
  calc_s_matrix:                     0.243     0.243   0.0% |
  inverse-cholesky:                  0.040     0.040   0.0% |
  projections:                       1.340     1.340   0.0% |
  rotate_psi_s:                      0.447     0.447   0.0% |
Set symmetry:                        0.000     0.000   0.0% |
Other:                            1835.461  1835.461  55.7% |---------------------|
-----------------------------------------------------------
Total:                                      3294.610 100.0%

Memory usage: 11.86 GiB
Date: Mon Mar 29 19:40:14 2021
