
  ___ ___ ___ _ _ _  
 |   |   |_  | | | | 
 | | | | | . | | | | 
 |__ |  _|___|_____|  21.1.1b1
 |___|_|             

User:   madkru@g043.nifl.fysik.dtu.dk
Date:   Mon Mar 29 16:40:21 2021
Arch:   x86_64
Pid:    9629
Python: 3.8.6
gpaw:   /home/niflheim/madkru/venv_madkru/gpaw/gpaw (e6f0d78a31)
_gpaw:  /home/niflheim/madkru/venv_madkru/gpaw/build/lib.linux-x86_64-sandybridge-3.8/
        _gpaw.cpython-38-x86_64-linux-gnu.so (e6f0d78a31)
ase:    /home/niflheim/madkru/venv_madkru/ase/ase (version 3.22.0b1-4d5a73cb29)
numpy:  /home/modules/software/SciPy-bundle/2020.11-foss-2020b/lib/python3.8/site-packages/numpy (version 1.19.4)
scipy:  /home/modules/software/SciPy-bundle/2020.11-foss-2020b/lib/python3.8/site-packages/scipy (version 1.5.4)
libxc:  4.3.4
units:  Angstrom and eV
cores: 64
OpenMP: False
OMP_NUM_THREADS: 1

Input parameters:
  convergence: {bands: occupied,
                density: 0.0001,
                eigenstates: 4e-08,
                energy: 0.0005,
                forces: 1e-06}
  kpts: [6 6 4]
  mode: {ecut: 600.0,
         gammacentered: False,
         name: pw}
  occupations: {fixmagmom: False,
                name: fermi-dirac,
                width: 0.001}
  symmetry: {point_group: False,
             time_reversal: False}

System changes: positions, numbers, cell, pbc, initial_charges, initial_magmoms 

Initialize ...

O-setup:
  name: Oxygen
  id: 9b9d51c344dea68c822856295a461509
  Z: 8.0
  valence: 6
  core: 2
  charge: 0.0
  file: /home/modules/software/GPAW-setups/0.9.20000/O.LDA.gz
  compensation charges: gauss, rc=0.21, lmax=2
  cutoffs: 1.17(filt), 0.83(core),
  valence states:
                energy  radius
    2s(2.00)   -23.752   0.688
    2p(4.00)    -9.195   0.598
    *s           3.459   0.688
    *p          18.016   0.598
    *d           0.000   0.619

  Using partial waves for O as LCAO basis

Mn-setup:
  name: Manganese
  id: 0d715a8018be061a6e9ea6f2d364ac92
  Z: 25.0
  valence: 15
  core: 10
  charge: 0.0
  file: /home/modules/software/GPAW-setups/0.9.20000/Mn.LDA.gz
  compensation charges: gauss, rc=0.38, lmax=2
  cutoffs: 2.14(filt), 0.86(core),
  valence states:
                energy  radius
    3s(2.00)   -85.387   1.275
    4s(2.00)    -5.282   1.275
    3p(6.00)   -54.493   1.281
    4p(0.00)    -1.471   1.281
    3d(5.00)    -7.009   1.138
    *d          20.203   1.138

  Using partial waves for Mn as LCAO basis

P-setup:
  name: Phosphorus
  id: a5561c299094968922a179ab894d2e2d
  Z: 15.0
  valence: 5
  core: 10
  charge: 0.0
  file: /home/modules/software/GPAW-setups/0.9.20000/P.LDA.gz
  compensation charges: gauss, rc=0.30, lmax=2
  cutoffs: 1.69(filt), 1.81(core),
  valence states:
                energy  radius
    3s(2.00)   -14.015   0.953
    3p(3.00)    -5.596   0.953
    *s          13.197   0.953
    *p          21.615   0.953
    *d           0.000   0.953

  Using partial waves for P as LCAO basis

Li-setup:
  name: Lithium
  id: b73562207f97a71b6967473b66fe8b65
  Z: 3.0
  valence: 1
  core: 2
  charge: 0.0
  file: /home/modules/software/GPAW-setups/0.9.20000/Li.LDA.gz
  compensation charges: gauss, rc=0.33, lmax=2
  cutoffs: 1.91(filt), 2.55(core),
  valence states:
                energy  radius
    2s(1.00)    -2.874   1.058
    2p(0.00)    -1.126   1.058
    *s          24.338   1.058

  Using partial waves for Li as LCAO basis

Reference energy: -196157.275402

Spin-polarized calculation.
Magnetic moment: 0.000000

Convergence criteria:
  Maximum total energy change: 0.0005 eV / electron
  Maximum integral of absolute density change: 0.0001 electrons
  Maximum integral of absolute eigenstate change: 4e-08 eV^2
  Maximum change in atomic force: 1e-06 eV / Ang
  Maximum number of iterations: 333

Symmetries present (total): 1

  ( 1  0  0)
  ( 0  1  0)
  ( 0  0  1)

144 k-points: 6 x 6 x 4 Monkhorst-Pack grid
144 k-points in the irreducible part of the Brillouin zone
       k-points in crystal coordinates                weights
   0:    -0.41666667   -0.41666667   -0.37500000          1/144
   1:    -0.41666667   -0.41666667   -0.12500000          1/144
   2:    -0.41666667   -0.41666667    0.12500000          1/144
   3:    -0.41666667   -0.41666667    0.37500000          1/144
   4:    -0.41666667   -0.25000000   -0.37500000          1/144
   5:    -0.41666667   -0.25000000   -0.12500000          1/144
   6:    -0.41666667   -0.25000000    0.12500000          1/144
   7:    -0.41666667   -0.25000000    0.37500000          1/144
   8:    -0.41666667   -0.08333333   -0.37500000          1/144
   9:    -0.41666667   -0.08333333   -0.12500000          1/144
          ...
 143:     0.41666667    0.41666667    0.37500000          1/144

Wave functions: Plane wave expansion
  Cutoff energy: 600.000 eV
  Number of coefficients (min, max): 9132, 9161
  Pulay-stress correction: 0.000000 eV/Ang^3 (de/decut=0.000000)
  Using FFTW library
  ScaLapack parameters: grid=1x1, blocksize=None
  Wavefunction extrapolation:
    Improved wavefunction reuse through dual PAW basis 

  Fermi-Dirac: width=0.0010 eV

Eigensolver
   Davidson(niter=2) 

Densities:
  Coarse grid: 60*35*27 grid
  Fine grid: 120*70*54 grid
  Total Charge: 0.000000 

Density mixing:
  Method: difference
  Backend: pulay
  Linear mixing parameter: 0.05
  Mixing with 5 old densities
  Damping of long wave oscillations: 50 

Hamiltonian:
  XC and Coulomb potentials evaluated on a 120*70*54 grid
  Using the LDA Exchange-Correlation functional
 

Memory estimate:
  Process memory now: 211.62 MiB
  Calculator: 322.47 MiB
    Density: 9.62 MiB
      Arrays: 3.79 MiB
      Localized functions: 4.27 MiB
      Mixer: 1.56 MiB
    Hamiltonian: 2.94 MiB
      Arrays: 2.82 MiB
      XC: 0.00 MiB
      Poisson: 0.00 MiB
      vbar: 0.12 MiB
    Wavefunctions: 309.91 MiB
      Arrays psit_nG: 281.81 MiB
      Eigensolver: 18.27 MiB
      Projections: 2.71 MiB
      Projectors: 4.40 MiB
      PW-descriptor: 2.71 MiB

Total number of cores used: 64
Parallelization over k-points: 16
Domain decomposition: 2 x 2 x 1

Number of atoms: 28
Number of atomic orbitals: 148
Number of bands in calculation: 112
Number of valence electrons: 180
Bands to converge: occupied

... initialized

Initializing position-dependent things.

Density initialized from atomic densities
Creating initial wave functions:
  112 bands from LCAO basis set

                                           
                                           
                                           
                                           
                                           
               O     O  P  O               
            PO           OMn     O         
                  O          MO            
            O        Li O                  
             Mn  Mn          OP            
         O       O Li O                    
         Li     O P         O              
       Li                                  
                                           
                                           
                                           
                                           

Positions:
   0 O     -1.280122   -2.495595   -1.112331    ( 0.0000,  0.0000,  0.0000)
   1 O     -3.023238    2.918858    1.191723    ( 0.0000,  0.0000,  0.0000)
   2 O      1.997451    0.467212    1.441442    ( 0.0000,  0.0000,  0.0000)
   3 O      3.740343   -0.043905   -0.862614    ( 0.0000,  0.0000,  0.0000)
   4 O      1.997419    2.918835    1.441465    ( 0.0000,  0.0000,  0.0000)
   5 O      3.740372   -2.495531   -0.862587    ( 0.0000,  0.0000,  0.0000)
   6 O     -1.280154   -0.043891   -1.112309    ( 0.0000,  0.0000,  0.0000)
   7 O     -3.023210    0.467136    1.191750    ( 0.0000,  0.0000,  0.0000)
   8 O     -4.147405   -1.269737   -0.856207    ( 0.0000,  0.0000,  0.0000)
   9 O     -0.155894    1.692986    1.447725    ( 0.0000,  0.0000,  0.0000)
  10 O      4.864578    1.693016    1.185324    ( 0.0000,  0.0000,  0.0000)
  11 O      0.873163   -1.269706   -1.118625    ( 0.0000,  0.0000,  0.0000)
  12 Mn    -2.437108   -1.269902    0.302197    ( 0.0000,  0.0000,  1.0000)
  13 Mn    -1.866187    1.693156   -2.001927    ( 0.0000,  0.0000, -1.0000)
  14 Mn     3.154299    1.693181    0.026917    ( 0.0000,  0.0000, -1.0000)
  15 Mn     2.583444   -1.269877    2.331074    ( 0.0000,  0.0000,  1.0000)
  16 P     -0.543052   -1.269720   -1.734187    ( 0.0000,  0.0000,  0.0000)
  17 P     -3.760282    1.692974    0.569859    ( 0.0000,  0.0000,  0.0000)
  18 P      1.260300    1.693000    2.063344    ( 0.0000,  0.0000,  0.0000)
  19 P      4.477470   -1.269695   -0.240696    ( 0.0000,  0.0000,  0.0000)
  20 O     -0.544413   -1.269738    1.348523    ( 0.0000,  0.0000,  0.0000)
  21 O     -3.758895    1.692992   -0.955558    ( 0.0000,  0.0000,  0.0000)
  22 O      1.261690    1.693018   -1.019367    ( 0.0000,  0.0000,  0.0000)
  23 O      4.476045   -1.269713    1.284716    ( 0.0000,  0.0000,  0.0000)
  24 Li    -4.662027   -2.751322   -2.139440    ( 0.0000,  0.0000,  0.0000)
  25 Li     0.358703   -2.761277    0.164614    ( 0.0000,  0.0000,  0.0000)
  26 Li    -4.662011    0.211617   -2.139439    ( 0.0000,  0.0000,  0.0000)
  27 Li     0.358720    0.211628    0.164615    ( 0.0000,  0.0000,  0.0000)

Unit cell:
           periodic     x           y           z      points  spacing
  1. axis:    yes   10.041096    0.000054   -0.000022    60     0.1674
  2. axis:    yes    0.000032    5.925857    0.000001    35     0.1693
  3. axis:    yes   -0.000010    0.000001    4.608134    27     0.1707

  Lengths:  10.041096   5.925857   4.608134
  Angles:   89.999974  90.000250  89.999381

Effective grid spacing dv^(1/3) = 0.1691

                     log10-error:           total        iterations:
           time      wfs    density  force  energy       poisson  magmom
iter:   1  16:41:58                       -233.730257             +0.0000
iter:   2  16:42:18  -0.47  -0.95         -231.550100             +0.0099
iter:   3  16:42:38  -0.60  -1.00         -220.894326             +0.0102
iter:   4  16:42:58  -1.23  -1.30         -222.638852             +0.5733
iter:   5  16:43:18  -2.14  -1.36         -222.230197             +0.4056
iter:   6  16:43:37  -2.61  -1.41         -224.306222             +0.1488
iter:   7  16:43:57  -1.96  -1.50         -226.357786             -0.0269
iter:   8  16:44:17  -2.77  -1.98         -226.387555             -0.0055
iter:   9  16:44:37  -2.90  -2.12         -226.299405             +0.0010
iter:  10  16:44:57  -2.08  -2.21         -226.328971             +0.0001
iter:  11  16:45:17  -3.14  -2.31         -226.285004             +0.0003
iter:  12  16:45:37  -2.38  -2.47         -226.223788             +0.0001
iter:  13  16:45:57  -3.30  -2.50         -226.192365             +0.0001
iter:  14  16:46:17  -3.75  -2.89         -226.182126             +0.0000
iter:  15  16:46:36  -4.33  -3.06         -226.176821             +0.0000
iter:  16  16:46:56  -4.71  -3.14         -226.175994             +0.0000
iter:  17  16:47:16  -5.07  -3.20         -226.175865             +0.0000
iter:  18  16:47:36  -4.96  -3.25         -226.175631             +0.0000
iter:  19  16:47:56  -5.03  -3.32         -226.175818             -0.0000
iter:  20  16:48:16  -5.74  -3.35         -226.175735             -0.0000
iter:  21  16:48:36  -4.61  -3.39         -226.175923             -0.0000
iter:  22  16:48:56  -5.45  -3.58         -226.175738             -0.0000
iter:  23  16:49:16  -5.66  -3.66         -226.175398             -0.0000
iter:  24  16:49:35  -5.59  -3.75         -226.175300             -0.0000
iter:  25  16:49:55  -6.25  -3.86         -226.175255             -0.0000
iter:  26  16:50:15  -5.89  -3.95         -226.175231             -0.0000
iter:  27  16:50:35  -6.39  -4.07         -226.175245             -0.0000
iter:  28  16:50:55  -5.77  -4.13         -226.175241             -0.0000
iter:  29  16:51:15  -7.17  -4.36         -226.175231             -0.0000
iter:  30  16:51:35  -7.13  -4.43         -226.175219             +0.0000
iter:  31  16:51:55  -7.17  -4.56         -226.175214             -0.0000
iter:  32  16:52:15  -7.26  -4.75         -226.175214             +0.0000
iter:  33  16:52:39  -7.43  -4.91         -226.175213             -0.0000
iter:  34  16:53:04  -8.28  -5.05    -3.28-226.175213             -0.0000
iter:  35  16:53:29  -8.78  -5.13    -3.26-226.175213             -0.0000
iter:  36  16:53:54  -8.63  -5.19    -2.96-226.175213             -0.0000
iter:  37  16:54:19  -9.52  -5.30    -3.35-226.175213             -0.0000
iter:  38  16:54:44  -9.00  -5.38    -3.46-226.175213             -0.0000
iter:  39  16:55:09  -9.85  -5.92    -3.84-226.175213             -0.0000
iter:  40  16:55:34  -9.87  -6.01    -4.10-226.175213             -0.0000
iter:  41  16:55:59 -10.47  -6.11    -4.36-226.175213             -0.0000
iter:  42  16:56:24 -10.07  -6.17    -3.69-226.175213             -0.0000
iter:  43  16:56:49 -10.98  -6.36    -4.32-226.175213             -0.0000
iter:  44  16:57:13 -11.49  -6.43    -4.76-226.175213             -0.0000
iter:  45  16:57:38 -11.10  -6.48    -4.05-226.175213             -0.0000
iter:  46  16:58:03 -10.89  -6.60    -4.42-226.175213             -0.0000
iter:  47  16:58:28 -12.28  -6.74    -5.02-226.175213             -0.0000
iter:  48  16:58:53 -11.14  -6.79    -4.53-226.175213             -0.0000
iter:  49  16:59:18 -12.00  -7.09    -4.57-226.175213             -0.0000
iter:  50  16:59:43 -13.35  -7.25    -5.46-226.175213             -0.0000
iter:  51  17:00:08 -12.42  -7.29    -5.02-226.175213             -0.0000
iter:  52  17:00:33 -12.57  -7.43    -5.19-226.175213             -0.0000
iter:  53  17:00:58 -13.63  -7.49    -5.39-226.175213             -0.0000
iter:  54  17:01:23 -13.89  -7.55    -5.58-226.175213             -0.0000
iter:  55  17:01:47 -13.26  -7.58    -5.43-226.175213             -0.0000
iter:  56  17:02:12 -14.13  -7.94    -5.80-226.175213             -0.0000
iter:  57  17:02:37 -13.74  -8.01    -5.88-226.175213             -0.0000
iter:  58  17:03:02 -14.25  -8.07    -5.91-226.175213             -0.0000
iter:  59  17:03:27 -14.73  -8.43    -6.20-226.175213             -0.0000

Converged after 59 iterations.

Dipole moment: (18.327368, -2.311562, -4.524201) |e|*Ang

Total magnetic moment: (0.000000, 0.000000, -0.000000)
Local magnetic moments:
   0 O  ( 0.000000,  0.000000, -0.001870)
   1 O  ( 0.000000,  0.000000,  0.001789)
   2 O  ( 0.000000,  0.000000,  0.001778)
   3 O  ( 0.000000,  0.000000, -0.001827)
   4 O  ( 0.000000,  0.000000,  0.001743)
   5 O  ( 0.000000,  0.000000, -0.001824)
   6 O  ( 0.000000,  0.000000, -0.001846)
   7 O  ( 0.000000,  0.000000,  0.001796)
   8 O  ( 0.000000,  0.000000,  0.031075)
   9 O  ( 0.000000,  0.000000, -0.031036)
  10 O  ( 0.000000,  0.000000, -0.031118)
  11 O  ( 0.000000,  0.000000,  0.031157)
  12 Mn ( 0.000000,  0.000000,  4.395786)
  13 Mn ( 0.000000,  0.000000, -4.395706)
  14 Mn ( 0.000000,  0.000000, -4.395716)
  15 Mn ( 0.000000,  0.000000,  4.395827)
  16 P  ( 0.000000,  0.000000,  0.000867)
  17 P  ( 0.000000,  0.000000, -0.000860)
  18 P  ( 0.000000,  0.000000, -0.000870)
  19 P  ( 0.000000,  0.000000,  0.000874)
  20 O  ( 0.000000,  0.000000,  0.028441)
  21 O  ( 0.000000,  0.000000, -0.028429)
  22 O  ( 0.000000,  0.000000, -0.028397)
  23 O  ( 0.000000,  0.000000,  0.028406)
  24 Li ( 0.000000,  0.000000,  0.000000)
  25 Li ( 0.000000,  0.000000, -0.000012)
  26 Li ( 0.000000,  0.000000,  0.000000)
  27 Li ( 0.000000,  0.000000,  0.000002)

Energy contributions relative to reference atoms: (reference = -196157.275402)

Kinetic:       +277.625262
Potential:     -240.967478
External:        +0.000000
XC:            -264.721437
Entropy (-ST):   -0.000000
Local:           +1.888440
--------------------------
Free energy:   -226.175213
Extrapolated:  -226.175213

Spin contamination: 9.455315 electrons
Showing only first 2 kpts
                      Up                     Down
 Kpt  Band  Eigenvalues  Occupancy  Eigenvalues  Occupancy
  0    88      6.53191    1.00000      6.52907    1.00000
  0    89      6.56568    1.00000      6.56251    1.00000
  0    90      8.42529    0.00000      8.42819    0.00000
  0    91      8.44704    0.00000      8.44968    0.00000

  1    88      6.57045    1.00000      6.56743    1.00000
  1    89      6.59765    1.00000      6.59444    1.00000
  1    90      8.38169    0.00000      8.38447    0.00000
  1    91      8.40390    0.00000      8.40657    0.00000


Fermi level: 7.12858

Gap: 1.697 eV
Transition (v -> c):
  (s=0, k=49, n=89, [-0.08, -0.42, -0.12]) -> (s=0, k=81, n=90, [0.08, -0.08, -0.12])
Writing to born-0.01-25y-.gpw (mode='all')

Timing:                              incl.     excl.
-----------------------------------------------------------
Hamiltonian:                         0.290     0.003   0.0% |
 Atomic:                             0.066     0.066   0.0% |
  XC Correction:                     0.000     0.000   0.0% |
 Calculate atomic Hamiltonians:      0.107     0.107   0.0% |
 Communicate:                        0.022     0.022   0.0% |
 Initialize Hamiltonian:             0.000     0.000   0.0% |
 Poisson:                            0.001     0.001   0.0% |
 XC 3D grid:                         0.092     0.092   0.0% |
LCAO initialization:                73.930     0.680   0.0% |
 LCAO eigensolver:                  21.624     0.003   0.0% |
  Calculate projections:             0.029     0.029   0.0% |
  DenseAtomicCorrection:             0.043     0.043   0.0% |
  Distribute overlap matrix:         0.025     0.025   0.0% |
  Orbital Layouts:                   0.281     0.281   0.0% |
  Potential matrix:                 21.154    21.154   0.6% |
  Sum over cells:                    0.089     0.089   0.0% |
 LCAO to grid:                      50.159    50.159   1.5% ||
 Set positions (LCAO WFS):           1.466     0.262   0.0% |
  Basic WFS set positions:           0.001     0.001   0.0% |
  Basis functions set positions:     0.000     0.000   0.0% |
  P tci:                             0.570     0.570   0.0% |
  ST tci:                            0.402     0.402   0.0% |
  mktci:                             0.230     0.230   0.0% |
PWDescriptor:                        0.024     0.024   0.0% |
SCF-cycle:                        1311.090     2.186   0.1% |
 Davidson:                        1111.954   345.424  10.2% |---|
  Apply H:                          79.026    76.773   2.3% ||
   HMM T:                            2.252     2.252   0.1% |
  Subspace diag:                   161.596     0.164   0.0% |
   calc_h_matrix:                  104.914    27.111   0.8% |
    Apply H:                        77.802    75.659   2.2% ||
     HMM T:                          2.143     2.143   0.1% |
   diagonalize:                      6.179     6.179   0.2% |
   rotate_psi:                      50.339    50.339   1.5% ||
  calc. matrices:                  333.872   179.792   5.3% |-|
   Apply H:                        154.080   149.946   4.4% |-|
    HMM T:                           4.134     4.134   0.1% |
  diagonalize:                      91.620    91.620   2.7% ||
  rotate_psi:                      100.416   100.416   3.0% ||
 Density:                           46.482     0.001   0.0% |
  Atomic density matrices:           0.777     0.777   0.0% |
  Mix:                               7.358     7.358   0.2% |
  Multipole moments:                 0.021     0.021   0.0% |
  Pseudo density:                   38.324    38.323   1.1% |
   Symmetrize density:               0.001     0.001   0.0% |
 Forces:                           134.566   134.566   4.0% |-|
 Hamiltonian:                       13.830     0.118   0.0% |
  Atomic:                            3.314     3.313   0.1% |
   XC Correction:                    0.000     0.000   0.0% |
  Calculate atomic Hamiltonians:     4.957     4.957   0.1% |
  Communicate:                       0.069     0.069   0.0% |
  Poisson:                           0.045     0.045   0.0% |
  XC 3D grid:                        5.328     5.328   0.2% |
 Orthonormalize:                     2.072     0.003   0.0% |
  calc_s_matrix:                     0.242     0.242   0.0% |
  inverse-cholesky:                  0.040     0.040   0.0% |
  projections:                       1.351     1.351   0.0% |
  rotate_psi_s:                      0.436     0.436   0.0% |
Set symmetry:                        0.000     0.000   0.0% |
Other:                            1992.300  1992.300  59.0% |-----------------------|
-----------------------------------------------------------
Total:                                      3377.634 100.0%

Memory usage: 11.75 GiB
Date: Mon Mar 29 17:36:38 2021
