
  ___ ___ ___ _ _ _  
 |   |   |_  | | | | 
 | | | | | . | | | | 
 |__ |  _|___|_____|  20.10.1b1
 |___|_|             

User:   madkru@i008.nifl.fysik.dtu.dk
Date:   Thu Mar 25 01:19:15 2021
Arch:   x86_64
Pid:    26969
Python: 3.7.4
gpaw:   /home/niflheim/madkru/venv_folder/gpaw/gpaw (d224efde0f)
_gpaw:  /home/niflheim/madkru/venv_folder/gpaw/build/lib.linux-x86_64-ivybridge-3.7/
        _gpaw.cpython-37m-x86_64-linux-gnu.so (4fd39e8b1e)
ase:    /home/niflheim/madkru/venv_folder/ase/ase (version 3.21.0b1-4d5a73cb29)
numpy:  /home/niflheim/madkru/venv_folder/lib/python3.7/site-packages/numpy (version 1.19.4)
scipy:  /home/niflheim/madkru/venv_folder/lib/python3.7/site-packages/scipy (version 1.5.4)
libxc:  4.3.4
units:  Angstrom and eV
cores: 64
OMP_NUM_THREADS: 1

Input parameters:
  convergence: {bands: occupied,
                density: 0.0001,
                eigenstates: 4e-08,
                energy: 0.0005,
                forces: 1e-06}
  kpts: [6 6 4]
  mode: {ecut: 600.0,
         gammacentered: False,
         name: pw}
  occupations: {fixmagmom: False,
                name: fermi-dirac,
                width: 0.001}
  symmetry: {point_group: False,
             time_reversal: False}

System changes: positions, numbers, cell, pbc, initial_charges, initial_magmoms 

Initialize ...

O-setup:
  name: Oxygen
  id: 9b9d51c344dea68c822856295a461509
  Z: 8.0
  valence: 6
  core: 2
  charge: 0.0
  file: /home/modules/software/GPAW-setups/0.9.20000/O.LDA.gz
  compensation charges: gauss, rc=0.21, lmax=2
  cutoffs: 1.17(filt), 0.83(core),
  valence states:
                energy  radius
    2s(2.00)   -23.752   0.688
    2p(4.00)    -9.195   0.598
    *s           3.459   0.688
    *p          18.016   0.598
    *d           0.000   0.619

  Using partial waves for O as LCAO basis

Mn-setup:
  name: Manganese
  id: 0d715a8018be061a6e9ea6f2d364ac92
  Z: 25.0
  valence: 15
  core: 10
  charge: 0.0
  file: /home/modules/software/GPAW-setups/0.9.20000/Mn.LDA.gz
  compensation charges: gauss, rc=0.38, lmax=2
  cutoffs: 2.14(filt), 0.86(core),
  valence states:
                energy  radius
    3s(2.00)   -85.387   1.275
    4s(2.00)    -5.282   1.275
    3p(6.00)   -54.493   1.281
    4p(0.00)    -1.471   1.281
    3d(5.00)    -7.009   1.138
    *d          20.203   1.138

  Using partial waves for Mn as LCAO basis

P-setup:
  name: Phosphorus
  id: a5561c299094968922a179ab894d2e2d
  Z: 15.0
  valence: 5
  core: 10
  charge: 0.0
  file: /home/modules/software/GPAW-setups/0.9.20000/P.LDA.gz
  compensation charges: gauss, rc=0.30, lmax=2
  cutoffs: 1.69(filt), 1.81(core),
  valence states:
                energy  radius
    3s(2.00)   -14.015   0.953
    3p(3.00)    -5.596   0.953
    *s          13.197   0.953
    *p          21.615   0.953
    *d           0.000   0.953

  Using partial waves for P as LCAO basis

Li-setup:
  name: Lithium
  id: b73562207f97a71b6967473b66fe8b65
  Z: 3.0
  valence: 1
  core: 2
  charge: 0.0
  file: /home/modules/software/GPAW-setups/0.9.20000/Li.LDA.gz
  compensation charges: gauss, rc=0.33, lmax=2
  cutoffs: 1.91(filt), 2.55(core),
  valence states:
                energy  radius
    2s(1.00)    -2.874   1.058
    2p(0.00)    -1.126   1.058
    *s          24.338   1.058

  Using partial waves for Li as LCAO basis

Reference energy: -196157.275402

Spin-polarized calculation.
Magnetic moment: 0.000000

Convergence criteria:
  Maximum total energy change: 0.0005 eV / electron
  Maximum integral of absolute density change: 0.0001 electrons
  Maximum integral of absolute eigenstate change: 4e-08 eV^2
  Maximum change in atomic force: 1e-06 eV / Ang
  Maximum number of iterations: 333

Symmetries present (total): 1

  ( 1  0  0)
  ( 0  1  0)
  ( 0  0  1)

144 k-points: 6 x 6 x 4 Monkhorst-Pack grid
144 k-points in the irreducible part of the Brillouin zone
       k-points in crystal coordinates                weights
   0:    -0.41666667   -0.41666667   -0.37500000          1/144
   1:    -0.41666667   -0.41666667   -0.12500000          1/144
   2:    -0.41666667   -0.41666667    0.12500000          1/144
   3:    -0.41666667   -0.41666667    0.37500000          1/144
   4:    -0.41666667   -0.25000000   -0.37500000          1/144
   5:    -0.41666667   -0.25000000   -0.12500000          1/144
   6:    -0.41666667   -0.25000000    0.12500000          1/144
   7:    -0.41666667   -0.25000000    0.37500000          1/144
   8:    -0.41666667   -0.08333333   -0.37500000          1/144
   9:    -0.41666667   -0.08333333   -0.12500000          1/144
          ...
 143:     0.41666667    0.41666667    0.37500000          1/144

Wave functions: Plane wave expansion
  Cutoff energy: 600.000 eV
  Number of coefficients (min, max): 9132, 9161
  Pulay-stress correction: 0.000000 eV/Ang^3 (de/decut=0.000000)
  Using FFTW library
  ScaLapack parameters: grid=1x1, blocksize=None
  Wavefunction extrapolation:
    Improved wavefunction reuse through dual PAW basis 

  Fermi-Dirac: width=0.0010 eV

Eigensolver
   Davidson(niter=2, smin=None, normalize=True) 

Densities:
  Coarse grid: 60*35*27 grid
  Fine grid: 120*70*54 grid
  Total Charge: 0.000000 

Density mixing:
  Method: difference
  Backend: pulay
  Linear mixing parameter: 0.05
  Mixing with 5 old densities
  Damping of long wave oscillations: 50 

Hamiltonian:
  XC and Coulomb potentials evaluated on a 120*70*54 grid
  Using the LDA Exchange-Correlation functional
 

Memory estimate:
  Process memory now: 12860.23 MiB
  Calculator: 322.47 MiB
    Density: 9.62 MiB
      Arrays: 3.79 MiB
      Localized functions: 4.27 MiB
      Mixer: 1.56 MiB
    Hamiltonian: 2.94 MiB
      Arrays: 2.82 MiB
      XC: 0.00 MiB
      Poisson: 0.00 MiB
      vbar: 0.12 MiB
    Wavefunctions: 309.91 MiB
      Arrays psit_nG: 281.81 MiB
      Eigensolver: 18.27 MiB
      Projections: 2.71 MiB
      Projectors: 4.40 MiB
      PW-descriptor: 2.71 MiB

Total number of cores used: 64
Parallelization over k-points: 16
Domain decomposition: 2 x 2 x 1

Number of atoms: 28
Number of atomic orbitals: 148
Number of bands in calculation: 112
Number of valence electrons: 180
Bands to converge: occupied

... initialized

Initializing position-dependent things.

Density initialized from atomic densities
Creating initial wave functions:
  112 bands from LCAO basis set

                                           
                                           
                                           
                                           
                                           
               O     O  P  O               
            PO           OMn     O         
                  O          MO            
            O        Li O                  
             Mn  Mn          OP            
         O       O Li O                    
         Li     O P         O              
       Li                                  
                                           
                                           
                                           
                                           

Positions:
   0 O     -1.280122   -2.495595   -1.112331    ( 0.0000,  0.0000,  0.0000)
   1 O     -3.023238    2.918858    1.191723    ( 0.0000,  0.0000,  0.0000)
   2 O      1.997451    0.467212    1.441442    ( 0.0000,  0.0000,  0.0000)
   3 O      3.740343   -0.043905   -0.862614    ( 0.0000,  0.0000,  0.0000)
   4 O      1.997419    2.918835    1.441465    ( 0.0000,  0.0000,  0.0000)
   5 O      3.740372   -2.495531   -0.862587    ( 0.0000,  0.0000,  0.0000)
   6 O     -1.280154   -0.043891   -1.112309    ( 0.0000,  0.0000,  0.0000)
   7 O     -3.023210    0.467136    1.191750    ( 0.0000,  0.0000,  0.0000)
   8 O     -4.147405   -1.269737   -0.856207    ( 0.0000,  0.0000,  0.0000)
   9 O     -0.155894    1.692986    1.447725    ( 0.0000,  0.0000,  0.0000)
  10 O      4.864578    1.693016    1.185324    ( 0.0000,  0.0000,  0.0000)
  11 O      0.873163   -1.269706   -1.118625    ( 0.0000,  0.0000,  0.0000)
  12 Mn    -2.437108   -1.269902    0.302197    ( 0.0000,  0.0000,  1.0000)
  13 Mn    -1.866187    1.693156   -2.001927    ( 0.0000,  0.0000, -1.0000)
  14 Mn     3.154299    1.693181    0.026917    ( 0.0000,  0.0000, -1.0000)
  15 Mn     2.583444   -1.269877    2.341074    ( 0.0000,  0.0000,  1.0000)
  16 P     -0.543052   -1.269720   -1.734187    ( 0.0000,  0.0000,  0.0000)
  17 P     -3.760282    1.692974    0.569859    ( 0.0000,  0.0000,  0.0000)
  18 P      1.260300    1.693000    2.063344    ( 0.0000,  0.0000,  0.0000)
  19 P      4.477470   -1.269695   -0.240696    ( 0.0000,  0.0000,  0.0000)
  20 O     -0.544413   -1.269738    1.348523    ( 0.0000,  0.0000,  0.0000)
  21 O     -3.758895    1.692992   -0.955558    ( 0.0000,  0.0000,  0.0000)
  22 O      1.261690    1.693018   -1.019367    ( 0.0000,  0.0000,  0.0000)
  23 O      4.476045   -1.269713    1.284716    ( 0.0000,  0.0000,  0.0000)
  24 Li    -4.662027   -2.751322   -2.139440    ( 0.0000,  0.0000,  0.0000)
  25 Li     0.358703   -2.751277    0.164614    ( 0.0000,  0.0000,  0.0000)
  26 Li    -4.662011    0.211617   -2.139439    ( 0.0000,  0.0000,  0.0000)
  27 Li     0.358720    0.211628    0.164615    ( 0.0000,  0.0000,  0.0000)

Unit cell:
           periodic     x           y           z      points  spacing
  1. axis:    yes   10.041096    0.000054   -0.000022    60     0.1674
  2. axis:    yes    0.000032    5.925857    0.000001    35     0.1693
  3. axis:    yes   -0.000010    0.000001    4.608134    27     0.1707

  Lengths:  10.041096   5.925857   4.608134
  Angles:   89.999974  90.000250  89.999381

Effective grid spacing dv^(1/3) = 0.1691

                     log10-error:           total        iterations:
           time      wfs    density  force  energy       poisson  magmom
iter:   1  01:20:51                       -233.732747             +0.0000
iter:   2  01:21:10  -0.47  -0.95         -231.543750             +0.0005
iter:   3  01:21:30  -0.60  -1.00         -220.856646             +0.0005
iter:   4  01:21:50  -1.21  -1.30         -222.074278             +0.4116
iter:   5  01:22:10  -2.06  -1.36         -222.209461             +0.1874
iter:   6  01:22:30  -2.38  -1.41         -224.323127             -0.1952
iter:   7  01:22:49  -2.32  -1.49         -225.574988             -0.0442
iter:   8  01:23:09  -2.33  -1.75         -226.379871             +0.0560
iter:   9  01:23:29  -2.84  -2.12         -226.306741             +0.0140
iter:  10  01:23:48  -2.78  -2.20         -226.253508             +0.0019
iter:  11  01:24:08  -2.64  -2.31         -226.301927             +0.0036
iter:  12  01:24:28  -2.73  -2.52         -226.214278             +0.0002
iter:  13  01:24:48  -3.86  -2.80         -226.208654             +0.0001
iter:  14  01:25:07  -3.81  -2.88         -226.185284             -0.0000
iter:  15  01:25:27  -3.63  -3.02         -226.182053             +0.0000
iter:  16  01:25:47  -3.94  -3.10         -226.175352             -0.0000
iter:  17  01:26:07  -4.93  -3.25         -226.175408             +0.0000
iter:  18  01:26:26  -4.56  -3.28         -226.176086             +0.0000
iter:  19  01:26:46  -4.79  -3.48         -226.175313             +0.0000
iter:  20  01:27:06  -4.94  -3.55         -226.175389             +0.0000
iter:  21  01:27:26  -6.00  -3.57         -226.175232             +0.0000
iter:  22  01:27:45  -4.84  -3.61         -226.175339             -0.0000
iter:  23  01:28:05  -5.54  -4.07         -226.175049             +0.0000
iter:  24  01:28:25  -6.82  -4.52         -226.175044             +0.0000
iter:  25  01:28:44  -7.30  -4.55         -226.175045             -0.0000
iter:  26  01:29:04  -6.99  -4.61         -226.175037             -0.0000
iter:  27  01:29:28  -8.14  -4.63         -226.175037             -0.0000
iter:  28  01:29:53  -7.67  -4.68    -2.51-226.175036             -0.0000
iter:  29  01:30:17  -7.49  -4.74    -2.76-226.175035             -0.0000
iter:  30  01:30:42  -8.24  -4.78    -2.71-226.175035             -0.0000
iter:  31  01:31:06  -8.06  -4.88    -2.67-226.175035             +0.0000
iter:  32  01:31:30  -7.84  -4.98    -2.88-226.175035             -0.0000
iter:  33  01:31:55  -8.59  -5.02    -3.12-226.175035             -0.0000
iter:  34  01:32:19  -8.44  -5.08    -2.95-226.175035             +0.0000
iter:  35  01:32:43  -9.09  -5.24    -3.56-226.175034             -0.0000
iter:  36  01:33:08  -8.89  -5.32    -3.12-226.175034             -0.0000
iter:  37  01:33:32  -9.07  -5.36    -3.48-226.175034             -0.0000
iter:  38  01:33:56  -9.14  -5.50    -3.49-226.175034             -0.0000
iter:  39  01:34:21  -9.60  -5.59    -3.75-226.175034             +0.0000
iter:  40  01:34:45  -8.99  -5.65    -3.45-226.175034             +0.0000
iter:  41  01:35:10  -9.84  -5.79    -3.39-226.175034             +0.0000
iter:  42  01:35:34 -10.29  -5.85    -3.83-226.175034             +0.0000
iter:  43  01:35:58 -10.00  -5.90    -3.94-226.175034             +0.0000
iter:  44  01:36:23 -10.86  -5.98    -4.17-226.175034             +0.0000
iter:  45  01:36:47 -10.59  -6.01    -4.27-226.175034             +0.0000
iter:  46  01:37:11 -10.53  -6.08    -4.30-226.175034             +0.0000
iter:  47  01:37:36 -10.67  -6.15    -3.86-226.175034             +0.0000
iter:  48  01:38:00 -10.76  -6.35    -4.28-226.175034             +0.0000
iter:  49  01:38:24 -11.62  -6.43    -4.75-226.175034             +0.0000
iter:  50  01:38:49 -10.73  -6.47    -4.04-226.175034             +0.0000
iter:  51  01:39:13 -11.73  -6.89    -4.83-226.175034             +0.0000
iter:  52  01:39:37 -11.60  -6.96    -4.66-226.175034             +0.0000
iter:  53  01:40:02 -12.30  -7.05    -4.57-226.175034             +0.0000
iter:  54  01:40:26 -12.79  -7.34    -5.18-226.175034             +0.0000
iter:  55  01:40:50 -12.57  -7.39    -5.04-226.175034             +0.0000
iter:  56  01:41:15 -13.06  -7.54    -5.20-226.175034             +0.0000
iter:  57  01:41:39 -12.92  -7.60    -5.31-226.175034             +0.0000
iter:  58  01:42:03 -13.96  -8.01    -5.69-226.175034             +0.0000
iter:  59  01:42:27 -14.26  -8.13    -6.09-226.175034             +0.0000

Converged after 59 iterations.

Dipole moment: (18.327344, -2.306220, -4.512597) |e|*Ang

Total magnetic moment: (0.000000, 0.000000, 0.000000)
Local magnetic moments:
   0 O  ( 0.000000,  0.000000, -0.001769)
   1 O  ( 0.000000,  0.000000,  0.001806)
   2 O  ( 0.000000,  0.000000,  0.001567)
   3 O  ( 0.000000,  0.000000, -0.001405)
   4 O  ( 0.000000,  0.000000,  0.001562)
   5 O  ( 0.000000,  0.000000, -0.001399)
   6 O  ( 0.000000,  0.000000, -0.001775)
   7 O  ( 0.000000,  0.000000,  0.001811)
   8 O  ( 0.000000,  0.000000,  0.031107)
   9 O  ( 0.000000,  0.000000, -0.031188)
  10 O  ( 0.000000,  0.000000, -0.031064)
  11 O  ( 0.000000,  0.000000,  0.031314)
  12 Mn ( 0.000000,  0.000000,  4.395794)
  13 Mn ( 0.000000,  0.000000, -4.395783)
  14 Mn ( 0.000000,  0.000000, -4.395385)
  15 Mn ( 0.000000,  0.000000,  4.395588)
  16 P  ( 0.000000,  0.000000,  0.001001)
  17 P  ( 0.000000,  0.000000, -0.000864)
  18 P  ( 0.000000,  0.000000, -0.001080)
  19 P  ( 0.000000,  0.000000,  0.000892)
  20 O  ( 0.000000,  0.000000,  0.028409)
  21 O  ( 0.000000,  0.000000, -0.028399)
  22 O  ( 0.000000,  0.000000, -0.028490)
  23 O  ( 0.000000,  0.000000,  0.028165)
  24 Li ( 0.000000,  0.000000,  0.000004)
  25 Li ( 0.000000,  0.000000,  0.000004)
  26 Li ( 0.000000,  0.000000,  0.000004)
  27 Li ( 0.000000,  0.000000,  0.000004)

Energy contributions relative to reference atoms: (reference = -196157.275402)

Kinetic:       +277.680525
Potential:     -241.010244
External:        +0.000000
XC:            -264.733587
Entropy (-ST):   -0.000000
Local:           +1.888271
--------------------------
Free energy:   -226.175034
Extrapolated:  -226.175034

Spin contamination: 9.454692 electrons
Showing only first 2 kpts
                      Up                     Down
 Kpt  Band  Eigenvalues  Occupancy  Eigenvalues  Occupancy
  0    88      6.52990    0.00694      6.53034    0.00694
  0    89      6.56361    0.00694      6.56400    0.00694
  0    90      8.42725    0.00000      8.42880    0.00000
  0    91      8.44863    0.00000      8.45319    0.00000

  1    88      6.56919    0.00694      6.56888    0.00694
  1    89      6.59642    0.00694      6.59635    0.00694
  1    90      8.38358    0.00000      8.38424    0.00000
  1    91      8.40548    0.00000      8.40737    0.00000


Fermi level: 7.34308

Gap: 1.698 eV
Transition (v -> c):
  (s=0, k=50, n=89, [-0.08, -0.42, 0.12]) -> (s=0, k=62, n=90, [-0.08, 0.08, 0.12])
Writing to born-0.01-15z+.gpw (mode='all')

Timing:                              incl.     excl.
-----------------------------------------------------------
Hamiltonian:                         0.222     0.002   0.0% |
 Atomic:                             0.059     0.059   0.0% |
  XC Correction:                     0.000     0.000   0.0% |
 Calculate atomic Hamiltonians:      0.074     0.074   0.0% |
 Communicate:                        0.002     0.002   0.0% |
 Initialize Hamiltonian:             0.000     0.000   0.0% |
 Poisson:                            0.001     0.001   0.0% |
 XC 3D grid:                         0.084     0.084   0.0% |
LCAO initialization:                71.128     0.678   0.0% |
 LCAO eigensolver:                  19.731     0.002   0.0% |
  Calculate projections:             0.029     0.029   0.0% |
  DenseAtomicCorrection:             0.045     0.045   0.0% |
  Distribute overlap matrix:         0.153     0.153   0.0% |
  Orbital Layouts:                   0.429     0.429   0.0% |
  Potential matrix:                 18.975    18.975   0.6% |
  Sum over cells:                    0.098     0.098   0.0% |
 LCAO to grid:                      49.405    49.405   1.4% ||
 Set positions (LCAO WFS):           1.313     0.206   0.0% |
  Basic WFS set positions:           0.001     0.001   0.0% |
  Basis functions set positions:     0.000     0.000   0.0% |
  P tci:                             0.515     0.515   0.0% |
  ST tci:                            0.377     0.377   0.0% |
  mktci:                             0.214     0.214   0.0% |
PWDescriptor:                        0.023     0.023   0.0% |
SCF-cycle:                        1320.035     3.133   0.1% |
 Davidson:                        1103.332   337.742   9.9% |---|
  Apply H:                          76.765    74.527   2.2% ||
   HMM T:                            2.238     2.238   0.1% |
  Subspace diag:                   160.765     0.168   0.0% |
   calc_h_matrix:                  103.669    26.632   0.8% |
    Apply H:                        77.037    74.775   2.2% ||
     HMM T:                          2.263     2.263   0.1% |
   diagonalize:                      8.023     8.023   0.2% |
   rotate_psi:                      48.905    48.905   1.4% ||
  calc. matrices:                  329.671   180.163   5.3% |-|
   Apply H:                        149.508   145.365   4.2% |-|
    HMM T:                           4.143     4.143   0.1% |
  diagonalize:                      92.631    92.631   2.7% ||
  rotate_psi:                      105.756   105.756   3.1% ||
 Density:                           44.915     0.001   0.0% |
  Atomic density matrices:           0.880     0.880   0.0% |
  Mix:                               6.183     6.183   0.2% |
  Multipole moments:                 0.021     0.021   0.0% |
  Pseudo density:                   37.829    37.828   1.1% |
   Symmetrize density:               0.002     0.002   0.0% |
 Forces:                           154.013   154.013   4.5% |-|
 Hamiltonian:                       12.580     0.127   0.0% |
  Atomic:                            2.911     2.911   0.1% |
   XC Correction:                    0.000     0.000   0.0% |
  Calculate atomic Hamiltonians:     4.391     4.391   0.1% |
  Communicate:                       0.100     0.100   0.0% |
  Poisson:                           0.036     0.036   0.0% |
  XC 3D grid:                        5.016     5.016   0.1% |
 Orthonormalize:                     2.062     0.003   0.0% |
  calc_s_matrix:                     0.242     0.242   0.0% |
  inverse-cholesky:                  0.072     0.072   0.0% |
  projections:                       1.315     1.315   0.0% |
  rotate_psi_s:                      0.430     0.430   0.0% |
Set symmetry:                        0.000     0.000   0.0% |
Other:                            2029.162  2029.162  59.3% |-----------------------|
-----------------------------------------------------------
Total:                                      3420.570 100.0%

Memory usage: 12.57 GiB
Date: Thu Mar 25 02:16:16 2021
