
  ___ ___ ___ _ _ _  
 |   |   |_  | | | | 
 | | | | | . | | | | 
 |__ |  _|___|_____|  21.1.1b1
 |___|_|             

User:   madkru@g043.nifl.fysik.dtu.dk
Date:   Mon Mar 29 23:23:45 2021
Arch:   x86_64
Pid:    9629
Python: 3.8.6
gpaw:   /home/niflheim/madkru/venv_madkru/gpaw/gpaw (e6f0d78a31)
_gpaw:  /home/niflheim/madkru/venv_madkru/gpaw/build/lib.linux-x86_64-sandybridge-3.8/
        _gpaw.cpython-38-x86_64-linux-gnu.so (e6f0d78a31)
ase:    /home/niflheim/madkru/venv_madkru/ase/ase (version 3.22.0b1-4d5a73cb29)
numpy:  /home/modules/software/SciPy-bundle/2020.11-foss-2020b/lib/python3.8/site-packages/numpy (version 1.19.4)
scipy:  /home/modules/software/SciPy-bundle/2020.11-foss-2020b/lib/python3.8/site-packages/scipy (version 1.5.4)
libxc:  4.3.4
units:  Angstrom and eV
cores: 64
OpenMP: False
OMP_NUM_THREADS: 1

Input parameters:
  convergence: {bands: occupied,
                density: 0.0001,
                eigenstates: 4e-08,
                energy: 0.0005,
                forces: 1e-06}
  kpts: [6 6 4]
  mode: {ecut: 600.0,
         gammacentered: False,
         name: pw}
  occupations: {fixmagmom: False,
                name: fermi-dirac,
                width: 0.001}
  symmetry: {point_group: False,
             time_reversal: False}

System changes: positions, numbers, cell, pbc, initial_charges, initial_magmoms 

Initialize ...

O-setup:
  name: Oxygen
  id: 9b9d51c344dea68c822856295a461509
  Z: 8.0
  valence: 6
  core: 2
  charge: 0.0
  file: /home/modules/software/GPAW-setups/0.9.20000/O.LDA.gz
  compensation charges: gauss, rc=0.21, lmax=2
  cutoffs: 1.17(filt), 0.83(core),
  valence states:
                energy  radius
    2s(2.00)   -23.752   0.688
    2p(4.00)    -9.195   0.598
    *s           3.459   0.688
    *p          18.016   0.598
    *d           0.000   0.619

  Using partial waves for O as LCAO basis

Mn-setup:
  name: Manganese
  id: 0d715a8018be061a6e9ea6f2d364ac92
  Z: 25.0
  valence: 15
  core: 10
  charge: 0.0
  file: /home/modules/software/GPAW-setups/0.9.20000/Mn.LDA.gz
  compensation charges: gauss, rc=0.38, lmax=2
  cutoffs: 2.14(filt), 0.86(core),
  valence states:
                energy  radius
    3s(2.00)   -85.387   1.275
    4s(2.00)    -5.282   1.275
    3p(6.00)   -54.493   1.281
    4p(0.00)    -1.471   1.281
    3d(5.00)    -7.009   1.138
    *d          20.203   1.138

  Using partial waves for Mn as LCAO basis

P-setup:
  name: Phosphorus
  id: a5561c299094968922a179ab894d2e2d
  Z: 15.0
  valence: 5
  core: 10
  charge: 0.0
  file: /home/modules/software/GPAW-setups/0.9.20000/P.LDA.gz
  compensation charges: gauss, rc=0.30, lmax=2
  cutoffs: 1.69(filt), 1.81(core),
  valence states:
                energy  radius
    3s(2.00)   -14.015   0.953
    3p(3.00)    -5.596   0.953
    *s          13.197   0.953
    *p          21.615   0.953
    *d           0.000   0.953

  Using partial waves for P as LCAO basis

Li-setup:
  name: Lithium
  id: b73562207f97a71b6967473b66fe8b65
  Z: 3.0
  valence: 1
  core: 2
  charge: 0.0
  file: /home/modules/software/GPAW-setups/0.9.20000/Li.LDA.gz
  compensation charges: gauss, rc=0.33, lmax=2
  cutoffs: 1.91(filt), 2.55(core),
  valence states:
                energy  radius
    2s(1.00)    -2.874   1.058
    2p(0.00)    -1.126   1.058
    *s          24.338   1.058

  Using partial waves for Li as LCAO basis

Reference energy: -196157.275402

Spin-polarized calculation.
Magnetic moment: 0.000000

Convergence criteria:
  Maximum total energy change: 0.0005 eV / electron
  Maximum integral of absolute density change: 0.0001 electrons
  Maximum integral of absolute eigenstate change: 4e-08 eV^2
  Maximum change in atomic force: 1e-06 eV / Ang
  Maximum number of iterations: 333

Symmetries present (total): 1

  ( 1  0  0)
  ( 0  1  0)
  ( 0  0  1)

144 k-points: 6 x 6 x 4 Monkhorst-Pack grid
144 k-points in the irreducible part of the Brillouin zone
       k-points in crystal coordinates                weights
   0:    -0.41666667   -0.41666667   -0.37500000          1/144
   1:    -0.41666667   -0.41666667   -0.12500000          1/144
   2:    -0.41666667   -0.41666667    0.12500000          1/144
   3:    -0.41666667   -0.41666667    0.37500000          1/144
   4:    -0.41666667   -0.25000000   -0.37500000          1/144
   5:    -0.41666667   -0.25000000   -0.12500000          1/144
   6:    -0.41666667   -0.25000000    0.12500000          1/144
   7:    -0.41666667   -0.25000000    0.37500000          1/144
   8:    -0.41666667   -0.08333333   -0.37500000          1/144
   9:    -0.41666667   -0.08333333   -0.12500000          1/144
          ...
 143:     0.41666667    0.41666667    0.37500000          1/144

Wave functions: Plane wave expansion
  Cutoff energy: 600.000 eV
  Number of coefficients (min, max): 9132, 9161
  Pulay-stress correction: 0.000000 eV/Ang^3 (de/decut=0.000000)
  Using FFTW library
  ScaLapack parameters: grid=1x1, blocksize=None
  Wavefunction extrapolation:
    Improved wavefunction reuse through dual PAW basis 

  Fermi-Dirac: width=0.0010 eV

Eigensolver
   Davidson(niter=2) 

Densities:
  Coarse grid: 60*35*27 grid
  Fine grid: 120*70*54 grid
  Total Charge: 0.000000 

Density mixing:
  Method: difference
  Backend: pulay
  Linear mixing parameter: 0.05
  Mixing with 5 old densities
  Damping of long wave oscillations: 50 

Hamiltonian:
  XC and Coulomb potentials evaluated on a 120*70*54 grid
  Using the LDA Exchange-Correlation functional
 

Memory estimate:
  Process memory now: 12359.36 MiB
  Calculator: 322.47 MiB
    Density: 9.62 MiB
      Arrays: 3.79 MiB
      Localized functions: 4.27 MiB
      Mixer: 1.56 MiB
    Hamiltonian: 2.94 MiB
      Arrays: 2.82 MiB
      XC: 0.00 MiB
      Poisson: 0.00 MiB
      vbar: 0.12 MiB
    Wavefunctions: 309.91 MiB
      Arrays psit_nG: 281.81 MiB
      Eigensolver: 18.27 MiB
      Projections: 2.71 MiB
      Projectors: 4.40 MiB
      PW-descriptor: 2.71 MiB

Total number of cores used: 64
Parallelization over k-points: 16
Domain decomposition: 2 x 2 x 1

Number of atoms: 28
Number of atomic orbitals: 148
Number of bands in calculation: 112
Number of valence electrons: 180
Bands to converge: occupied

... initialized

Initializing position-dependent things.

Density initialized from atomic densities
Creating initial wave functions:
  112 bands from LCAO basis set

                                           
                                           
                                           
                                           
                                           
               O     O  P  O               
            PO           OMn     O         
                  O          MO            
            O        Li O                  
             Mn  Mn          OP            
         O       O Li O                    
         Li     O P         O              
       Li                                  
                                           
                                           
                                           
                                           

Positions:
   0 O     -1.280122   -2.495595   -1.112331    ( 0.0000,  0.0000,  0.0000)
   1 O     -3.023238    2.918858    1.191723    ( 0.0000,  0.0000,  0.0000)
   2 O      1.997451    0.467212    1.441442    ( 0.0000,  0.0000,  0.0000)
   3 O      3.740343   -0.043905   -0.862614    ( 0.0000,  0.0000,  0.0000)
   4 O      1.997419    2.918835    1.441465    ( 0.0000,  0.0000,  0.0000)
   5 O      3.740372   -2.495531   -0.862587    ( 0.0000,  0.0000,  0.0000)
   6 O     -1.280154   -0.043891   -1.112309    ( 0.0000,  0.0000,  0.0000)
   7 O     -3.023210    0.467136    1.191750    ( 0.0000,  0.0000,  0.0000)
   8 O     -4.147405   -1.269737   -0.856207    ( 0.0000,  0.0000,  0.0000)
   9 O     -0.155894    1.692986    1.447725    ( 0.0000,  0.0000,  0.0000)
  10 O      4.864578    1.693016    1.185324    ( 0.0000,  0.0000,  0.0000)
  11 O      0.873163   -1.269706   -1.118625    ( 0.0000,  0.0000,  0.0000)
  12 Mn    -2.437108   -1.269902    0.302197    ( 0.0000,  0.0000,  1.0000)
  13 Mn    -1.866187    1.693156   -2.001927    ( 0.0000,  0.0000, -1.0000)
  14 Mn     3.154299    1.693181    0.026917    ( 0.0000,  0.0000, -1.0000)
  15 Mn     2.583444   -1.269877    2.331074    ( 0.0000,  0.0000,  1.0000)
  16 P     -0.543052   -1.269720   -1.734187    ( 0.0000,  0.0000,  0.0000)
  17 P     -3.760282    1.692974    0.569859    ( 0.0000,  0.0000,  0.0000)
  18 P      1.260300    1.693000    2.063344    ( 0.0000,  0.0000,  0.0000)
  19 P      4.477470   -1.269695   -0.240696    ( 0.0000,  0.0000,  0.0000)
  20 O     -0.544413   -1.269738    1.348523    ( 0.0000,  0.0000,  0.0000)
  21 O     -3.758895    1.692992   -0.955558    ( 0.0000,  0.0000,  0.0000)
  22 O      1.261690    1.693018   -1.019367    ( 0.0000,  0.0000,  0.0000)
  23 O      4.476045   -1.269713    1.284716    ( 0.0000,  0.0000,  0.0000)
  24 Li    -4.662027   -2.751322   -2.139440    ( 0.0000,  0.0000,  0.0000)
  25 Li     0.358703   -2.751277    0.164614    ( 0.0000,  0.0000,  0.0000)
  26 Li    -4.662011    0.211617   -2.139439    ( 0.0000,  0.0000,  0.0000)
  27 Li     0.358720    0.221628    0.164615    ( 0.0000,  0.0000,  0.0000)

Unit cell:
           periodic     x           y           z      points  spacing
  1. axis:    yes   10.041096    0.000054   -0.000022    60     0.1674
  2. axis:    yes    0.000032    5.925857    0.000001    35     0.1693
  3. axis:    yes   -0.000010    0.000001    4.608134    27     0.1707

  Lengths:  10.041096   5.925857   4.608134
  Angles:   89.999974  90.000250  89.999381

Effective grid spacing dv^(1/3) = 0.1691

                     log10-error:           total        iterations:
           time      wfs    density  force  energy       poisson  magmom
iter:   1  23:25:28                       -233.730257             +0.0000
iter:   2  23:25:48  -0.47  -0.95         -231.550100             +0.0099
iter:   3  23:26:08  -0.60  -1.00         -220.894314             +0.0102
iter:   4  23:26:28  -1.23  -1.30         -222.638645             +0.5732
iter:   5  23:26:48  -2.14  -1.36         -222.230181             +0.4056
iter:   6  23:27:08  -2.61  -1.41         -224.306219             +0.1488
iter:   7  23:27:28  -1.96  -1.50         -226.358517             -0.0267
iter:   8  23:27:48  -2.77  -1.98         -226.387593             -0.0056
iter:   9  23:28:08  -2.90  -2.12         -226.299440             +0.0010
iter:  10  23:28:28  -2.08  -2.21         -226.329238             +0.0001
iter:  11  23:28:48  -3.14  -2.31         -226.284652             +0.0003
iter:  12  23:29:08  -2.38  -2.47         -226.223446             +0.0001
iter:  13  23:29:28  -3.31  -2.50         -226.192221             +0.0001
iter:  14  23:29:48  -3.75  -2.89         -226.182069             +0.0000
iter:  15  23:30:08  -4.33  -3.06         -226.176794             +0.0000
iter:  16  23:30:28  -4.72  -3.14         -226.175988             +0.0000
iter:  17  23:30:47  -5.07  -3.20         -226.175859             +0.0000
iter:  18  23:31:07  -4.98  -3.26         -226.175631             -0.0000
iter:  19  23:31:27  -5.03  -3.32         -226.175816             -0.0000
iter:  20  23:31:47  -5.75  -3.35         -226.175735             -0.0000
iter:  21  23:32:07  -4.59  -3.39         -226.175938             -0.0000
iter:  22  23:32:27  -5.45  -3.59         -226.175722             -0.0000
iter:  23  23:32:47  -5.59  -3.67         -226.175366             -0.0000
iter:  24  23:33:07  -5.65  -3.78         -226.175285             -0.0000
iter:  25  23:33:27  -6.28  -3.89         -226.175248             +0.0000
iter:  26  23:33:47  -5.94  -3.97         -226.175230             -0.0000
iter:  27  23:34:07  -6.46  -4.09         -226.175242             +0.0000
iter:  28  23:34:27  -5.83  -4.15         -226.175236             -0.0000
iter:  29  23:34:47  -7.20  -4.40         -226.175229             -0.0000
iter:  30  23:35:07  -7.09  -4.48         -226.175216             +0.0000
iter:  31  23:35:27  -7.13  -4.63         -226.175213             -0.0000
iter:  32  23:35:47  -7.38  -4.87         -226.175214             +0.0000
iter:  33  23:36:12  -7.70  -4.99         -226.175213             -0.0000
iter:  34  23:36:37  -8.34  -5.11    -3.20-226.175213             -0.0000
iter:  35  23:37:02  -8.59  -5.24    -3.20-226.175213             -0.0000
iter:  36  23:37:27  -9.08  -5.32    -3.25-226.175213             -0.0000
iter:  37  23:37:52  -9.56  -5.39    -3.66-226.175213             -0.0000
iter:  38  23:38:17  -9.28  -5.50    -3.47-226.175213             -0.0000
iter:  39  23:38:41 -10.27  -5.72    -4.16-226.175213             -0.0000
iter:  40  23:39:06  -8.99  -5.78    -3.46-226.175213             -0.0000
iter:  41  23:39:31 -10.26  -6.19    -4.44-226.175213             -0.0000
iter:  42  23:39:56 -10.55  -6.20    -3.97-226.175213             -0.0000
iter:  43  23:40:21 -11.01  -6.23    -4.60-226.175213             -0.0000
iter:  44  23:40:46  -9.98  -6.25    -3.65-226.175213             -0.0000
iter:  45  23:41:11 -10.79  -6.42    -4.35-226.175213             -0.0000
iter:  46  23:41:36 -11.30  -6.68    -4.83-226.175213             -0.0000
iter:  47  23:42:01 -11.84  -6.79    -4.76-226.175213             -0.0000
iter:  48  23:42:26 -12.30  -6.89    -4.92-226.175213             -0.0000
iter:  49  23:42:51 -12.12  -6.98    -4.94-226.175213             -0.0000
iter:  50  23:43:16 -12.33  -7.05    -5.14-226.175213             -0.0000
iter:  51  23:43:41 -12.76  -7.09    -5.54-226.175213             -0.0000
iter:  52  23:44:06 -12.44  -7.13    -5.36-226.175213             -0.0000
iter:  53  23:44:31 -13.04  -7.21    -5.40-226.175213             -0.0000
iter:  54  23:44:56 -13.00  -7.26    -4.92-226.175213             -0.0000
iter:  55  23:45:21 -13.43  -7.35    -5.32-226.175213             -0.0000
iter:  56  23:45:46 -13.69  -7.43    -5.67-226.175213             -0.0000
iter:  57  23:46:11 -13.40  -7.52    -5.69-226.175213             -0.0000
iter:  58  23:46:36 -13.44  -7.59    -5.58-226.175213             -0.0000
iter:  59  23:47:00 -13.91  -7.67    -5.92-226.175213             -0.0000
iter:  60  23:47:25 -13.10  -7.71    -5.63-226.175213             -0.0000
iter:  61  23:47:50 -14.21  -8.07    -6.13-226.175213             -0.0000

Converged after 61 iterations.

Dipole moment: (18.327368, -2.355462, -4.524201) |e|*Ang

Total magnetic moment: (0.000000, 0.000000, -0.000000)
Local magnetic moments:
   0 O  ( 0.000000,  0.000000, -0.001841)
   1 O  ( 0.000000,  0.000000,  0.001791)
   2 O  ( 0.000000,  0.000000,  0.001748)
   3 O  ( 0.000000,  0.000000, -0.001829)
   4 O  ( 0.000000,  0.000000,  0.001772)
   5 O  ( 0.000000,  0.000000, -0.001822)
   6 O  ( 0.000000,  0.000000, -0.001875)
   7 O  ( 0.000000,  0.000000,  0.001794)
   8 O  ( 0.000000,  0.000000,  0.031075)
   9 O  ( 0.000000,  0.000000, -0.031036)
  10 O  ( 0.000000,  0.000000, -0.031118)
  11 O  ( 0.000000,  0.000000,  0.031157)
  12 Mn ( 0.000000,  0.000000,  4.395786)
  13 Mn ( 0.000000,  0.000000, -4.395706)
  14 Mn ( 0.000000,  0.000000, -4.395716)
  15 Mn ( 0.000000,  0.000000,  4.395827)
  16 P  ( 0.000000,  0.000000,  0.000867)
  17 P  ( 0.000000,  0.000000, -0.000860)
  18 P  ( 0.000000,  0.000000, -0.000870)
  19 P  ( 0.000000,  0.000000,  0.000874)
  20 O  ( 0.000000,  0.000000,  0.028441)
  21 O  ( 0.000000,  0.000000, -0.028429)
  22 O  ( 0.000000,  0.000000, -0.028397)
  23 O  ( 0.000000,  0.000000,  0.028406)
  24 Li ( 0.000000,  0.000000,  0.000000)
  25 Li ( 0.000000,  0.000000,  0.000002)
  26 Li ( 0.000000,  0.000000,  0.000000)
  27 Li ( 0.000000,  0.000000, -0.000012)

Energy contributions relative to reference atoms: (reference = -196157.275402)

Kinetic:       +277.625285
Potential:     -240.967495
External:        +0.000000
XC:            -264.721440
Entropy (-ST):   -0.000000
Local:           +1.888437
--------------------------
Free energy:   -226.175213
Extrapolated:  -226.175213

Spin contamination: 9.455315 electrons
Showing only first 2 kpts
                      Up                     Down
 Kpt  Band  Eigenvalues  Occupancy  Eigenvalues  Occupancy
  0    88      6.53191    1.00000      6.52908    1.00000
  0    89      6.56568    1.00000      6.56251    1.00000
  0    90      8.42529    0.00000      8.42819    0.00000
  0    91      8.44704    0.00000      8.44968    0.00000

  1    88      6.57044    1.00000      6.56743    1.00000
  1    89      6.59765    1.00000      6.59444    1.00000
  1    90      8.38169    0.00000      8.38447    0.00000
  1    91      8.40391    0.00000      8.40657    0.00000


Fermi level: 7.12759

Gap: 1.697 eV
Transition (v -> c):
  (s=0, k=69, n=89, [-0.08, 0.42, -0.12]) -> (s=0, k=58, n=90, [-0.08, -0.08, 0.12])
Writing to born-0.01-27y+.gpw (mode='all')

Timing:                              incl.     excl.
-----------------------------------------------------------
Hamiltonian:                         0.252     0.003   0.0% |
 Atomic:                             0.072     0.072   0.0% |
  XC Correction:                     0.000     0.000   0.0% |
 Calculate atomic Hamiltonians:      0.085     0.085   0.0% |
 Communicate:                        0.000     0.000   0.0% |
 Initialize Hamiltonian:             0.000     0.000   0.0% |
 Poisson:                            0.001     0.001   0.0% |
 XC 3D grid:                         0.092     0.092   0.0% |
LCAO initialization:                78.578     0.674   0.0% |
 LCAO eigensolver:                  21.674     0.002   0.0% |
  Calculate projections:             0.029     0.029   0.0% |
  DenseAtomicCorrection:             0.043     0.043   0.0% |
  Distribute overlap matrix:         0.132     0.132   0.0% |
  Orbital Layouts:                   0.279     0.279   0.0% |
  Potential matrix:                 21.103    21.103   0.6% |
  Sum over cells:                    0.086     0.086   0.0% |
 LCAO to grid:                      54.849    54.849   1.6% ||
 Set positions (LCAO WFS):           1.381     0.197   0.0% |
  Basic WFS set positions:           0.002     0.002   0.0% |
  Basis functions set positions:     0.000     0.000   0.0% |
  P tci:                             0.528     0.528   0.0% |
  ST tci:                            0.397     0.397   0.0% |
  mktci:                             0.257     0.257   0.0% |
PWDescriptor:                        0.025     0.025   0.0% |
SCF-cycle:                        1365.196     5.576   0.2% |
 Davidson:                        1150.308   357.885  10.7% |---|
  Apply H:                          81.132    78.813   2.4% ||
   HMM T:                            2.318     2.318   0.1% |
  Subspace diag:                   166.685     0.176   0.0% |
   calc_h_matrix:                  108.205    27.945   0.8% |
    Apply H:                        80.260    78.046   2.3% ||
     HMM T:                          2.214     2.214   0.1% |
   diagonalize:                      6.269     6.269   0.2% |
   rotate_psi:                      52.035    52.035   1.6% ||
  calc. matrices:                  345.795   186.009   5.6% |-|
   Apply H:                        159.786   155.398   4.7% |-|
    HMM T:                           4.388     4.388   0.1% |
  diagonalize:                      95.042    95.042   2.9% ||
  rotate_psi:                      103.768   103.768   3.1% ||
 Density:                           47.844     0.001   0.0% |
  Atomic density matrices:           0.807     0.807   0.0% |
  Mix:                               7.778     7.778   0.2% |
  Multipole moments:                 0.023     0.023   0.0% |
  Pseudo density:                   39.234    39.232   1.2% |
   Symmetrize density:               0.002     0.002   0.0% |
 Forces:                           144.976   144.976   4.4% |-|
 Hamiltonian:                       14.399     0.125   0.0% |
  Atomic:                            3.364     3.364   0.1% |
   XC Correction:                    0.000     0.000   0.0% |
  Calculate atomic Hamiltonians:     5.141     5.141   0.2% |
  Communicate:                       0.062     0.062   0.0% |
  Poisson:                           0.051     0.051   0.0% |
  XC 3D grid:                        5.656     5.656   0.2% |
 Orthonormalize:                     2.093     0.003   0.0% |
  calc_s_matrix:                     0.244     0.244   0.0% |
  inverse-cholesky:                  0.039     0.039   0.0% |
  projections:                       1.362     1.362   0.0% |
  rotate_psi_s:                      0.445     0.445   0.0% |
Set symmetry:                        0.000     0.000   0.0% |
Other:                            1887.621  1887.621  56.7% |----------------------|
-----------------------------------------------------------
Total:                                      3331.671 100.0%

Memory usage: 12.08 GiB
Date: Tue Mar 30 00:19:17 2021
