
  ___ ___ ___ _ _ _  
 |   |   |_  | | | | 
 | | | | | . | | | | 
 |__ |  _|___|_____|  20.10.1b1
 |___|_|             

User:   madkru@i013.nifl.fysik.dtu.dk
Date:   Mon Mar 22 00:23:01 2021
Arch:   x86_64
Pid:    27943
Python: 3.7.4
gpaw:   /home/niflheim/madkru/venv_folder/gpaw/gpaw (d0d1ca1c71)
_gpaw:  /home/niflheim/madkru/venv_folder/gpaw/build/lib.linux-x86_64-ivybridge-3.7/
        _gpaw.cpython-37m-x86_64-linux-gnu.so (4fd39e8b1e)
ase:    /home/niflheim/madkru/venv_folder/ase/ase (version 3.21.0b1-7e6c206a91)
numpy:  /home/niflheim/madkru/venv_folder/lib/python3.7/site-packages/numpy (version 1.19.4)
scipy:  /home/niflheim/madkru/venv_folder/lib/python3.7/site-packages/scipy (version 1.5.4)
libxc:  4.3.4
units:  Angstrom and eV
cores: 32
OMP_NUM_THREADS: 1

Input parameters:
  convergence: {bands: occupied,
                density: 0.0001,
                eigenstates: 4e-08,
                energy: 0.0005,
                forces: 1e-06}
  kpts: [6 6 4]
  mode: {ecut: 600.0,
         gammacentered: False,
         name: pw}
  occupations: {fixmagmom: False,
                name: fermi-dirac,
                width: 0.001}
  symmetry: {point_group: False,
             time_reversal: False}

System changes: positions, numbers, cell, pbc, initial_charges, initial_magmoms 

Initialize ...

O-setup:
  name: Oxygen
  id: 9b9d51c344dea68c822856295a461509
  Z: 8.0
  valence: 6
  core: 2
  charge: 0.0
  file: /home/modules/software/GPAW-setups/0.9.20000/O.LDA.gz
  compensation charges: gauss, rc=0.21, lmax=2
  cutoffs: 1.17(filt), 0.83(core),
  valence states:
                energy  radius
    2s(2.00)   -23.752   0.688
    2p(4.00)    -9.195   0.598
    *s           3.459   0.688
    *p          18.016   0.598
    *d           0.000   0.619

  Using partial waves for O as LCAO basis

Mn-setup:
  name: Manganese
  id: 0d715a8018be061a6e9ea6f2d364ac92
  Z: 25.0
  valence: 15
  core: 10
  charge: 0.0
  file: /home/modules/software/GPAW-setups/0.9.20000/Mn.LDA.gz
  compensation charges: gauss, rc=0.38, lmax=2
  cutoffs: 2.14(filt), 0.86(core),
  valence states:
                energy  radius
    3s(2.00)   -85.387   1.275
    4s(2.00)    -5.282   1.275
    3p(6.00)   -54.493   1.281
    4p(0.00)    -1.471   1.281
    3d(5.00)    -7.009   1.138
    *d          20.203   1.138

  Using partial waves for Mn as LCAO basis

P-setup:
  name: Phosphorus
  id: a5561c299094968922a179ab894d2e2d
  Z: 15.0
  valence: 5
  core: 10
  charge: 0.0
  file: /home/modules/software/GPAW-setups/0.9.20000/P.LDA.gz
  compensation charges: gauss, rc=0.30, lmax=2
  cutoffs: 1.69(filt), 1.81(core),
  valence states:
                energy  radius
    3s(2.00)   -14.015   0.953
    3p(3.00)    -5.596   0.953
    *s          13.197   0.953
    *p          21.615   0.953
    *d           0.000   0.953

  Using partial waves for P as LCAO basis

Li-setup:
  name: Lithium
  id: b73562207f97a71b6967473b66fe8b65
  Z: 3.0
  valence: 1
  core: 2
  charge: 0.0
  file: /home/modules/software/GPAW-setups/0.9.20000/Li.LDA.gz
  compensation charges: gauss, rc=0.33, lmax=2
  cutoffs: 1.91(filt), 2.55(core),
  valence states:
                energy  radius
    2s(1.00)    -2.874   1.058
    2p(0.00)    -1.126   1.058
    *s          24.338   1.058

  Using partial waves for Li as LCAO basis

Reference energy: -196157.275402

Spin-polarized calculation.
Magnetic moment: 0.000000

Convergence criteria:
  Maximum total energy change: 0.0005 eV / electron
  Maximum integral of absolute density change: 0.0001 electrons
  Maximum integral of absolute eigenstate change: 4e-08 eV^2
  Maximum change in atomic force: 1e-06 eV / Ang
  Maximum number of iterations: 333

Symmetries present (total): 1

  ( 1  0  0)
  ( 0  1  0)
  ( 0  0  1)

144 k-points: 6 x 6 x 4 Monkhorst-Pack grid
144 k-points in the irreducible part of the Brillouin zone
       k-points in crystal coordinates                weights
   0:    -0.41666667   -0.41666667   -0.37500000          1/144
   1:    -0.41666667   -0.41666667   -0.12500000          1/144
   2:    -0.41666667   -0.41666667    0.12500000          1/144
   3:    -0.41666667   -0.41666667    0.37500000          1/144
   4:    -0.41666667   -0.25000000   -0.37500000          1/144
   5:    -0.41666667   -0.25000000   -0.12500000          1/144
   6:    -0.41666667   -0.25000000    0.12500000          1/144
   7:    -0.41666667   -0.25000000    0.37500000          1/144
   8:    -0.41666667   -0.08333333   -0.37500000          1/144
   9:    -0.41666667   -0.08333333   -0.12500000          1/144
          ...
 143:     0.41666667    0.41666667    0.37500000          1/144

Wave functions: Plane wave expansion
  Cutoff energy: 600.000 eV
  Number of coefficients (min, max): 9132, 9161
  Pulay-stress correction: 0.000000 eV/Ang^3 (de/decut=0.000000)
  Using FFTW library
  ScaLapack parameters: grid=1x1, blocksize=None
  Wavefunction extrapolation:
    Improved wavefunction reuse through dual PAW basis 

  Fermi-Dirac: width=0.0010 eV

Eigensolver
   Davidson(niter=2, smin=None, normalize=True) 

Densities:
  Coarse grid: 60*35*27 grid
  Fine grid: 120*70*54 grid
  Total Charge: 0.000000 

Density mixing:
  Method: difference
  Backend: pulay
  Linear mixing parameter: 0.05
  Mixing with 5 old densities
  Damping of long wave oscillations: 50 

Hamiltonian:
  XC and Coulomb potentials evaluated on a 120*70*54 grid
  Using the LDA Exchange-Correlation functional
 

Memory estimate:
  Process memory now: 12830.64 MiB
  Calculator: 342.26 MiB
    Density: 19.13 MiB
      Arrays: 7.57 MiB
      Localized functions: 8.54 MiB
      Mixer: 3.03 MiB
    Hamiltonian: 5.87 MiB
      Arrays: 5.62 MiB
      XC: 0.00 MiB
      Poisson: 0.00 MiB
      vbar: 0.25 MiB
    Wavefunctions: 317.25 MiB
      Arrays psit_nG: 281.81 MiB
      Eigensolver: 18.27 MiB
      Projections: 5.41 MiB
      Projectors: 8.81 MiB
      PW-descriptor: 2.95 MiB

Total number of cores used: 32
Parallelization over k-points: 16
Domain decomposition: 2 x 1 x 1

Number of atoms: 28
Number of atomic orbitals: 148
Number of bands in calculation: 112
Number of valence electrons: 180
Bands to converge: occupied

... initialized

Initializing position-dependent things.

Density initialized from atomic densities
Creating initial wave functions:
  112 bands from LCAO basis set

                                           
                                           
                                           
                                           
                                           
               O     O  P  O               
            PO           OMn     O         
                  O          MO            
            O        Li O                  
             Mn  Mn          OP            
         O       O Li O                    
         Li     O P         O              
       Li                                  
                                           
                                           
                                           
                                           

Positions:
   0 O     -1.280122   -2.495595   -1.112331    ( 0.0000,  0.0000,  0.0000)
   1 O     -3.023238    2.918858    1.191723    ( 0.0000,  0.0000,  0.0000)
   2 O      1.997451    0.467212    1.441442    ( 0.0000,  0.0000,  0.0000)
   3 O      3.740343   -0.043905   -0.862614    ( 0.0000,  0.0000,  0.0000)
   4 O      1.997419    2.908835    1.441465    ( 0.0000,  0.0000,  0.0000)
   5 O      3.740372   -2.495531   -0.862587    ( 0.0000,  0.0000,  0.0000)
   6 O     -1.280154   -0.043891   -1.112309    ( 0.0000,  0.0000,  0.0000)
   7 O     -3.023210    0.467136    1.191750    ( 0.0000,  0.0000,  0.0000)
   8 O     -4.147405   -1.269737   -0.856207    ( 0.0000,  0.0000,  0.0000)
   9 O     -0.155894    1.692986    1.447725    ( 0.0000,  0.0000,  0.0000)
  10 O      4.864578    1.693016    1.185324    ( 0.0000,  0.0000,  0.0000)
  11 O      0.873163   -1.269706   -1.118625    ( 0.0000,  0.0000,  0.0000)
  12 Mn    -2.437108   -1.269902    0.302197    ( 0.0000,  0.0000,  1.0000)
  13 Mn    -1.866187    1.693156   -2.001927    ( 0.0000,  0.0000, -1.0000)
  14 Mn     3.154299    1.693181    0.026917    ( 0.0000,  0.0000, -1.0000)
  15 Mn     2.583444   -1.269877    2.331074    ( 0.0000,  0.0000,  1.0000)
  16 P     -0.543052   -1.269720   -1.734187    ( 0.0000,  0.0000,  0.0000)
  17 P     -3.760282    1.692974    0.569859    ( 0.0000,  0.0000,  0.0000)
  18 P      1.260300    1.693000    2.063344    ( 0.0000,  0.0000,  0.0000)
  19 P      4.477470   -1.269695   -0.240696    ( 0.0000,  0.0000,  0.0000)
  20 O     -0.544413   -1.269738    1.348523    ( 0.0000,  0.0000,  0.0000)
  21 O     -3.758895    1.692992   -0.955558    ( 0.0000,  0.0000,  0.0000)
  22 O      1.261690    1.693018   -1.019367    ( 0.0000,  0.0000,  0.0000)
  23 O      4.476045   -1.269713    1.284716    ( 0.0000,  0.0000,  0.0000)
  24 Li    -4.662027   -2.751322   -2.139440    ( 0.0000,  0.0000,  0.0000)
  25 Li     0.358703   -2.751277    0.164614    ( 0.0000,  0.0000,  0.0000)
  26 Li    -4.662011    0.211617   -2.139439    ( 0.0000,  0.0000,  0.0000)
  27 Li     0.358720    0.211628    0.164615    ( 0.0000,  0.0000,  0.0000)

Unit cell:
           periodic     x           y           z      points  spacing
  1. axis:    yes   10.041096    0.000054   -0.000022    60     0.1674
  2. axis:    yes    0.000032    5.925857    0.000001    35     0.1693
  3. axis:    yes   -0.000010    0.000001    4.608134    27     0.1707

  Lengths:  10.041096   5.925857   4.608134
  Angles:   89.999974  90.000250  89.999381

Effective grid spacing dv^(1/3) = 0.1691

                     log10-error:           total        iterations:
           time      wfs    density  force  energy       poisson  magmom
iter:   1  00:26:05                       -233.723752             +0.0000
iter:   2  00:26:41  -0.47  -0.95         -231.548645             +0.0034
iter:   3  00:27:18  -0.61  -1.00         -220.797428             +0.0035
iter:   4  00:27:54  -1.20  -1.31         -220.975189             -0.2764
iter:   5  00:28:30  -2.14  -1.39         -222.803310             -0.1463
iter:   6  00:29:06  -2.21  -1.37         -224.402636             -0.0665
iter:   7  00:29:43  -2.16  -1.49         -223.798119             -0.0362
iter:   8  00:30:19  -2.40  -1.62         -225.462899             -0.4501
iter:   9  00:30:55  -2.34  -1.86         -226.447650             +0.2448
iter:  10  00:31:31  -2.40  -2.00         -226.358591             +0.0840
iter:  11  00:32:08  -2.84  -2.09         -226.313235             +0.0203
iter:  12  00:32:44  -2.36  -2.14         -226.282953             +0.0089
iter:  13  00:33:20  -2.90  -2.48         -226.225369             +0.0069
iter:  14  00:33:56  -3.17  -2.73         -226.187652             +0.0025
iter:  15  00:34:33  -3.25  -2.85         -226.178015             +0.0009
iter:  16  00:35:09  -4.34  -3.02         -226.178189             +0.0005
iter:  17  00:35:45  -4.30  -3.06         -226.174377             -0.0001
iter:  18  00:36:21  -4.42  -3.19         -226.176584             +0.0000
iter:  19  00:36:57  -4.85  -3.22         -226.174791             +0.0000
iter:  20  00:37:33  -4.47  -3.28         -226.174527             +0.0000
iter:  21  00:38:10  -5.49  -3.36         -226.174160             +0.0000
iter:  22  00:38:46  -5.78  -3.39         -226.173949             -0.0000
iter:  23  00:39:22  -5.85  -3.63         -226.174007             -0.0000
iter:  24  00:39:59  -5.58  -3.70         -226.173954             -0.0000
iter:  25  00:40:35  -6.10  -3.79         -226.173941             -0.0000
iter:  26  00:41:11  -5.44  -3.83         -226.173873             -0.0000
iter:  27  00:41:47  -6.65  -4.14         -226.173864             -0.0000
iter:  28  00:42:23  -6.51  -4.21         -226.173847             -0.0000
iter:  29  00:42:59  -6.97  -4.35         -226.173853             -0.0000
iter:  30  00:43:35  -7.21  -4.46         -226.173849             -0.0000
iter:  31  00:44:20  -7.50  -4.48         -226.173850             -0.0000
iter:  32  00:44:57  -6.89  -4.53         -226.173846             -0.0000
iter:  33  00:45:42  -7.80  -5.06    -2.39-226.173845             -0.0000
iter:  34  00:46:27  -8.75  -5.18    -3.65-226.173845             -0.0000
iter:  35  00:47:12  -8.59  -5.22    -3.21-226.173845             +0.0000
iter:  36  00:47:58  -8.97  -5.32    -3.46-226.173845             -0.0000
iter:  37  00:48:43  -8.90  -5.37    -2.98-226.173845             +0.0000
iter:  38  00:49:28  -8.94  -5.63    -3.37-226.173845             +0.0000
iter:  39  00:50:13  -9.20  -5.90    -3.63-226.173845             +0.0000
iter:  40  00:50:59 -10.41  -6.08    -4.32-226.173845             +0.0000
iter:  41  00:51:44  -9.90  -6.10    -3.75-226.173845             -0.0000
iter:  42  00:52:29 -10.08  -6.21    -3.93-226.173845             -0.0000
iter:  43  00:53:15 -10.98  -6.36    -4.60-226.173845             -0.0000
iter:  44  00:54:00 -11.15  -6.47    -4.45-226.173845             -0.0000
iter:  45  00:54:45 -10.86  -6.52    -4.36-226.173845             -0.0000
iter:  46  00:55:30 -12.09  -6.84    -5.04-226.173845             +0.0000
iter:  47  00:56:16 -11.45  -6.87    -4.80-226.173845             +0.0000
iter:  48  00:57:01 -11.70  -6.99    -4.76-226.173845             +0.0000
iter:  49  00:57:46 -12.09  -7.15    -4.77-226.173845             +0.0000
iter:  50  00:58:32 -12.70  -7.24    -5.15-226.173845             +0.0000
iter:  51  00:59:17 -12.58  -7.36    -5.12-226.173845             +0.0000
iter:  52  01:00:02 -13.58  -7.53    -5.63-226.173845             +0.0000
iter:  53  01:00:48 -12.95  -7.58    -5.46-226.173845             +0.0000
iter:  54  01:01:33 -13.40  -7.80    -5.60-226.173845             +0.0000
iter:  55  01:02:19 -14.08  -7.96    -5.89-226.173845             +0.0000
iter:  56  01:03:04 -14.23  -8.07    -6.04-226.173845             +0.0000

Converged after 56 iterations.

Dipole moment: (18.326547, -2.302686, -4.525172) |e|*Ang

Total magnetic moment: (0.000000, 0.000000, 0.000000)
Local magnetic moments:
   0 O  ( 0.000000,  0.000000, -0.001790)
   1 O  ( 0.000000,  0.000000,  0.001820)
   2 O  ( 0.000000,  0.000000,  0.001960)
   3 O  ( 0.000000,  0.000000, -0.001573)
   4 O  ( 0.000000,  0.000000,  0.001404)
   5 O  ( 0.000000,  0.000000, -0.001836)
   6 O  ( 0.000000,  0.000000, -0.001802)
   7 O  ( 0.000000,  0.000000,  0.001822)
   8 O  ( 0.000000,  0.000000,  0.031079)
   9 O  ( 0.000000,  0.000000, -0.031337)
  10 O  ( 0.000000,  0.000000, -0.031097)
  11 O  ( 0.000000,  0.000000,  0.031086)
  12 Mn ( 0.000000,  0.000000,  4.395744)
  13 Mn ( 0.000000,  0.000000, -4.395911)
  14 Mn ( 0.000000,  0.000000, -4.396045)
  15 Mn ( 0.000000,  0.000000,  4.397524)
  16 P  ( 0.000000,  0.000000,  0.000846)
  17 P  ( 0.000000,  0.000000, -0.000872)
  18 P  ( 0.000000,  0.000000, -0.001258)
  19 P  ( 0.000000,  0.000000,  0.000854)
  20 O  ( 0.000000,  0.000000,  0.028419)
  21 O  ( 0.000000,  0.000000, -0.028394)
  22 O  ( 0.000000,  0.000000, -0.028577)
  23 O  ( 0.000000,  0.000000,  0.028370)
  24 Li ( 0.000000,  0.000000, -0.000001)
  25 Li ( 0.000000,  0.000000, -0.000030)
  26 Li ( 0.000000,  0.000000, -0.000001)
  27 Li ( 0.000000,  0.000000, -0.000002)

Energy contributions relative to reference atoms: (reference = -196157.275402)

Kinetic:       +278.151477
Potential:     -241.375000
External:        +0.000000
XC:            -264.837748
Entropy (-ST):   -0.000000
Local:           +1.887426
--------------------------
Free energy:   -226.173845
Extrapolated:  -226.173845

Spin contamination: 9.456581 electrons
Showing only first 2 kpts
                      Up                     Down
 Kpt  Band  Eigenvalues  Occupancy  Eigenvalues  Occupancy
  0    88      6.52287    0.00694      6.53281    0.00694
  0    89      6.55920    0.00694      6.56661    0.00694
  0    90      8.42903    0.00000      8.42249    0.00000
  0    91      8.45037    0.00000      8.44410    0.00000

  1    88      6.56107    0.00694      6.57121    0.00694
  1    89      6.59140    0.00694      6.59881    0.00694
  1    90      8.38656    0.00000      8.37890    0.00000
  1    91      8.40789    0.00000      8.40131    0.00000


Fermi level: 7.64349

Gap: 1.693 eV
Transition (v -> c):
  (s=1, k=69, n=89, [-0.08, 0.42, -0.12]) -> (s=1, k=62, n=90, [-0.08, 0.08, 0.12])
Writing to born-0.01-4y-.gpw (mode='all')

Timing:                              incl.     excl.
-----------------------------------------------------------
Hamiltonian:                         0.358     0.002   0.0% |
 Atomic:                             0.057     0.057   0.0% |
  XC Correction:                     0.000     0.000   0.0% |
 Calculate atomic Hamiltonians:      0.141     0.141   0.0% |
 Communicate:                        0.001     0.001   0.0% |
 Initialize Hamiltonian:             0.000     0.000   0.0% |
 Poisson:                            0.001     0.001   0.0% |
 XC 3D grid:                         0.155     0.155   0.0% |
LCAO initialization:               139.372     0.646   0.0% |
 LCAO eigensolver:                  38.052     0.002   0.0% |
  Calculate projections:             0.057     0.057   0.0% |
  DenseAtomicCorrection:             0.088     0.088   0.0% |
  Distribute overlap matrix:         0.006     0.006   0.0% |
  Orbital Layouts:                   0.340     0.340   0.0% |
  Potential matrix:                 37.460    37.460   0.6% |
  Sum over cells:                    0.099     0.099   0.0% |
 LCAO to grid:                      98.329    98.329   1.7% ||
 Set positions (LCAO WFS):           2.346     0.371   0.0% |
  Basic WFS set positions:           0.001     0.001   0.0% |
  Basis functions set positions:     0.000     0.000   0.0% |
  P tci:                             1.054     1.054   0.0% |
  ST tci:                            0.702     0.702   0.0% |
  mktci:                             0.217     0.217   0.0% |
PWDescriptor:                        0.023     0.023   0.0% |
SCF-cycle:                        2262.125    21.420   0.4% |
 Davidson:                        1908.917   611.501  10.3% |---|
  Apply H:                         134.986   130.601   2.2% ||
   HMM T:                            4.386     4.386   0.1% |
  Subspace diag:                   282.804     0.169   0.0% |
   calc_h_matrix:                  183.641    49.943   0.8% |
    Apply H:                       133.698   129.378   2.2% ||
     HMM T:                          4.320     4.320   0.1% |
   diagonalize:                      6.527     6.527   0.1% |
   rotate_psi:                      92.467    92.467   1.6% ||
  calc. matrices:                  602.427   336.487   5.7% |-|
   Apply H:                        265.940   257.465   4.4% |-|
    HMM T:                           8.475     8.475   0.1% |
  diagonalize:                      88.284    88.284   1.5% ||
  rotate_psi:                      188.915   188.915   3.2% ||
 Density:                           77.122     0.002   0.0% |
  Atomic density matrices:           1.390     1.390   0.0% |
  Mix:                              10.615    10.615   0.2% |
  Multipole moments:                 0.032     0.032   0.0% |
  Pseudo density:                   65.084    65.082   1.1% |
   Symmetrize density:               0.002     0.002   0.0% |
 Forces:                           230.786   230.786   3.9% |-|
 Hamiltonian:                       19.899     0.126   0.0% |
  Atomic:                            2.782     2.781   0.0% |
   XC Correction:                    0.000     0.000   0.0% |
  Calculate atomic Hamiltonians:     8.030     8.030   0.1% |
  Communicate:                       0.093     0.093   0.0% |
  Poisson:                           0.065     0.065   0.0% |
  XC 3D grid:                        8.804     8.804   0.1% |
 Orthonormalize:                     3.982     0.003   0.0% |
  calc_s_matrix:                     0.478     0.478   0.0% |
  inverse-cholesky:                  0.053     0.053   0.0% |
  projections:                       2.596     2.596   0.0% |
  rotate_psi_s:                      0.852     0.852   0.0% |
Set symmetry:                        0.000     0.000   0.0% |
Other:                            3506.677  3506.677  59.3% |-----------------------|
-----------------------------------------------------------
Total:                                      5908.555 100.0%

Memory usage: 12.55 GiB
Date: Mon Mar 22 02:01:29 2021
