
  ___ ___ ___ _ _ _  
 |   |   |_  | | | | 
 | | | | | . | | | | 
 |__ |  _|___|_____|  20.10.1b1
 |___|_|             

User:   madkru@i008.nifl.fysik.dtu.dk
Date:   Thu Mar 25 22:16:11 2021
Arch:   x86_64
Pid:    26969
Python: 3.7.4
gpaw:   /home/niflheim/madkru/venv_folder/gpaw/gpaw (d224efde0f)
_gpaw:  /home/niflheim/madkru/venv_folder/gpaw/build/lib.linux-x86_64-ivybridge-3.7/
        _gpaw.cpython-37m-x86_64-linux-gnu.so (4fd39e8b1e)
ase:    /home/niflheim/madkru/venv_folder/ase/ase (version 3.21.0b1-4d5a73cb29)
numpy:  /home/niflheim/madkru/venv_folder/lib/python3.7/site-packages/numpy (version 1.19.4)
scipy:  /home/niflheim/madkru/venv_folder/lib/python3.7/site-packages/scipy (version 1.5.4)
libxc:  4.3.4
units:  Angstrom and eV
cores: 64
OMP_NUM_THREADS: 1

Input parameters:
  convergence: {bands: occupied,
                density: 0.0001,
                eigenstates: 4e-08,
                energy: 0.0005,
                forces: 1e-06}
  kpts: [6 6 4]
  mode: {ecut: 600.0,
         gammacentered: False,
         name: pw}
  occupations: {fixmagmom: False,
                name: fermi-dirac,
                width: 0.001}
  symmetry: {point_group: False,
             time_reversal: False}

System changes: positions, numbers, cell, pbc, initial_charges, initial_magmoms 

Initialize ...

O-setup:
  name: Oxygen
  id: 9b9d51c344dea68c822856295a461509
  Z: 8.0
  valence: 6
  core: 2
  charge: 0.0
  file: /home/modules/software/GPAW-setups/0.9.20000/O.LDA.gz
  compensation charges: gauss, rc=0.21, lmax=2
  cutoffs: 1.17(filt), 0.83(core),
  valence states:
                energy  radius
    2s(2.00)   -23.752   0.688
    2p(4.00)    -9.195   0.598
    *s           3.459   0.688
    *p          18.016   0.598
    *d           0.000   0.619

  Using partial waves for O as LCAO basis

Mn-setup:
  name: Manganese
  id: 0d715a8018be061a6e9ea6f2d364ac92
  Z: 25.0
  valence: 15
  core: 10
  charge: 0.0
  file: /home/modules/software/GPAW-setups/0.9.20000/Mn.LDA.gz
  compensation charges: gauss, rc=0.38, lmax=2
  cutoffs: 2.14(filt), 0.86(core),
  valence states:
                energy  radius
    3s(2.00)   -85.387   1.275
    4s(2.00)    -5.282   1.275
    3p(6.00)   -54.493   1.281
    4p(0.00)    -1.471   1.281
    3d(5.00)    -7.009   1.138
    *d          20.203   1.138

  Using partial waves for Mn as LCAO basis

P-setup:
  name: Phosphorus
  id: a5561c299094968922a179ab894d2e2d
  Z: 15.0
  valence: 5
  core: 10
  charge: 0.0
  file: /home/modules/software/GPAW-setups/0.9.20000/P.LDA.gz
  compensation charges: gauss, rc=0.30, lmax=2
  cutoffs: 1.69(filt), 1.81(core),
  valence states:
                energy  radius
    3s(2.00)   -14.015   0.953
    3p(3.00)    -5.596   0.953
    *s          13.197   0.953
    *p          21.615   0.953
    *d           0.000   0.953

  Using partial waves for P as LCAO basis

Li-setup:
  name: Lithium
  id: b73562207f97a71b6967473b66fe8b65
  Z: 3.0
  valence: 1
  core: 2
  charge: 0.0
  file: /home/modules/software/GPAW-setups/0.9.20000/Li.LDA.gz
  compensation charges: gauss, rc=0.33, lmax=2
  cutoffs: 1.91(filt), 2.55(core),
  valence states:
                energy  radius
    2s(1.00)    -2.874   1.058
    2p(0.00)    -1.126   1.058
    *s          24.338   1.058

  Using partial waves for Li as LCAO basis

Reference energy: -196157.275402

Spin-polarized calculation.
Magnetic moment: 0.000000

Convergence criteria:
  Maximum total energy change: 0.0005 eV / electron
  Maximum integral of absolute density change: 0.0001 electrons
  Maximum integral of absolute eigenstate change: 4e-08 eV^2
  Maximum change in atomic force: 1e-06 eV / Ang
  Maximum number of iterations: 333

Symmetries present (total): 1

  ( 1  0  0)
  ( 0  1  0)
  ( 0  0  1)

144 k-points: 6 x 6 x 4 Monkhorst-Pack grid
144 k-points in the irreducible part of the Brillouin zone
       k-points in crystal coordinates                weights
   0:    -0.41666667   -0.41666667   -0.37500000          1/144
   1:    -0.41666667   -0.41666667   -0.12500000          1/144
   2:    -0.41666667   -0.41666667    0.12500000          1/144
   3:    -0.41666667   -0.41666667    0.37500000          1/144
   4:    -0.41666667   -0.25000000   -0.37500000          1/144
   5:    -0.41666667   -0.25000000   -0.12500000          1/144
   6:    -0.41666667   -0.25000000    0.12500000          1/144
   7:    -0.41666667   -0.25000000    0.37500000          1/144
   8:    -0.41666667   -0.08333333   -0.37500000          1/144
   9:    -0.41666667   -0.08333333   -0.12500000          1/144
          ...
 143:     0.41666667    0.41666667    0.37500000          1/144

Wave functions: Plane wave expansion
  Cutoff energy: 600.000 eV
  Number of coefficients (min, max): 9132, 9161
  Pulay-stress correction: 0.000000 eV/Ang^3 (de/decut=0.000000)
  Using FFTW library
  ScaLapack parameters: grid=1x1, blocksize=None
  Wavefunction extrapolation:
    Improved wavefunction reuse through dual PAW basis 

  Fermi-Dirac: width=0.0010 eV

Eigensolver
   Davidson(niter=2, smin=None, normalize=True) 

Densities:
  Coarse grid: 60*35*27 grid
  Fine grid: 120*70*54 grid
  Total Charge: 0.000000 

Density mixing:
  Method: difference
  Backend: pulay
  Linear mixing parameter: 0.05
  Mixing with 5 old densities
  Damping of long wave oscillations: 50 

Hamiltonian:
  XC and Coulomb potentials evaluated on a 120*70*54 grid
  Using the LDA Exchange-Correlation functional
 

Memory estimate:
  Process memory now: 13874.35 MiB
  Calculator: 322.47 MiB
    Density: 9.62 MiB
      Arrays: 3.79 MiB
      Localized functions: 4.27 MiB
      Mixer: 1.56 MiB
    Hamiltonian: 2.94 MiB
      Arrays: 2.82 MiB
      XC: 0.00 MiB
      Poisson: 0.00 MiB
      vbar: 0.12 MiB
    Wavefunctions: 309.91 MiB
      Arrays psit_nG: 281.81 MiB
      Eigensolver: 18.27 MiB
      Projections: 2.71 MiB
      Projectors: 4.40 MiB
      PW-descriptor: 2.71 MiB

Total number of cores used: 64
Parallelization over k-points: 16
Domain decomposition: 2 x 2 x 1

Number of atoms: 28
Number of atomic orbitals: 148
Number of bands in calculation: 112
Number of valence electrons: 180
Bands to converge: occupied

... initialized

Initializing position-dependent things.

Density initialized from atomic densities
Creating initial wave functions:
  112 bands from LCAO basis set

                                           
                                           
                                           
                                           
                                           
               O     O  P  O               
            PO           OMn     O         
                  O          MO            
            O        Li O                  
             Mn  Mn          OP            
         O       O Li O                    
         Li     O P         O              
       Li                                  
                                           
                                           
                                           
                                           

Positions:
   0 O     -1.280122   -2.495595   -1.112331    ( 0.0000,  0.0000,  0.0000)
   1 O     -3.023238    2.918858    1.191723    ( 0.0000,  0.0000,  0.0000)
   2 O      1.997451    0.467212    1.441442    ( 0.0000,  0.0000,  0.0000)
   3 O      3.740343   -0.043905   -0.862614    ( 0.0000,  0.0000,  0.0000)
   4 O      1.997419    2.918835    1.441465    ( 0.0000,  0.0000,  0.0000)
   5 O      3.740372   -2.495531   -0.862587    ( 0.0000,  0.0000,  0.0000)
   6 O     -1.280154   -0.043891   -1.112309    ( 0.0000,  0.0000,  0.0000)
   7 O     -3.023210    0.467136    1.191750    ( 0.0000,  0.0000,  0.0000)
   8 O     -4.147405   -1.269737   -0.856207    ( 0.0000,  0.0000,  0.0000)
   9 O     -0.155894    1.692986    1.447725    ( 0.0000,  0.0000,  0.0000)
  10 O      4.864578    1.693016    1.185324    ( 0.0000,  0.0000,  0.0000)
  11 O      0.873163   -1.269706   -1.118625    ( 0.0000,  0.0000,  0.0000)
  12 Mn    -2.437108   -1.269902    0.302197    ( 0.0000,  0.0000,  1.0000)
  13 Mn    -1.866187    1.693156   -2.001927    ( 0.0000,  0.0000, -1.0000)
  14 Mn     3.154299    1.693181    0.026917    ( 0.0000,  0.0000, -1.0000)
  15 Mn     2.583444   -1.269877    2.331074    ( 0.0000,  0.0000,  1.0000)
  16 P     -0.543052   -1.269720   -1.734187    ( 0.0000,  0.0000,  0.0000)
  17 P     -3.760282    1.692974    0.569859    ( 0.0000,  0.0000,  0.0000)
  18 P      1.260300    1.693000    2.063344    ( 0.0000,  0.0000,  0.0000)
  19 P      4.477470   -1.269695   -0.240696    ( 0.0000,  0.0000,  0.0000)
  20 O     -0.544413   -1.269738    1.348523    ( 0.0000,  0.0000,  0.0000)
  21 O     -3.758895    1.692992   -0.955558    ( 0.0000,  0.0000,  0.0000)
  22 O      1.261690    1.693018   -1.029367    ( 0.0000,  0.0000,  0.0000)
  23 O      4.476045   -1.269713    1.284716    ( 0.0000,  0.0000,  0.0000)
  24 Li    -4.662027   -2.751322   -2.139440    ( 0.0000,  0.0000,  0.0000)
  25 Li     0.358703   -2.751277    0.164614    ( 0.0000,  0.0000,  0.0000)
  26 Li    -4.662011    0.211617   -2.139439    ( 0.0000,  0.0000,  0.0000)
  27 Li     0.358720    0.211628    0.164615    ( 0.0000,  0.0000,  0.0000)

Unit cell:
           periodic     x           y           z      points  spacing
  1. axis:    yes   10.041096    0.000054   -0.000022    60     0.1674
  2. axis:    yes    0.000032    5.925857    0.000001    35     0.1693
  3. axis:    yes   -0.000010    0.000001    4.608134    27     0.1707

  Lengths:  10.041096   5.925857   4.608134
  Angles:   89.999974  90.000250  89.999381

Effective grid spacing dv^(1/3) = 0.1691

                     log10-error:           total        iterations:
           time      wfs    density  force  energy       poisson  magmom
iter:   1  22:17:44                       -233.718446             +0.0000
iter:   2  22:18:04  -0.47  -0.95         -231.541406             +0.0025
iter:   3  22:18:24  -0.61  -1.00         -220.791086             +0.0026
iter:   4  22:18:43  -1.18  -1.31         -220.796793             +0.3212
iter:   5  22:19:03  -2.13  -1.40         -223.146021             +0.1740
iter:   6  22:19:23  -2.28  -1.37         -223.076163             +0.0762
iter:   7  22:19:43  -1.99  -1.55         -223.261115             +0.0482
iter:   8  22:20:02  -2.27  -1.80         -225.599305             +0.4912
iter:   9  22:20:22  -2.16  -1.94         -226.468012             -0.1551
iter:  10  22:20:42  -2.41  -2.03         -226.402909             -0.0458
iter:  11  22:21:01  -3.36  -2.07         -226.380588             -0.0219
iter:  12  22:21:21  -2.05  -2.08         -226.405930             +0.0008
iter:  13  22:21:40  -2.87  -2.32         -226.290035             -0.0062
iter:  14  22:22:00  -2.45  -2.49         -226.238970             -0.0040
iter:  15  22:22:20  -3.58  -2.60         -226.205242             -0.0014
iter:  16  22:22:39  -3.54  -2.71         -226.179453             +0.0001
iter:  17  22:22:59  -3.74  -2.92         -226.174001             -0.0001
iter:  18  22:23:19  -4.39  -3.32         -226.173740             +0.0000
iter:  19  22:23:38  -5.10  -3.36         -226.173185             -0.0002
iter:  20  22:23:58  -4.76  -3.44         -226.173678             -0.0000
iter:  21  22:24:18  -5.32  -3.50         -226.173845             +0.0000
iter:  22  22:24:37  -5.37  -3.54         -226.173497             +0.0000
iter:  23  22:24:57  -5.09  -3.64         -226.173141             +0.0000
iter:  24  22:25:17  -5.87  -3.89         -226.173124             +0.0000
iter:  25  22:25:36  -5.74  -3.96         -226.173040             +0.0000
iter:  26  22:25:56  -6.44  -4.23         -226.173080             +0.0000
iter:  27  22:26:15  -6.87  -4.33         -226.173077             -0.0000
iter:  28  22:26:35  -7.17  -4.44         -226.173072             -0.0000
iter:  29  22:26:59  -7.88  -4.64         -226.173073             -0.0000
iter:  30  22:27:24  -8.06  -4.69    -2.62-226.173074             -0.0000
iter:  31  22:27:43  -6.86  -4.73         -226.173074             -0.0000
iter:  32  22:28:08  -8.16  -5.04    -2.28-226.173072             -0.0000
iter:  33  22:28:32  -8.80  -5.26    -3.47-226.173072             +0.0000
iter:  34  22:28:56  -8.23  -5.31    -2.74-226.173071             +0.0000
iter:  35  22:29:21  -8.65  -5.55    -3.37-226.173071             +0.0000
iter:  36  22:29:45  -9.33  -5.67    -3.43-226.173071             +0.0000
iter:  37  22:30:09  -9.65  -5.72    -3.58-226.173071             +0.0000
iter:  38  22:30:34  -9.88  -5.83    -3.46-226.173071             +0.0000
iter:  39  22:30:58  -9.56  -5.88    -3.71-226.173071             +0.0000
iter:  40  22:31:22 -10.62  -6.03    -4.03-226.173071             +0.0000
iter:  41  22:31:46  -9.77  -6.08    -3.94-226.173071             +0.0000
iter:  42  22:32:11 -10.59  -6.23    -4.06-226.173071             +0.0000
iter:  43  22:32:35 -11.24  -6.64    -4.70-226.173071             +0.0000
iter:  44  22:32:59 -11.26  -6.73    -4.49-226.173071             +0.0000
iter:  45  22:33:24 -11.61  -6.83    -4.77-226.173071             +0.0000
iter:  46  22:33:48 -12.38  -7.04    -5.10-226.173071             +0.0000
iter:  47  22:34:12 -12.19  -7.05    -4.91-226.173071             +0.0000
iter:  48  22:34:37 -12.34  -7.10    -5.12-226.173071             +0.0000
iter:  49  22:35:01 -13.28  -7.11    -5.21-226.173071             +0.0000
iter:  50  22:35:25 -12.07  -7.15    -4.90-226.173071             +0.0000
iter:  51  22:35:50 -13.08  -7.27    -5.30-226.173071             -0.0000
iter:  52  22:36:14 -13.68  -7.32    -5.34-226.173071             -0.0000
iter:  53  22:36:38 -13.92  -7.43    -5.49-226.173071             -0.0000
iter:  54  22:37:03 -12.76  -7.52    -5.21-226.173071             -0.0000
iter:  55  22:37:27 -13.60  -7.80    -5.72-226.173071             -0.0000
iter:  56  22:37:51 -14.61  -7.93    -6.38-226.173071             -0.0000

Converged after 56 iterations.

Dipole moment: (18.322018, -2.307953, -4.527389) |e|*Ang

Total magnetic moment: (0.000000, 0.000000, -0.000000)
Local magnetic moments:
   0 O  ( 0.000000,  0.000000, -0.001792)
   1 O  ( 0.000000,  0.000000,  0.001812)
   2 O  ( 0.000000,  0.000000,  0.001736)
   3 O  ( 0.000000,  0.000000, -0.001793)
   4 O  ( 0.000000,  0.000000,  0.001730)
   5 O  ( 0.000000,  0.000000, -0.001788)
   6 O  ( 0.000000,  0.000000, -0.001797)
   7 O  ( 0.000000,  0.000000,  0.001817)
   8 O  ( 0.000000,  0.000000,  0.031093)
   9 O  ( 0.000000,  0.000000, -0.031072)
  10 O  ( 0.000000,  0.000000, -0.031238)
  11 O  ( 0.000000,  0.000000,  0.031101)
  12 Mn ( 0.000000,  0.000000,  4.395797)
  13 Mn ( 0.000000,  0.000000, -4.395744)
  14 Mn ( 0.000000,  0.000000, -4.396208)
  15 Mn ( 0.000000,  0.000000,  4.395701)
  16 P  ( 0.000000,  0.000000,  0.000864)
  17 P  ( 0.000000,  0.000000, -0.000863)
  18 P  ( 0.000000,  0.000000, -0.000781)
  19 P  ( 0.000000,  0.000000,  0.000899)
  20 O  ( 0.000000,  0.000000,  0.028420)
  21 O  ( 0.000000,  0.000000, -0.028404)
  22 O  ( 0.000000,  0.000000, -0.028190)
  23 O  ( 0.000000,  0.000000,  0.028412)
  24 Li ( 0.000000,  0.000000,  0.000000)
  25 Li ( 0.000000,  0.000000,  0.000015)
  26 Li ( 0.000000,  0.000000,  0.000000)
  27 Li ( 0.000000,  0.000000,  0.000015)

Energy contributions relative to reference atoms: (reference = -196157.275402)

Kinetic:       +278.374843
Potential:     -241.559961
External:        +0.000000
XC:            -264.874397
Entropy (-ST):   -0.000000
Local:           +1.886444
--------------------------
Free energy:   -226.173071
Extrapolated:  -226.173071

Spin contamination: 9.455169 electrons
Showing only first 2 kpts
                      Up                     Down
 Kpt  Band  Eigenvalues  Occupancy  Eigenvalues  Occupancy
  0    88      6.53064    0.00694      6.52256    0.00694
  0    89      6.56408    0.00694      6.55888    0.00694
  0    90      8.42509    0.00000      8.42689    0.00000
  0    91      8.44738    0.00000      8.44892    0.00000

  1    88      6.56912    0.00694      6.56094    0.00694
  1    89      6.59604    0.00694      6.59052    0.00694
  1    90      8.38158    0.00000      8.38312    0.00000
  1    91      8.40384    0.00000      8.40569    0.00000


Fermi level: 7.60954

Gap: 1.698 eV
Transition (v -> c):
  (s=0, k=50, n=89, [-0.08, -0.42, 0.12]) -> (s=0, k=81, n=90, [0.08, -0.08, -0.12])
Writing to born-0.01-22z-.gpw (mode='all')

Timing:                              incl.     excl.
-----------------------------------------------------------
Hamiltonian:                         0.212     0.002   0.0% |
 Atomic:                             0.050     0.050   0.0% |
  XC Correction:                     0.000     0.000   0.0% |
 Calculate atomic Hamiltonians:      0.074     0.074   0.0% |
 Communicate:                        0.002     0.002   0.0% |
 Initialize Hamiltonian:             0.000     0.000   0.0% |
 Poisson:                            0.001     0.001   0.0% |
 XC 3D grid:                         0.083     0.083   0.0% |
LCAO initialization:                70.520     0.680   0.0% |
 LCAO eigensolver:                  19.752     0.002   0.0% |
  Calculate projections:             0.029     0.029   0.0% |
  DenseAtomicCorrection:             0.046     0.046   0.0% |
  Distribute overlap matrix:         0.195     0.195   0.0% |
  Orbital Layouts:                   0.432     0.432   0.0% |
  Potential matrix:                 18.961    18.961   0.6% |
  Sum over cells:                    0.087     0.087   0.0% |
 LCAO to grid:                      48.763    48.763   1.5% ||
 Set positions (LCAO WFS):           1.324     0.194   0.0% |
  Basic WFS set positions:           0.001     0.001   0.0% |
  Basis functions set positions:     0.000     0.000   0.0% |
  P tci:                             0.525     0.525   0.0% |
  ST tci:                            0.385     0.385   0.0% |
  mktci:                             0.219     0.219   0.0% |
PWDescriptor:                        0.023     0.023   0.0% |
SCF-cycle:                        1228.893     1.672   0.1% |
 Davidson:                        1045.064   320.492  10.2% |---|
  Apply H:                          72.215    70.086   2.2% ||
   HMM T:                            2.128     2.128   0.1% |
  Subspace diag:                   151.721     0.161   0.0% |
   calc_h_matrix:                   97.476    25.285   0.8% |
    Apply H:                        72.192    70.027   2.2% ||
     HMM T:                          2.165     2.165   0.1% |
   diagonalize:                      7.652     7.652   0.2% |
   rotate_psi:                      46.432    46.432   1.5% ||
  calc. matrices:                  311.959   171.206   5.4% |-|
   Apply H:                        140.753   136.780   4.3% |-|
    HMM T:                           3.972     3.972   0.1% |
  diagonalize:                      88.178    88.178   2.8% ||
  rotate_psi:                      100.499   100.499   3.2% ||
 Density:                           42.602     0.001   0.0% |
  Atomic density matrices:           0.861     0.861   0.0% |
  Mix:                               5.783     5.783   0.2% |
  Multipole moments:                 0.020     0.020   0.0% |
  Pseudo density:                   35.936    35.935   1.1% |
   Symmetrize density:               0.002     0.002   0.0% |
 Forces:                           125.562   125.562   4.0% |-|
 Hamiltonian:                       11.926     0.121   0.0% |
  Atomic:                            2.813     2.812   0.1% |
   XC Correction:                    0.000     0.000   0.0% |
  Calculate atomic Hamiltonians:     4.142     4.142   0.1% |
  Communicate:                       0.098     0.098   0.0% |
  Poisson:                           0.033     0.033   0.0% |
  XC 3D grid:                        4.720     4.720   0.1% |
 Orthonormalize:                     2.066     0.003   0.0% |
  calc_s_matrix:                     0.243     0.243   0.0% |
  inverse-cholesky:                  0.072     0.072   0.0% |
  projections:                       1.319     1.319   0.0% |
  rotate_psi_s:                      0.429     0.429   0.0% |
Set symmetry:                        0.000     0.000   0.0% |
Other:                            1852.950  1852.950  58.8% |-----------------------|
-----------------------------------------------------------
Total:                                      3152.598 100.0%

Memory usage: 13.56 GiB
Date: Thu Mar 25 23:08:43 2021
