
  ___ ___ ___ _ _ _  
 |   |   |_  | | | | 
 | | | | | . | | | | 
 |__ |  _|___|_____|  20.10.1b1
 |___|_|             

User:   madkru@i008.nifl.fysik.dtu.dk
Date:   Wed Mar 24 10:37:25 2021
Arch:   x86_64
Pid:    26969
Python: 3.7.4
gpaw:   /home/niflheim/madkru/venv_folder/gpaw/gpaw (d0d1ca1c71)
_gpaw:  /home/niflheim/madkru/venv_folder/gpaw/build/lib.linux-x86_64-ivybridge-3.7/
        _gpaw.cpython-37m-x86_64-linux-gnu.so (4fd39e8b1e)
ase:    /home/niflheim/madkru/venv_folder/ase/ase (version 3.21.0b1-7e6c206a91)
numpy:  /home/niflheim/madkru/venv_folder/lib/python3.7/site-packages/numpy (version 1.19.4)
scipy:  /home/niflheim/madkru/venv_folder/lib/python3.7/site-packages/scipy (version 1.5.4)
libxc:  4.3.4
units:  Angstrom and eV
cores: 64
OMP_NUM_THREADS: 1

Input parameters:
  convergence: {bands: occupied,
                density: 0.0001,
                eigenstates: 4e-08,
                energy: 0.0005,
                forces: 1e-06}
  kpts: [6 6 4]
  mode: {ecut: 600.0,
         gammacentered: False,
         name: pw}
  occupations: {fixmagmom: False,
                name: fermi-dirac,
                width: 0.001}
  symmetry: {point_group: False,
             time_reversal: False}

System changes: positions, numbers, cell, pbc, initial_charges, initial_magmoms 

Initialize ...

O-setup:
  name: Oxygen
  id: 9b9d51c344dea68c822856295a461509
  Z: 8.0
  valence: 6
  core: 2
  charge: 0.0
  file: /home/modules/software/GPAW-setups/0.9.20000/O.LDA.gz
  compensation charges: gauss, rc=0.21, lmax=2
  cutoffs: 1.17(filt), 0.83(core),
  valence states:
                energy  radius
    2s(2.00)   -23.752   0.688
    2p(4.00)    -9.195   0.598
    *s           3.459   0.688
    *p          18.016   0.598
    *d           0.000   0.619

  Using partial waves for O as LCAO basis

Mn-setup:
  name: Manganese
  id: 0d715a8018be061a6e9ea6f2d364ac92
  Z: 25.0
  valence: 15
  core: 10
  charge: 0.0
  file: /home/modules/software/GPAW-setups/0.9.20000/Mn.LDA.gz
  compensation charges: gauss, rc=0.38, lmax=2
  cutoffs: 2.14(filt), 0.86(core),
  valence states:
                energy  radius
    3s(2.00)   -85.387   1.275
    4s(2.00)    -5.282   1.275
    3p(6.00)   -54.493   1.281
    4p(0.00)    -1.471   1.281
    3d(5.00)    -7.009   1.138
    *d          20.203   1.138

  Using partial waves for Mn as LCAO basis

P-setup:
  name: Phosphorus
  id: a5561c299094968922a179ab894d2e2d
  Z: 15.0
  valence: 5
  core: 10
  charge: 0.0
  file: /home/modules/software/GPAW-setups/0.9.20000/P.LDA.gz
  compensation charges: gauss, rc=0.30, lmax=2
  cutoffs: 1.69(filt), 1.81(core),
  valence states:
                energy  radius
    3s(2.00)   -14.015   0.953
    3p(3.00)    -5.596   0.953
    *s          13.197   0.953
    *p          21.615   0.953
    *d           0.000   0.953

  Using partial waves for P as LCAO basis

Li-setup:
  name: Lithium
  id: b73562207f97a71b6967473b66fe8b65
  Z: 3.0
  valence: 1
  core: 2
  charge: 0.0
  file: /home/modules/software/GPAW-setups/0.9.20000/Li.LDA.gz
  compensation charges: gauss, rc=0.33, lmax=2
  cutoffs: 1.91(filt), 2.55(core),
  valence states:
                energy  radius
    2s(1.00)    -2.874   1.058
    2p(0.00)    -1.126   1.058
    *s          24.338   1.058

  Using partial waves for Li as LCAO basis

Reference energy: -196157.275402

Spin-polarized calculation.
Magnetic moment: 0.000000

Convergence criteria:
  Maximum total energy change: 0.0005 eV / electron
  Maximum integral of absolute density change: 0.0001 electrons
  Maximum integral of absolute eigenstate change: 4e-08 eV^2
  Maximum change in atomic force: 1e-06 eV / Ang
  Maximum number of iterations: 333

Symmetries present (total): 1

  ( 1  0  0)
  ( 0  1  0)
  ( 0  0  1)

144 k-points: 6 x 6 x 4 Monkhorst-Pack grid
144 k-points in the irreducible part of the Brillouin zone
       k-points in crystal coordinates                weights
   0:    -0.41666667   -0.41666667   -0.37500000          1/144
   1:    -0.41666667   -0.41666667   -0.12500000          1/144
   2:    -0.41666667   -0.41666667    0.12500000          1/144
   3:    -0.41666667   -0.41666667    0.37500000          1/144
   4:    -0.41666667   -0.25000000   -0.37500000          1/144
   5:    -0.41666667   -0.25000000   -0.12500000          1/144
   6:    -0.41666667   -0.25000000    0.12500000          1/144
   7:    -0.41666667   -0.25000000    0.37500000          1/144
   8:    -0.41666667   -0.08333333   -0.37500000          1/144
   9:    -0.41666667   -0.08333333   -0.12500000          1/144
          ...
 143:     0.41666667    0.41666667    0.37500000          1/144

Wave functions: Plane wave expansion
  Cutoff energy: 600.000 eV
  Number of coefficients (min, max): 9132, 9161
  Pulay-stress correction: 0.000000 eV/Ang^3 (de/decut=0.000000)
  Using FFTW library
  ScaLapack parameters: grid=1x1, blocksize=None
  Wavefunction extrapolation:
    Improved wavefunction reuse through dual PAW basis 

  Fermi-Dirac: width=0.0010 eV

Eigensolver
   Davidson(niter=2, smin=None, normalize=True) 

Densities:
  Coarse grid: 60*35*27 grid
  Fine grid: 120*70*54 grid
  Total Charge: 0.000000 

Density mixing:
  Method: difference
  Backend: pulay
  Linear mixing parameter: 0.05
  Mixing with 5 old densities
  Damping of long wave oscillations: 50 

Hamiltonian:
  XC and Coulomb potentials evaluated on a 120*70*54 grid
  Using the LDA Exchange-Correlation functional
 

Memory estimate:
  Process memory now: 12132.75 MiB
  Calculator: 322.47 MiB
    Density: 9.62 MiB
      Arrays: 3.79 MiB
      Localized functions: 4.27 MiB
      Mixer: 1.56 MiB
    Hamiltonian: 2.94 MiB
      Arrays: 2.82 MiB
      XC: 0.00 MiB
      Poisson: 0.00 MiB
      vbar: 0.12 MiB
    Wavefunctions: 309.91 MiB
      Arrays psit_nG: 281.81 MiB
      Eigensolver: 18.27 MiB
      Projections: 2.71 MiB
      Projectors: 4.40 MiB
      PW-descriptor: 2.71 MiB

Total number of cores used: 64
Parallelization over k-points: 16
Domain decomposition: 2 x 2 x 1

Number of atoms: 28
Number of atomic orbitals: 148
Number of bands in calculation: 112
Number of valence electrons: 180
Bands to converge: occupied

... initialized

Initializing position-dependent things.

Density initialized from atomic densities
Creating initial wave functions:
  112 bands from LCAO basis set

                                           
                                           
                                           
                                           
                                           
               O     O  P  O               
            PO           OMn     O         
                  O          MO            
            O        Li O                  
             Mn  Mn          OP            
         O       O Li O                    
         Li     O P         O              
       Li                                  
                                           
                                           
                                           
                                           

Positions:
   0 O     -1.280122   -2.495595   -1.112331    ( 0.0000,  0.0000,  0.0000)
   1 O     -3.023238    2.918858    1.191723    ( 0.0000,  0.0000,  0.0000)
   2 O      1.997451    0.467212    1.441442    ( 0.0000,  0.0000,  0.0000)
   3 O      3.740343   -0.043905   -0.862614    ( 0.0000,  0.0000,  0.0000)
   4 O      1.997419    2.918835    1.441465    ( 0.0000,  0.0000,  0.0000)
   5 O      3.740372   -2.495531   -0.862587    ( 0.0000,  0.0000,  0.0000)
   6 O     -1.280154   -0.043891   -1.112309    ( 0.0000,  0.0000,  0.0000)
   7 O     -3.023210    0.467136    1.191750    ( 0.0000,  0.0000,  0.0000)
   8 O     -4.147405   -1.269737   -0.856207    ( 0.0000,  0.0000,  0.0000)
   9 O     -0.155894    1.692986    1.447725    ( 0.0000,  0.0000,  0.0000)
  10 O      4.864578    1.693016    1.185324    ( 0.0000,  0.0000,  0.0000)
  11 O      0.863163   -1.269706   -1.118625    ( 0.0000,  0.0000,  0.0000)
  12 Mn    -2.437108   -1.269902    0.302197    ( 0.0000,  0.0000,  1.0000)
  13 Mn    -1.866187    1.693156   -2.001927    ( 0.0000,  0.0000, -1.0000)
  14 Mn     3.154299    1.693181    0.026917    ( 0.0000,  0.0000, -1.0000)
  15 Mn     2.583444   -1.269877    2.331074    ( 0.0000,  0.0000,  1.0000)
  16 P     -0.543052   -1.269720   -1.734187    ( 0.0000,  0.0000,  0.0000)
  17 P     -3.760282    1.692974    0.569859    ( 0.0000,  0.0000,  0.0000)
  18 P      1.260300    1.693000    2.063344    ( 0.0000,  0.0000,  0.0000)
  19 P      4.477470   -1.269695   -0.240696    ( 0.0000,  0.0000,  0.0000)
  20 O     -0.544413   -1.269738    1.348523    ( 0.0000,  0.0000,  0.0000)
  21 O     -3.758895    1.692992   -0.955558    ( 0.0000,  0.0000,  0.0000)
  22 O      1.261690    1.693018   -1.019367    ( 0.0000,  0.0000,  0.0000)
  23 O      4.476045   -1.269713    1.284716    ( 0.0000,  0.0000,  0.0000)
  24 Li    -4.662027   -2.751322   -2.139440    ( 0.0000,  0.0000,  0.0000)
  25 Li     0.358703   -2.751277    0.164614    ( 0.0000,  0.0000,  0.0000)
  26 Li    -4.662011    0.211617   -2.139439    ( 0.0000,  0.0000,  0.0000)
  27 Li     0.358720    0.211628    0.164615    ( 0.0000,  0.0000,  0.0000)

Unit cell:
           periodic     x           y           z      points  spacing
  1. axis:    yes   10.041096    0.000054   -0.000022    60     0.1674
  2. axis:    yes    0.000032    5.925857    0.000001    35     0.1693
  3. axis:    yes   -0.000010    0.000001    4.608134    27     0.1707

  Lengths:  10.041096   5.925857   4.608134
  Angles:   89.999974  90.000250  89.999381

Effective grid spacing dv^(1/3) = 0.1691

                     log10-error:           total        iterations:
           time      wfs    density  force  energy       poisson  magmom
iter:   1  10:39:00                       -233.729482             +0.0000
iter:   2  10:39:20  -0.47  -0.95         -231.548748             +0.0003
iter:   3  10:39:40  -0.60  -1.00         -220.809103             +0.0004
iter:   4  10:39:59  -1.22  -1.30         -221.381956             +0.3989
iter:   5  10:40:19  -2.11  -1.38         -222.335607             +0.2122
iter:   6  10:40:39  -2.14  -1.40         -225.075564             -0.0714
iter:   7  10:40:59  -2.06  -1.46         -224.452714             +0.5482
iter:   8  10:41:18  -2.21  -1.57         -225.856849             +0.5947
iter:   9  10:41:38  -2.55  -1.79         -225.885637             +1.4778
iter:  10  10:41:58  -2.77  -2.04         -226.198799             +0.9652
iter:  11  10:42:17  -2.06  -2.09         -226.622695             +0.0501
iter:  12  10:42:37  -3.06  -2.19         -226.375772             +0.0872
iter:  13  10:42:56  -2.62  -2.23         -226.428059             +0.0249
iter:  14  10:43:16  -2.57  -2.38         -226.243512             +0.0251
iter:  15  10:43:36  -2.89  -2.54         -226.242116             +0.0075
iter:  16  10:43:55  -2.86  -2.70         -226.183480             +0.0061
iter:  17  10:44:15  -3.74  -2.91         -226.184383             +0.0018
iter:  18  10:44:35  -3.51  -2.95         -226.176574             -0.0002
iter:  19  10:44:54  -4.32  -3.22         -226.175150             +0.0004
iter:  20  10:45:14  -4.29  -3.28         -226.174648             +0.0002
iter:  21  10:45:34  -5.09  -3.37         -226.174770             +0.0001
iter:  22  10:45:53  -4.74  -3.48         -226.173420             -0.0000
iter:  23  10:46:13  -5.49  -3.70         -226.173406             +0.0000
iter:  24  10:46:33  -5.56  -3.77         -226.173510             +0.0000
iter:  25  10:46:52  -5.88  -3.88         -226.173495             +0.0000
iter:  26  10:47:12  -5.84  -4.00         -226.173392             +0.0000
iter:  27  10:47:32  -6.43  -4.12         -226.173370             +0.0000
iter:  28  10:47:51  -6.27  -4.17         -226.173342             -0.0000
iter:  29  10:48:11  -6.65  -4.59         -226.173335             +0.0000
iter:  30  10:48:35  -7.64  -4.77         -226.173335             -0.0000
iter:  31  10:48:55  -7.25  -4.80         -226.173336             -0.0000
iter:  32  10:49:19  -7.78  -4.99    -2.53-226.173335             -0.0000
iter:  33  10:49:44  -8.56  -5.13    -3.55-226.173334             -0.0000
iter:  34  10:50:08  -8.12  -5.18    -2.96-226.173334             -0.0000
iter:  35  10:50:32  -8.43  -5.45    -2.95-226.173334             -0.0000
iter:  36  10:50:57  -9.52  -5.62    -3.73-226.173334             -0.0000
iter:  37  10:51:21  -9.39  -5.64    -3.58-226.173334             +0.0000
iter:  38  10:51:45  -9.50  -5.68    -3.56-226.173334             +0.0000
iter:  39  10:52:10 -10.08  -5.70    -4.00-226.173334             +0.0000
iter:  40  10:52:34  -9.70  -5.72    -3.85-226.173334             +0.0000
iter:  41  10:52:58  -9.81  -5.76    -3.46-226.173334             +0.0000
iter:  42  10:53:23 -10.13  -5.97    -3.92-226.173334             +0.0000
iter:  43  10:53:47 -10.39  -6.04    -4.07-226.173334             +0.0000
iter:  44  10:54:11 -10.62  -6.09    -4.23-226.173334             +0.0000
iter:  45  10:54:36 -10.55  -6.12    -3.93-226.173334             +0.0000
iter:  46  10:55:00 -11.06  -6.52    -4.40-226.173334             +0.0000
iter:  47  10:55:24 -11.46  -6.57    -4.53-226.173334             +0.0000
iter:  48  10:55:48 -11.86  -6.60    -4.80-226.173334             +0.0000
iter:  49  10:56:13 -11.85  -6.64    -4.36-226.173334             +0.0000
iter:  50  10:56:37 -12.31  -6.98    -4.91-226.173334             +0.0000
iter:  51  10:57:01 -12.16  -7.03    -4.68-226.173334             +0.0000
iter:  52  10:57:26 -12.50  -7.23    -4.97-226.173334             +0.0000
iter:  53  10:57:50 -13.11  -7.51    -5.40-226.173334             +0.0000
iter:  54  10:58:14 -13.48  -7.59    -5.58-226.173334             +0.0000
iter:  55  10:58:39 -12.85  -7.64    -5.23-226.173334             +0.0000
iter:  56  10:59:03 -13.95  -7.95    -6.06-226.173334             +0.0000

Converged after 56 iterations.

Dipole moment: (18.266476, -2.306084, -4.525191) |e|*Ang

Total magnetic moment: (0.000000, 0.000000, 0.000000)
Local magnetic moments:
   0 O  ( 0.000000,  0.000000, -0.001909)
   1 O  ( 0.000000,  0.000000,  0.001805)
   2 O  ( 0.000000,  0.000000,  0.001799)
   3 O  ( 0.000000,  0.000000, -0.001790)
   4 O  ( 0.000000,  0.000000,  0.001793)
   5 O  ( 0.000000,  0.000000, -0.001784)
   6 O  ( 0.000000,  0.000000, -0.001915)
   7 O  ( 0.000000,  0.000000,  0.001810)
   8 O  ( 0.000000,  0.000000,  0.031005)
   9 O  ( 0.000000,  0.000000, -0.031014)
  10 O  ( 0.000000,  0.000000, -0.031183)
  11 O  ( 0.000000,  0.000000,  0.030737)
  12 Mn ( 0.000000,  0.000000,  4.395747)
  13 Mn ( 0.000000,  0.000000, -4.395780)
  14 Mn ( 0.000000,  0.000000, -4.395868)
  15 Mn ( 0.000000,  0.000000,  4.397022)
  16 P  ( 0.000000,  0.000000,  0.000687)
  17 P  ( 0.000000,  0.000000, -0.000847)
  18 P  ( 0.000000,  0.000000, -0.000910)
  19 P  ( 0.000000,  0.000000,  0.000872)
  20 O  ( 0.000000,  0.000000,  0.028465)
  21 O  ( 0.000000,  0.000000, -0.028416)
  22 O  ( 0.000000,  0.000000, -0.028439)
  23 O  ( 0.000000,  0.000000,  0.028619)
  24 Li ( 0.000000,  0.000000,  0.000000)
  25 Li ( 0.000000,  0.000000, -0.000033)
  26 Li ( 0.000000,  0.000000,  0.000000)
  27 Li ( 0.000000,  0.000000, -0.000033)

Energy contributions relative to reference atoms: (reference = -196157.275402)

Kinetic:       +278.262374
Potential:     -241.462950
External:        +0.000000
XC:            -264.860095
Entropy (-ST):   -0.000000
Local:           +1.887337
--------------------------
Free energy:   -226.173334
Extrapolated:  -226.173334

Spin contamination: 9.455531 electrons
Showing only first 2 kpts
                      Up                     Down
 Kpt  Band  Eigenvalues  Occupancy  Eigenvalues  Occupancy
  0    88      6.50961    0.00694      6.52944    0.00694
  0    89      6.56321    0.00694      6.56579    0.00694
  0    90      8.42316    0.00000      8.41868    0.00000
  0    91      8.45281    0.00000      8.44947    0.00000

  1    88      6.54582    0.00694      6.56785    0.00694
  1    89      6.59640    0.00694      6.59780    0.00694
  1    90      8.37971    0.00000      8.37380    0.00000
  1    91      8.40922    0.00000      8.40629    0.00000


Fermi level: 7.49453

Gap: 1.691 eV
Transition (v -> c):
  (s=1, k=93, n=89, [0.08, 0.42, -0.12]) -> (s=1, k=85, n=90, [0.08, 0.08, -0.12])
Writing to born-0.01-11x-.gpw (mode='all')

Timing:                              incl.     excl.
-----------------------------------------------------------
Hamiltonian:                         0.214     0.002   0.0% |
 Atomic:                             0.052     0.052   0.0% |
  XC Correction:                     0.000     0.000   0.0% |
 Calculate atomic Hamiltonians:      0.074     0.074   0.0% |
 Communicate:                        0.001     0.001   0.0% |
 Initialize Hamiltonian:             0.000     0.000   0.0% |
 Poisson:                            0.001     0.001   0.0% |
 XC 3D grid:                         0.083     0.083   0.0% |
LCAO initialization:                70.505     0.641   0.0% |
 LCAO eigensolver:                  19.748     0.002   0.0% |
  Calculate projections:             0.029     0.029   0.0% |
  DenseAtomicCorrection:             0.045     0.045   0.0% |
  Distribute overlap matrix:         0.257     0.257   0.0% |
  Orbital Layouts:                   0.429     0.429   0.0% |
  Potential matrix:                 18.894    18.894   0.6% |
  Sum over cells:                    0.091     0.091   0.0% |
 LCAO to grid:                      48.791    48.791   1.5% ||
 Set positions (LCAO WFS):           1.325     0.191   0.0% |
  Basic WFS set positions:           0.001     0.001   0.0% |
  Basis functions set positions:     0.000     0.000   0.0% |
  P tci:                             0.518     0.518   0.0% |
  ST tci:                            0.401     0.401   0.0% |
  mktci:                             0.213     0.213   0.0% |
PWDescriptor:                        0.023     0.023   0.0% |
SCF-cycle:                        1226.753     4.082   0.1% |
 Davidson:                        1045.218   320.230   9.6% |---|
  Apply H:                          72.337    70.209   2.1% ||
   HMM T:                            2.128     2.128   0.1% |
  Subspace diag:                   151.581     0.155   0.0% |
   calc_h_matrix:                   97.347    25.277   0.8% |
    Apply H:                        72.069    69.954   2.1% ||
     HMM T:                          2.115     2.115   0.1% |
   diagonalize:                      7.563     7.563   0.2% |
   rotate_psi:                      46.516    46.516   1.4% ||
  calc. matrices:                  312.492   171.209   5.1% |-|
   Apply H:                        141.283   137.299   4.1% |-|
    HMM T:                           3.984     3.984   0.1% |
  diagonalize:                      87.927    87.927   2.6% ||
  rotate_psi:                      100.651   100.651   3.0% ||
 Density:                           42.252     0.001   0.0% |
  Atomic density matrices:           0.869     0.869   0.0% |
  Mix:                               5.746     5.746   0.2% |
  Multipole moments:                 0.020     0.020   0.0% |
  Pseudo density:                   35.616    35.615   1.1% |
   Symmetrize density:               0.002     0.002   0.0% |
 Forces:                           121.174   121.174   3.6% ||
 Hamiltonian:                       11.968     0.116   0.0% |
  Atomic:                            2.891     2.891   0.1% |
   XC Correction:                    0.000     0.000   0.0% |
  Calculate atomic Hamiltonians:     4.141     4.141   0.1% |
  Communicate:                       0.095     0.095   0.0% |
  Poisson:                           0.032     0.032   0.0% |
  XC 3D grid:                        4.693     4.693   0.1% |
 Orthonormalize:                     2.059     0.003   0.0% |
  calc_s_matrix:                     0.241     0.241   0.0% |
  inverse-cholesky:                  0.072     0.072   0.0% |
  projections:                       1.313     1.313   0.0% |
  rotate_psi_s:                      0.429     0.429   0.0% |
Set symmetry:                        0.000     0.000   0.0% |
Other:                            2039.373  2039.373  61.1% |-----------------------|
-----------------------------------------------------------
Total:                                      3336.867 100.0%

Memory usage: 11.89 GiB
Date: Wed Mar 24 11:33:01 2021
