
  ___ ___ ___ _ _ _  
 |   |   |_  | | | | 
 | | | | | . | | | | 
 |__ |  _|___|_____|  20.10.1b1
 |___|_|             

User:   madkru@i008.nifl.fysik.dtu.dk
Date:   Thu Mar 25 00:50:09 2021
Arch:   x86_64
Pid:    26969
Python: 3.7.4
gpaw:   /home/niflheim/madkru/venv_folder/gpaw/gpaw (d224efde0f)
_gpaw:  /home/niflheim/madkru/venv_folder/gpaw/build/lib.linux-x86_64-ivybridge-3.7/
        _gpaw.cpython-37m-x86_64-linux-gnu.so (4fd39e8b1e)
ase:    /home/niflheim/madkru/venv_folder/ase/ase (version 3.21.0b1-4d5a73cb29)
numpy:  /home/niflheim/madkru/venv_folder/lib/python3.7/site-packages/numpy (version 1.19.4)
scipy:  /home/niflheim/madkru/venv_folder/lib/python3.7/site-packages/scipy (version 1.5.4)
libxc:  4.3.4
units:  Angstrom and eV
cores: 64
OMP_NUM_THREADS: 1

Input parameters:
  convergence: {bands: occupied,
                density: 0.0001,
                eigenstates: 4e-08,
                energy: 0.0005,
                forces: 1e-06}
  kpts: [6 6 4]
  mode: {ecut: 600.0,
         gammacentered: False,
         name: pw}
  occupations: {fixmagmom: False,
                name: fermi-dirac,
                width: 0.001}
  symmetry: {point_group: False,
             time_reversal: False}

System changes: positions, numbers, cell, pbc, initial_charges, initial_magmoms 

Initialize ...

O-setup:
  name: Oxygen
  id: 9b9d51c344dea68c822856295a461509
  Z: 8.0
  valence: 6
  core: 2
  charge: 0.0
  file: /home/modules/software/GPAW-setups/0.9.20000/O.LDA.gz
  compensation charges: gauss, rc=0.21, lmax=2
  cutoffs: 1.17(filt), 0.83(core),
  valence states:
                energy  radius
    2s(2.00)   -23.752   0.688
    2p(4.00)    -9.195   0.598
    *s           3.459   0.688
    *p          18.016   0.598
    *d           0.000   0.619

  Using partial waves for O as LCAO basis

Mn-setup:
  name: Manganese
  id: 0d715a8018be061a6e9ea6f2d364ac92
  Z: 25.0
  valence: 15
  core: 10
  charge: 0.0
  file: /home/modules/software/GPAW-setups/0.9.20000/Mn.LDA.gz
  compensation charges: gauss, rc=0.38, lmax=2
  cutoffs: 2.14(filt), 0.86(core),
  valence states:
                energy  radius
    3s(2.00)   -85.387   1.275
    4s(2.00)    -5.282   1.275
    3p(6.00)   -54.493   1.281
    4p(0.00)    -1.471   1.281
    3d(5.00)    -7.009   1.138
    *d          20.203   1.138

  Using partial waves for Mn as LCAO basis

P-setup:
  name: Phosphorus
  id: a5561c299094968922a179ab894d2e2d
  Z: 15.0
  valence: 5
  core: 10
  charge: 0.0
  file: /home/modules/software/GPAW-setups/0.9.20000/P.LDA.gz
  compensation charges: gauss, rc=0.30, lmax=2
  cutoffs: 1.69(filt), 1.81(core),
  valence states:
                energy  radius
    3s(2.00)   -14.015   0.953
    3p(3.00)    -5.596   0.953
    *s          13.197   0.953
    *p          21.615   0.953
    *d           0.000   0.953

  Using partial waves for P as LCAO basis

Li-setup:
  name: Lithium
  id: b73562207f97a71b6967473b66fe8b65
  Z: 3.0
  valence: 1
  core: 2
  charge: 0.0
  file: /home/modules/software/GPAW-setups/0.9.20000/Li.LDA.gz
  compensation charges: gauss, rc=0.33, lmax=2
  cutoffs: 1.91(filt), 2.55(core),
  valence states:
                energy  radius
    2s(1.00)    -2.874   1.058
    2p(0.00)    -1.126   1.058
    *s          24.338   1.058

  Using partial waves for Li as LCAO basis

Reference energy: -196157.275402

Spin-polarized calculation.
Magnetic moment: 0.000000

Convergence criteria:
  Maximum total energy change: 0.0005 eV / electron
  Maximum integral of absolute density change: 0.0001 electrons
  Maximum integral of absolute eigenstate change: 4e-08 eV^2
  Maximum change in atomic force: 1e-06 eV / Ang
  Maximum number of iterations: 333

Symmetries present (total): 1

  ( 1  0  0)
  ( 0  1  0)
  ( 0  0  1)

144 k-points: 6 x 6 x 4 Monkhorst-Pack grid
144 k-points in the irreducible part of the Brillouin zone
       k-points in crystal coordinates                weights
   0:    -0.41666667   -0.41666667   -0.37500000          1/144
   1:    -0.41666667   -0.41666667   -0.12500000          1/144
   2:    -0.41666667   -0.41666667    0.12500000          1/144
   3:    -0.41666667   -0.41666667    0.37500000          1/144
   4:    -0.41666667   -0.25000000   -0.37500000          1/144
   5:    -0.41666667   -0.25000000   -0.12500000          1/144
   6:    -0.41666667   -0.25000000    0.12500000          1/144
   7:    -0.41666667   -0.25000000    0.37500000          1/144
   8:    -0.41666667   -0.08333333   -0.37500000          1/144
   9:    -0.41666667   -0.08333333   -0.12500000          1/144
          ...
 143:     0.41666667    0.41666667    0.37500000          1/144

Wave functions: Plane wave expansion
  Cutoff energy: 600.000 eV
  Number of coefficients (min, max): 9132, 9161
  Pulay-stress correction: 0.000000 eV/Ang^3 (de/decut=0.000000)
  Using FFTW library
  ScaLapack parameters: grid=1x1, blocksize=None
  Wavefunction extrapolation:
    Improved wavefunction reuse through dual PAW basis 

  Fermi-Dirac: width=0.0010 eV

Eigensolver
   Davidson(niter=2, smin=None, normalize=True) 

Densities:
  Coarse grid: 60*35*27 grid
  Fine grid: 120*70*54 grid
  Total Charge: 0.000000 

Density mixing:
  Method: difference
  Backend: pulay
  Linear mixing parameter: 0.05
  Mixing with 5 old densities
  Damping of long wave oscillations: 50 

Hamiltonian:
  XC and Coulomb potentials evaluated on a 120*70*54 grid
  Using the LDA Exchange-Correlation functional
 

Memory estimate:
  Process memory now: 12820.62 MiB
  Calculator: 322.47 MiB
    Density: 9.62 MiB
      Arrays: 3.79 MiB
      Localized functions: 4.27 MiB
      Mixer: 1.56 MiB
    Hamiltonian: 2.94 MiB
      Arrays: 2.82 MiB
      XC: 0.00 MiB
      Poisson: 0.00 MiB
      vbar: 0.12 MiB
    Wavefunctions: 309.91 MiB
      Arrays psit_nG: 281.81 MiB
      Eigensolver: 18.27 MiB
      Projections: 2.71 MiB
      Projectors: 4.40 MiB
      PW-descriptor: 2.71 MiB

Total number of cores used: 64
Parallelization over k-points: 16
Domain decomposition: 2 x 2 x 1

Number of atoms: 28
Number of atomic orbitals: 148
Number of bands in calculation: 112
Number of valence electrons: 180
Bands to converge: occupied

... initialized

Initializing position-dependent things.

Density initialized from atomic densities
Creating initial wave functions:
  112 bands from LCAO basis set

                                           
                                           
                                           
                                           
                                           
               O     O  P  O               
            PO           OMn     O         
                  O          MO            
            O        Li O                  
             Mn  Mn          OP            
         O       O Li O                    
         Li     O P         O              
       Li                                  
                                           
                                           
                                           
                                           

Positions:
   0 O     -1.280122   -2.495595   -1.112331    ( 0.0000,  0.0000,  0.0000)
   1 O     -3.023238    2.918858    1.191723    ( 0.0000,  0.0000,  0.0000)
   2 O      1.997451    0.467212    1.441442    ( 0.0000,  0.0000,  0.0000)
   3 O      3.740343   -0.043905   -0.862614    ( 0.0000,  0.0000,  0.0000)
   4 O      1.997419    2.918835    1.441465    ( 0.0000,  0.0000,  0.0000)
   5 O      3.740372   -2.495531   -0.862587    ( 0.0000,  0.0000,  0.0000)
   6 O     -1.280154   -0.043891   -1.112309    ( 0.0000,  0.0000,  0.0000)
   7 O     -3.023210    0.467136    1.191750    ( 0.0000,  0.0000,  0.0000)
   8 O     -4.147405   -1.269737   -0.856207    ( 0.0000,  0.0000,  0.0000)
   9 O     -0.155894    1.692986    1.447725    ( 0.0000,  0.0000,  0.0000)
  10 O      4.864578    1.693016    1.185324    ( 0.0000,  0.0000,  0.0000)
  11 O      0.873163   -1.269706   -1.118625    ( 0.0000,  0.0000,  0.0000)
  12 Mn    -2.437108   -1.269902    0.302197    ( 0.0000,  0.0000,  1.0000)
  13 Mn    -1.866187    1.693156   -2.001927    ( 0.0000,  0.0000, -1.0000)
  14 Mn     3.154299    1.693181    0.026917    ( 0.0000,  0.0000, -1.0000)
  15 Mn     2.583444   -1.269877    2.321074    ( 0.0000,  0.0000,  1.0000)
  16 P     -0.543052   -1.269720   -1.734187    ( 0.0000,  0.0000,  0.0000)
  17 P     -3.760282    1.692974    0.569859    ( 0.0000,  0.0000,  0.0000)
  18 P      1.260300    1.693000    2.063344    ( 0.0000,  0.0000,  0.0000)
  19 P      4.477470   -1.269695   -0.240696    ( 0.0000,  0.0000,  0.0000)
  20 O     -0.544413   -1.269738    1.348523    ( 0.0000,  0.0000,  0.0000)
  21 O     -3.758895    1.692992   -0.955558    ( 0.0000,  0.0000,  0.0000)
  22 O      1.261690    1.693018   -1.019367    ( 0.0000,  0.0000,  0.0000)
  23 O      4.476045   -1.269713    1.284716    ( 0.0000,  0.0000,  0.0000)
  24 Li    -4.662027   -2.751322   -2.139440    ( 0.0000,  0.0000,  0.0000)
  25 Li     0.358703   -2.751277    0.164614    ( 0.0000,  0.0000,  0.0000)
  26 Li    -4.662011    0.211617   -2.139439    ( 0.0000,  0.0000,  0.0000)
  27 Li     0.358720    0.211628    0.164615    ( 0.0000,  0.0000,  0.0000)

Unit cell:
           periodic     x           y           z      points  spacing
  1. axis:    yes   10.041096    0.000054   -0.000022    60     0.1674
  2. axis:    yes    0.000032    5.925857    0.000001    35     0.1693
  3. axis:    yes   -0.000010    0.000001    4.608134    27     0.1707

  Lengths:  10.041096   5.925857   4.608134
  Angles:   89.999974  90.000250  89.999381

Effective grid spacing dv^(1/3) = 0.1691

                     log10-error:           total        iterations:
           time      wfs    density  force  energy       poisson  magmom
iter:   1  00:51:46                       -233.727339             +0.0000
iter:   2  00:52:05  -0.47  -0.95         -231.556054             +0.0029
iter:   3  00:52:25  -0.61  -1.00         -220.812790             +0.0030
iter:   4  00:52:45  -1.20  -1.31         -221.089880             -0.3038
iter:   5  00:53:05  -2.13  -1.39         -222.625459             -0.1634
iter:   6  00:53:24  -2.17  -1.38         -224.920814             -0.0677
iter:   7  00:53:44  -2.18  -1.47         -223.924232             -0.0550
iter:   8  00:54:04  -2.39  -1.60         -225.465210             -0.0422
iter:   9  00:54:23  -2.24  -1.83         -226.465144             -0.0086
iter:  10  00:54:43  -2.83  -2.04         -226.438358             -0.0018
iter:  11  00:55:03  -2.68  -2.07         -226.390222             -0.0001
iter:  12  00:55:23  -2.56  -2.20         -226.341320             -0.0004
iter:  13  00:55:42  -2.44  -2.48         -226.222473             +0.0001
iter:  14  00:56:02  -3.47  -2.66         -226.221480             -0.0001
iter:  15  00:56:22  -3.04  -2.70         -226.179795             -0.0000
iter:  16  00:56:41  -4.17  -2.92         -226.177207             -0.0000
iter:  17  00:57:01  -4.80  -3.03         -226.177004             +0.0000
iter:  18  00:57:21  -4.31  -3.12         -226.180410             +0.0000
iter:  19  00:57:40  -4.08  -3.40         -226.175098             +0.0000
iter:  20  00:58:00  -5.28  -3.66         -226.175120             +0.0000
iter:  21  00:58:20  -4.94  -3.70         -226.175538             +0.0000
iter:  22  00:58:39  -5.25  -3.92         -226.175058             +0.0000
iter:  23  00:58:59  -6.31  -4.15         -226.175071             +0.0000
iter:  24  00:59:19  -6.17  -4.26         -226.175044             +0.0000
iter:  25  00:59:39  -6.48  -4.57         -226.175040             +0.0000
iter:  26  00:59:58  -6.60  -4.51         -226.175045             -0.0000
iter:  27  01:00:18  -7.12  -4.77         -226.175043             -0.0000
iter:  28  01:00:42  -8.50  -4.92         -226.175042             -0.0000
iter:  29  01:01:06  -7.48  -4.94    -2.49-226.175043             -0.0000
iter:  30  01:01:31  -8.12  -5.13    -2.81-226.175042             -0.0000
iter:  31  01:01:55  -7.91  -5.21    -2.77-226.175043             -0.0000
iter:  32  01:02:20  -8.17  -5.28    -2.95-226.175042             -0.0000
iter:  33  01:02:44  -9.48  -5.59    -3.20-226.175042             -0.0000
iter:  34  01:03:08 -10.17  -5.69    -3.91-226.175042             -0.0000
iter:  35  01:03:33  -8.93  -5.74    -3.36-226.175042             +0.0000
iter:  36  01:03:57  -9.99  -6.02    -4.05-226.175042             -0.0000
iter:  37  01:04:21 -10.55  -6.06    -4.21-226.175042             +0.0000
iter:  38  01:04:46 -10.17  -6.11    -3.71-226.175042             +0.0000
iter:  39  01:05:10 -11.21  -6.29    -4.37-226.175042             -0.0000
iter:  40  01:05:34 -10.66  -6.34    -4.01-226.175042             -0.0000
iter:  41  01:05:59 -11.38  -6.55    -4.13-226.175042             -0.0000
iter:  42  01:06:23 -11.27  -6.69    -4.28-226.175042             -0.0000
iter:  43  01:06:47 -11.78  -6.87    -4.76-226.175042             -0.0000
iter:  44  01:07:12 -11.47  -6.99    -4.75-226.175042             -0.0000
iter:  45  01:07:36 -12.80  -7.40    -5.12-226.175042             -0.0000
iter:  46  01:08:00 -12.70  -7.48    -5.26-226.175042             -0.0000
iter:  47  01:08:24 -12.74  -7.61    -5.31-226.175042             -0.0000
iter:  48  01:08:49 -13.90  -7.65    -5.87-226.175042             +0.0000
iter:  49  01:09:13 -13.15  -7.70    -5.31-226.175042             +0.0000
iter:  50  01:09:38 -13.35  -7.93    -5.67-226.175042             +0.0000
iter:  51  01:10:02 -14.63  -8.09    -5.80-226.175042             +0.0000
iter:  52  01:10:26 -14.88  -8.17    -6.53-226.175042             +0.0000

Converged after 52 iterations.

Dipole moment: (18.326870, -2.308157, -4.535951) |e|*Ang

Total magnetic moment: (0.000000, 0.000000, 0.000000)
Local magnetic moments:
   0 O  ( 0.000000,  0.000000, -0.001847)
   1 O  ( 0.000000,  0.000000,  0.001811)
   2 O  ( 0.000000,  0.000000,  0.002050)
   3 O  ( 0.000000,  0.000000, -0.002208)
   4 O  ( 0.000000,  0.000000,  0.002044)
   5 O  ( 0.000000,  0.000000, -0.002203)
   6 O  ( 0.000000,  0.000000, -0.001852)
   7 O  ( 0.000000,  0.000000,  0.001817)
   8 O  ( 0.000000,  0.000000,  0.031088)
   9 O  ( 0.000000,  0.000000, -0.031006)
  10 O  ( 0.000000,  0.000000, -0.031127)
  11 O  ( 0.000000,  0.000000,  0.030882)
  12 Mn ( 0.000000,  0.000000,  4.395737)
  13 Mn ( 0.000000,  0.000000, -4.395782)
  14 Mn ( 0.000000,  0.000000, -4.396074)
  15 Mn ( 0.000000,  0.000000,  4.395838)
  16 P  ( 0.000000,  0.000000,  0.000733)
  17 P  ( 0.000000,  0.000000, -0.000864)
  18 P  ( 0.000000,  0.000000, -0.000661)
  19 P  ( 0.000000,  0.000000,  0.000848)
  20 O  ( 0.000000,  0.000000,  0.028427)
  21 O  ( 0.000000,  0.000000, -0.028433)
  22 O  ( 0.000000,  0.000000, -0.028350)
  23 O  ( 0.000000,  0.000000,  0.028677)
  24 Li ( 0.000000,  0.000000, -0.000003)
  25 Li ( 0.000000,  0.000000, -0.000004)
  26 Li ( 0.000000,  0.000000, -0.000003)
  27 Li ( 0.000000,  0.000000, -0.000004)

Energy contributions relative to reference atoms: (reference = -196157.275402)

Kinetic:       +277.572214
Potential:     -240.926708
External:        +0.000000
XC:            -264.709126
Entropy (-ST):   -0.000000
Local:           +1.888578
--------------------------
Free energy:   -226.175042
Extrapolated:  -226.175042

Spin contamination: 9.455916 electrons
Showing only first 2 kpts
                      Up                     Down
 Kpt  Band  Eigenvalues  Occupancy  Eigenvalues  Occupancy
  0    88      6.53101    0.00694      6.53063    0.00694
  0    89      6.56454    0.00694      6.56418    0.00694
  0    90      8.42622    0.00000      8.42295    0.00000
  0    91      8.44808    0.00000      8.44515    0.00000

  1    88      6.56844    0.00694      6.56895    0.00694
  1    89      6.59578    0.00694      6.59575    0.00694
  1    90      8.38257    0.00000      8.38121    0.00000
  1    91      8.40499    0.00000      8.40371    0.00000


Fermi level: 7.43988

Gap: 1.698 eV
Transition (v -> c):
  (s=1, k=50, n=89, [-0.08, -0.42, 0.12]) -> (s=1, k=62, n=90, [-0.08, 0.08, 0.12])
Writing to born-0.01-15z-.gpw (mode='all')

Timing:                              incl.     excl.
-----------------------------------------------------------
Hamiltonian:                         0.220     0.002   0.0% |
 Atomic:                             0.059     0.059   0.0% |
  XC Correction:                     0.000     0.000   0.0% |
 Calculate atomic Hamiltonians:      0.073     0.073   0.0% |
 Communicate:                        0.002     0.002   0.0% |
 Initialize Hamiltonian:             0.000     0.000   0.0% |
 Poisson:                            0.001     0.001   0.0% |
 XC 3D grid:                         0.083     0.083   0.0% |
LCAO initialization:                69.001     0.646   0.0% |
 LCAO eigensolver:                  19.631     0.002   0.0% |
  Calculate projections:             0.029     0.029   0.0% |
  DenseAtomicCorrection:             0.046     0.046   0.0% |
  Distribute overlap matrix:         0.038     0.038   0.0% |
  Orbital Layouts:                   0.431     0.431   0.0% |
  Potential matrix:                 18.998    18.998   0.6% |
  Sum over cells:                    0.087     0.087   0.0% |
 LCAO to grid:                      47.408    47.408   1.5% ||
 Set positions (LCAO WFS):           1.316     0.191   0.0% |
  Basic WFS set positions:           0.001     0.001   0.0% |
  Basis functions set positions:     0.000     0.000   0.0% |
  P tci:                             0.526     0.526   0.0% |
  ST tci:                            0.383     0.383   0.0% |
  mktci:                             0.215     0.215   0.0% |
PWDescriptor:                        0.023     0.023   0.0% |
SCF-cycle:                        1146.621     6.060   0.2% |
 Davidson:                         971.560   297.633   9.3% |---|
  Apply H:                          67.494    65.539   2.0% ||
   HMM T:                            1.954     1.954   0.1% |
  Subspace diag:                   141.030     0.149   0.0% |
   calc_h_matrix:                   90.666    23.441   0.7% |
    Apply H:                        67.225    65.245   2.0% ||
     HMM T:                          1.980     1.980   0.1% |
   diagonalize:                      7.092     7.092   0.2% |
   rotate_psi:                      43.124    43.124   1.3% ||
  calc. matrices:                  290.663   159.021   4.9% |-|
   Apply H:                        131.642   127.991   4.0% |-|
    HMM T:                           3.651     3.651   0.1% |
  diagonalize:                      81.334    81.334   2.5% ||
  rotate_psi:                       93.406    93.406   2.9% ||
 Density:                           39.282     0.001   0.0% |
  Atomic density matrices:           0.830     0.830   0.0% |
  Mix:                               5.378     5.378   0.2% |
  Multipole moments:                 0.019     0.019   0.0% |
  Pseudo density:                   33.053    33.052   1.0% |
   Symmetrize density:               0.001     0.001   0.0% |
 Forces:                           116.619   116.619   3.6% ||
 Hamiltonian:                       11.044     0.108   0.0% |
  Atomic:                            2.613     2.613   0.1% |
   XC Correction:                    0.000     0.000   0.0% |
  Calculate atomic Hamiltonians:     3.840     3.840   0.1% |
  Communicate:                       0.098     0.098   0.0% |
  Poisson:                           0.030     0.030   0.0% |
  XC 3D grid:                        4.356     4.356   0.1% |
 Orthonormalize:                     2.057     0.003   0.0% |
  calc_s_matrix:                     0.242     0.242   0.0% |
  inverse-cholesky:                  0.072     0.072   0.0% |
  projections:                       1.312     1.312   0.0% |
  rotate_psi_s:                      0.428     0.428   0.0% |
Set symmetry:                        0.000     0.000   0.0% |
Other:                            2001.532  2001.532  62.2% |------------------------|
-----------------------------------------------------------
Total:                                      3217.398 100.0%

Memory usage: 12.56 GiB
Date: Thu Mar 25 01:43:47 2021
