
  ___ ___ ___ _ _ _  
 |   |   |_  | | | | 
 | | | | | . | | | | 
 |__ |  _|___|_____|  20.10.1b1
 |___|_|             

User:   madkru@i008.nifl.fysik.dtu.dk
Date:   Thu Mar 25 21:43:48 2021
Arch:   x86_64
Pid:    26969
Python: 3.7.4
gpaw:   /home/niflheim/madkru/venv_folder/gpaw/gpaw (d224efde0f)
_gpaw:  /home/niflheim/madkru/venv_folder/gpaw/build/lib.linux-x86_64-ivybridge-3.7/
        _gpaw.cpython-37m-x86_64-linux-gnu.so (4fd39e8b1e)
ase:    /home/niflheim/madkru/venv_folder/ase/ase (version 3.21.0b1-4d5a73cb29)
numpy:  /home/niflheim/madkru/venv_folder/lib/python3.7/site-packages/numpy (version 1.19.4)
scipy:  /home/niflheim/madkru/venv_folder/lib/python3.7/site-packages/scipy (version 1.5.4)
libxc:  4.3.4
units:  Angstrom and eV
cores: 64
OMP_NUM_THREADS: 1

Input parameters:
  convergence: {bands: occupied,
                density: 0.0001,
                eigenstates: 4e-08,
                energy: 0.0005,
                forces: 1e-06}
  kpts: [6 6 4]
  mode: {ecut: 600.0,
         gammacentered: False,
         name: pw}
  occupations: {fixmagmom: False,
                name: fermi-dirac,
                width: 0.001}
  symmetry: {point_group: False,
             time_reversal: False}

System changes: positions, numbers, cell, pbc, initial_charges, initial_magmoms 

Initialize ...

O-setup:
  name: Oxygen
  id: 9b9d51c344dea68c822856295a461509
  Z: 8.0
  valence: 6
  core: 2
  charge: 0.0
  file: /home/modules/software/GPAW-setups/0.9.20000/O.LDA.gz
  compensation charges: gauss, rc=0.21, lmax=2
  cutoffs: 1.17(filt), 0.83(core),
  valence states:
                energy  radius
    2s(2.00)   -23.752   0.688
    2p(4.00)    -9.195   0.598
    *s           3.459   0.688
    *p          18.016   0.598
    *d           0.000   0.619

  Using partial waves for O as LCAO basis

Mn-setup:
  name: Manganese
  id: 0d715a8018be061a6e9ea6f2d364ac92
  Z: 25.0
  valence: 15
  core: 10
  charge: 0.0
  file: /home/modules/software/GPAW-setups/0.9.20000/Mn.LDA.gz
  compensation charges: gauss, rc=0.38, lmax=2
  cutoffs: 2.14(filt), 0.86(core),
  valence states:
                energy  radius
    3s(2.00)   -85.387   1.275
    4s(2.00)    -5.282   1.275
    3p(6.00)   -54.493   1.281
    4p(0.00)    -1.471   1.281
    3d(5.00)    -7.009   1.138
    *d          20.203   1.138

  Using partial waves for Mn as LCAO basis

P-setup:
  name: Phosphorus
  id: a5561c299094968922a179ab894d2e2d
  Z: 15.0
  valence: 5
  core: 10
  charge: 0.0
  file: /home/modules/software/GPAW-setups/0.9.20000/P.LDA.gz
  compensation charges: gauss, rc=0.30, lmax=2
  cutoffs: 1.69(filt), 1.81(core),
  valence states:
                energy  radius
    3s(2.00)   -14.015   0.953
    3p(3.00)    -5.596   0.953
    *s          13.197   0.953
    *p          21.615   0.953
    *d           0.000   0.953

  Using partial waves for P as LCAO basis

Li-setup:
  name: Lithium
  id: b73562207f97a71b6967473b66fe8b65
  Z: 3.0
  valence: 1
  core: 2
  charge: 0.0
  file: /home/modules/software/GPAW-setups/0.9.20000/Li.LDA.gz
  compensation charges: gauss, rc=0.33, lmax=2
  cutoffs: 1.91(filt), 2.55(core),
  valence states:
                energy  radius
    2s(1.00)    -2.874   1.058
    2p(0.00)    -1.126   1.058
    *s          24.338   1.058

  Using partial waves for Li as LCAO basis

Reference energy: -196157.275402

Spin-polarized calculation.
Magnetic moment: 0.000000

Convergence criteria:
  Maximum total energy change: 0.0005 eV / electron
  Maximum integral of absolute density change: 0.0001 electrons
  Maximum integral of absolute eigenstate change: 4e-08 eV^2
  Maximum change in atomic force: 1e-06 eV / Ang
  Maximum number of iterations: 333

Symmetries present (total): 1

  ( 1  0  0)
  ( 0  1  0)
  ( 0  0  1)

144 k-points: 6 x 6 x 4 Monkhorst-Pack grid
144 k-points in the irreducible part of the Brillouin zone
       k-points in crystal coordinates                weights
   0:    -0.41666667   -0.41666667   -0.37500000          1/144
   1:    -0.41666667   -0.41666667   -0.12500000          1/144
   2:    -0.41666667   -0.41666667    0.12500000          1/144
   3:    -0.41666667   -0.41666667    0.37500000          1/144
   4:    -0.41666667   -0.25000000   -0.37500000          1/144
   5:    -0.41666667   -0.25000000   -0.12500000          1/144
   6:    -0.41666667   -0.25000000    0.12500000          1/144
   7:    -0.41666667   -0.25000000    0.37500000          1/144
   8:    -0.41666667   -0.08333333   -0.37500000          1/144
   9:    -0.41666667   -0.08333333   -0.12500000          1/144
          ...
 143:     0.41666667    0.41666667    0.37500000          1/144

Wave functions: Plane wave expansion
  Cutoff energy: 600.000 eV
  Number of coefficients (min, max): 9132, 9161
  Pulay-stress correction: 0.000000 eV/Ang^3 (de/decut=0.000000)
  Using FFTW library
  ScaLapack parameters: grid=1x1, blocksize=None
  Wavefunction extrapolation:
    Improved wavefunction reuse through dual PAW basis 

  Fermi-Dirac: width=0.0010 eV

Eigensolver
   Davidson(niter=2, smin=None, normalize=True) 

Densities:
  Coarse grid: 60*35*27 grid
  Fine grid: 120*70*54 grid
  Total Charge: 0.000000 

Density mixing:
  Method: difference
  Backend: pulay
  Linear mixing parameter: 0.05
  Mixing with 5 old densities
  Damping of long wave oscillations: 50 

Hamiltonian:
  XC and Coulomb potentials evaluated on a 120*70*54 grid
  Using the LDA Exchange-Correlation functional
 

Memory estimate:
  Process memory now: 13824.29 MiB
  Calculator: 322.47 MiB
    Density: 9.62 MiB
      Arrays: 3.79 MiB
      Localized functions: 4.27 MiB
      Mixer: 1.56 MiB
    Hamiltonian: 2.94 MiB
      Arrays: 2.82 MiB
      XC: 0.00 MiB
      Poisson: 0.00 MiB
      vbar: 0.12 MiB
    Wavefunctions: 309.91 MiB
      Arrays psit_nG: 281.81 MiB
      Eigensolver: 18.27 MiB
      Projections: 2.71 MiB
      Projectors: 4.40 MiB
      PW-descriptor: 2.71 MiB

Total number of cores used: 64
Parallelization over k-points: 16
Domain decomposition: 2 x 2 x 1

Number of atoms: 28
Number of atomic orbitals: 148
Number of bands in calculation: 112
Number of valence electrons: 180
Bands to converge: occupied

... initialized

Initializing position-dependent things.

Density initialized from atomic densities
Creating initial wave functions:
  112 bands from LCAO basis set

                                           
                                           
                                           
                                           
                                           
               O     O  P  O               
            PO           OMn     O         
                  O          MO            
            O        Li O                  
             Mn  Mn          OP            
         O       O Li O                    
         Li     O P         O              
       Li                                  
                                           
                                           
                                           
                                           

Positions:
   0 O     -1.280122   -2.495595   -1.112331    ( 0.0000,  0.0000,  0.0000)
   1 O     -3.023238    2.918858    1.191723    ( 0.0000,  0.0000,  0.0000)
   2 O      1.997451    0.467212    1.441442    ( 0.0000,  0.0000,  0.0000)
   3 O      3.740343   -0.043905   -0.862614    ( 0.0000,  0.0000,  0.0000)
   4 O      1.997419    2.918835    1.441465    ( 0.0000,  0.0000,  0.0000)
   5 O      3.740372   -2.495531   -0.862587    ( 0.0000,  0.0000,  0.0000)
   6 O     -1.280154   -0.043891   -1.112309    ( 0.0000,  0.0000,  0.0000)
   7 O     -3.023210    0.467136    1.191750    ( 0.0000,  0.0000,  0.0000)
   8 O     -4.147405   -1.269737   -0.856207    ( 0.0000,  0.0000,  0.0000)
   9 O     -0.155894    1.692986    1.447725    ( 0.0000,  0.0000,  0.0000)
  10 O      4.864578    1.693016    1.185324    ( 0.0000,  0.0000,  0.0000)
  11 O      0.873163   -1.269706   -1.118625    ( 0.0000,  0.0000,  0.0000)
  12 Mn    -2.437108   -1.269902    0.302197    ( 0.0000,  0.0000,  1.0000)
  13 Mn    -1.866187    1.693156   -2.001927    ( 0.0000,  0.0000, -1.0000)
  14 Mn     3.154299    1.693181    0.026917    ( 0.0000,  0.0000, -1.0000)
  15 Mn     2.583444   -1.269877    2.331074    ( 0.0000,  0.0000,  1.0000)
  16 P     -0.543052   -1.269720   -1.734187    ( 0.0000,  0.0000,  0.0000)
  17 P     -3.760282    1.692974    0.569859    ( 0.0000,  0.0000,  0.0000)
  18 P      1.260300    1.693000    2.063344    ( 0.0000,  0.0000,  0.0000)
  19 P      4.477470   -1.269695   -0.240696    ( 0.0000,  0.0000,  0.0000)
  20 O     -0.544413   -1.269738    1.348523    ( 0.0000,  0.0000,  0.0000)
  21 O     -3.758895    1.692992   -0.955558    ( 0.0000,  0.0000,  0.0000)
  22 O      1.261690    1.703018   -1.019367    ( 0.0000,  0.0000,  0.0000)
  23 O      4.476045   -1.269713    1.284716    ( 0.0000,  0.0000,  0.0000)
  24 Li    -4.662027   -2.751322   -2.139440    ( 0.0000,  0.0000,  0.0000)
  25 Li     0.358703   -2.751277    0.164614    ( 0.0000,  0.0000,  0.0000)
  26 Li    -4.662011    0.211617   -2.139439    ( 0.0000,  0.0000,  0.0000)
  27 Li     0.358720    0.211628    0.164615    ( 0.0000,  0.0000,  0.0000)

Unit cell:
           periodic     x           y           z      points  spacing
  1. axis:    yes   10.041096    0.000054   -0.000022    60     0.1674
  2. axis:    yes    0.000032    5.925857    0.000001    35     0.1693
  3. axis:    yes   -0.000010    0.000001    4.608134    27     0.1707

  Lengths:  10.041096   5.925857   4.608134
  Angles:   89.999974  90.000250  89.999381

Effective grid spacing dv^(1/3) = 0.1691

                     log10-error:           total        iterations:
           time      wfs    density  force  energy       poisson  magmom
iter:   1  21:45:23                       -233.730162             +0.0000
iter:   2  21:45:43  -0.47  -0.95         -231.549864             +0.0020
iter:   3  21:46:03  -0.61  -1.00         -220.803042             +0.0021
iter:   4  21:46:23  -1.19  -1.31         -220.896585             +0.3150
iter:   5  21:46:42  -2.12  -1.40         -222.885706             +0.1697
iter:   6  21:47:02  -2.18  -1.38         -223.671778             +0.2248
iter:   7  21:47:22  -2.17  -1.53         -223.814236             -0.1875
iter:   8  21:47:41  -2.50  -1.68         -225.603739             -0.5443
iter:   9  21:48:01  -2.31  -1.90         -226.440982             -0.2311
iter:  10  21:48:21  -2.23  -2.00         -226.314546             -0.0716
iter:  11  21:48:40  -2.86  -2.12         -226.298419             -0.0264
iter:  12  21:49:00  -2.62  -2.17         -226.239285             +0.0007
iter:  13  21:49:20  -2.89  -2.47         -226.216403             -0.0046
iter:  14  21:49:39  -2.95  -2.78         -226.186004             +0.0006
iter:  15  21:49:59  -3.51  -2.90         -226.179711             -0.0005
iter:  16  21:50:19  -4.27  -3.19         -226.179454             -0.0001
iter:  17  21:50:38  -4.24  -3.26         -226.175318             -0.0000
iter:  18  21:50:58  -5.37  -3.37         -226.175235             -0.0000
iter:  19  21:51:17  -4.94  -3.41         -226.175937             -0.0000
iter:  20  21:51:37  -5.03  -3.75         -226.175162             -0.0000
iter:  21  21:51:57  -5.94  -4.11         -226.175113             -0.0000
iter:  22  21:52:16  -6.75  -4.22         -226.175110             -0.0000
iter:  23  21:52:36  -6.75  -4.26         -226.175099             +0.0000
iter:  24  21:52:56  -6.83  -4.42         -226.175093             +0.0000
iter:  25  21:53:15  -7.00  -4.43         -226.175094             +0.0000
iter:  26  21:53:40  -8.01  -4.64         -226.175093             +0.0000
iter:  27  21:53:59  -7.14  -4.74         -226.175092             -0.0000
iter:  28  21:54:24  -8.33  -4.98    -2.24-226.175092             -0.0000
iter:  29  21:54:48  -8.91  -5.04    -3.04-226.175092             -0.0000
iter:  30  21:55:12  -8.70  -5.12    -2.98-226.175092             -0.0000
iter:  31  21:55:37  -7.86  -5.21    -2.87-226.175092             -0.0000
iter:  32  21:56:01  -9.15  -5.35    -3.59-226.175091             -0.0000
iter:  33  21:56:25  -8.81  -5.37    -3.49-226.175091             +0.0000
iter:  34  21:56:50  -9.72  -5.43    -3.64-226.175091             +0.0000
iter:  35  21:57:14  -9.58  -5.48    -3.73-226.175091             -0.0000
iter:  36  21:57:38 -10.08  -5.61    -3.73-226.175091             +0.0000
iter:  37  21:58:03  -9.33  -5.68    -3.34-226.175091             -0.0000
iter:  38  21:58:27 -10.16  -5.84    -3.76-226.175091             +0.0000
iter:  39  21:58:51  -9.31  -5.94    -3.42-226.175091             +0.0000
iter:  40  21:59:16 -10.66  -6.30    -4.14-226.175091             +0.0000
iter:  41  21:59:40 -10.82  -6.33    -4.34-226.175091             -0.0000
iter:  42  22:00:04 -11.45  -6.39    -4.39-226.175091             +0.0000
iter:  43  22:00:29 -10.69  -6.42    -4.30-226.175091             +0.0000
iter:  44  22:00:53 -11.08  -6.62    -4.24-226.175091             +0.0000
iter:  45  22:01:17 -12.18  -6.84    -4.76-226.175091             +0.0000
iter:  46  22:01:41 -11.63  -6.87    -4.71-226.175091             +0.0000
iter:  47  22:02:06 -12.60  -6.93    -5.13-226.175091             +0.0000
iter:  48  22:02:30 -12.70  -7.01    -5.02-226.175091             +0.0000
iter:  49  22:02:54 -12.55  -7.06    -5.14-226.175091             +0.0000
iter:  50  22:03:19 -12.71  -7.08    -5.34-226.175091             +0.0000
iter:  51  22:03:43 -12.69  -7.10    -4.84-226.175091             +0.0000
iter:  52  22:04:07 -13.56  -7.34    -5.89-226.175091             +0.0000
iter:  53  22:04:32 -13.01  -7.39    -5.63-226.175091             +0.0000
iter:  54  22:04:56 -12.81  -7.47    -5.23-226.175091             +0.0000
iter:  55  22:05:21 -12.66  -7.51    -5.00-226.175091             +0.0000
iter:  56  22:05:45 -13.99  -7.79    -5.98-226.175091             +0.0000
iter:  57  22:06:09 -12.87  -7.82    -5.51-226.175091             +0.0000
iter:  58  22:06:34 -13.93  -8.07    -5.61-226.175091             +0.0000
iter:  59  22:06:58 -13.76  -8.22    -5.94-226.175091             +0.0000
iter:  60  22:07:22 -15.06  -8.35    -6.15-226.175091             +0.0000

Converged after 60 iterations.

Dipole moment: (18.327123, -2.311712, -4.524298) |e|*Ang

Total magnetic moment: (0.000000, 0.000000, 0.000000)
Local magnetic moments:
   0 O  ( 0.000000,  0.000000, -0.001800)
   1 O  ( 0.000000,  0.000000,  0.001809)
   2 O  ( 0.000000,  0.000000,  0.001843)
   3 O  ( 0.000000,  0.000000, -0.001790)
   4 O  ( 0.000000,  0.000000,  0.001772)
   5 O  ( 0.000000,  0.000000, -0.001822)
   6 O  ( 0.000000,  0.000000, -0.001822)
   7 O  ( 0.000000,  0.000000,  0.001813)
   8 O  ( 0.000000,  0.000000,  0.031098)
   9 O  ( 0.000000,  0.000000, -0.031097)
  10 O  ( 0.000000,  0.000000, -0.031096)
  11 O  ( 0.000000,  0.000000,  0.031095)
  12 Mn ( 0.000000,  0.000000,  4.395765)
  13 Mn ( 0.000000,  0.000000, -4.395783)
  14 Mn ( 0.000000,  0.000000, -4.395734)
  15 Mn ( 0.000000,  0.000000,  4.395753)
  16 P  ( 0.000000,  0.000000,  0.000866)
  17 P  ( 0.000000,  0.000000, -0.000864)
  18 P  ( 0.000000,  0.000000, -0.000870)
  19 P  ( 0.000000,  0.000000,  0.000870)
  20 O  ( 0.000000,  0.000000,  0.028417)
  21 O  ( 0.000000,  0.000000, -0.028416)
  22 O  ( 0.000000,  0.000000, -0.028422)
  23 O  ( 0.000000,  0.000000,  0.028419)
  24 Li ( 0.000000,  0.000000,  0.000000)
  25 Li ( 0.000000,  0.000000, -0.000006)
  26 Li ( 0.000000,  0.000000, -0.000000)
  27 Li ( 0.000000,  0.000000,  0.000006)

Energy contributions relative to reference atoms: (reference = -196157.275402)

Kinetic:       +277.621907
Potential:     -240.964807
External:        +0.000000
XC:            -264.720651
Entropy (-ST):   -0.000000
Local:           +1.888460
--------------------------
Free energy:   -226.175091
Extrapolated:  -226.175091

Spin contamination: 9.455315 electrons
Showing only first 2 kpts
                      Up                     Down
 Kpt  Band  Eigenvalues  Occupancy  Eigenvalues  Occupancy
  0    88      6.53054    0.00694      6.53053    0.00694
  0    89      6.56408    0.00694      6.56416    0.00694
  0    90      8.42675    0.00000      8.42674    0.00000
  0    91      8.44835    0.00000      8.44838    0.00000

  1    88      6.56899    0.00694      6.56895    0.00694
  1    89      6.59604    0.00694      6.59619    0.00694
  1    90      8.38308    0.00000      8.38307    0.00000
  1    91      8.40524    0.00000      8.40525    0.00000


Fermi level: 7.60758

Gap: 1.699 eV
Transition (v -> c):
  (s=1, k=49, n=89, [-0.08, -0.42, -0.12]) -> (s=0, k=58, n=90, [-0.08, -0.08, 0.12])
Writing to born-0.01-22y+.gpw (mode='all')

Timing:                              incl.     excl.
-----------------------------------------------------------
Hamiltonian:                         0.220     0.002   0.0% |
 Atomic:                             0.058     0.058   0.0% |
  XC Correction:                     0.000     0.000   0.0% |
 Calculate atomic Hamiltonians:      0.074     0.074   0.0% |
 Communicate:                        0.002     0.002   0.0% |
 Initialize Hamiltonian:             0.000     0.000   0.0% |
 Poisson:                            0.001     0.001   0.0% |
 XC 3D grid:                         0.084     0.084   0.0% |
LCAO initialization:                72.402     0.646   0.0% |
 LCAO eigensolver:                  19.729     0.002   0.0% |
  Calculate projections:             0.029     0.029   0.0% |
  DenseAtomicCorrection:             0.045     0.045   0.0% |
  Distribute overlap matrix:         0.118     0.118   0.0% |
  Orbital Layouts:                   0.429     0.429   0.0% |
  Potential matrix:                 19.009    19.009   0.6% |
  Sum over cells:                    0.098     0.098   0.0% |
 LCAO to grid:                      50.677    50.677   1.5% ||
 Set positions (LCAO WFS):           1.350     0.212   0.0% |
  Basic WFS set positions:           0.001     0.001   0.0% |
  Basis functions set positions:     0.000     0.000   0.0% |
  P tci:                             0.520     0.520   0.0% |
  ST tci:                            0.401     0.401   0.0% |
  mktci:                             0.215     0.215   0.0% |
PWDescriptor:                        0.023     0.023   0.0% |
SCF-cycle:                        1340.518     1.241   0.0% |
 Davidson:                        1120.682   343.250  10.3% |---|
  Apply H:                          77.698    75.426   2.3% ||
   HMM T:                            2.272     2.272   0.1% |
  Subspace diag:                   162.604     0.171   0.0% |
   calc_h_matrix:                  104.452    27.056   0.8% |
    Apply H:                        77.396    75.139   2.3% ||
     HMM T:                          2.258     2.258   0.1% |
   diagonalize:                      8.241     8.241   0.2% |
   rotate_psi:                      49.741    49.741   1.5% ||
  calc. matrices:                  334.938   183.437   5.5% |-|
   Apply H:                        151.501   147.239   4.4% |-|
    HMM T:                           4.261     4.261   0.1% |
  diagonalize:                      94.483    94.483   2.8% ||
  rotate_psi:                      107.709   107.709   3.2% ||
 Density:                           45.172     0.001   0.0% |
  Atomic density matrices:           1.001     1.001   0.0% |
  Mix:                               6.233     6.233   0.2% |
  Multipole moments:                 0.021     0.021   0.0% |
  Pseudo density:                   37.914    37.913   1.1% |
   Symmetrize density:               0.002     0.002   0.0% |
 Forces:                           158.568   158.568   4.8% |-|
 Hamiltonian:                       12.795     0.126   0.0% |
  Atomic:                            2.997     2.997   0.1% |
   XC Correction:                    0.000     0.000   0.0% |
  Calculate atomic Hamiltonians:     4.443     4.443   0.1% |
  Communicate:                       0.112     0.112   0.0% |
  Poisson:                           0.034     0.034   0.0% |
  XC 3D grid:                        5.081     5.081   0.2% |
 Orthonormalize:                     2.061     0.003   0.0% |
  calc_s_matrix:                     0.242     0.242   0.0% |
  inverse-cholesky:                  0.073     0.073   0.0% |
  projections:                       1.315     1.315   0.0% |
  rotate_psi_s:                      0.428     0.428   0.0% |
Set symmetry:                        0.000     0.000   0.0% |
Other:                            1910.959  1910.959  57.5% |----------------------|
-----------------------------------------------------------
Total:                                      3324.122 100.0%

Memory usage: 13.55 GiB
Date: Thu Mar 25 22:39:12 2021
