
  ___ ___ ___ _ _ _  
 |   |   |_  | | | | 
 | | | | | . | | | | 
 |__ |  _|___|_____|  20.10.1b1
 |___|_|             

User:   madkru@i013.nifl.fysik.dtu.dk
Date:   Sun Mar 21 06:57:19 2021
Arch:   x86_64
Pid:    27943
Python: 3.7.4
gpaw:   /home/niflheim/madkru/venv_folder/gpaw/gpaw (d0d1ca1c71)
_gpaw:  /home/niflheim/madkru/venv_folder/gpaw/build/lib.linux-x86_64-ivybridge-3.7/
        _gpaw.cpython-37m-x86_64-linux-gnu.so (4fd39e8b1e)
ase:    /home/niflheim/madkru/venv_folder/ase/ase (version 3.21.0b1-7e6c206a91)
numpy:  /home/niflheim/madkru/venv_folder/lib/python3.7/site-packages/numpy (version 1.19.4)
scipy:  /home/niflheim/madkru/venv_folder/lib/python3.7/site-packages/scipy (version 1.5.4)
libxc:  4.3.4
units:  Angstrom and eV
cores: 32
OMP_NUM_THREADS: 1

Input parameters:
  convergence: {bands: occupied,
                density: 0.0001,
                eigenstates: 4e-08,
                energy: 0.0005,
                forces: 1e-06}
  kpts: [6 6 4]
  mode: {ecut: 600.0,
         gammacentered: False,
         name: pw}
  occupations: {fixmagmom: False,
                name: fermi-dirac,
                width: 0.001}
  symmetry: {point_group: False,
             time_reversal: False}

System changes: positions, numbers, cell, pbc, initial_charges, initial_magmoms 

Initialize ...

O-setup:
  name: Oxygen
  id: 9b9d51c344dea68c822856295a461509
  Z: 8.0
  valence: 6
  core: 2
  charge: 0.0
  file: /home/modules/software/GPAW-setups/0.9.20000/O.LDA.gz
  compensation charges: gauss, rc=0.21, lmax=2
  cutoffs: 1.17(filt), 0.83(core),
  valence states:
                energy  radius
    2s(2.00)   -23.752   0.688
    2p(4.00)    -9.195   0.598
    *s           3.459   0.688
    *p          18.016   0.598
    *d           0.000   0.619

  Using partial waves for O as LCAO basis

Mn-setup:
  name: Manganese
  id: 0d715a8018be061a6e9ea6f2d364ac92
  Z: 25.0
  valence: 15
  core: 10
  charge: 0.0
  file: /home/modules/software/GPAW-setups/0.9.20000/Mn.LDA.gz
  compensation charges: gauss, rc=0.38, lmax=2
  cutoffs: 2.14(filt), 0.86(core),
  valence states:
                energy  radius
    3s(2.00)   -85.387   1.275
    4s(2.00)    -5.282   1.275
    3p(6.00)   -54.493   1.281
    4p(0.00)    -1.471   1.281
    3d(5.00)    -7.009   1.138
    *d          20.203   1.138

  Using partial waves for Mn as LCAO basis

P-setup:
  name: Phosphorus
  id: a5561c299094968922a179ab894d2e2d
  Z: 15.0
  valence: 5
  core: 10
  charge: 0.0
  file: /home/modules/software/GPAW-setups/0.9.20000/P.LDA.gz
  compensation charges: gauss, rc=0.30, lmax=2
  cutoffs: 1.69(filt), 1.81(core),
  valence states:
                energy  radius
    3s(2.00)   -14.015   0.953
    3p(3.00)    -5.596   0.953
    *s          13.197   0.953
    *p          21.615   0.953
    *d           0.000   0.953

  Using partial waves for P as LCAO basis

Li-setup:
  name: Lithium
  id: b73562207f97a71b6967473b66fe8b65
  Z: 3.0
  valence: 1
  core: 2
  charge: 0.0
  file: /home/modules/software/GPAW-setups/0.9.20000/Li.LDA.gz
  compensation charges: gauss, rc=0.33, lmax=2
  cutoffs: 1.91(filt), 2.55(core),
  valence states:
                energy  radius
    2s(1.00)    -2.874   1.058
    2p(0.00)    -1.126   1.058
    *s          24.338   1.058

  Using partial waves for Li as LCAO basis

Reference energy: -196157.275402

Spin-polarized calculation.
Magnetic moment: 0.000000

Convergence criteria:
  Maximum total energy change: 0.0005 eV / electron
  Maximum integral of absolute density change: 0.0001 electrons
  Maximum integral of absolute eigenstate change: 4e-08 eV^2
  Maximum change in atomic force: 1e-06 eV / Ang
  Maximum number of iterations: 333

Symmetries present (total): 1

  ( 1  0  0)
  ( 0  1  0)
  ( 0  0  1)

144 k-points: 6 x 6 x 4 Monkhorst-Pack grid
144 k-points in the irreducible part of the Brillouin zone
       k-points in crystal coordinates                weights
   0:    -0.41666667   -0.41666667   -0.37500000          1/144
   1:    -0.41666667   -0.41666667   -0.12500000          1/144
   2:    -0.41666667   -0.41666667    0.12500000          1/144
   3:    -0.41666667   -0.41666667    0.37500000          1/144
   4:    -0.41666667   -0.25000000   -0.37500000          1/144
   5:    -0.41666667   -0.25000000   -0.12500000          1/144
   6:    -0.41666667   -0.25000000    0.12500000          1/144
   7:    -0.41666667   -0.25000000    0.37500000          1/144
   8:    -0.41666667   -0.08333333   -0.37500000          1/144
   9:    -0.41666667   -0.08333333   -0.12500000          1/144
          ...
 143:     0.41666667    0.41666667    0.37500000          1/144

Wave functions: Plane wave expansion
  Cutoff energy: 600.000 eV
  Number of coefficients (min, max): 9132, 9161
  Pulay-stress correction: 0.000000 eV/Ang^3 (de/decut=0.000000)
  Using FFTW library
  ScaLapack parameters: grid=1x1, blocksize=None
  Wavefunction extrapolation:
    Improved wavefunction reuse through dual PAW basis 

  Fermi-Dirac: width=0.0010 eV

Eigensolver
   Davidson(niter=2, smin=None, normalize=True) 

Densities:
  Coarse grid: 60*35*27 grid
  Fine grid: 120*70*54 grid
  Total Charge: 0.000000 

Density mixing:
  Method: difference
  Backend: pulay
  Linear mixing parameter: 0.05
  Mixing with 5 old densities
  Damping of long wave oscillations: 50 

Hamiltonian:
  XC and Coulomb potentials evaluated on a 120*70*54 grid
  Using the LDA Exchange-Correlation functional
 

Memory estimate:
  Process memory now: 12228.83 MiB
  Calculator: 342.26 MiB
    Density: 19.13 MiB
      Arrays: 7.57 MiB
      Localized functions: 8.54 MiB
      Mixer: 3.03 MiB
    Hamiltonian: 5.87 MiB
      Arrays: 5.62 MiB
      XC: 0.00 MiB
      Poisson: 0.00 MiB
      vbar: 0.25 MiB
    Wavefunctions: 317.25 MiB
      Arrays psit_nG: 281.81 MiB
      Eigensolver: 18.27 MiB
      Projections: 5.41 MiB
      Projectors: 8.81 MiB
      PW-descriptor: 2.95 MiB

Total number of cores used: 32
Parallelization over k-points: 16
Domain decomposition: 2 x 1 x 1

Number of atoms: 28
Number of atomic orbitals: 148
Number of bands in calculation: 112
Number of valence electrons: 180
Bands to converge: occupied

... initialized

Initializing position-dependent things.

Density initialized from atomic densities
Creating initial wave functions:
  112 bands from LCAO basis set

                                           
                                           
                                           
                                           
                                           
               O     O  P  O               
            PO           OMn     O         
                  O          MO            
            O        Li O                  
             Mn  Mn          OP            
         O       O Li O                    
         Li     O P         O              
       Li                                  
                                           
                                           
                                           
                                           

Positions:
   0 O     -1.280122   -2.495595   -1.102331    ( 0.0000,  0.0000,  0.0000)
   1 O     -3.023238    2.918858    1.191723    ( 0.0000,  0.0000,  0.0000)
   2 O      1.997451    0.467212    1.441442    ( 0.0000,  0.0000,  0.0000)
   3 O      3.740343   -0.043905   -0.862614    ( 0.0000,  0.0000,  0.0000)
   4 O      1.997419    2.918835    1.441465    ( 0.0000,  0.0000,  0.0000)
   5 O      3.740372   -2.495531   -0.862587    ( 0.0000,  0.0000,  0.0000)
   6 O     -1.280154   -0.043891   -1.112309    ( 0.0000,  0.0000,  0.0000)
   7 O     -3.023210    0.467136    1.191750    ( 0.0000,  0.0000,  0.0000)
   8 O     -4.147405   -1.269737   -0.856207    ( 0.0000,  0.0000,  0.0000)
   9 O     -0.155894    1.692986    1.447725    ( 0.0000,  0.0000,  0.0000)
  10 O      4.864578    1.693016    1.185324    ( 0.0000,  0.0000,  0.0000)
  11 O      0.873163   -1.269706   -1.118625    ( 0.0000,  0.0000,  0.0000)
  12 Mn    -2.437108   -1.269902    0.302197    ( 0.0000,  0.0000,  1.0000)
  13 Mn    -1.866187    1.693156   -2.001927    ( 0.0000,  0.0000, -1.0000)
  14 Mn     3.154299    1.693181    0.026917    ( 0.0000,  0.0000, -1.0000)
  15 Mn     2.583444   -1.269877    2.331074    ( 0.0000,  0.0000,  1.0000)
  16 P     -0.543052   -1.269720   -1.734187    ( 0.0000,  0.0000,  0.0000)
  17 P     -3.760282    1.692974    0.569859    ( 0.0000,  0.0000,  0.0000)
  18 P      1.260300    1.693000    2.063344    ( 0.0000,  0.0000,  0.0000)
  19 P      4.477470   -1.269695   -0.240696    ( 0.0000,  0.0000,  0.0000)
  20 O     -0.544413   -1.269738    1.348523    ( 0.0000,  0.0000,  0.0000)
  21 O     -3.758895    1.692992   -0.955558    ( 0.0000,  0.0000,  0.0000)
  22 O      1.261690    1.693018   -1.019367    ( 0.0000,  0.0000,  0.0000)
  23 O      4.476045   -1.269713    1.284716    ( 0.0000,  0.0000,  0.0000)
  24 Li    -4.662027   -2.751322   -2.139440    ( 0.0000,  0.0000,  0.0000)
  25 Li     0.358703   -2.751277    0.164614    ( 0.0000,  0.0000,  0.0000)
  26 Li    -4.662011    0.211617   -2.139439    ( 0.0000,  0.0000,  0.0000)
  27 Li     0.358720    0.211628    0.164615    ( 0.0000,  0.0000,  0.0000)

Unit cell:
           periodic     x           y           z      points  spacing
  1. axis:    yes   10.041096    0.000054   -0.000022    60     0.1674
  2. axis:    yes    0.000032    5.925857    0.000001    35     0.1693
  3. axis:    yes   -0.000010    0.000001    4.608134    27     0.1707

  Lengths:  10.041096   5.925857   4.608134
  Angles:   89.999974  90.000250  89.999381

Effective grid spacing dv^(1/3) = 0.1691

                     log10-error:           total        iterations:
           time      wfs    density  force  energy       poisson  magmom
iter:   1  07:00:16                       -233.734940             +0.0000
iter:   2  07:00:52  -0.47  -0.95         -231.547693             +0.0013
iter:   3  07:01:28  -0.60  -1.00         -220.822377             +0.0014
iter:   4  07:02:04  -1.21  -1.31         -221.393961             +0.4116
iter:   5  07:02:40  -2.15  -1.38         -222.443617             +0.2350
iter:   6  07:03:17  -2.23  -1.38         -224.251764             +0.0082
iter:   7  07:03:53  -2.17  -1.50         -224.369031             -0.6063
iter:   8  07:04:29  -2.47  -1.63         -225.750635             -1.0034
iter:   9  07:05:05  -2.35  -1.89         -226.425103             -0.4377
iter:  10  07:05:41  -2.12  -2.10         -226.265316             -0.1271
iter:  11  07:06:18  -2.92  -2.28         -226.275114             -0.0690
iter:  12  07:06:54  -2.38  -2.34         -226.242724             +0.0229
iter:  13  07:07:30  -3.07  -2.73         -226.188147             -0.0115
iter:  14  07:08:06  -3.31  -2.87         -226.199029             -0.0048
iter:  15  07:08:42  -3.23  -2.85         -226.176270             -0.0021
iter:  16  07:09:18  -4.27  -3.28         -226.177087             -0.0011
iter:  17  07:09:54  -4.57  -3.32         -226.175819             -0.0001
iter:  18  07:10:31  -4.16  -3.42         -226.175844             -0.0001
iter:  19  07:11:07  -4.93  -3.64         -226.174645             -0.0000
iter:  20  07:11:43  -5.08  -3.81         -226.174207             -0.0001
iter:  21  07:12:19  -5.66  -4.10         -226.174815             -0.0000
iter:  22  07:12:55  -6.02  -4.26         -226.174842             -0.0000
iter:  23  07:13:31  -6.35  -4.26         -226.174810             -0.0000
iter:  24  07:14:07  -7.19  -4.36         -226.174809             -0.0000
iter:  25  07:14:43  -6.35  -4.41         -226.174827             -0.0000
iter:  26  07:15:20  -6.65  -4.50         -226.174806             -0.0000
iter:  27  07:16:05  -7.66  -4.82         -226.174805             -0.0000
iter:  28  07:16:50  -7.98  -5.06    -2.74-226.174805             -0.0000
iter:  29  07:17:35  -9.02  -5.24    -3.46-226.174805             -0.0000
iter:  30  07:18:21  -8.27  -5.28    -2.78-226.174805             -0.0000
iter:  31  07:19:06  -8.50  -5.52    -3.08-226.174805             -0.0000
iter:  32  07:19:51 -10.02  -5.71    -3.73-226.174805             -0.0000
iter:  33  07:20:36  -9.61  -5.77    -3.41-226.174805             +0.0000
iter:  34  07:21:22  -9.34  -5.92    -3.50-226.174805             +0.0000
iter:  35  07:22:07 -10.02  -5.99    -3.92-226.174805             +0.0000
iter:  36  07:22:52 -10.97  -6.18    -4.12-226.174805             +0.0000
iter:  37  07:23:37 -10.62  -6.25    -4.17-226.174805             +0.0000
iter:  38  07:24:23 -10.82  -6.39    -4.34-226.174805             +0.0000
iter:  39  07:25:08 -11.27  -6.52    -4.76-226.174805             +0.0000
iter:  40  07:25:53 -12.35  -6.55    -4.80-226.174805             +0.0000
iter:  41  07:26:38 -12.31  -6.58    -4.61-226.174805             +0.0000
iter:  42  07:27:23 -11.22  -6.64    -4.59-226.174805             -0.0000
iter:  43  07:28:09 -11.70  -6.80    -4.83-226.174805             +0.0000
iter:  44  07:28:54 -12.38  -6.91    -5.53-226.174805             +0.0000
iter:  45  07:29:39 -11.83  -6.97    -4.70-226.174805             -0.0000
iter:  46  07:30:24 -12.30  -7.20    -5.17-226.174805             -0.0000
iter:  47  07:31:10 -12.81  -7.35    -5.35-226.174805             -0.0000
iter:  48  07:31:55 -12.84  -7.48    -5.40-226.174805             +0.0000
iter:  49  07:32:40 -13.89  -7.77    -6.02-226.174805             -0.0000

Converged after 49 iterations.

Dipole moment: (18.327246, -2.306307, -4.520482) |e|*Ang

Total magnetic moment: (0.000000, 0.000000, -0.000000)
Local magnetic moments:
   0 O  ( 0.000000,  0.000000, -0.001528)
   1 O  ( 0.000000,  0.000000,  0.001856)
   2 O  ( 0.000000,  0.000000,  0.001824)
   3 O  ( 0.000000,  0.000000, -0.001800)
   4 O  ( 0.000000,  0.000000,  0.001816)
   5 O  ( 0.000000,  0.000000, -0.001800)
   6 O  ( 0.000000,  0.000000, -0.001797)
   7 O  ( 0.000000,  0.000000,  0.001671)
   8 O  ( 0.000000,  0.000000,  0.031118)
   9 O  ( 0.000000,  0.000000, -0.031041)
  10 O  ( 0.000000,  0.000000, -0.031103)
  11 O  ( 0.000000,  0.000000,  0.031189)
  12 Mn ( 0.000000,  0.000000,  4.395207)
  13 Mn ( 0.000000,  0.000000, -4.396220)
  14 Mn ( 0.000000,  0.000000, -4.395715)
  15 Mn ( 0.000000,  0.000000,  4.395770)
  16 P  ( 0.000000,  0.000000,  0.001078)
  17 P  ( 0.000000,  0.000000, -0.000857)
  18 P  ( 0.000000,  0.000000, -0.000864)
  19 P  ( 0.000000,  0.000000,  0.000883)
  20 O  ( 0.000000,  0.000000,  0.028415)
  21 O  ( 0.000000,  0.000000, -0.028394)
  22 O  ( 0.000000,  0.000000, -0.028407)
  23 O  ( 0.000000,  0.000000,  0.028423)
  24 Li ( 0.000000,  0.000000, -0.000001)
  25 Li ( 0.000000,  0.000000,  0.000008)
  26 Li ( 0.000000,  0.000000,  0.000001)
  27 Li ( 0.000000,  0.000000,  0.000001)

Energy contributions relative to reference atoms: (reference = -196157.275402)

Kinetic:       +277.375559
Potential:     -240.774891
External:        +0.000000
XC:            -264.664711
Entropy (-ST):   -0.000000
Local:           +1.889238
--------------------------
Free energy:   -226.174805
Extrapolated:  -226.174805

Spin contamination: 9.455149 electrons
Showing only first 2 kpts
                      Up                     Down
 Kpt  Band  Eigenvalues  Occupancy  Eigenvalues  Occupancy
  0    88      6.53247    0.00694      6.52877    0.00694
  0    89      6.56685    0.00694      6.56286    0.00694
  0    90      8.42722    0.00000      8.42895    0.00000
  0    91      8.44887    0.00000      8.45057    0.00000

  1    88      6.57093    0.00694      6.56738    0.00694
  1    89      6.59924    0.00694      6.59509    0.00694
  1    90      8.38341    0.00000      8.38476    0.00000
  1    91      8.40559    0.00000      8.40716    0.00000


Fermi level: 7.71354

Gap: 1.697 eV
Transition (v -> c):
  (s=0, k=94, n=89, [0.08, 0.42, 0.12]) -> (s=0, k=86, n=90, [0.08, 0.08, 0.12])
Writing to born-0.01-0z+.gpw (mode='all')

Timing:                              incl.     excl.
-----------------------------------------------------------
Hamiltonian:                         0.352     0.002   0.0% |
 Atomic:                             0.050     0.050   0.0% |
  XC Correction:                     0.000     0.000   0.0% |
 Calculate atomic Hamiltonians:      0.141     0.141   0.0% |
 Communicate:                        0.002     0.002   0.0% |
 Initialize Hamiltonian:             0.000     0.000   0.0% |
 Poisson:                            0.001     0.001   0.0% |
 XC 3D grid:                         0.155     0.155   0.0% |
LCAO initialization:               132.517     0.644   0.0% |
 LCAO eigensolver:                  37.627     0.003   0.0% |
  Calculate projections:             0.056     0.056   0.0% |
  DenseAtomicCorrection:             0.088     0.088   0.0% |
  Distribute overlap matrix:         0.118     0.118   0.0% |
  Orbital Layouts:                   0.340     0.340   0.0% |
  Potential matrix:                 36.926    36.926   0.7% |
  Sum over cells:                    0.098     0.098   0.0% |
 LCAO to grid:                      91.911    91.911   1.8% ||
 Set positions (LCAO WFS):           2.336     0.370   0.0% |
  Basic WFS set positions:           0.001     0.001   0.0% |
  Basis functions set positions:     0.000     0.000   0.0% |
  P tci:                             1.049     1.049   0.0% |
  ST tci:                            0.700     0.700   0.0% |
  mktci:                             0.215     0.215   0.0% |
PWDescriptor:                        0.023     0.023   0.0% |
SCF-cycle:                        1986.685    17.704   0.3% |
 Davidson:                        1668.641   535.166  10.3% |---|
  Apply H:                         117.819   114.024   2.2% ||
   HMM T:                            3.795     3.795   0.1% |
  Subspace diag:                   247.049     0.157   0.0% |
   calc_h_matrix:                  160.221    43.675   0.8% |
    Apply H:                       116.545   112.869   2.2% ||
     HMM T:                          3.677     3.677   0.1% |
   diagonalize:                      5.730     5.730   0.1% |
   rotate_psi:                      80.941    80.941   1.6% ||
  calc. matrices:                  526.091   294.413   5.7% |-|
   Apply H:                        231.678   224.522   4.3% |-|
    HMM T:                           7.156     7.156   0.1% |
  diagonalize:                      77.176    77.176   1.5% ||
  rotate_psi:                      165.340   165.340   3.2% ||
 Density:                           67.942     0.001   0.0% |
  Atomic density matrices:           1.229     1.229   0.0% |
  Mix:                               9.521     9.521   0.2% |
  Multipole moments:                 0.029     0.029   0.0% |
  Pseudo density:                   57.162    57.160   1.1% |
   Symmetrize density:               0.002     0.002   0.0% |
 Forces:                           211.127   211.127   4.1% |-|
 Hamiltonian:                       17.286     0.108   0.0% |
  Atomic:                            2.456     2.456   0.0% |
   XC Correction:                    0.000     0.000   0.0% |
  Calculate atomic Hamiltonians:     6.900     6.900   0.1% |
  Communicate:                       0.088     0.088   0.0% |
  Poisson:                           0.052     0.052   0.0% |
  XC 3D grid:                        7.683     7.683   0.1% |
 Orthonormalize:                     3.984     0.004   0.0% |
  calc_s_matrix:                     0.478     0.478   0.0% |
  inverse-cholesky:                  0.054     0.054   0.0% |
  projections:                       2.595     2.595   0.1% |
  rotate_psi_s:                      0.853     0.853   0.0% |
Set symmetry:                        0.000     0.000   0.0% |
Other:                            3063.660  3063.660  59.1% |-----------------------|
-----------------------------------------------------------
Total:                                      5183.237 100.0%

Memory usage: 12.05 GiB
Date: Sun Mar 21 08:23:42 2021
