
  ___ ___ ___ _ _ _  
 |   |   |_  | | | | 
 | | | | | . | | | | 
 |__ |  _|___|_____|  20.10.1b1
 |___|_|             

User:   madkru@i013.nifl.fysik.dtu.dk
Date:   Mon Mar 22 13:49:01 2021
Arch:   x86_64
Pid:    27943
Python: 3.7.4
gpaw:   /home/niflheim/madkru/venv_folder/gpaw/gpaw (d0d1ca1c71)
_gpaw:  /home/niflheim/madkru/venv_folder/gpaw/build/lib.linux-x86_64-ivybridge-3.7/
        _gpaw.cpython-37m-x86_64-linux-gnu.so (4fd39e8b1e)
ase:    /home/niflheim/madkru/venv_folder/ase/ase (version 3.21.0b1-7e6c206a91)
numpy:  /home/niflheim/madkru/venv_folder/lib/python3.7/site-packages/numpy (version 1.19.4)
scipy:  /home/niflheim/madkru/venv_folder/lib/python3.7/site-packages/scipy (version 1.5.4)
libxc:  4.3.4
units:  Angstrom and eV
cores: 32
OMP_NUM_THREADS: 1

Input parameters:
  convergence: {bands: occupied,
                density: 0.0001,
                eigenstates: 4e-08,
                energy: 0.0005,
                forces: 1e-06}
  kpts: [6 6 4]
  mode: {ecut: 600.0,
         gammacentered: False,
         name: pw}
  occupations: {fixmagmom: False,
                name: fermi-dirac,
                width: 0.001}
  symmetry: {point_group: False,
             time_reversal: False}

System changes: positions, numbers, cell, pbc, initial_charges, initial_magmoms 

Initialize ...

O-setup:
  name: Oxygen
  id: 9b9d51c344dea68c822856295a461509
  Z: 8.0
  valence: 6
  core: 2
  charge: 0.0
  file: /home/modules/software/GPAW-setups/0.9.20000/O.LDA.gz
  compensation charges: gauss, rc=0.21, lmax=2
  cutoffs: 1.17(filt), 0.83(core),
  valence states:
                energy  radius
    2s(2.00)   -23.752   0.688
    2p(4.00)    -9.195   0.598
    *s           3.459   0.688
    *p          18.016   0.598
    *d           0.000   0.619

  Using partial waves for O as LCAO basis

Mn-setup:
  name: Manganese
  id: 0d715a8018be061a6e9ea6f2d364ac92
  Z: 25.0
  valence: 15
  core: 10
  charge: 0.0
  file: /home/modules/software/GPAW-setups/0.9.20000/Mn.LDA.gz
  compensation charges: gauss, rc=0.38, lmax=2
  cutoffs: 2.14(filt), 0.86(core),
  valence states:
                energy  radius
    3s(2.00)   -85.387   1.275
    4s(2.00)    -5.282   1.275
    3p(6.00)   -54.493   1.281
    4p(0.00)    -1.471   1.281
    3d(5.00)    -7.009   1.138
    *d          20.203   1.138

  Using partial waves for Mn as LCAO basis

P-setup:
  name: Phosphorus
  id: a5561c299094968922a179ab894d2e2d
  Z: 15.0
  valence: 5
  core: 10
  charge: 0.0
  file: /home/modules/software/GPAW-setups/0.9.20000/P.LDA.gz
  compensation charges: gauss, rc=0.30, lmax=2
  cutoffs: 1.69(filt), 1.81(core),
  valence states:
                energy  radius
    3s(2.00)   -14.015   0.953
    3p(3.00)    -5.596   0.953
    *s          13.197   0.953
    *p          21.615   0.953
    *d           0.000   0.953

  Using partial waves for P as LCAO basis

Li-setup:
  name: Lithium
  id: b73562207f97a71b6967473b66fe8b65
  Z: 3.0
  valence: 1
  core: 2
  charge: 0.0
  file: /home/modules/software/GPAW-setups/0.9.20000/Li.LDA.gz
  compensation charges: gauss, rc=0.33, lmax=2
  cutoffs: 1.91(filt), 2.55(core),
  valence states:
                energy  radius
    2s(1.00)    -2.874   1.058
    2p(0.00)    -1.126   1.058
    *s          24.338   1.058

  Using partial waves for Li as LCAO basis

Reference energy: -196157.275402

Spin-polarized calculation.
Magnetic moment: 0.000000

Convergence criteria:
  Maximum total energy change: 0.0005 eV / electron
  Maximum integral of absolute density change: 0.0001 electrons
  Maximum integral of absolute eigenstate change: 4e-08 eV^2
  Maximum change in atomic force: 1e-06 eV / Ang
  Maximum number of iterations: 333

Symmetries present (total): 1

  ( 1  0  0)
  ( 0  1  0)
  ( 0  0  1)

144 k-points: 6 x 6 x 4 Monkhorst-Pack grid
144 k-points in the irreducible part of the Brillouin zone
       k-points in crystal coordinates                weights
   0:    -0.41666667   -0.41666667   -0.37500000          1/144
   1:    -0.41666667   -0.41666667   -0.12500000          1/144
   2:    -0.41666667   -0.41666667    0.12500000          1/144
   3:    -0.41666667   -0.41666667    0.37500000          1/144
   4:    -0.41666667   -0.25000000   -0.37500000          1/144
   5:    -0.41666667   -0.25000000   -0.12500000          1/144
   6:    -0.41666667   -0.25000000    0.12500000          1/144
   7:    -0.41666667   -0.25000000    0.37500000          1/144
   8:    -0.41666667   -0.08333333   -0.37500000          1/144
   9:    -0.41666667   -0.08333333   -0.12500000          1/144
          ...
 143:     0.41666667    0.41666667    0.37500000          1/144

Wave functions: Plane wave expansion
  Cutoff energy: 600.000 eV
  Number of coefficients (min, max): 9132, 9161
  Pulay-stress correction: 0.000000 eV/Ang^3 (de/decut=0.000000)
  Using FFTW library
  ScaLapack parameters: grid=1x1, blocksize=None
  Wavefunction extrapolation:
    Improved wavefunction reuse through dual PAW basis 

  Fermi-Dirac: width=0.0010 eV

Eigensolver
   Davidson(niter=2, smin=None, normalize=True) 

Densities:
  Coarse grid: 60*35*27 grid
  Fine grid: 120*70*54 grid
  Total Charge: 0.000000 

Density mixing:
  Method: difference
  Backend: pulay
  Linear mixing parameter: 0.05
  Mixing with 5 old densities
  Damping of long wave oscillations: 50 

Hamiltonian:
  XC and Coulomb potentials evaluated on a 120*70*54 grid
  Using the LDA Exchange-Correlation functional
 

Memory estimate:
  Process memory now: 13239.11 MiB
  Calculator: 342.26 MiB
    Density: 19.13 MiB
      Arrays: 7.57 MiB
      Localized functions: 8.54 MiB
      Mixer: 3.03 MiB
    Hamiltonian: 5.87 MiB
      Arrays: 5.62 MiB
      XC: 0.00 MiB
      Poisson: 0.00 MiB
      vbar: 0.25 MiB
    Wavefunctions: 317.25 MiB
      Arrays psit_nG: 281.81 MiB
      Eigensolver: 18.27 MiB
      Projections: 5.41 MiB
      Projectors: 8.81 MiB
      PW-descriptor: 2.95 MiB

Total number of cores used: 32
Parallelization over k-points: 16
Domain decomposition: 2 x 1 x 1

Number of atoms: 28
Number of atomic orbitals: 148
Number of bands in calculation: 112
Number of valence electrons: 180
Bands to converge: occupied

... initialized

Initializing position-dependent things.

Density initialized from atomic densities
Creating initial wave functions:
  112 bands from LCAO basis set

                                           
                                           
                                           
                                           
                                           
               O     O  P  O               
            PO           OMn     O         
                  O          MO            
            O        Li O                  
             Mn  Mn          OP            
         O       O Li O                    
         Li     O P         O              
       Li                                  
                                           
                                           
                                           
                                           

Positions:
   0 O     -1.280122   -2.495595   -1.112331    ( 0.0000,  0.0000,  0.0000)
   1 O     -3.023238    2.918858    1.191723    ( 0.0000,  0.0000,  0.0000)
   2 O      1.997451    0.467212    1.441442    ( 0.0000,  0.0000,  0.0000)
   3 O      3.740343   -0.043905   -0.862614    ( 0.0000,  0.0000,  0.0000)
   4 O      1.997419    2.918835    1.441465    ( 0.0000,  0.0000,  0.0000)
   5 O      3.740372   -2.495531   -0.862587    ( 0.0000,  0.0000,  0.0000)
   6 O     -1.280154   -0.043891   -1.112309    ( 0.0000,  0.0000,  0.0000)
   7 O     -3.033210    0.467136    1.191750    ( 0.0000,  0.0000,  0.0000)
   8 O     -4.147405   -1.269737   -0.856207    ( 0.0000,  0.0000,  0.0000)
   9 O     -0.155894    1.692986    1.447725    ( 0.0000,  0.0000,  0.0000)
  10 O      4.864578    1.693016    1.185324    ( 0.0000,  0.0000,  0.0000)
  11 O      0.873163   -1.269706   -1.118625    ( 0.0000,  0.0000,  0.0000)
  12 Mn    -2.437108   -1.269902    0.302197    ( 0.0000,  0.0000,  1.0000)
  13 Mn    -1.866187    1.693156   -2.001927    ( 0.0000,  0.0000, -1.0000)
  14 Mn     3.154299    1.693181    0.026917    ( 0.0000,  0.0000, -1.0000)
  15 Mn     2.583444   -1.269877    2.331074    ( 0.0000,  0.0000,  1.0000)
  16 P     -0.543052   -1.269720   -1.734187    ( 0.0000,  0.0000,  0.0000)
  17 P     -3.760282    1.692974    0.569859    ( 0.0000,  0.0000,  0.0000)
  18 P      1.260300    1.693000    2.063344    ( 0.0000,  0.0000,  0.0000)
  19 P      4.477470   -1.269695   -0.240696    ( 0.0000,  0.0000,  0.0000)
  20 O     -0.544413   -1.269738    1.348523    ( 0.0000,  0.0000,  0.0000)
  21 O     -3.758895    1.692992   -0.955558    ( 0.0000,  0.0000,  0.0000)
  22 O      1.261690    1.693018   -1.019367    ( 0.0000,  0.0000,  0.0000)
  23 O      4.476045   -1.269713    1.284716    ( 0.0000,  0.0000,  0.0000)
  24 Li    -4.662027   -2.751322   -2.139440    ( 0.0000,  0.0000,  0.0000)
  25 Li     0.358703   -2.751277    0.164614    ( 0.0000,  0.0000,  0.0000)
  26 Li    -4.662011    0.211617   -2.139439    ( 0.0000,  0.0000,  0.0000)
  27 Li     0.358720    0.211628    0.164615    ( 0.0000,  0.0000,  0.0000)

Unit cell:
           periodic     x           y           z      points  spacing
  1. axis:    yes   10.041096    0.000054   -0.000022    60     0.1674
  2. axis:    yes    0.000032    5.925857    0.000001    35     0.1693
  3. axis:    yes   -0.000010    0.000001    4.608134    27     0.1707

  Lengths:  10.041096   5.925857   4.608134
  Angles:   89.999974  90.000250  89.999381

Effective grid spacing dv^(1/3) = 0.1691

                     log10-error:           total        iterations:
           time      wfs    density  force  energy       poisson  magmom
iter:   1  13:52:08                       -233.728708             +0.0000
iter:   2  13:52:44  -0.47  -0.95         -231.554473             +0.0026
iter:   3  13:53:20  -0.60  -1.00         -220.815070             +0.0028
iter:   4  13:53:56  -1.21  -1.30         -221.326990             +0.4137
iter:   5  13:54:33  -2.15  -1.38         -222.465231             +0.2346
iter:   6  13:55:09  -2.25  -1.38         -224.075764             +0.0023
iter:   7  13:55:45  -2.19  -1.52         -224.283666             -0.4329
iter:   8  13:56:21  -2.54  -1.65         -225.781972             -0.8539
iter:   9  13:56:58  -2.31  -1.91         -226.390784             -0.3927
iter:  10  13:57:34  -2.43  -2.11         -226.279864             -0.1196
iter:  11  13:58:10  -2.79  -2.21         -226.290944             -0.0417
iter:  12  13:58:46  -2.90  -2.32         -226.220373             -0.0254
iter:  13  13:59:22  -3.52  -2.90         -226.185691             -0.0080
iter:  14  13:59:59  -3.51  -3.02         -226.178166             -0.0042
iter:  15  14:00:35  -4.43  -3.05         -226.177187             -0.0032
iter:  16  14:01:11  -4.31  -3.09         -226.175469             -0.0021
iter:  17  14:01:47  -4.77  -3.26         -226.175574             -0.0006
iter:  18  14:02:23  -5.75  -3.47         -226.175283             +0.0001
iter:  19  14:02:59  -5.79  -3.54         -226.175122             +0.0000
iter:  20  14:03:36  -5.17  -3.61         -226.174860             +0.0000
iter:  21  14:04:12  -5.52  -3.84         -226.174760             +0.0000
iter:  22  14:04:48  -6.17  -3.92         -226.174717             +0.0000
iter:  23  14:05:24  -6.24  -3.97         -226.174705             +0.0000
iter:  24  14:06:00  -7.04  -4.06         -226.174712             +0.0000
iter:  25  14:06:37  -7.20  -4.14         -226.174709             +0.0000
iter:  26  14:07:13  -6.63  -4.19         -226.174697             +0.0000
iter:  27  14:07:49  -6.64  -4.25         -226.174691             +0.0000
iter:  28  14:08:25  -7.31  -4.39         -226.174693             +0.0000
iter:  29  14:09:01  -7.21  -4.42         -226.174689             +0.0000
iter:  30  14:09:46  -8.37  -4.59         -226.174689             +0.0000
iter:  31  14:10:32  -7.63  -4.62    -2.63-226.174690             +0.0000
iter:  32  14:11:17  -8.08  -4.81    -2.61-226.174689             +0.0000
iter:  33  14:12:02  -8.07  -4.97    -3.07-226.174688             +0.0000
iter:  34  14:12:48  -8.73  -5.02    -3.51-226.174688             +0.0000
iter:  35  14:13:33  -8.31  -5.06    -2.78-226.174688             -0.0000
iter:  36  14:14:18  -8.99  -5.47    -3.42-226.174688             +0.0000
iter:  37  14:15:04  -9.26  -5.53    -3.78-226.174688             +0.0000
iter:  38  14:15:49 -10.12  -5.61    -3.87-226.174688             +0.0000
iter:  39  14:16:34  -9.81  -5.68    -3.75-226.174688             +0.0000
iter:  40  14:17:19 -10.79  -5.84    -4.54-226.174688             +0.0000
iter:  41  14:18:05  -9.49  -5.88    -3.85-226.174688             +0.0000
iter:  42  14:18:50 -10.63  -6.08    -3.96-226.174688             +0.0000
iter:  43  14:19:35 -11.59  -6.25    -4.66-226.174688             +0.0000
iter:  44  14:20:21 -10.58  -6.29    -4.06-226.174688             +0.0000
iter:  45  14:21:06 -11.05  -6.43    -4.34-226.174688             +0.0000
iter:  46  14:21:51 -12.31  -6.55    -5.06-226.174688             +0.0000
iter:  47  14:22:36 -11.07  -6.57    -4.27-226.174688             +0.0000
iter:  48  14:23:22 -11.06  -6.69    -4.48-226.174688             +0.0000
iter:  49  14:24:07 -11.65  -6.93    -4.62-226.174688             +0.0000
iter:  50  14:24:52 -12.51  -7.17    -5.18-226.174688             +0.0000
iter:  51  14:25:37 -12.12  -7.15    -4.90-226.174688             +0.0000
iter:  52  14:26:23 -13.30  -7.39    -5.22-226.174688             +0.0000
iter:  53  14:27:08 -12.73  -7.43    -5.00-226.174688             +0.0000
iter:  54  14:27:53 -12.93  -7.75    -5.32-226.174688             +0.0000
iter:  55  14:28:38 -13.99  -7.94    -5.79-226.174688             +0.0000
iter:  56  14:29:24 -14.45  -8.01    -6.02-226.174688             +0.0000

Converged after 56 iterations.

Dipole moment: (18.331483, -2.302942, -4.523246) |e|*Ang

Total magnetic moment: (0.000000, 0.000000, 0.000000)
Local magnetic moments:
   0 O  ( 0.000000,  0.000000, -0.001870)
   1 O  ( 0.000000,  0.000000,  0.001823)
   2 O  ( 0.000000,  0.000000,  0.001827)
   3 O  ( 0.000000,  0.000000, -0.001785)
   4 O  ( 0.000000,  0.000000,  0.001822)
   5 O  ( 0.000000,  0.000000, -0.001783)
   6 O  ( 0.000000,  0.000000, -0.001831)
   7 O  ( 0.000000,  0.000000,  0.001833)
   8 O  ( 0.000000,  0.000000,  0.031151)
   9 O  ( 0.000000,  0.000000, -0.031100)
  10 O  ( 0.000000,  0.000000, -0.031226)
  11 O  ( 0.000000,  0.000000,  0.031036)
  12 Mn ( 0.000000,  0.000000,  4.396805)
  13 Mn ( 0.000000,  0.000000, -4.396603)
  14 Mn ( 0.000000,  0.000000, -4.395755)
  15 Mn ( 0.000000,  0.000000,  4.395771)
  16 P  ( 0.000000,  0.000000,  0.000881)
  17 P  ( 0.000000,  0.000000, -0.000837)
  18 P  ( 0.000000,  0.000000, -0.000861)
  19 P  ( 0.000000,  0.000000,  0.000855)
  20 O  ( 0.000000,  0.000000,  0.028380)
  21 O  ( 0.000000,  0.000000, -0.028458)
  22 O  ( 0.000000,  0.000000, -0.028376)
  23 O  ( 0.000000,  0.000000,  0.028444)
  24 Li ( 0.000000,  0.000000, -0.000005)
  25 Li ( 0.000000,  0.000000,  0.000001)
  26 Li ( 0.000000,  0.000000,  0.000007)
  27 Li ( 0.000000,  0.000000, -0.000000)

Energy contributions relative to reference atoms: (reference = -196157.275402)

Kinetic:       +277.894955
Potential:     -241.171843
External:        +0.000000
XC:            -264.785894
Entropy (-ST):   -0.000000
Local:           +1.888095
--------------------------
Free energy:   -226.174688
Extrapolated:  -226.174688

Spin contamination: 9.456413 electrons
Showing only first 2 kpts
                      Up                     Down
 Kpt  Band  Eigenvalues  Occupancy  Eigenvalues  Occupancy
  0    88      6.52642    0.00694      6.52725    0.00694
  0    89      6.56089    0.00694      6.56441    0.00694
  0    90      8.42407    0.00000      8.42282    0.00000
  0    91      8.44699    0.00000      8.44733    0.00000

  1    88      6.56483    0.00694      6.56486    0.00694
  1    89      6.59285    0.00694      6.59709    0.00694
  1    90      8.37876    0.00000      8.37949    0.00000
  1    91      8.40352    0.00000      8.40412    0.00000


Fermi level: 7.67129

Gap: 1.695 eV
Transition (v -> c):
  (s=1, k=74, n=89, [0.08, -0.42, 0.12]) -> (s=0, k=81, n=90, [0.08, -0.08, -0.12])
Writing to born-0.01-7x-.gpw (mode='all')

Timing:                              incl.     excl.
-----------------------------------------------------------
Hamiltonian:                         0.354     0.002   0.0% |
 Atomic:                             0.053     0.053   0.0% |
  XC Correction:                     0.000     0.000   0.0% |
 Calculate atomic Hamiltonians:      0.141     0.141   0.0% |
 Communicate:                        0.001     0.001   0.0% |
 Initialize Hamiltonian:             0.000     0.000   0.0% |
 Poisson:                            0.001     0.001   0.0% |
 XC 3D grid:                         0.154     0.154   0.0% |
LCAO initialization:               141.939     0.641   0.0% |
 LCAO eigensolver:                  38.098     0.002   0.0% |
  Calculate projections:             0.056     0.056   0.0% |
  DenseAtomicCorrection:             0.088     0.088   0.0% |
  Distribute overlap matrix:         0.198     0.198   0.0% |
  Orbital Layouts:                   0.338     0.338   0.0% |
  Potential matrix:                 37.329    37.329   0.7% |
  Sum over cells:                    0.087     0.087   0.0% |
 LCAO to grid:                     100.853   100.853   1.8% ||
 Set positions (LCAO WFS):           2.347     0.368   0.0% |
  Basic WFS set positions:           0.001     0.001   0.0% |
  Basis functions set positions:     0.000     0.000   0.0% |
  P tci:                             1.041     1.041   0.0% |
  ST tci:                            0.694     0.694   0.0% |
  mktci:                             0.244     0.244   0.0% |
PWDescriptor:                        0.023     0.023   0.0% |
SCF-cycle:                        2278.739    19.990   0.4% |
 Davidson:                        1908.012   611.971  11.2% |---|
  Apply H:                         133.986   129.637   2.4% ||
   HMM T:                            4.349     4.349   0.1% |
  Subspace diag:                   282.177     0.166   0.0% |
   calc_h_matrix:                  183.044    49.869   0.9% |
    Apply H:                       133.175   128.858   2.4% ||
     HMM T:                          4.317     4.317   0.1% |
   diagonalize:                      6.521     6.521   0.1% |
   rotate_psi:                      92.446    92.446   1.7% ||
  calc. matrices:                  603.095   336.537   6.2% |-|
   Apply H:                        266.558   258.011   4.7% |-|
    HMM T:                           8.547     8.547   0.2% |
  diagonalize:                      87.909    87.909   1.6% ||
  rotate_psi:                      188.875   188.875   3.5% ||
 Density:                           77.540     0.002   0.0% |
  Atomic density matrices:           1.390     1.390   0.0% |
  Mix:                              10.572    10.572   0.2% |
  Multipole moments:                 0.032     0.032   0.0% |
  Pseudo density:                   65.545    65.543   1.2% |
   Symmetrize density:               0.002     0.002   0.0% |
 Forces:                           249.063   249.063   4.6% |-|
 Hamiltonian:                       20.154     0.135   0.0% |
  Atomic:                            2.871     2.871   0.1% |
   XC Correction:                    0.000     0.000   0.0% |
  Calculate atomic Hamiltonians:     8.103     8.103   0.1% |
  Communicate:                       0.111     0.111   0.0% |
  Poisson:                           0.068     0.068   0.0% |
  XC 3D grid:                        8.867     8.867   0.2% |
 Orthonormalize:                     3.980     0.003   0.0% |
  calc_s_matrix:                     0.478     0.478   0.0% |
  inverse-cholesky:                  0.054     0.054   0.0% |
  projections:                       2.592     2.592   0.0% |
  rotate_psi_s:                      0.853     0.853   0.0% |
Set symmetry:                        0.000     0.000   0.0% |
Other:                            3049.151  3049.151  55.7% |---------------------|
-----------------------------------------------------------
Total:                                      5470.206 100.0%

Memory usage: 12.96 GiB
Date: Mon Mar 22 15:20:11 2021
