
  ___ ___ ___ _ _ _  
 |   |   |_  | | | | 
 | | | | | . | | | | 
 |__ |  _|___|_____|  20.10.1b1
 |___|_|             

User:   madkru@i008.nifl.fysik.dtu.dk
Date:   Wed Mar 24 18:17:41 2021
Arch:   x86_64
Pid:    26969
Python: 3.7.4
gpaw:   /home/niflheim/madkru/venv_folder/gpaw/gpaw (d224efde0f)
_gpaw:  /home/niflheim/madkru/venv_folder/gpaw/build/lib.linux-x86_64-ivybridge-3.7/
        _gpaw.cpython-37m-x86_64-linux-gnu.so (4fd39e8b1e)
ase:    /home/niflheim/madkru/venv_folder/ase/ase (version 3.21.0b1-4d5a73cb29)
numpy:  /home/niflheim/madkru/venv_folder/lib/python3.7/site-packages/numpy (version 1.19.4)
scipy:  /home/niflheim/madkru/venv_folder/lib/python3.7/site-packages/scipy (version 1.5.4)
libxc:  4.3.4
units:  Angstrom and eV
cores: 64
OMP_NUM_THREADS: 1

Input parameters:
  convergence: {bands: occupied,
                density: 0.0001,
                eigenstates: 4e-08,
                energy: 0.0005,
                forces: 1e-06}
  kpts: [6 6 4]
  mode: {ecut: 600.0,
         gammacentered: False,
         name: pw}
  occupations: {fixmagmom: False,
                name: fermi-dirac,
                width: 0.001}
  symmetry: {point_group: False,
             time_reversal: False}

System changes: positions, numbers, cell, pbc, initial_charges, initial_magmoms 

Initialize ...

O-setup:
  name: Oxygen
  id: 9b9d51c344dea68c822856295a461509
  Z: 8.0
  valence: 6
  core: 2
  charge: 0.0
  file: /home/modules/software/GPAW-setups/0.9.20000/O.LDA.gz
  compensation charges: gauss, rc=0.21, lmax=2
  cutoffs: 1.17(filt), 0.83(core),
  valence states:
                energy  radius
    2s(2.00)   -23.752   0.688
    2p(4.00)    -9.195   0.598
    *s           3.459   0.688
    *p          18.016   0.598
    *d           0.000   0.619

  Using partial waves for O as LCAO basis

Mn-setup:
  name: Manganese
  id: 0d715a8018be061a6e9ea6f2d364ac92
  Z: 25.0
  valence: 15
  core: 10
  charge: 0.0
  file: /home/modules/software/GPAW-setups/0.9.20000/Mn.LDA.gz
  compensation charges: gauss, rc=0.38, lmax=2
  cutoffs: 2.14(filt), 0.86(core),
  valence states:
                energy  radius
    3s(2.00)   -85.387   1.275
    4s(2.00)    -5.282   1.275
    3p(6.00)   -54.493   1.281
    4p(0.00)    -1.471   1.281
    3d(5.00)    -7.009   1.138
    *d          20.203   1.138

  Using partial waves for Mn as LCAO basis

P-setup:
  name: Phosphorus
  id: a5561c299094968922a179ab894d2e2d
  Z: 15.0
  valence: 5
  core: 10
  charge: 0.0
  file: /home/modules/software/GPAW-setups/0.9.20000/P.LDA.gz
  compensation charges: gauss, rc=0.30, lmax=2
  cutoffs: 1.69(filt), 1.81(core),
  valence states:
                energy  radius
    3s(2.00)   -14.015   0.953
    3p(3.00)    -5.596   0.953
    *s          13.197   0.953
    *p          21.615   0.953
    *d           0.000   0.953

  Using partial waves for P as LCAO basis

Li-setup:
  name: Lithium
  id: b73562207f97a71b6967473b66fe8b65
  Z: 3.0
  valence: 1
  core: 2
  charge: 0.0
  file: /home/modules/software/GPAW-setups/0.9.20000/Li.LDA.gz
  compensation charges: gauss, rc=0.33, lmax=2
  cutoffs: 1.91(filt), 2.55(core),
  valence states:
                energy  radius
    2s(1.00)    -2.874   1.058
    2p(0.00)    -1.126   1.058
    *s          24.338   1.058

  Using partial waves for Li as LCAO basis

Reference energy: -196157.275402

Spin-polarized calculation.
Magnetic moment: 0.000000

Convergence criteria:
  Maximum total energy change: 0.0005 eV / electron
  Maximum integral of absolute density change: 0.0001 electrons
  Maximum integral of absolute eigenstate change: 4e-08 eV^2
  Maximum change in atomic force: 1e-06 eV / Ang
  Maximum number of iterations: 333

Symmetries present (total): 1

  ( 1  0  0)
  ( 0  1  0)
  ( 0  0  1)

144 k-points: 6 x 6 x 4 Monkhorst-Pack grid
144 k-points in the irreducible part of the Brillouin zone
       k-points in crystal coordinates                weights
   0:    -0.41666667   -0.41666667   -0.37500000          1/144
   1:    -0.41666667   -0.41666667   -0.12500000          1/144
   2:    -0.41666667   -0.41666667    0.12500000          1/144
   3:    -0.41666667   -0.41666667    0.37500000          1/144
   4:    -0.41666667   -0.25000000   -0.37500000          1/144
   5:    -0.41666667   -0.25000000   -0.12500000          1/144
   6:    -0.41666667   -0.25000000    0.12500000          1/144
   7:    -0.41666667   -0.25000000    0.37500000          1/144
   8:    -0.41666667   -0.08333333   -0.37500000          1/144
   9:    -0.41666667   -0.08333333   -0.12500000          1/144
          ...
 143:     0.41666667    0.41666667    0.37500000          1/144

Wave functions: Plane wave expansion
  Cutoff energy: 600.000 eV
  Number of coefficients (min, max): 9132, 9161
  Pulay-stress correction: 0.000000 eV/Ang^3 (de/decut=0.000000)
  Using FFTW library
  ScaLapack parameters: grid=1x1, blocksize=None
  Wavefunction extrapolation:
    Improved wavefunction reuse through dual PAW basis 

  Fermi-Dirac: width=0.0010 eV

Eigensolver
   Davidson(niter=2, smin=None, normalize=True) 

Densities:
  Coarse grid: 60*35*27 grid
  Fine grid: 120*70*54 grid
  Total Charge: 0.000000 

Density mixing:
  Method: difference
  Backend: pulay
  Linear mixing parameter: 0.05
  Mixing with 5 old densities
  Damping of long wave oscillations: 50 

Hamiltonian:
  XC and Coulomb potentials evaluated on a 120*70*54 grid
  Using the LDA Exchange-Correlation functional
 

Memory estimate:
  Process memory now: 12522.16 MiB
  Calculator: 322.47 MiB
    Density: 9.62 MiB
      Arrays: 3.79 MiB
      Localized functions: 4.27 MiB
      Mixer: 1.56 MiB
    Hamiltonian: 2.94 MiB
      Arrays: 2.82 MiB
      XC: 0.00 MiB
      Poisson: 0.00 MiB
      vbar: 0.12 MiB
    Wavefunctions: 309.91 MiB
      Arrays psit_nG: 281.81 MiB
      Eigensolver: 18.27 MiB
      Projections: 2.71 MiB
      Projectors: 4.40 MiB
      PW-descriptor: 2.71 MiB

Total number of cores used: 64
Parallelization over k-points: 16
Domain decomposition: 2 x 2 x 1

Number of atoms: 28
Number of atomic orbitals: 148
Number of bands in calculation: 112
Number of valence electrons: 180
Bands to converge: occupied

... initialized

Initializing position-dependent things.

Density initialized from atomic densities
Creating initial wave functions:
  112 bands from LCAO basis set

                                           
                                           
                                           
                                           
                                           
               O     O  P  O               
            PO           OMn     O         
                  O          MO            
            O        Li O                  
             Mn  Mn          OP            
         O       O Li O                    
         Li     O P         O              
       Li                                  
                                           
                                           
                                           
                                           

Positions:
   0 O     -1.280122   -2.495595   -1.112331    ( 0.0000,  0.0000,  0.0000)
   1 O     -3.023238    2.918858    1.191723    ( 0.0000,  0.0000,  0.0000)
   2 O      1.997451    0.467212    1.441442    ( 0.0000,  0.0000,  0.0000)
   3 O      3.740343   -0.043905   -0.862614    ( 0.0000,  0.0000,  0.0000)
   4 O      1.997419    2.918835    1.441465    ( 0.0000,  0.0000,  0.0000)
   5 O      3.740372   -2.495531   -0.862587    ( 0.0000,  0.0000,  0.0000)
   6 O     -1.280154   -0.043891   -1.112309    ( 0.0000,  0.0000,  0.0000)
   7 O     -3.023210    0.467136    1.191750    ( 0.0000,  0.0000,  0.0000)
   8 O     -4.147405   -1.269737   -0.856207    ( 0.0000,  0.0000,  0.0000)
   9 O     -0.155894    1.692986    1.447725    ( 0.0000,  0.0000,  0.0000)
  10 O      4.864578    1.693016    1.185324    ( 0.0000,  0.0000,  0.0000)
  11 O      0.873163   -1.269706   -1.118625    ( 0.0000,  0.0000,  0.0000)
  12 Mn    -2.437108   -1.269902    0.302197    ( 0.0000,  0.0000,  1.0000)
  13 Mn    -1.866187    1.703156   -2.001927    ( 0.0000,  0.0000, -1.0000)
  14 Mn     3.154299    1.693181    0.026917    ( 0.0000,  0.0000, -1.0000)
  15 Mn     2.583444   -1.269877    2.331074    ( 0.0000,  0.0000,  1.0000)
  16 P     -0.543052   -1.269720   -1.734187    ( 0.0000,  0.0000,  0.0000)
  17 P     -3.760282    1.692974    0.569859    ( 0.0000,  0.0000,  0.0000)
  18 P      1.260300    1.693000    2.063344    ( 0.0000,  0.0000,  0.0000)
  19 P      4.477470   -1.269695   -0.240696    ( 0.0000,  0.0000,  0.0000)
  20 O     -0.544413   -1.269738    1.348523    ( 0.0000,  0.0000,  0.0000)
  21 O     -3.758895    1.692992   -0.955558    ( 0.0000,  0.0000,  0.0000)
  22 O      1.261690    1.693018   -1.019367    ( 0.0000,  0.0000,  0.0000)
  23 O      4.476045   -1.269713    1.284716    ( 0.0000,  0.0000,  0.0000)
  24 Li    -4.662027   -2.751322   -2.139440    ( 0.0000,  0.0000,  0.0000)
  25 Li     0.358703   -2.751277    0.164614    ( 0.0000,  0.0000,  0.0000)
  26 Li    -4.662011    0.211617   -2.139439    ( 0.0000,  0.0000,  0.0000)
  27 Li     0.358720    0.211628    0.164615    ( 0.0000,  0.0000,  0.0000)

Unit cell:
           periodic     x           y           z      points  spacing
  1. axis:    yes   10.041096    0.000054   -0.000022    60     0.1674
  2. axis:    yes    0.000032    5.925857    0.000001    35     0.1693
  3. axis:    yes   -0.000010    0.000001    4.608134    27     0.1707

  Lengths:  10.041096   5.925857   4.608134
  Angles:   89.999974  90.000250  89.999381

Effective grid spacing dv^(1/3) = 0.1691

                     log10-error:           total        iterations:
           time      wfs    density  force  energy       poisson  magmom
iter:   1  18:19:14                       -233.730030             +0.0000
iter:   2  18:19:34  -0.47  -0.95         -231.549874             +0.0037
iter:   3  18:19:54  -0.61  -1.00         -220.808140             +0.0039
iter:   4  18:20:14  -1.19  -1.31         -221.011136             +0.3435
iter:   5  18:20:33  -2.14  -1.39         -222.758071             +0.1871
iter:   6  18:20:53  -2.22  -1.38         -223.613548             +0.2141
iter:   7  18:21:13  -2.17  -1.53         -223.850469             -0.1129
iter:   8  18:21:33  -2.57  -1.70         -225.641002             -0.7435
iter:   9  18:21:52  -2.27  -1.92         -226.410254             -0.0150
iter:  10  18:22:12  -2.13  -2.03         -226.311539             -0.0265
iter:  11  18:22:32  -2.96  -2.18         -226.314090             -0.0075
iter:  12  18:22:51  -2.51  -2.20         -226.206673             +0.0059
iter:  13  18:23:11  -3.28  -2.65         -226.215742             -0.0010
iter:  14  18:23:31  -2.87  -2.78         -226.196870             -0.0034
iter:  15  18:23:50  -3.82  -2.90         -226.181196             -0.0007
iter:  16  18:24:10  -4.07  -3.19         -226.176652             +0.0000
iter:  17  18:24:30  -5.08  -3.32         -226.177015             -0.0000
iter:  18  18:24:49  -4.01  -3.37         -226.176809             -0.0000
iter:  19  18:25:09  -4.77  -3.38         -226.175088             -0.0000
iter:  20  18:25:29  -5.17  -3.65         -226.174923             +0.0000
iter:  21  18:25:49  -5.18  -3.74         -226.175188             +0.0000
iter:  22  18:26:08  -5.32  -3.81         -226.175021             +0.0000
iter:  23  18:26:28  -5.36  -4.03         -226.175040             +0.0000
iter:  24  18:26:48  -5.49  -4.01         -226.174899             +0.0000
iter:  25  18:27:07  -6.99  -4.67         -226.174894             +0.0000
iter:  26  18:27:27  -7.21  -4.73         -226.174895             -0.0000
iter:  27  18:27:51  -7.68  -4.84         -226.174894             -0.0000
iter:  28  18:28:16  -7.73  -4.93    -2.46-226.174894             +0.0000
iter:  29  18:28:40  -8.18  -5.13    -3.26-226.174894             -0.0000
iter:  30  18:29:04  -8.88  -5.26    -3.35-226.174894             +0.0000
iter:  31  18:29:29  -8.29  -5.31    -3.25-226.174894             +0.0000
iter:  32  18:29:53  -8.88  -5.38    -3.50-226.174894             +0.0000
iter:  33  18:30:17 -10.06  -5.59    -3.74-226.174894             +0.0000
iter:  34  18:30:42  -9.32  -5.64    -3.41-226.174894             +0.0000
iter:  35  18:31:06 -10.12  -5.74    -4.02-226.174894             +0.0000
iter:  36  18:31:30  -9.41  -5.81    -3.55-226.174894             +0.0000
iter:  37  18:31:55  -9.82  -5.93    -3.82-226.174894             +0.0000
iter:  38  18:32:19 -10.63  -6.29    -4.09-226.174894             +0.0000
iter:  39  18:32:44 -10.49  -6.39    -4.10-226.174894             +0.0000
iter:  40  18:33:08 -11.15  -6.66    -4.52-226.174894             +0.0000
iter:  41  18:33:32 -11.53  -6.72    -4.37-226.174894             +0.0000
iter:  42  18:33:56 -11.28  -7.08    -4.65-226.174894             +0.0000
iter:  43  18:34:21 -12.48  -7.24    -5.20-226.174894             +0.0000
iter:  44  18:34:45 -13.18  -7.37    -5.67-226.174894             +0.0000
iter:  45  18:35:09 -13.25  -7.43    -5.70-226.174894             -0.0000
iter:  46  18:35:34 -13.42  -7.51    -5.76-226.174894             +0.0000
iter:  47  18:35:58 -13.74  -7.55    -5.33-226.174894             +0.0000
iter:  48  18:36:22 -13.52  -7.73    -5.73-226.174894             +0.0000
iter:  49  18:36:47 -14.07  -7.89    -5.91-226.174894             +0.0000
iter:  50  18:37:11 -13.78  -7.90    -5.90-226.174894             +0.0000
iter:  51  18:37:35 -14.27  -8.01    -6.15-226.174894             +0.0000

Converged after 51 iterations.

Dipole moment: (18.327109, -2.294557, -4.524289) |e|*Ang

Total magnetic moment: (0.000000, 0.000000, 0.000000)
Local magnetic moments:
   0 O  ( 0.000000,  0.000000, -0.002341)
   1 O  ( 0.000000,  0.000000,  0.001385)
   2 O  ( 0.000000,  0.000000,  0.001795)
   3 O  ( 0.000000,  0.000000, -0.001811)
   4 O  ( 0.000000,  0.000000,  0.001819)
   5 O  ( 0.000000,  0.000000, -0.001802)
   6 O  ( 0.000000,  0.000000, -0.001289)
   7 O  ( 0.000000,  0.000000,  0.002240)
   8 O  ( 0.000000,  0.000000,  0.031098)
   9 O  ( 0.000000,  0.000000, -0.031099)
  10 O  ( 0.000000,  0.000000, -0.031096)
  11 O  ( 0.000000,  0.000000,  0.031095)
  12 Mn ( 0.000000,  0.000000,  4.395754)
  13 Mn ( 0.000000,  0.000000, -4.395720)
  14 Mn ( 0.000000,  0.000000, -4.395737)
  15 Mn ( 0.000000,  0.000000,  4.395752)
  16 P  ( 0.000000,  0.000000,  0.000862)
  17 P  ( 0.000000,  0.000000, -0.000866)
  18 P  ( 0.000000,  0.000000, -0.000871)
  19 P  ( 0.000000,  0.000000,  0.000870)
  20 O  ( 0.000000,  0.000000,  0.028416)
  21 O  ( 0.000000,  0.000000, -0.028419)
  22 O  ( 0.000000,  0.000000, -0.028420)
  23 O  ( 0.000000,  0.000000,  0.028419)
  24 Li ( 0.000000,  0.000000,  0.000007)
  25 Li ( 0.000000,  0.000000, -0.000006)
  26 Li ( 0.000000,  0.000000, -0.000007)
  27 Li ( 0.000000,  0.000000,  0.000005)

Energy contributions relative to reference atoms: (reference = -196157.275402)

Kinetic:       +277.628342
Potential:     -240.970100
External:        +0.000000
XC:            -264.721545
Entropy (-ST):   -0.000000
Local:           +1.888408
--------------------------
Free energy:   -226.174894
Extrapolated:  -226.174894

Spin contamination: 9.455303 electrons
Showing only first 2 kpts
                      Up                     Down
 Kpt  Band  Eigenvalues  Occupancy  Eigenvalues  Occupancy
  0    88      6.53060    0.00694      6.53101    0.00694
  0    89      6.56403    0.00694      6.56401    0.00694
  0    90      8.42672    0.00000      8.42665    0.00000
  0    91      8.44839    0.00000      8.44831    0.00000

  1    88      6.56902    0.00694      6.56920    0.00694
  1    89      6.59597    0.00694      6.59626    0.00694
  1    90      8.38312    0.00000      8.38297    0.00000
  1    91      8.40522    0.00000      8.40520    0.00000


Fermi level: 7.63007

Gap: 1.699 eV
Transition (v -> c):
  (s=1, k=49, n=89, [-0.08, -0.42, -0.12]) -> (s=0, k=61, n=90, [-0.08, 0.08, -0.12])
Writing to born-0.01-13y+.gpw (mode='all')

Timing:                              incl.     excl.
-----------------------------------------------------------
Hamiltonian:                         0.219     0.002   0.0% |
 Atomic:                             0.056     0.056   0.0% |
  XC Correction:                     0.000     0.000   0.0% |
 Calculate atomic Hamiltonians:      0.075     0.075   0.0% |
 Communicate:                        0.002     0.002   0.0% |
 Initialize Hamiltonian:             0.000     0.000   0.0% |
 Poisson:                            0.001     0.001   0.0% |
 XC 3D grid:                         0.083     0.083   0.0% |
LCAO initialization:                69.714     0.648   0.0% |
 LCAO eigensolver:                  19.597     0.002   0.0% |
  Calculate projections:             0.029     0.029   0.0% |
  DenseAtomicCorrection:             0.045     0.045   0.0% |
  Distribute overlap matrix:         0.041     0.041   0.0% |
  Orbital Layouts:                   0.431     0.431   0.0% |
  Potential matrix:                 18.950    18.950   0.6% |
  Sum over cells:                    0.099     0.099   0.0% |
 LCAO to grid:                      48.118    48.118   1.6% ||
 Set positions (LCAO WFS):           1.351     0.194   0.0% |
  Basic WFS set positions:           0.001     0.001   0.0% |
  Basis functions set positions:     0.000     0.000   0.0% |
  P tci:                             0.523     0.523   0.0% |
  ST tci:                            0.384     0.384   0.0% |
  mktci:                             0.248     0.248   0.0% |
PWDescriptor:                        0.023     0.023   0.0% |
SCF-cycle:                        1123.035     1.930   0.1% |
 Davidson:                         953.287   291.784   9.5% |---|
  Apply H:                          65.871    63.926   2.1% ||
   HMM T:                            1.945     1.945   0.1% |
  Subspace diag:                   138.319     0.144   0.0% |
   calc_h_matrix:                   88.858    23.032   0.7% |
    Apply H:                        65.825    63.829   2.1% ||
     HMM T:                          1.996     1.996   0.1% |
   diagonalize:                      6.949     6.949   0.2% |
   rotate_psi:                      42.368    42.368   1.4% ||
  calc. matrices:                  284.837   155.973   5.1% |-|
   Apply H:                        128.864   125.232   4.1% |-|
    HMM T:                           3.632     3.632   0.1% |
  diagonalize:                      80.711    80.711   2.6% ||
  rotate_psi:                       91.765    91.765   3.0% ||
 Density:                           38.170     0.001   0.0% |
  Atomic density matrices:           0.851     0.851   0.0% |
  Mix:                               5.227     5.227   0.2% |
  Multipole moments:                 0.019     0.019   0.0% |
  Pseudo density:                   32.072    32.071   1.0% |
   Symmetrize density:               0.001     0.001   0.0% |
 Forces:                           116.590   116.590   3.8% |-|
 Hamiltonian:                       10.993     0.108   0.0% |
  Atomic:                            2.743     2.743   0.1% |
   XC Correction:                    0.000     0.000   0.0% |
  Calculate atomic Hamiltonians:     3.741     3.741   0.1% |
  Communicate:                       0.091     0.091   0.0% |
  Poisson:                           0.029     0.029   0.0% |
  XC 3D grid:                        4.280     4.280   0.1% |
 Orthonormalize:                     2.065     0.003   0.0% |
  calc_s_matrix:                     0.242     0.242   0.0% |
  inverse-cholesky:                  0.072     0.072   0.0% |
  projections:                       1.316     1.316   0.0% |
  rotate_psi_s:                      0.431     0.431   0.0% |
Set symmetry:                        0.000     0.000   0.0% |
Other:                            1892.194  1892.194  61.3% |------------------------|
-----------------------------------------------------------
Total:                                      3085.186 100.0%

Memory usage: 12.23 GiB
Date: Wed Mar 24 19:09:06 2021
