
  ___ ___ ___ _ _ _  
 |   |   |_  | | | | 
 | | | | | . | | | | 
 |__ |  _|___|_____|  20.10.1b1
 |___|_|             

User:   madkru@i008.nifl.fysik.dtu.dk
Date:   Thu Mar 25 02:23:44 2021
Arch:   x86_64
Pid:    26969
Python: 3.7.4
gpaw:   /home/niflheim/madkru/venv_folder/gpaw/gpaw (d224efde0f)
_gpaw:  /home/niflheim/madkru/venv_folder/gpaw/build/lib.linux-x86_64-ivybridge-3.7/
        _gpaw.cpython-37m-x86_64-linux-gnu.so (4fd39e8b1e)
ase:    /home/niflheim/madkru/venv_folder/ase/ase (version 3.21.0b1-4d5a73cb29)
numpy:  /home/niflheim/madkru/venv_folder/lib/python3.7/site-packages/numpy (version 1.19.4)
scipy:  /home/niflheim/madkru/venv_folder/lib/python3.7/site-packages/scipy (version 1.5.4)
libxc:  4.3.4
units:  Angstrom and eV
cores: 64
OMP_NUM_THREADS: 1

Input parameters:
  convergence: {bands: occupied,
                density: 0.0001,
                eigenstates: 4e-08,
                energy: 0.0005,
                forces: 1e-06}
  kpts: [6 6 4]
  mode: {ecut: 600.0,
         gammacentered: False,
         name: pw}
  occupations: {fixmagmom: False,
                name: fermi-dirac,
                width: 0.001}
  symmetry: {point_group: False,
             time_reversal: False}

System changes: positions, numbers, cell, pbc, initial_charges, initial_magmoms 

Initialize ...

O-setup:
  name: Oxygen
  id: 9b9d51c344dea68c822856295a461509
  Z: 8.0
  valence: 6
  core: 2
  charge: 0.0
  file: /home/modules/software/GPAW-setups/0.9.20000/O.LDA.gz
  compensation charges: gauss, rc=0.21, lmax=2
  cutoffs: 1.17(filt), 0.83(core),
  valence states:
                energy  radius
    2s(2.00)   -23.752   0.688
    2p(4.00)    -9.195   0.598
    *s           3.459   0.688
    *p          18.016   0.598
    *d           0.000   0.619

  Using partial waves for O as LCAO basis

Mn-setup:
  name: Manganese
  id: 0d715a8018be061a6e9ea6f2d364ac92
  Z: 25.0
  valence: 15
  core: 10
  charge: 0.0
  file: /home/modules/software/GPAW-setups/0.9.20000/Mn.LDA.gz
  compensation charges: gauss, rc=0.38, lmax=2
  cutoffs: 2.14(filt), 0.86(core),
  valence states:
                energy  radius
    3s(2.00)   -85.387   1.275
    4s(2.00)    -5.282   1.275
    3p(6.00)   -54.493   1.281
    4p(0.00)    -1.471   1.281
    3d(5.00)    -7.009   1.138
    *d          20.203   1.138

  Using partial waves for Mn as LCAO basis

P-setup:
  name: Phosphorus
  id: a5561c299094968922a179ab894d2e2d
  Z: 15.0
  valence: 5
  core: 10
  charge: 0.0
  file: /home/modules/software/GPAW-setups/0.9.20000/P.LDA.gz
  compensation charges: gauss, rc=0.30, lmax=2
  cutoffs: 1.69(filt), 1.81(core),
  valence states:
                energy  radius
    3s(2.00)   -14.015   0.953
    3p(3.00)    -5.596   0.953
    *s          13.197   0.953
    *p          21.615   0.953
    *d           0.000   0.953

  Using partial waves for P as LCAO basis

Li-setup:
  name: Lithium
  id: b73562207f97a71b6967473b66fe8b65
  Z: 3.0
  valence: 1
  core: 2
  charge: 0.0
  file: /home/modules/software/GPAW-setups/0.9.20000/Li.LDA.gz
  compensation charges: gauss, rc=0.33, lmax=2
  cutoffs: 1.91(filt), 2.55(core),
  valence states:
                energy  radius
    2s(1.00)    -2.874   1.058
    2p(0.00)    -1.126   1.058
    *s          24.338   1.058

  Using partial waves for Li as LCAO basis

Reference energy: -196157.275402

Spin-polarized calculation.
Magnetic moment: 0.000000

Convergence criteria:
  Maximum total energy change: 0.0005 eV / electron
  Maximum integral of absolute density change: 0.0001 electrons
  Maximum integral of absolute eigenstate change: 4e-08 eV^2
  Maximum change in atomic force: 1e-06 eV / Ang
  Maximum number of iterations: 333

Symmetries present (total): 1

  ( 1  0  0)
  ( 0  1  0)
  ( 0  0  1)

144 k-points: 6 x 6 x 4 Monkhorst-Pack grid
144 k-points in the irreducible part of the Brillouin zone
       k-points in crystal coordinates                weights
   0:    -0.41666667   -0.41666667   -0.37500000          1/144
   1:    -0.41666667   -0.41666667   -0.12500000          1/144
   2:    -0.41666667   -0.41666667    0.12500000          1/144
   3:    -0.41666667   -0.41666667    0.37500000          1/144
   4:    -0.41666667   -0.25000000   -0.37500000          1/144
   5:    -0.41666667   -0.25000000   -0.12500000          1/144
   6:    -0.41666667   -0.25000000    0.12500000          1/144
   7:    -0.41666667   -0.25000000    0.37500000          1/144
   8:    -0.41666667   -0.08333333   -0.37500000          1/144
   9:    -0.41666667   -0.08333333   -0.12500000          1/144
          ...
 143:     0.41666667    0.41666667    0.37500000          1/144

Wave functions: Plane wave expansion
  Cutoff energy: 600.000 eV
  Number of coefficients (min, max): 9132, 9161
  Pulay-stress correction: 0.000000 eV/Ang^3 (de/decut=0.000000)
  Using FFTW library
  ScaLapack parameters: grid=1x1, blocksize=None
  Wavefunction extrapolation:
    Improved wavefunction reuse through dual PAW basis 

  Fermi-Dirac: width=0.0010 eV

Eigensolver
   Davidson(niter=2, smin=None, normalize=True) 

Densities:
  Coarse grid: 60*35*27 grid
  Fine grid: 120*70*54 grid
  Total Charge: 0.000000 

Density mixing:
  Method: difference
  Backend: pulay
  Linear mixing parameter: 0.05
  Mixing with 5 old densities
  Damping of long wave oscillations: 50 

Hamiltonian:
  XC and Coulomb potentials evaluated on a 120*70*54 grid
  Using the LDA Exchange-Correlation functional
 

Memory estimate:
  Process memory now: 12913.14 MiB
  Calculator: 322.47 MiB
    Density: 9.62 MiB
      Arrays: 3.79 MiB
      Localized functions: 4.27 MiB
      Mixer: 1.56 MiB
    Hamiltonian: 2.94 MiB
      Arrays: 2.82 MiB
      XC: 0.00 MiB
      Poisson: 0.00 MiB
      vbar: 0.12 MiB
    Wavefunctions: 309.91 MiB
      Arrays psit_nG: 281.81 MiB
      Eigensolver: 18.27 MiB
      Projections: 2.71 MiB
      Projectors: 4.40 MiB
      PW-descriptor: 2.71 MiB

Total number of cores used: 64
Parallelization over k-points: 16
Domain decomposition: 2 x 2 x 1

Number of atoms: 28
Number of atomic orbitals: 148
Number of bands in calculation: 112
Number of valence electrons: 180
Bands to converge: occupied

... initialized

Initializing position-dependent things.

Density initialized from atomic densities
Creating initial wave functions:
  112 bands from LCAO basis set

                                           
                                           
                                           
                                           
                                           
               O     O  P  O               
            PO           OMn     O         
                  O          MO            
            O        Li O                  
             Mn  Mn          OP            
         O       O Li O                    
         Li     O P         O              
       Li                                  
                                           
                                           
                                           
                                           

Positions:
   0 O     -1.280122   -2.495595   -1.112331    ( 0.0000,  0.0000,  0.0000)
   1 O     -3.023238    2.918858    1.191723    ( 0.0000,  0.0000,  0.0000)
   2 O      1.997451    0.467212    1.441442    ( 0.0000,  0.0000,  0.0000)
   3 O      3.740343   -0.043905   -0.862614    ( 0.0000,  0.0000,  0.0000)
   4 O      1.997419    2.918835    1.441465    ( 0.0000,  0.0000,  0.0000)
   5 O      3.740372   -2.495531   -0.862587    ( 0.0000,  0.0000,  0.0000)
   6 O     -1.280154   -0.043891   -1.112309    ( 0.0000,  0.0000,  0.0000)
   7 O     -3.023210    0.467136    1.191750    ( 0.0000,  0.0000,  0.0000)
   8 O     -4.147405   -1.269737   -0.856207    ( 0.0000,  0.0000,  0.0000)
   9 O     -0.155894    1.692986    1.447725    ( 0.0000,  0.0000,  0.0000)
  10 O      4.864578    1.693016    1.185324    ( 0.0000,  0.0000,  0.0000)
  11 O      0.873163   -1.269706   -1.118625    ( 0.0000,  0.0000,  0.0000)
  12 Mn    -2.437108   -1.269902    0.302197    ( 0.0000,  0.0000,  1.0000)
  13 Mn    -1.866187    1.693156   -2.001927    ( 0.0000,  0.0000, -1.0000)
  14 Mn     3.154299    1.693181    0.026917    ( 0.0000,  0.0000, -1.0000)
  15 Mn     2.583444   -1.269877    2.331074    ( 0.0000,  0.0000,  1.0000)
  16 P     -0.533052   -1.269720   -1.734187    ( 0.0000,  0.0000,  0.0000)
  17 P     -3.760282    1.692974    0.569859    ( 0.0000,  0.0000,  0.0000)
  18 P      1.260300    1.693000    2.063344    ( 0.0000,  0.0000,  0.0000)
  19 P      4.477470   -1.269695   -0.240696    ( 0.0000,  0.0000,  0.0000)
  20 O     -0.544413   -1.269738    1.348523    ( 0.0000,  0.0000,  0.0000)
  21 O     -3.758895    1.692992   -0.955558    ( 0.0000,  0.0000,  0.0000)
  22 O      1.261690    1.693018   -1.019367    ( 0.0000,  0.0000,  0.0000)
  23 O      4.476045   -1.269713    1.284716    ( 0.0000,  0.0000,  0.0000)
  24 Li    -4.662027   -2.751322   -2.139440    ( 0.0000,  0.0000,  0.0000)
  25 Li     0.358703   -2.751277    0.164614    ( 0.0000,  0.0000,  0.0000)
  26 Li    -4.662011    0.211617   -2.139439    ( 0.0000,  0.0000,  0.0000)
  27 Li     0.358720    0.211628    0.164615    ( 0.0000,  0.0000,  0.0000)

Unit cell:
           periodic     x           y           z      points  spacing
  1. axis:    yes   10.041096    0.000054   -0.000022    60     0.1674
  2. axis:    yes    0.000032    5.925857    0.000001    35     0.1693
  3. axis:    yes   -0.000010    0.000001    4.608134    27     0.1707

  Lengths:  10.041096   5.925857   4.608134
  Angles:   89.999974  90.000250  89.999381

Effective grid spacing dv^(1/3) = 0.1691

                     log10-error:           total        iterations:
           time      wfs    density  force  energy       poisson  magmom
iter:   1  02:25:17                       -233.721314             +0.0000
iter:   2  02:25:37  -0.47  -0.95         -231.538283             +0.0023
iter:   3  02:25:56  -0.61  -1.00         -220.807053             +0.0023
iter:   4  02:26:16  -1.20  -1.31         -221.092223             +0.4347
iter:   5  02:26:36  -2.14  -1.39         -222.782379             +0.2524
iter:   6  02:26:56  -2.17  -1.37         -223.993903             +0.0630
iter:   7  02:27:16  -2.19  -1.51         -223.910005             -0.5592
iter:   8  02:27:35  -2.56  -1.65         -225.610792             -1.1347
iter:   9  02:27:55  -2.22  -1.89         -226.389559             -0.2744
iter:  10  02:28:15  -2.19  -2.07         -226.277527             -0.1038
iter:  11  02:28:35  -3.12  -2.20         -226.280546             -0.0304
iter:  12  02:28:54  -2.21  -2.21         -226.319966             +0.0088
iter:  13  02:29:14  -2.77  -2.43         -226.215658             -0.0069
iter:  14  02:29:34  -2.86  -2.81         -226.209763             -0.0038
iter:  15  02:29:54  -3.65  -2.76         -226.182326             -0.0013
iter:  16  02:30:13  -3.69  -2.97         -226.174494             -0.0007
iter:  17  02:30:33  -4.48  -3.22         -226.174083             -0.0004
iter:  18  02:30:53  -4.92  -3.27         -226.173648             +0.0001
iter:  19  02:31:13  -4.67  -3.42         -226.174072             +0.0000
iter:  20  02:31:32  -4.41  -3.51         -226.172353             +0.0000
iter:  21  02:31:52  -5.64  -4.01         -226.172392             +0.0000
iter:  22  02:32:12  -6.35  -4.12         -226.172400             +0.0000
iter:  23  02:32:31  -5.99  -4.19         -226.172353             +0.0000
iter:  24  02:32:51  -6.76  -4.33         -226.172354             +0.0000
iter:  25  02:33:15  -7.62  -4.36         -226.172351             +0.0000
iter:  26  02:33:40  -7.58  -4.44    -2.55-226.172351             +0.0000
iter:  27  02:34:04  -7.68  -4.49    -2.39-226.172351             +0.0000
iter:  28  02:34:29  -8.04  -4.71    -3.14-226.172350             +0.0000
iter:  29  02:34:53  -7.66  -4.77    -2.89-226.172349             +0.0000
iter:  30  02:35:18  -8.16  -4.85    -3.12-226.172349             +0.0000
iter:  31  02:35:42  -7.45  -4.91    -2.50-226.172350             +0.0000
iter:  32  02:36:06  -7.75  -4.99    -2.69-226.172349             +0.0000
iter:  33  02:36:31  -8.25  -5.45    -3.17-226.172349             -0.0000
iter:  34  02:36:55  -9.04  -5.70    -3.74-226.172349             +0.0000
iter:  35  02:37:20  -9.92  -5.74    -4.16-226.172349             +0.0000
iter:  36  02:37:44  -9.88  -5.78    -3.63-226.172349             +0.0000
iter:  37  02:38:08  -9.89  -6.02    -4.32-226.172349             +0.0000
iter:  38  02:38:33 -10.00  -6.20    -4.05-226.172349             +0.0000
iter:  39  02:38:57 -10.51  -6.30    -4.21-226.172349             +0.0000
iter:  40  02:39:22 -11.26  -6.44    -4.64-226.172349             +0.0000
iter:  41  02:39:46 -11.52  -6.51    -4.93-226.172349             -0.0000
iter:  42  02:40:10 -10.82  -6.57    -4.18-226.172349             -0.0000
iter:  43  02:40:35 -11.18  -6.75    -4.54-226.172349             -0.0000
iter:  44  02:40:59 -12.34  -6.78    -5.35-226.172349             -0.0000
iter:  45  02:41:23 -11.51  -6.83    -4.66-226.172349             +0.0000
iter:  46  02:41:48 -12.54  -7.03    -5.07-226.172349             -0.0000
iter:  47  02:42:12 -12.27  -7.07    -4.97-226.172349             -0.0000
iter:  48  02:42:36 -13.17  -7.17    -5.44-226.172349             +0.0000
iter:  49  02:43:01 -12.44  -7.22    -5.16-226.172349             +0.0000
iter:  50  02:43:25 -13.33  -7.32    -5.45-226.172349             +0.0000
iter:  51  02:43:50 -13.00  -7.38    -5.53-226.172349             +0.0000
iter:  52  02:44:14 -14.08  -7.46    -6.07-226.172349             +0.0000

Converged after 52 iterations.

Dipole moment: (18.478852, -2.298492, -4.523802) |e|*Ang

Total magnetic moment: (0.000000, 0.000000, 0.000000)
Local magnetic moments:
   0 O  ( 0.000000,  0.000000, -0.002021)
   1 O  ( 0.000000,  0.000000,  0.001780)
   2 O  ( 0.000000,  0.000000,  0.001930)
   3 O  ( 0.000000,  0.000000, -0.001742)
   4 O  ( 0.000000,  0.000000,  0.001925)
   5 O  ( 0.000000,  0.000000, -0.001737)
   6 O  ( 0.000000,  0.000000, -0.002027)
   7 O  ( 0.000000,  0.000000,  0.001785)
   8 O  ( 0.000000,  0.000000,  0.031004)
   9 O  ( 0.000000,  0.000000, -0.030921)
  10 O  ( 0.000000,  0.000000, -0.031219)
  11 O  ( 0.000000,  0.000000,  0.030829)
  12 Mn ( 0.000000,  0.000000,  4.395952)
  13 Mn ( 0.000000,  0.000000, -4.395613)
  14 Mn ( 0.000000,  0.000000, -4.395678)
  15 Mn ( 0.000000,  0.000000,  4.395867)
  16 P  ( 0.000000,  0.000000,  0.001050)
  17 P  ( 0.000000,  0.000000, -0.000852)
  18 P  ( 0.000000,  0.000000, -0.000914)
  19 P  ( 0.000000,  0.000000,  0.000885)
  20 O  ( 0.000000,  0.000000,  0.028174)
  21 O  ( 0.000000,  0.000000, -0.028393)
  22 O  ( 0.000000,  0.000000, -0.028400)
  23 O  ( 0.000000,  0.000000,  0.028548)
  24 Li ( 0.000000,  0.000000,  0.000001)
  25 Li ( 0.000000,  0.000000, -0.000021)
  26 Li ( 0.000000,  0.000000,  0.000001)
  27 Li ( 0.000000,  0.000000, -0.000021)

Energy contributions relative to reference atoms: (reference = -196157.275402)

Kinetic:       +277.668495
Potential:     -241.005779
External:        +0.000000
XC:            -264.723444
Entropy (-ST):   -0.000000
Local:           +1.888379
--------------------------
Free energy:   -226.172349
Extrapolated:  -226.172349

Spin contamination: 9.455064 electrons
Showing only first 2 kpts
                      Up                     Down
 Kpt  Band  Eigenvalues  Occupancy  Eigenvalues  Occupancy
  0    88      6.51835    0.00694      6.53182    0.00694
  0    89      6.56671    0.00694      6.57200    0.00694
  0    90      8.42416    0.00000      8.41842    0.00000
  0    91      8.45978    0.00000      8.45909    0.00000

  1    88      6.55528    0.00694      6.57005    0.00694
  1    89      6.60052    0.00694      6.60419    0.00694
  1    90      8.38080    0.00000      8.37483    0.00000
  1    91      8.41601    0.00000      8.41647    0.00000


Fermi level: 7.60312

Gap: 1.687 eV
Transition (v -> c):
  (s=1, k=50, n=89, [-0.08, -0.42, 0.12]) -> (s=1, k=58, n=90, [-0.08, -0.08, 0.12])
Writing to born-0.01-16x+.gpw (mode='all')

Timing:                              incl.     excl.
-----------------------------------------------------------
Hamiltonian:                         0.213     0.002   0.0% |
 Atomic:                             0.049     0.049   0.0% |
  XC Correction:                     0.000     0.000   0.0% |
 Calculate atomic Hamiltonians:      0.075     0.075   0.0% |
 Communicate:                        0.002     0.002   0.0% |
 Initialize Hamiltonian:             0.000     0.000   0.0% |
 Poisson:                            0.001     0.001   0.0% |
 XC 3D grid:                         0.084     0.084   0.0% |
LCAO initialization:                69.218     0.643   0.0% |
 LCAO eigensolver:                  19.529     0.002   0.0% |
  Calculate projections:             0.029     0.029   0.0% |
  DenseAtomicCorrection:             0.045     0.045   0.0% |
  Distribute overlap matrix:         0.008     0.008   0.0% |
  Orbital Layouts:                   0.430     0.430   0.0% |
  Potential matrix:                 18.927    18.927   0.6% |
  Sum over cells:                    0.087     0.087   0.0% |
 LCAO to grid:                      47.710    47.710   1.6% ||
 Set positions (LCAO WFS):           1.337     0.190   0.0% |
  Basic WFS set positions:           0.001     0.001   0.0% |
  Basis functions set positions:     0.000     0.000   0.0% |
  P tci:                             0.520     0.520   0.0% |
  ST tci:                            0.379     0.379   0.0% |
  mktci:                             0.245     0.245   0.0% |
PWDescriptor:                        0.023     0.023   0.0% |
SCF-cycle:                        1159.291     1.997   0.1% |
 Davidson:                         973.483   297.605   9.7% |---|
  Apply H:                          67.782    65.866   2.2% ||
   HMM T:                            1.916     1.916   0.1% |
  Subspace diag:                   141.250     0.147   0.0% |
   calc_h_matrix:                   91.064    23.465   0.8% |
    Apply H:                        67.599    65.653   2.1% ||
     HMM T:                          1.945     1.945   0.1% |
   diagonalize:                      7.013     7.013   0.2% |
   rotate_psi:                      43.026    43.026   1.4% ||
  calc. matrices:                  291.638   158.958   5.2% |-|
   Apply H:                        132.680   129.083   4.2% |-|
    HMM T:                           3.597     3.597   0.1% |
  diagonalize:                      81.940    81.940   2.7% ||
  rotate_psi:                       93.268    93.268   3.1% ||
 Density:                           40.554     0.001   0.0% |
  Atomic density matrices:           0.774     0.774   0.0% |
  Mix:                               5.403     5.403   0.2% |
  Multipole moments:                 0.019     0.019   0.0% |
  Pseudo density:                   34.356    34.355   1.1% |
   Symmetrize density:               0.002     0.002   0.0% |
 Forces:                           130.174   130.174   4.3% |-|
 Hamiltonian:                       11.028     0.112   0.0% |
  Atomic:                            2.549     2.549   0.1% |
   XC Correction:                    0.000     0.000   0.0% |
  Calculate atomic Hamiltonians:     3.832     3.832   0.1% |
  Communicate:                       0.090     0.090   0.0% |
  Poisson:                           0.031     0.031   0.0% |
  XC 3D grid:                        4.414     4.414   0.1% |
 Orthonormalize:                     2.056     0.003   0.0% |
  calc_s_matrix:                     0.242     0.242   0.0% |
  inverse-cholesky:                  0.071     0.071   0.0% |
  projections:                       1.312     1.312   0.0% |
  rotate_psi_s:                      0.428     0.428   0.0% |
Set symmetry:                        0.000     0.000   0.0% |
Other:                            1827.853  1827.853  59.8% |-----------------------|
-----------------------------------------------------------
Total:                                      3056.599 100.0%

Memory usage: 12.62 GiB
Date: Thu Mar 25 03:14:41 2021
