
  ___ ___ ___ _ _ _  
 |   |   |_  | | | | 
 | | | | | . | | | | 
 |__ |  _|___|_____|  20.10.1b1
 |___|_|             

User:   madkru@i008.nifl.fysik.dtu.dk
Date:   Thu Mar 25 06:25:10 2021
Arch:   x86_64
Pid:    26969
Python: 3.7.4
gpaw:   /home/niflheim/madkru/venv_folder/gpaw/gpaw (d224efde0f)
_gpaw:  /home/niflheim/madkru/venv_folder/gpaw/build/lib.linux-x86_64-ivybridge-3.7/
        _gpaw.cpython-37m-x86_64-linux-gnu.so (4fd39e8b1e)
ase:    /home/niflheim/madkru/venv_folder/ase/ase (version 3.21.0b1-4d5a73cb29)
numpy:  /home/niflheim/madkru/venv_folder/lib/python3.7/site-packages/numpy (version 1.19.4)
scipy:  /home/niflheim/madkru/venv_folder/lib/python3.7/site-packages/scipy (version 1.5.4)
libxc:  4.3.4
units:  Angstrom and eV
cores: 64
OMP_NUM_THREADS: 1

Input parameters:
  convergence: {bands: occupied,
                density: 0.0001,
                eigenstates: 4e-08,
                energy: 0.0005,
                forces: 1e-06}
  kpts: [6 6 4]
  mode: {ecut: 600.0,
         gammacentered: False,
         name: pw}
  occupations: {fixmagmom: False,
                name: fermi-dirac,
                width: 0.001}
  symmetry: {point_group: False,
             time_reversal: False}

System changes: positions, numbers, cell, pbc, initial_charges, initial_magmoms 

Initialize ...

O-setup:
  name: Oxygen
  id: 9b9d51c344dea68c822856295a461509
  Z: 8.0
  valence: 6
  core: 2
  charge: 0.0
  file: /home/modules/software/GPAW-setups/0.9.20000/O.LDA.gz
  compensation charges: gauss, rc=0.21, lmax=2
  cutoffs: 1.17(filt), 0.83(core),
  valence states:
                energy  radius
    2s(2.00)   -23.752   0.688
    2p(4.00)    -9.195   0.598
    *s           3.459   0.688
    *p          18.016   0.598
    *d           0.000   0.619

  Using partial waves for O as LCAO basis

Mn-setup:
  name: Manganese
  id: 0d715a8018be061a6e9ea6f2d364ac92
  Z: 25.0
  valence: 15
  core: 10
  charge: 0.0
  file: /home/modules/software/GPAW-setups/0.9.20000/Mn.LDA.gz
  compensation charges: gauss, rc=0.38, lmax=2
  cutoffs: 2.14(filt), 0.86(core),
  valence states:
                energy  radius
    3s(2.00)   -85.387   1.275
    4s(2.00)    -5.282   1.275
    3p(6.00)   -54.493   1.281
    4p(0.00)    -1.471   1.281
    3d(5.00)    -7.009   1.138
    *d          20.203   1.138

  Using partial waves for Mn as LCAO basis

P-setup:
  name: Phosphorus
  id: a5561c299094968922a179ab894d2e2d
  Z: 15.0
  valence: 5
  core: 10
  charge: 0.0
  file: /home/modules/software/GPAW-setups/0.9.20000/P.LDA.gz
  compensation charges: gauss, rc=0.30, lmax=2
  cutoffs: 1.69(filt), 1.81(core),
  valence states:
                energy  radius
    3s(2.00)   -14.015   0.953
    3p(3.00)    -5.596   0.953
    *s          13.197   0.953
    *p          21.615   0.953
    *d           0.000   0.953

  Using partial waves for P as LCAO basis

Li-setup:
  name: Lithium
  id: b73562207f97a71b6967473b66fe8b65
  Z: 3.0
  valence: 1
  core: 2
  charge: 0.0
  file: /home/modules/software/GPAW-setups/0.9.20000/Li.LDA.gz
  compensation charges: gauss, rc=0.33, lmax=2
  cutoffs: 1.91(filt), 2.55(core),
  valence states:
                energy  radius
    2s(1.00)    -2.874   1.058
    2p(0.00)    -1.126   1.058
    *s          24.338   1.058

  Using partial waves for Li as LCAO basis

Reference energy: -196157.275402

Spin-polarized calculation.
Magnetic moment: 0.000000

Convergence criteria:
  Maximum total energy change: 0.0005 eV / electron
  Maximum integral of absolute density change: 0.0001 electrons
  Maximum integral of absolute eigenstate change: 4e-08 eV^2
  Maximum change in atomic force: 1e-06 eV / Ang
  Maximum number of iterations: 333

Symmetries present (total): 1

  ( 1  0  0)
  ( 0  1  0)
  ( 0  0  1)

144 k-points: 6 x 6 x 4 Monkhorst-Pack grid
144 k-points in the irreducible part of the Brillouin zone
       k-points in crystal coordinates                weights
   0:    -0.41666667   -0.41666667   -0.37500000          1/144
   1:    -0.41666667   -0.41666667   -0.12500000          1/144
   2:    -0.41666667   -0.41666667    0.12500000          1/144
   3:    -0.41666667   -0.41666667    0.37500000          1/144
   4:    -0.41666667   -0.25000000   -0.37500000          1/144
   5:    -0.41666667   -0.25000000   -0.12500000          1/144
   6:    -0.41666667   -0.25000000    0.12500000          1/144
   7:    -0.41666667   -0.25000000    0.37500000          1/144
   8:    -0.41666667   -0.08333333   -0.37500000          1/144
   9:    -0.41666667   -0.08333333   -0.12500000          1/144
          ...
 143:     0.41666667    0.41666667    0.37500000          1/144

Wave functions: Plane wave expansion
  Cutoff energy: 600.000 eV
  Number of coefficients (min, max): 9132, 9161
  Pulay-stress correction: 0.000000 eV/Ang^3 (de/decut=0.000000)
  Using FFTW library
  ScaLapack parameters: grid=1x1, blocksize=None
  Wavefunction extrapolation:
    Improved wavefunction reuse through dual PAW basis 

  Fermi-Dirac: width=0.0010 eV

Eigensolver
   Davidson(niter=2, smin=None, normalize=True) 

Densities:
  Coarse grid: 60*35*27 grid
  Fine grid: 120*70*54 grid
  Total Charge: 0.000000 

Density mixing:
  Method: difference
  Backend: pulay
  Linear mixing parameter: 0.05
  Mixing with 5 old densities
  Damping of long wave oscillations: 50 

Hamiltonian:
  XC and Coulomb potentials evaluated on a 120*70*54 grid
  Using the LDA Exchange-Correlation functional
 

Memory estimate:
  Process memory now: 13081.17 MiB
  Calculator: 322.47 MiB
    Density: 9.62 MiB
      Arrays: 3.79 MiB
      Localized functions: 4.27 MiB
      Mixer: 1.56 MiB
    Hamiltonian: 2.94 MiB
      Arrays: 2.82 MiB
      XC: 0.00 MiB
      Poisson: 0.00 MiB
      vbar: 0.12 MiB
    Wavefunctions: 309.91 MiB
      Arrays psit_nG: 281.81 MiB
      Eigensolver: 18.27 MiB
      Projections: 2.71 MiB
      Projectors: 4.40 MiB
      PW-descriptor: 2.71 MiB

Total number of cores used: 64
Parallelization over k-points: 16
Domain decomposition: 2 x 2 x 1

Number of atoms: 28
Number of atomic orbitals: 148
Number of bands in calculation: 112
Number of valence electrons: 180
Bands to converge: occupied

... initialized

Initializing position-dependent things.

Density initialized from atomic densities
Creating initial wave functions:
  112 bands from LCAO basis set

                                           
                                           
                                           
                                           
                                           
               O     O  P  O               
            PO           OMn     O         
                  O          MO            
            O        Li O                  
             Mn  Mn          OP            
         O       O Li O                    
         Li     O P         O              
       Li                                  
                                           
                                           
                                           
                                           

Positions:
   0 O     -1.280122   -2.495595   -1.112331    ( 0.0000,  0.0000,  0.0000)
   1 O     -3.023238    2.918858    1.191723    ( 0.0000,  0.0000,  0.0000)
   2 O      1.997451    0.467212    1.441442    ( 0.0000,  0.0000,  0.0000)
   3 O      3.740343   -0.043905   -0.862614    ( 0.0000,  0.0000,  0.0000)
   4 O      1.997419    2.918835    1.441465    ( 0.0000,  0.0000,  0.0000)
   5 O      3.740372   -2.495531   -0.862587    ( 0.0000,  0.0000,  0.0000)
   6 O     -1.280154   -0.043891   -1.112309    ( 0.0000,  0.0000,  0.0000)
   7 O     -3.023210    0.467136    1.191750    ( 0.0000,  0.0000,  0.0000)
   8 O     -4.147405   -1.269737   -0.856207    ( 0.0000,  0.0000,  0.0000)
   9 O     -0.155894    1.692986    1.447725    ( 0.0000,  0.0000,  0.0000)
  10 O      4.864578    1.693016    1.185324    ( 0.0000,  0.0000,  0.0000)
  11 O      0.873163   -1.269706   -1.118625    ( 0.0000,  0.0000,  0.0000)
  12 Mn    -2.437108   -1.269902    0.302197    ( 0.0000,  0.0000,  1.0000)
  13 Mn    -1.866187    1.693156   -2.001927    ( 0.0000,  0.0000, -1.0000)
  14 Mn     3.154299    1.693181    0.026917    ( 0.0000,  0.0000, -1.0000)
  15 Mn     2.583444   -1.269877    2.331074    ( 0.0000,  0.0000,  1.0000)
  16 P     -0.543052   -1.269720   -1.734187    ( 0.0000,  0.0000,  0.0000)
  17 P     -3.760282    1.702974    0.569859    ( 0.0000,  0.0000,  0.0000)
  18 P      1.260300    1.693000    2.063344    ( 0.0000,  0.0000,  0.0000)
  19 P      4.477470   -1.269695   -0.240696    ( 0.0000,  0.0000,  0.0000)
  20 O     -0.544413   -1.269738    1.348523    ( 0.0000,  0.0000,  0.0000)
  21 O     -3.758895    1.692992   -0.955558    ( 0.0000,  0.0000,  0.0000)
  22 O      1.261690    1.693018   -1.019367    ( 0.0000,  0.0000,  0.0000)
  23 O      4.476045   -1.269713    1.284716    ( 0.0000,  0.0000,  0.0000)
  24 Li    -4.662027   -2.751322   -2.139440    ( 0.0000,  0.0000,  0.0000)
  25 Li     0.358703   -2.751277    0.164614    ( 0.0000,  0.0000,  0.0000)
  26 Li    -4.662011    0.211617   -2.139439    ( 0.0000,  0.0000,  0.0000)
  27 Li     0.358720    0.211628    0.164615    ( 0.0000,  0.0000,  0.0000)

Unit cell:
           periodic     x           y           z      points  spacing
  1. axis:    yes   10.041096    0.000054   -0.000022    60     0.1674
  2. axis:    yes    0.000032    5.925857    0.000001    35     0.1693
  3. axis:    yes   -0.000010    0.000001    4.608134    27     0.1707

  Lengths:  10.041096   5.925857   4.608134
  Angles:   89.999974  90.000250  89.999381

Effective grid spacing dv^(1/3) = 0.1691

                     log10-error:           total        iterations:
           time      wfs    density  force  energy       poisson  magmom
iter:   1  06:26:48                       -233.728170             +0.0000
iter:   2  06:27:07  -0.47  -0.95         -231.547887             +0.0016
iter:   3  06:27:27  -0.61  -1.00         -220.800016             +0.0016
iter:   4  06:27:47  -1.19  -1.31         -220.876308             +0.3161
iter:   5  06:28:07  -2.11  -1.40         -222.905307             +0.1702
iter:   6  06:28:26  -2.14  -1.38         -223.713512             +0.2906
iter:   7  06:28:46  -2.17  -1.52         -223.749916             -0.1802
iter:   8  06:29:06  -2.50  -1.66         -225.558347             -0.6173
iter:   9  06:29:26  -2.36  -1.89         -226.444925             -0.2443
iter:  10  06:29:45  -2.24  -2.00         -226.322222             -0.0639
iter:  11  06:30:05  -2.84  -2.11         -226.296244             -0.0309
iter:  12  06:30:25  -2.58  -2.16         -226.241564             -0.0084
iter:  13  06:30:44  -2.90  -2.47         -226.209064             -0.0074
iter:  14  06:31:04  -2.94  -2.78         -226.185369             -0.0024
iter:  15  06:31:24  -3.46  -2.89         -226.177628             -0.0012
iter:  16  06:31:43  -4.26  -3.19         -226.177345             -0.0004
iter:  17  06:32:03  -3.88  -3.26         -226.174024             -0.0000
iter:  18  06:32:23  -5.02  -3.45         -226.173136             -0.0001
iter:  19  06:32:43  -4.66  -3.56         -226.173402             -0.0000
iter:  20  06:33:02  -5.34  -3.67         -226.172993             -0.0000
iter:  21  06:33:22  -5.57  -3.75         -226.172827             -0.0000
iter:  22  06:33:42  -6.54  -3.87         -226.172819             -0.0000
iter:  23  06:34:01  -5.89  -3.90         -226.172850             +0.0000
iter:  24  06:34:21  -5.92  -4.07         -226.172786             -0.0000
iter:  25  06:34:41  -6.60  -4.12         -226.172785             -0.0000
iter:  26  06:35:01  -6.94  -4.22         -226.172790             -0.0000
iter:  27  06:35:20  -6.44  -4.35         -226.172789             +0.0000
iter:  28  06:35:45  -7.47  -4.68         -226.172781             -0.0000
iter:  29  06:36:09  -7.68  -4.80    -3.01-226.172778             -0.0000
iter:  30  06:36:29  -7.30  -4.88         -226.172775             -0.0000
iter:  31  06:36:53  -7.65  -5.20    -2.57-226.172775             -0.0000
iter:  32  06:37:18  -8.63  -5.22    -3.26-226.172775             -0.0000
iter:  33  06:37:42  -7.98  -5.30    -2.80-226.172775             -0.0000
iter:  34  06:38:06  -8.48  -5.56    -3.25-226.172775             -0.0000
iter:  35  06:38:31  -9.57  -5.85    -4.17-226.172775             -0.0000
iter:  36  06:38:55  -9.44  -5.89    -3.72-226.172775             +0.0000
iter:  37  06:39:19  -9.96  -6.07    -4.24-226.172775             +0.0000
iter:  38  06:39:44 -10.24  -6.10    -4.10-226.172775             +0.0000
iter:  39  06:40:08 -10.53  -6.24    -4.11-226.172775             +0.0000
iter:  40  06:40:32 -11.34  -6.36    -4.51-226.172775             +0.0000
iter:  41  06:40:57 -10.72  -6.40    -4.26-226.172775             +0.0000
iter:  42  06:41:21 -11.78  -6.53    -4.48-226.172775             +0.0000
iter:  43  06:41:45 -10.75  -6.59    -4.09-226.172775             +0.0000
iter:  44  06:42:10 -12.07  -6.87    -4.87-226.172775             -0.0000
iter:  45  06:42:34 -11.14  -6.93    -4.74-226.172775             -0.0000
iter:  46  06:42:58 -12.14  -7.20    -4.86-226.172775             -0.0000
iter:  47  06:43:23 -13.16  -7.31    -5.47-226.172775             -0.0000
iter:  48  06:43:47 -13.01  -7.35    -5.06-226.172775             -0.0000
iter:  49  06:44:11 -13.16  -7.48    -5.20-226.172775             -0.0000
iter:  50  06:44:36 -13.70  -7.59    -5.73-226.172775             -0.0000
iter:  51  06:45:00 -14.22  -7.67    -6.07-226.172775             -0.0000

Converged after 51 iterations.

Dipole moment: (18.327096, -2.290898, -4.524242) |e|*Ang

Total magnetic moment: (0.000000, 0.000000, -0.000000)
Local magnetic moments:
   0 O  ( 0.000000,  0.000000, -0.001788)
   1 O  ( 0.000000,  0.000000,  0.001916)
   2 O  ( 0.000000,  0.000000,  0.001804)
   3 O  ( 0.000000,  0.000000, -0.001790)
   4 O  ( 0.000000,  0.000000,  0.001811)
   5 O  ( 0.000000,  0.000000, -0.001823)
   6 O  ( 0.000000,  0.000000, -0.001834)
   7 O  ( 0.000000,  0.000000,  0.001715)
   8 O  ( 0.000000,  0.000000,  0.031097)
   9 O  ( 0.000000,  0.000000, -0.031097)
  10 O  ( 0.000000,  0.000000, -0.031097)
  11 O  ( 0.000000,  0.000000,  0.031096)
  12 Mn ( 0.000000,  0.000000,  4.395745)
  13 Mn ( 0.000000,  0.000000, -4.395764)
  14 Mn ( 0.000000,  0.000000, -4.395735)
  15 Mn ( 0.000000,  0.000000,  4.395751)
  16 P  ( 0.000000,  0.000000,  0.000866)
  17 P  ( 0.000000,  0.000000, -0.000867)
  18 P  ( 0.000000,  0.000000, -0.000871)
  19 P  ( 0.000000,  0.000000,  0.000870)
  20 O  ( 0.000000,  0.000000,  0.028417)
  21 O  ( 0.000000,  0.000000, -0.028417)
  22 O  ( 0.000000,  0.000000, -0.028420)
  23 O  ( 0.000000,  0.000000,  0.028418)
  24 Li ( 0.000000,  0.000000, -0.000008)
  25 Li ( 0.000000,  0.000000, -0.000001)
  26 Li ( 0.000000,  0.000000,  0.000008)
  27 Li ( 0.000000,  0.000000,  0.000001)

Energy contributions relative to reference atoms: (reference = -196157.275402)

Kinetic:       +277.636334
Potential:     -240.975656
External:        +0.000000
XC:            -264.721865
Entropy (-ST):   -0.000000
Local:           +1.888412
--------------------------
Free energy:   -226.172775
Extrapolated:  -226.172775

Spin contamination: 9.455299 electrons
Showing only first 2 kpts
                      Up                     Down
 Kpt  Band  Eigenvalues  Occupancy  Eigenvalues  Occupancy
  0    88      6.53054    0.00694      6.53076    0.00694
  0    89      6.56418    0.00694      6.56408    0.00694
  0    90      8.42677    0.00000      8.42677    0.00000
  0    91      8.44831    0.00000      8.44829    0.00000

  1    88      6.56904    0.00694      6.56903    0.00694
  1    89      6.59609    0.00694      6.59621    0.00694
  1    90      8.38310    0.00000      8.38308    0.00000
  1    91      8.40520    0.00000      8.40521    0.00000


Fermi level: 7.59047

Gap: 1.699 eV
Transition (v -> c):
  (s=1, k=94, n=89, [0.08, 0.42, 0.12]) -> (s=0, k=85, n=90, [0.08, 0.08, -0.12])
Writing to born-0.01-17y+.gpw (mode='all')

Timing:                              incl.     excl.
-----------------------------------------------------------
Hamiltonian:                         0.215     0.002   0.0% |
 Atomic:                             0.050     0.050   0.0% |
  XC Correction:                     0.000     0.000   0.0% |
 Calculate atomic Hamiltonians:      0.076     0.076   0.0% |
 Communicate:                        0.002     0.002   0.0% |
 Initialize Hamiltonian:             0.000     0.000   0.0% |
 Poisson:                            0.001     0.001   0.0% |
 XC 3D grid:                         0.084     0.084   0.0% |
LCAO initialization:                75.459     0.645   0.0% |
 LCAO eigensolver:                  19.962     0.002   0.0% |
  Calculate projections:             0.029     0.029   0.0% |
  DenseAtomicCorrection:             0.045     0.045   0.0% |
  Distribute overlap matrix:         0.009     0.009   0.0% |
  Orbital Layouts:                   0.430     0.430   0.0% |
  Potential matrix:                 19.356    19.356   0.6% |
  Sum over cells:                    0.093     0.093   0.0% |
 LCAO to grid:                      53.529    53.529   1.7% ||
 Set positions (LCAO WFS):           1.323     0.192   0.0% |
  Basic WFS set positions:           0.001     0.001   0.0% |
  Basis functions set positions:     0.000     0.000   0.0% |
  P tci:                             0.524     0.524   0.0% |
  ST tci:                            0.385     0.385   0.0% |
  mktci:                             0.220     0.220   0.0% |
PWDescriptor:                        0.024     0.024   0.0% |
SCF-cycle:                        1113.341     0.729   0.0% |
 Davidson:                         954.183   292.002   9.1% |---|
  Apply H:                          66.340    64.419   2.0% ||
   HMM T:                            1.921     1.921   0.1% |
  Subspace diag:                   138.482     0.146   0.0% |
   calc_h_matrix:                   89.102    23.052   0.7% |
    Apply H:                        66.050    64.106   2.0% ||
     HMM T:                          1.944     1.944   0.1% |
   diagonalize:                      6.946     6.946   0.2% |
   rotate_psi:                      42.289    42.289   1.3% ||
  calc. matrices:                  285.384   155.983   4.9% |-|
   Apply H:                        129.401   125.783   3.9% |-|
    HMM T:                           3.618     3.618   0.1% |
  diagonalize:                      80.455    80.455   2.5% ||
  rotate_psi:                       91.520    91.520   2.9% ||
 Density:                           38.139     0.001   0.0% |
  Atomic density matrices:           0.814     0.814   0.0% |
  Mix:                               5.268     5.268   0.2% |
  Multipole moments:                 0.019     0.019   0.0% |
  Pseudo density:                   32.037    32.035   1.0% |
   Symmetrize density:               0.001     0.001   0.0% |
 Forces:                           107.373   107.373   3.4% ||
 Hamiltonian:                       10.859     0.108   0.0% |
  Atomic:                            2.582     2.582   0.1% |
   XC Correction:                    0.000     0.000   0.0% |
  Calculate atomic Hamiltonians:     3.774     3.774   0.1% |
  Communicate:                       0.082     0.082   0.0% |
  Poisson:                           0.030     0.030   0.0% |
  XC 3D grid:                        4.283     4.283   0.1% |
 Orthonormalize:                     2.059     0.003   0.0% |
  calc_s_matrix:                     0.242     0.242   0.0% |
  inverse-cholesky:                  0.072     0.072   0.0% |
  projections:                       1.314     1.314   0.0% |
  rotate_psi_s:                      0.428     0.428   0.0% |
Set symmetry:                        0.000     0.000   0.0% |
Other:                            2010.346  2010.346  62.8% |------------------------|
-----------------------------------------------------------
Total:                                      3199.384 100.0%

Memory usage: 12.81 GiB
Date: Thu Mar 25 07:18:29 2021
