
  ___ ___ ___ _ _ _  
 |   |   |_  | | | | 
 | | | | | . | | | | 
 |__ |  _|___|_____|  20.10.1b1
 |___|_|             

User:   madkru@i008.nifl.fysik.dtu.dk
Date:   Fri Mar 26 03:27:35 2021
Arch:   x86_64
Pid:    26969
Python: 3.7.4
gpaw:   /home/niflheim/madkru/venv_folder/gpaw/gpaw (d224efde0f)
_gpaw:  /home/niflheim/madkru/venv_folder/gpaw/build/lib.linux-x86_64-ivybridge-3.7/
        _gpaw.cpython-37m-x86_64-linux-gnu.so (4fd39e8b1e)
ase:    /home/niflheim/madkru/venv_folder/ase/ase (version 3.21.0b1-4d5a73cb29)
numpy:  /home/niflheim/madkru/venv_folder/lib/python3.7/site-packages/numpy (version 1.19.4)
scipy:  /home/niflheim/madkru/venv_folder/lib/python3.7/site-packages/scipy (version 1.5.4)
libxc:  4.3.4
units:  Angstrom and eV
cores: 64
OMP_NUM_THREADS: 1

Input parameters:
  convergence: {bands: occupied,
                density: 0.0001,
                eigenstates: 4e-08,
                energy: 0.0005,
                forces: 1e-06}
  kpts: [6 6 4]
  mode: {ecut: 600.0,
         gammacentered: False,
         name: pw}
  occupations: {fixmagmom: False,
                name: fermi-dirac,
                width: 0.001}
  symmetry: {point_group: False,
             time_reversal: False}

System changes: positions, numbers, cell, pbc, initial_charges, initial_magmoms 

Initialize ...

O-setup:
  name: Oxygen
  id: 9b9d51c344dea68c822856295a461509
  Z: 8.0
  valence: 6
  core: 2
  charge: 0.0
  file: /home/modules/software/GPAW-setups/0.9.20000/O.LDA.gz
  compensation charges: gauss, rc=0.21, lmax=2
  cutoffs: 1.17(filt), 0.83(core),
  valence states:
                energy  radius
    2s(2.00)   -23.752   0.688
    2p(4.00)    -9.195   0.598
    *s           3.459   0.688
    *p          18.016   0.598
    *d           0.000   0.619

  Using partial waves for O as LCAO basis

Mn-setup:
  name: Manganese
  id: 0d715a8018be061a6e9ea6f2d364ac92
  Z: 25.0
  valence: 15
  core: 10
  charge: 0.0
  file: /home/modules/software/GPAW-setups/0.9.20000/Mn.LDA.gz
  compensation charges: gauss, rc=0.38, lmax=2
  cutoffs: 2.14(filt), 0.86(core),
  valence states:
                energy  radius
    3s(2.00)   -85.387   1.275
    4s(2.00)    -5.282   1.275
    3p(6.00)   -54.493   1.281
    4p(0.00)    -1.471   1.281
    3d(5.00)    -7.009   1.138
    *d          20.203   1.138

  Using partial waves for Mn as LCAO basis

P-setup:
  name: Phosphorus
  id: a5561c299094968922a179ab894d2e2d
  Z: 15.0
  valence: 5
  core: 10
  charge: 0.0
  file: /home/modules/software/GPAW-setups/0.9.20000/P.LDA.gz
  compensation charges: gauss, rc=0.30, lmax=2
  cutoffs: 1.69(filt), 1.81(core),
  valence states:
                energy  radius
    3s(2.00)   -14.015   0.953
    3p(3.00)    -5.596   0.953
    *s          13.197   0.953
    *p          21.615   0.953
    *d           0.000   0.953

  Using partial waves for P as LCAO basis

Li-setup:
  name: Lithium
  id: b73562207f97a71b6967473b66fe8b65
  Z: 3.0
  valence: 1
  core: 2
  charge: 0.0
  file: /home/modules/software/GPAW-setups/0.9.20000/Li.LDA.gz
  compensation charges: gauss, rc=0.33, lmax=2
  cutoffs: 1.91(filt), 2.55(core),
  valence states:
                energy  radius
    2s(1.00)    -2.874   1.058
    2p(0.00)    -1.126   1.058
    *s          24.338   1.058

  Using partial waves for Li as LCAO basis

Reference energy: -196157.275402

Spin-polarized calculation.
Magnetic moment: 0.000000

Convergence criteria:
  Maximum total energy change: 0.0005 eV / electron
  Maximum integral of absolute density change: 0.0001 electrons
  Maximum integral of absolute eigenstate change: 4e-08 eV^2
  Maximum change in atomic force: 1e-06 eV / Ang
  Maximum number of iterations: 333

Symmetries present (total): 1

  ( 1  0  0)
  ( 0  1  0)
  ( 0  0  1)

144 k-points: 6 x 6 x 4 Monkhorst-Pack grid
144 k-points in the irreducible part of the Brillouin zone
       k-points in crystal coordinates                weights
   0:    -0.41666667   -0.41666667   -0.37500000          1/144
   1:    -0.41666667   -0.41666667   -0.12500000          1/144
   2:    -0.41666667   -0.41666667    0.12500000          1/144
   3:    -0.41666667   -0.41666667    0.37500000          1/144
   4:    -0.41666667   -0.25000000   -0.37500000          1/144
   5:    -0.41666667   -0.25000000   -0.12500000          1/144
   6:    -0.41666667   -0.25000000    0.12500000          1/144
   7:    -0.41666667   -0.25000000    0.37500000          1/144
   8:    -0.41666667   -0.08333333   -0.37500000          1/144
   9:    -0.41666667   -0.08333333   -0.12500000          1/144
          ...
 143:     0.41666667    0.41666667    0.37500000          1/144

Wave functions: Plane wave expansion
  Cutoff energy: 600.000 eV
  Number of coefficients (min, max): 9132, 9161
  Pulay-stress correction: 0.000000 eV/Ang^3 (de/decut=0.000000)
  Using FFTW library
  ScaLapack parameters: grid=1x1, blocksize=None
  Wavefunction extrapolation:
    Improved wavefunction reuse through dual PAW basis 

  Fermi-Dirac: width=0.0010 eV

Eigensolver
   Davidson(niter=2, smin=None, normalize=True) 

Densities:
  Coarse grid: 60*35*27 grid
  Fine grid: 120*70*54 grid
  Total Charge: 0.000000 

Density mixing:
  Method: difference
  Backend: pulay
  Linear mixing parameter: 0.05
  Mixing with 5 old densities
  Damping of long wave oscillations: 50 

Hamiltonian:
  XC and Coulomb potentials evaluated on a 120*70*54 grid
  Using the LDA Exchange-Correlation functional
 

Memory estimate:
  Process memory now: 14127.93 MiB
  Calculator: 322.47 MiB
    Density: 9.62 MiB
      Arrays: 3.79 MiB
      Localized functions: 4.27 MiB
      Mixer: 1.56 MiB
    Hamiltonian: 2.94 MiB
      Arrays: 2.82 MiB
      XC: 0.00 MiB
      Poisson: 0.00 MiB
      vbar: 0.12 MiB
    Wavefunctions: 309.91 MiB
      Arrays psit_nG: 281.81 MiB
      Eigensolver: 18.27 MiB
      Projections: 2.71 MiB
      Projectors: 4.40 MiB
      PW-descriptor: 2.71 MiB

Total number of cores used: 64
Parallelization over k-points: 16
Domain decomposition: 2 x 2 x 1

Number of atoms: 28
Number of atomic orbitals: 148
Number of bands in calculation: 112
Number of valence electrons: 180
Bands to converge: occupied

... initialized

Initializing position-dependent things.

Density initialized from atomic densities
Creating initial wave functions:
  112 bands from LCAO basis set

                                           
                                           
                                           
                                           
                                           
               O     O  P  O               
            PO           OMn     O         
                  O          MO            
            O        Li O                  
             Mn  Mn          OP            
         O       O Li O                    
         Li     O P         O              
       Li                                  
                                           
                                           
                                           
                                           

Positions:
   0 O     -1.280122   -2.495595   -1.112331    ( 0.0000,  0.0000,  0.0000)
   1 O     -3.023238    2.918858    1.191723    ( 0.0000,  0.0000,  0.0000)
   2 O      1.997451    0.467212    1.441442    ( 0.0000,  0.0000,  0.0000)
   3 O      3.740343   -0.043905   -0.862614    ( 0.0000,  0.0000,  0.0000)
   4 O      1.997419    2.918835    1.441465    ( 0.0000,  0.0000,  0.0000)
   5 O      3.740372   -2.495531   -0.862587    ( 0.0000,  0.0000,  0.0000)
   6 O     -1.280154   -0.043891   -1.112309    ( 0.0000,  0.0000,  0.0000)
   7 O     -3.023210    0.467136    1.191750    ( 0.0000,  0.0000,  0.0000)
   8 O     -4.147405   -1.269737   -0.856207    ( 0.0000,  0.0000,  0.0000)
   9 O     -0.155894    1.692986    1.447725    ( 0.0000,  0.0000,  0.0000)
  10 O      4.864578    1.693016    1.185324    ( 0.0000,  0.0000,  0.0000)
  11 O      0.873163   -1.269706   -1.118625    ( 0.0000,  0.0000,  0.0000)
  12 Mn    -2.437108   -1.269902    0.302197    ( 0.0000,  0.0000,  1.0000)
  13 Mn    -1.866187    1.693156   -2.001927    ( 0.0000,  0.0000, -1.0000)
  14 Mn     3.154299    1.693181    0.026917    ( 0.0000,  0.0000, -1.0000)
  15 Mn     2.583444   -1.269877    2.331074    ( 0.0000,  0.0000,  1.0000)
  16 P     -0.543052   -1.269720   -1.734187    ( 0.0000,  0.0000,  0.0000)
  17 P     -3.760282    1.692974    0.569859    ( 0.0000,  0.0000,  0.0000)
  18 P      1.260300    1.693000    2.063344    ( 0.0000,  0.0000,  0.0000)
  19 P      4.477470   -1.269695   -0.240696    ( 0.0000,  0.0000,  0.0000)
  20 O     -0.544413   -1.269738    1.348523    ( 0.0000,  0.0000,  0.0000)
  21 O     -3.758895    1.692992   -0.955558    ( 0.0000,  0.0000,  0.0000)
  22 O      1.261690    1.693018   -1.019367    ( 0.0000,  0.0000,  0.0000)
  23 O      4.476045   -1.269713    1.284716    ( 0.0000,  0.0000,  0.0000)
  24 Li    -4.662027   -2.761322   -2.139440    ( 0.0000,  0.0000,  0.0000)
  25 Li     0.358703   -2.751277    0.164614    ( 0.0000,  0.0000,  0.0000)
  26 Li    -4.662011    0.211617   -2.139439    ( 0.0000,  0.0000,  0.0000)
  27 Li     0.358720    0.211628    0.164615    ( 0.0000,  0.0000,  0.0000)

Unit cell:
           periodic     x           y           z      points  spacing
  1. axis:    yes   10.041096    0.000054   -0.000022    60     0.1674
  2. axis:    yes    0.000032    5.925857    0.000001    35     0.1693
  3. axis:    yes   -0.000010    0.000001    4.608134    27     0.1707

  Lengths:  10.041096   5.925857   4.608134
  Angles:   89.999974  90.000250  89.999381

Effective grid spacing dv^(1/3) = 0.1691

                     log10-error:           total        iterations:
           time      wfs    density  force  energy       poisson  magmom
iter:   1  03:29:09                       -233.730280             +0.0000
iter:   2  03:29:29  -0.47  -0.95         -231.550109             +0.0099
iter:   3  03:29:48  -0.60  -1.00         -220.894234             +0.0102
iter:   4  03:30:08  -1.23  -1.30         -222.636988             +0.5760
iter:   5  03:30:28  -2.14  -1.36         -222.229582             +0.4072
iter:   6  03:30:47  -2.62  -1.41         -224.301267             +0.1495
iter:   7  03:31:07  -1.96  -1.50         -226.364231             -0.0253
iter:   8  03:31:27  -2.77  -1.98         -226.387582             -0.0056
iter:   9  03:31:46  -2.90  -2.12         -226.299669             +0.0009
iter:  10  03:32:06  -2.06  -2.21         -226.335312             +0.0001
iter:  11  03:32:26  -3.14  -2.31         -226.283295             +0.0003
iter:  12  03:32:46  -2.38  -2.47         -226.225184             +0.0002
iter:  13  03:33:05  -3.30  -2.49         -226.192291             +0.0001
iter:  14  03:33:25  -3.76  -2.89         -226.181775             -0.0000
iter:  15  03:33:45  -4.32  -3.06         -226.176683             +0.0000
iter:  16  03:34:04  -4.77  -3.15         -226.175949             -0.0000
iter:  17  03:34:24  -5.03  -3.20         -226.175871             +0.0000
iter:  18  03:34:44  -5.03  -3.27         -226.175695             +0.0000
iter:  19  03:35:04  -5.05  -3.33         -226.175781             -0.0000
iter:  20  03:35:23  -5.69  -3.36         -226.175704             -0.0000
iter:  21  03:35:43  -4.74  -3.39         -226.175809             +0.0000
iter:  22  03:36:03  -5.64  -3.56         -226.175771             -0.0000
iter:  23  03:36:22  -5.82  -3.62         -226.175465             -0.0000
iter:  24  03:36:42  -5.71  -3.71         -226.175317             -0.0000
iter:  25  03:37:02  -6.43  -3.81         -226.175282             -0.0000
iter:  26  03:37:21  -5.65  -3.89         -226.175255             -0.0000
iter:  27  03:37:41  -6.24  -4.08         -226.175273             -0.0000
iter:  28  03:38:01  -5.74  -4.15         -226.175230             -0.0000
iter:  29  03:38:21  -7.14  -4.28         -226.175224             -0.0000
iter:  30  03:38:40  -6.38  -4.32         -226.175226             -0.0000
iter:  31  03:39:00  -6.54  -4.46         -226.175221             -0.0000
iter:  32  03:39:20  -6.70  -4.55         -226.175221             -0.0000
iter:  33  03:39:39  -7.26  -4.88         -226.175216             -0.0000
iter:  34  03:40:04  -8.17  -5.37         -226.175216             -0.0000
iter:  35  03:40:28  -8.68  -5.47    -3.28-226.175216             -0.0000
iter:  36  03:40:52  -9.17  -5.53    -3.50-226.175216             -0.0000
iter:  37  03:41:17  -8.71  -5.61    -3.21-226.175216             -0.0000
iter:  38  03:41:41  -9.60  -5.78    -3.79-226.175216             -0.0000
iter:  39  03:42:05  -9.73  -5.89    -3.80-226.175216             -0.0000
iter:  40  03:42:30 -11.00  -5.98    -4.01-226.175216             -0.0000
iter:  41  03:42:54 -10.66  -6.03    -4.15-226.175216             +0.0000
iter:  42  03:43:19 -10.42  -6.07    -4.36-226.175216             +0.0000
iter:  43  03:43:43 -10.32  -6.11    -4.09-226.175216             +0.0000
iter:  44  03:44:07 -11.44  -6.26    -4.66-226.175216             +0.0000
iter:  45  03:44:32 -10.67  -6.31    -4.13-226.175216             +0.0000
iter:  46  03:44:56 -11.66  -6.45    -4.80-226.175216             +0.0000
iter:  47  03:45:21 -10.75  -6.49    -4.12-226.175216             +0.0000
iter:  48  03:45:45 -11.81  -6.90    -4.59-226.175216             +0.0000
iter:  49  03:46:09 -11.78  -7.10    -5.16-226.175216             +0.0000
iter:  50  03:46:34 -11.99  -7.12    -4.69-226.175216             +0.0000
iter:  51  03:46:58 -12.36  -7.21    -5.11-226.175216             +0.0000
iter:  52  03:47:23 -13.01  -7.34    -5.28-226.175216             +0.0000
iter:  53  03:47:47 -13.54  -7.42    -5.43-226.175216             +0.0000
iter:  54  03:48:11 -12.83  -7.46    -4.99-226.175216             +0.0000
iter:  55  03:48:36 -14.14  -7.74    -5.98-226.175216             +0.0000
iter:  56  03:49:00 -13.00  -7.81    -5.36-226.175216             +0.0000
iter:  57  03:49:25 -13.73  -7.86    -5.64-226.175216             +0.0000
iter:  58  03:49:49 -15.12  -8.19    -6.29-226.175216             +0.0000

Converged after 58 iterations.

Dipole moment: (18.327672, -2.311562, -4.524190) |e|*Ang

Total magnetic moment: (0.000000, 0.000000, 0.000000)
Local magnetic moments:
   0 O  ( 0.000000,  0.000000, -0.001828)
   1 O  ( 0.000000,  0.000000,  0.001747)
   2 O  ( 0.000000,  0.000000,  0.001792)
   3 O  ( 0.000000,  0.000000, -0.001841)
   4 O  ( 0.000000,  0.000000,  0.001785)
   5 O  ( 0.000000,  0.000000, -0.001865)
   6 O  ( 0.000000,  0.000000, -0.001831)
   7 O  ( 0.000000,  0.000000,  0.001782)
   8 O  ( 0.000000,  0.000000,  0.031159)
   9 O  ( 0.000000,  0.000000, -0.031120)
  10 O  ( 0.000000,  0.000000, -0.031034)
  11 O  ( 0.000000,  0.000000,  0.031073)
  12 Mn ( 0.000000,  0.000000,  4.395840)
  13 Mn ( 0.000000,  0.000000, -4.395762)
  14 Mn ( 0.000000,  0.000000, -4.395660)
  15 Mn ( 0.000000,  0.000000,  4.395773)
  16 P  ( 0.000000,  0.000000,  0.000870)
  17 P  ( 0.000000,  0.000000, -0.000863)
  18 P  ( 0.000000,  0.000000, -0.000867)
  19 P  ( 0.000000,  0.000000,  0.000871)
  20 O  ( 0.000000,  0.000000,  0.028404)
  21 O  ( 0.000000,  0.000000, -0.028393)
  22 O  ( 0.000000,  0.000000, -0.028434)
  23 O  ( 0.000000,  0.000000,  0.028442)
  24 Li ( 0.000000,  0.000000, -0.000013)
  25 Li ( 0.000000,  0.000000,  0.000000)
  26 Li ( 0.000000,  0.000000,  0.000002)
  27 Li ( 0.000000,  0.000000,  0.000000)

Energy contributions relative to reference atoms: (reference = -196157.275402)

Kinetic:       +277.625243
Potential:     -240.967467
External:        +0.000000
XC:            -264.721433
Entropy (-ST):   -0.000000
Local:           +1.888441
--------------------------
Free energy:   -226.175216
Extrapolated:  -226.175216

Spin contamination: 9.455315 electrons
Showing only first 2 kpts
                      Up                     Down
 Kpt  Band  Eigenvalues  Occupancy  Eigenvalues  Occupancy
  0    88      6.53201    0.00694      6.52896    0.00694
  0    89      6.56558    0.00694      6.56263    0.00694
  0    90      8.42540    0.00000      8.42806    0.00000
  0    91      8.44691    0.00000      8.44983    0.00000

  1    88      6.57050    0.00694      6.56735    0.00694
  1    89      6.59759    0.00694      6.59452    0.00694
  1    90      8.38174    0.00000      8.38440    0.00000
  1    91      8.40383    0.00000      8.40666    0.00000


Fermi level: 7.11977

Gap: 1.697 eV
Transition (v -> c):
  (s=0, k=50, n=89, [-0.08, -0.42, 0.12]) -> (s=0, k=58, n=90, [-0.08, -0.08, 0.12])
Writing to born-0.01-24y-.gpw (mode='all')

Timing:                              incl.     excl.
-----------------------------------------------------------
Hamiltonian:                         0.228     0.002   0.0% |
 Atomic:                             0.067     0.067   0.0% |
  XC Correction:                     0.000     0.000   0.0% |
 Calculate atomic Hamiltonians:      0.074     0.074   0.0% |
 Communicate:                        0.001     0.001   0.0% |
 Initialize Hamiltonian:             0.000     0.000   0.0% |
 Poisson:                            0.001     0.001   0.0% |
 XC 3D grid:                         0.083     0.083   0.0% |
LCAO initialization:                68.908     0.685   0.0% |
 LCAO eigensolver:                  19.589     0.002   0.0% |
  Calculate projections:             0.029     0.029   0.0% |
  DenseAtomicCorrection:             0.045     0.045   0.0% |
  Distribute overlap matrix:         0.009     0.009   0.0% |
  Orbital Layouts:                   0.431     0.431   0.0% |
  Potential matrix:                 18.988    18.988   0.6% |
  Sum over cells:                    0.086     0.086   0.0% |
 LCAO to grid:                      47.320    47.320   1.5% ||
 Set positions (LCAO WFS):           1.314     0.193   0.0% |
  Basic WFS set positions:           0.001     0.001   0.0% |
  Basis functions set positions:     0.000     0.000   0.0% |
  P tci:                             0.520     0.520   0.0% |
  ST tci:                            0.384     0.384   0.0% |
  mktci:                             0.216     0.216   0.0% |
PWDescriptor:                        0.023     0.023   0.0% |
SCF-cycle:                        1263.830     3.268   0.1% |
 Davidson:                        1085.654   332.121  10.3% |---|
  Apply H:                          75.275    73.092   2.3% ||
   HMM T:                            2.183     2.183   0.1% |
  Subspace diag:                   157.715     0.169   0.0% |
   calc_h_matrix:                  101.534    26.208   0.8% |
    Apply H:                        75.327    73.107   2.3% ||
     HMM T:                          2.219     2.219   0.1% |
   diagonalize:                      7.902     7.902   0.2% |
   rotate_psi:                      48.110    48.110   1.5% ||
  calc. matrices:                  325.136   177.699   5.5% |-|
   Apply H:                        147.437   143.304   4.5% |-|
    HMM T:                           4.133     4.133   0.1% |
  diagonalize:                      91.167    91.167   2.8% ||
  rotate_psi:                      104.240   104.240   3.2% ||
 Density:                           43.946     0.001   0.0% |
  Atomic density matrices:           0.907     0.907   0.0% |
  Mix:                               5.988     5.988   0.2% |
  Multipole moments:                 0.022     0.022   0.0% |
  Pseudo density:                   37.028    37.026   1.2% |
   Symmetrize density:               0.002     0.002   0.0% |
 Forces:                           116.507   116.507   3.6% ||
 Hamiltonian:                       12.389     0.123   0.0% |
  Atomic:                            2.979     2.979   0.1% |
   XC Correction:                    0.000     0.000   0.0% |
  Calculate atomic Hamiltonians:     4.281     4.281   0.1% |
  Communicate:                       0.083     0.083   0.0% |
  Poisson:                           0.035     0.035   0.0% |
  XC 3D grid:                        4.888     4.888   0.2% |
 Orthonormalize:                     2.066     0.003   0.0% |
  calc_s_matrix:                     0.242     0.242   0.0% |
  inverse-cholesky:                  0.072     0.072   0.0% |
  projections:                       1.319     1.319   0.0% |
  rotate_psi_s:                      0.430     0.430   0.0% |
Set symmetry:                        0.000     0.000   0.0% |
Other:                            1882.020  1882.020  58.5% |----------------------|
-----------------------------------------------------------
Total:                                      3215.009 100.0%

Memory usage: 13.81 GiB
Date: Fri Mar 26 04:21:10 2021
