
  ___ ___ ___ _ _ _  
 |   |   |_  | | | | 
 | | | | | . | | | | 
 |__ |  _|___|_____|  20.10.1b1
 |___|_|             

User:   madkru@i013.nifl.fysik.dtu.dk
Date:   Mon Mar 22 04:38:17 2021
Arch:   x86_64
Pid:    27943
Python: 3.7.4
gpaw:   /home/niflheim/madkru/venv_folder/gpaw/gpaw (d0d1ca1c71)
_gpaw:  /home/niflheim/madkru/venv_folder/gpaw/build/lib.linux-x86_64-ivybridge-3.7/
        _gpaw.cpython-37m-x86_64-linux-gnu.so (4fd39e8b1e)
ase:    /home/niflheim/madkru/venv_folder/ase/ase (version 3.21.0b1-7e6c206a91)
numpy:  /home/niflheim/madkru/venv_folder/lib/python3.7/site-packages/numpy (version 1.19.4)
scipy:  /home/niflheim/madkru/venv_folder/lib/python3.7/site-packages/scipy (version 1.5.4)
libxc:  4.3.4
units:  Angstrom and eV
cores: 32
OMP_NUM_THREADS: 1

Input parameters:
  convergence: {bands: occupied,
                density: 0.0001,
                eigenstates: 4e-08,
                energy: 0.0005,
                forces: 1e-06}
  kpts: [6 6 4]
  mode: {ecut: 600.0,
         gammacentered: False,
         name: pw}
  occupations: {fixmagmom: False,
                name: fermi-dirac,
                width: 0.001}
  symmetry: {point_group: False,
             time_reversal: False}

System changes: positions, numbers, cell, pbc, initial_charges, initial_magmoms 

Initialize ...

O-setup:
  name: Oxygen
  id: 9b9d51c344dea68c822856295a461509
  Z: 8.0
  valence: 6
  core: 2
  charge: 0.0
  file: /home/modules/software/GPAW-setups/0.9.20000/O.LDA.gz
  compensation charges: gauss, rc=0.21, lmax=2
  cutoffs: 1.17(filt), 0.83(core),
  valence states:
                energy  radius
    2s(2.00)   -23.752   0.688
    2p(4.00)    -9.195   0.598
    *s           3.459   0.688
    *p          18.016   0.598
    *d           0.000   0.619

  Using partial waves for O as LCAO basis

Mn-setup:
  name: Manganese
  id: 0d715a8018be061a6e9ea6f2d364ac92
  Z: 25.0
  valence: 15
  core: 10
  charge: 0.0
  file: /home/modules/software/GPAW-setups/0.9.20000/Mn.LDA.gz
  compensation charges: gauss, rc=0.38, lmax=2
  cutoffs: 2.14(filt), 0.86(core),
  valence states:
                energy  radius
    3s(2.00)   -85.387   1.275
    4s(2.00)    -5.282   1.275
    3p(6.00)   -54.493   1.281
    4p(0.00)    -1.471   1.281
    3d(5.00)    -7.009   1.138
    *d          20.203   1.138

  Using partial waves for Mn as LCAO basis

P-setup:
  name: Phosphorus
  id: a5561c299094968922a179ab894d2e2d
  Z: 15.0
  valence: 5
  core: 10
  charge: 0.0
  file: /home/modules/software/GPAW-setups/0.9.20000/P.LDA.gz
  compensation charges: gauss, rc=0.30, lmax=2
  cutoffs: 1.69(filt), 1.81(core),
  valence states:
                energy  radius
    3s(2.00)   -14.015   0.953
    3p(3.00)    -5.596   0.953
    *s          13.197   0.953
    *p          21.615   0.953
    *d           0.000   0.953

  Using partial waves for P as LCAO basis

Li-setup:
  name: Lithium
  id: b73562207f97a71b6967473b66fe8b65
  Z: 3.0
  valence: 1
  core: 2
  charge: 0.0
  file: /home/modules/software/GPAW-setups/0.9.20000/Li.LDA.gz
  compensation charges: gauss, rc=0.33, lmax=2
  cutoffs: 1.91(filt), 2.55(core),
  valence states:
                energy  radius
    2s(1.00)    -2.874   1.058
    2p(0.00)    -1.126   1.058
    *s          24.338   1.058

  Using partial waves for Li as LCAO basis

Reference energy: -196157.275402

Spin-polarized calculation.
Magnetic moment: 0.000000

Convergence criteria:
  Maximum total energy change: 0.0005 eV / electron
  Maximum integral of absolute density change: 0.0001 electrons
  Maximum integral of absolute eigenstate change: 4e-08 eV^2
  Maximum change in atomic force: 1e-06 eV / Ang
  Maximum number of iterations: 333

Symmetries present (total): 1

  ( 1  0  0)
  ( 0  1  0)
  ( 0  0  1)

144 k-points: 6 x 6 x 4 Monkhorst-Pack grid
144 k-points in the irreducible part of the Brillouin zone
       k-points in crystal coordinates                weights
   0:    -0.41666667   -0.41666667   -0.37500000          1/144
   1:    -0.41666667   -0.41666667   -0.12500000          1/144
   2:    -0.41666667   -0.41666667    0.12500000          1/144
   3:    -0.41666667   -0.41666667    0.37500000          1/144
   4:    -0.41666667   -0.25000000   -0.37500000          1/144
   5:    -0.41666667   -0.25000000   -0.12500000          1/144
   6:    -0.41666667   -0.25000000    0.12500000          1/144
   7:    -0.41666667   -0.25000000    0.37500000          1/144
   8:    -0.41666667   -0.08333333   -0.37500000          1/144
   9:    -0.41666667   -0.08333333   -0.12500000          1/144
          ...
 143:     0.41666667    0.41666667    0.37500000          1/144

Wave functions: Plane wave expansion
  Cutoff energy: 600.000 eV
  Number of coefficients (min, max): 9132, 9161
  Pulay-stress correction: 0.000000 eV/Ang^3 (de/decut=0.000000)
  Using FFTW library
  ScaLapack parameters: grid=1x1, blocksize=None
  Wavefunction extrapolation:
    Improved wavefunction reuse through dual PAW basis 

  Fermi-Dirac: width=0.0010 eV

Eigensolver
   Davidson(niter=2, smin=None, normalize=True) 

Densities:
  Coarse grid: 60*35*27 grid
  Fine grid: 120*70*54 grid
  Total Charge: 0.000000 

Density mixing:
  Method: difference
  Backend: pulay
  Linear mixing parameter: 0.05
  Mixing with 5 old densities
  Damping of long wave oscillations: 50 

Hamiltonian:
  XC and Coulomb potentials evaluated on a 120*70*54 grid
  Using the LDA Exchange-Correlation functional
 

Memory estimate:
  Process memory now: 12962.89 MiB
  Calculator: 342.26 MiB
    Density: 19.13 MiB
      Arrays: 7.57 MiB
      Localized functions: 8.54 MiB
      Mixer: 3.03 MiB
    Hamiltonian: 5.87 MiB
      Arrays: 5.62 MiB
      XC: 0.00 MiB
      Poisson: 0.00 MiB
      vbar: 0.25 MiB
    Wavefunctions: 317.25 MiB
      Arrays psit_nG: 281.81 MiB
      Eigensolver: 18.27 MiB
      Projections: 5.41 MiB
      Projectors: 8.81 MiB
      PW-descriptor: 2.95 MiB

Total number of cores used: 32
Parallelization over k-points: 16
Domain decomposition: 2 x 1 x 1

Number of atoms: 28
Number of atomic orbitals: 148
Number of bands in calculation: 112
Number of valence electrons: 180
Bands to converge: occupied

... initialized

Initializing position-dependent things.

Density initialized from atomic densities
Creating initial wave functions:
  112 bands from LCAO basis set

                                           
                                           
                                           
                                           
                                           
               O     O  P  O               
            PO           OMn     O         
                  O          MO            
            O        Li O                  
             Mn  Mn          OP            
         O       O Li O                    
         Li     O P         O              
       Li                                  
                                           
                                           
                                           
                                           

Positions:
   0 O     -1.280122   -2.495595   -1.112331    ( 0.0000,  0.0000,  0.0000)
   1 O     -3.023238    2.918858    1.191723    ( 0.0000,  0.0000,  0.0000)
   2 O      1.997451    0.467212    1.441442    ( 0.0000,  0.0000,  0.0000)
   3 O      3.740343   -0.043905   -0.862614    ( 0.0000,  0.0000,  0.0000)
   4 O      1.997419    2.918835    1.441465    ( 0.0000,  0.0000,  0.0000)
   5 O      3.750372   -2.495531   -0.862587    ( 0.0000,  0.0000,  0.0000)
   6 O     -1.280154   -0.043891   -1.112309    ( 0.0000,  0.0000,  0.0000)
   7 O     -3.023210    0.467136    1.191750    ( 0.0000,  0.0000,  0.0000)
   8 O     -4.147405   -1.269737   -0.856207    ( 0.0000,  0.0000,  0.0000)
   9 O     -0.155894    1.692986    1.447725    ( 0.0000,  0.0000,  0.0000)
  10 O      4.864578    1.693016    1.185324    ( 0.0000,  0.0000,  0.0000)
  11 O      0.873163   -1.269706   -1.118625    ( 0.0000,  0.0000,  0.0000)
  12 Mn    -2.437108   -1.269902    0.302197    ( 0.0000,  0.0000,  1.0000)
  13 Mn    -1.866187    1.693156   -2.001927    ( 0.0000,  0.0000, -1.0000)
  14 Mn     3.154299    1.693181    0.026917    ( 0.0000,  0.0000, -1.0000)
  15 Mn     2.583444   -1.269877    2.331074    ( 0.0000,  0.0000,  1.0000)
  16 P     -0.543052   -1.269720   -1.734187    ( 0.0000,  0.0000,  0.0000)
  17 P     -3.760282    1.692974    0.569859    ( 0.0000,  0.0000,  0.0000)
  18 P      1.260300    1.693000    2.063344    ( 0.0000,  0.0000,  0.0000)
  19 P      4.477470   -1.269695   -0.240696    ( 0.0000,  0.0000,  0.0000)
  20 O     -0.544413   -1.269738    1.348523    ( 0.0000,  0.0000,  0.0000)
  21 O     -3.758895    1.692992   -0.955558    ( 0.0000,  0.0000,  0.0000)
  22 O      1.261690    1.693018   -1.019367    ( 0.0000,  0.0000,  0.0000)
  23 O      4.476045   -1.269713    1.284716    ( 0.0000,  0.0000,  0.0000)
  24 Li    -4.662027   -2.751322   -2.139440    ( 0.0000,  0.0000,  0.0000)
  25 Li     0.358703   -2.751277    0.164614    ( 0.0000,  0.0000,  0.0000)
  26 Li    -4.662011    0.211617   -2.139439    ( 0.0000,  0.0000,  0.0000)
  27 Li     0.358720    0.211628    0.164615    ( 0.0000,  0.0000,  0.0000)

Unit cell:
           periodic     x           y           z      points  spacing
  1. axis:    yes   10.041096    0.000054   -0.000022    60     0.1674
  2. axis:    yes    0.000032    5.925857    0.000001    35     0.1693
  3. axis:    yes   -0.000010    0.000001    4.608134    27     0.1707

  Lengths:  10.041096   5.925857   4.608134
  Angles:   89.999974  90.000250  89.999381

Effective grid spacing dv^(1/3) = 0.1691

                     log10-error:           total        iterations:
           time      wfs    density  force  energy       poisson  magmom
iter:   1  04:41:23                       -233.728694             +0.0000
iter:   2  04:41:59  -0.47  -0.95         -231.554422             +0.0020
iter:   3  04:42:35  -0.61  -1.00         -220.787710             +0.0021
iter:   4  04:43:12  -1.17  -1.31         -220.682143             +0.0989
iter:   5  04:43:48  -2.11  -1.41         -222.911135             +0.0172
iter:   6  04:44:24  -2.15  -1.39         -222.866396             +0.0761
iter:   7  04:45:01  -2.06  -1.55         -223.943635             +0.3069
iter:   8  04:45:37  -2.48  -1.74         -225.430031             +0.5219
iter:   9  04:46:13  -2.46  -1.89         -226.350717             +0.1541
iter:  10  04:46:50  -2.01  -1.94         -226.376895             -0.0156
iter:  11  04:47:26  -3.04  -2.05         -226.349408             +0.0037
iter:  12  04:48:03  -2.20  -2.08         -226.235569             +0.0040
iter:  13  04:48:39  -3.38  -2.57         -226.206377             +0.0011
iter:  14  04:49:15  -2.97  -2.64         -226.185589             -0.0008
iter:  15  04:49:52  -3.87  -2.87         -226.179785             -0.0001
iter:  16  04:50:28  -4.55  -3.11         -226.176817             +0.0001
iter:  17  04:51:04  -4.99  -3.23         -226.175648             +0.0000
iter:  18  04:51:41  -4.91  -3.25         -226.175188             +0.0000
iter:  19  04:52:17  -5.68  -3.27         -226.175100             +0.0000
iter:  20  04:52:53  -5.00  -3.34         -226.175782             -0.0000
iter:  21  04:53:29  -5.91  -3.51         -226.175357             +0.0000
iter:  22  04:54:06  -4.62  -3.61         -226.174827             +0.0000
iter:  23  04:54:42  -5.94  -3.92         -226.174775             +0.0000
iter:  24  04:55:18  -6.42  -3.95         -226.174727             -0.0000
iter:  25  04:55:54  -6.30  -4.01         -226.174741             -0.0000
iter:  26  04:56:31  -6.23  -4.20         -226.174700             -0.0000
iter:  27  04:57:07  -6.98  -4.30         -226.174697             -0.0000
iter:  28  04:57:43  -6.90  -4.33         -226.174694             -0.0000
iter:  29  04:58:19  -7.21  -4.48         -226.174693             -0.0000
iter:  30  04:59:05  -8.33  -4.59         -226.174693             -0.0000
iter:  31  04:59:41  -7.07  -4.67         -226.174695             -0.0000
iter:  32  05:00:27  -7.73  -4.79    -2.45-226.174692             -0.0000
iter:  33  05:01:12  -8.23  -4.90    -3.19-226.174692             -0.0000
iter:  34  05:01:57  -8.07  -4.94    -3.00-226.174692             -0.0000
iter:  35  05:02:43  -8.50  -5.02    -3.25-226.174692             -0.0000
iter:  36  05:03:28  -9.17  -5.08    -3.14-226.174692             -0.0000
iter:  37  05:04:14  -8.75  -5.16    -3.05-226.174692             +0.0000
iter:  38  05:04:59  -9.19  -5.29    -3.75-226.174692             -0.0000
iter:  39  05:05:44  -8.55  -5.34    -3.23-226.174691             +0.0000
iter:  40  05:06:30  -9.53  -5.55    -3.58-226.174691             +0.0000
iter:  41  05:07:15  -9.50  -5.63    -3.51-226.174691             +0.0000
iter:  42  05:08:01 -10.21  -5.73    -4.04-226.174691             +0.0000
iter:  43  05:08:46  -9.16  -5.78    -3.43-226.174691             -0.0000
iter:  44  05:09:31 -10.53  -5.95    -3.97-226.174691             +0.0000
iter:  45  05:10:17  -9.27  -6.01    -3.45-226.174691             +0.0000
iter:  46  05:11:02  -9.67  -6.10    -3.65-226.174691             +0.0000
iter:  47  05:11:48 -11.03  -6.45    -4.24-226.174691             +0.0000
iter:  48  05:12:33 -12.03  -6.50    -4.81-226.174691             +0.0000
iter:  49  05:13:18 -10.68  -6.55    -4.19-226.174691             +0.0000
iter:  50  05:14:04 -11.54  -6.86    -4.61-226.174691             +0.0000
iter:  51  05:14:49 -12.40  -7.01    -5.01-226.174691             +0.0000
iter:  52  05:15:35 -12.57  -7.08    -5.11-226.174691             +0.0000
iter:  53  05:16:20 -12.27  -7.22    -5.01-226.174691             +0.0000
iter:  54  05:17:05 -13.38  -7.26    -5.33-226.174691             +0.0000
iter:  55  05:17:51 -13.04  -7.33    -5.50-226.174691             +0.0000
iter:  56  05:18:36 -12.81  -7.41    -5.18-226.174691             +0.0000
iter:  57  05:19:22 -13.64  -7.50    -5.83-226.174691             +0.0000
iter:  58  05:20:07 -12.65  -7.55    -5.24-226.174691             +0.0000
iter:  59  05:20:52 -13.61  -7.73    -5.53-226.174691             +0.0000
iter:  60  05:21:38 -14.00  -7.80    -5.79-226.174691             +0.0000
iter:  61  05:22:23 -14.88  -7.94    -6.32-226.174691             +0.0000

Converged after 61 iterations.

Dipole moment: (18.322486, -2.309162, -4.527080) |e|*Ang

Total magnetic moment: (0.000000, 0.000000, 0.000000)
Local magnetic moments:
   0 O  ( 0.000000,  0.000000, -0.001826)
   1 O  ( 0.000000,  0.000000,  0.001785)
   2 O  ( 0.000000,  0.000000,  0.001872)
   3 O  ( 0.000000,  0.000000, -0.001823)
   4 O  ( 0.000000,  0.000000,  0.001822)
   5 O  ( 0.000000,  0.000000, -0.001823)
   6 O  ( 0.000000,  0.000000, -0.001831)
   7 O  ( 0.000000,  0.000000,  0.001793)
   8 O  ( 0.000000,  0.000000,  0.031228)
   9 O  ( 0.000000,  0.000000, -0.031037)
  10 O  ( 0.000000,  0.000000, -0.031148)
  11 O  ( 0.000000,  0.000000,  0.031098)
  12 Mn ( 0.000000,  0.000000,  4.395783)
  13 Mn ( 0.000000,  0.000000, -4.395802)
  14 Mn ( 0.000000,  0.000000, -4.396777)
  15 Mn ( 0.000000,  0.000000,  4.396573)
  16 P  ( 0.000000,  0.000000,  0.000856)
  17 P  ( 0.000000,  0.000000, -0.000849)
  18 P  ( 0.000000,  0.000000, -0.000887)
  19 P  ( 0.000000,  0.000000,  0.000843)
  20 O  ( 0.000000,  0.000000,  0.028373)
  21 O  ( 0.000000,  0.000000, -0.028441)
  22 O  ( 0.000000,  0.000000, -0.028383)
  23 O  ( 0.000000,  0.000000,  0.028460)
  24 Li ( 0.000000,  0.000000, -0.000007)
  25 Li ( 0.000000,  0.000000,  0.000000)
  26 Li ( 0.000000,  0.000000,  0.000005)
  27 Li ( 0.000000,  0.000000, -0.000001)

Energy contributions relative to reference atoms: (reference = -196157.275402)

Kinetic:       +277.894832
Potential:     -241.171727
External:        +0.000000
XC:            -264.785887
Entropy (-ST):   -0.000000
Local:           +1.888090
--------------------------
Free energy:   -226.174691
Extrapolated:  -226.174691

Spin contamination: 9.456400 electrons
Showing only first 2 kpts
                      Up                     Down
 Kpt  Band  Eigenvalues  Occupancy  Eigenvalues  Occupancy
  0    88      6.52769    0.00694      6.52641    0.00694
  0    89      6.56420    0.00694      6.56093    0.00694
  0    90      8.42296    0.00000      8.42416    0.00000
  0    91      8.44713    0.00000      8.44698    0.00000

  1    88      6.56526    0.00694      6.56489    0.00694
  1    89      6.59695    0.00694      6.59283    0.00694
  1    90      8.37960    0.00000      8.37881    0.00000
  1    91      8.40395    0.00000      8.40356    0.00000


Fermi level: 7.60656

Gap: 1.695 eV
Transition (v -> c):
  (s=0, k=94, n=89, [0.08, 0.42, 0.12]) -> (s=1, k=85, n=90, [0.08, 0.08, -0.12])
Writing to born-0.01-5x+.gpw (mode='all')

Timing:                              incl.     excl.
-----------------------------------------------------------
Hamiltonian:                         0.354     0.002   0.0% |
 Atomic:                             0.050     0.050   0.0% |
  XC Correction:                     0.000     0.000   0.0% |
 Calculate atomic Hamiltonians:      0.143     0.143   0.0% |
 Communicate:                        0.002     0.002   0.0% |
 Initialize Hamiltonian:             0.000     0.000   0.0% |
 Poisson:                            0.001     0.001   0.0% |
 XC 3D grid:                         0.156     0.156   0.0% |
LCAO initialization:               145.785     0.649   0.0% |
 LCAO eigensolver:                  38.230     0.002   0.0% |
  Calculate projections:             0.057     0.057   0.0% |
  DenseAtomicCorrection:             0.088     0.088   0.0% |
  Distribute overlap matrix:         0.099     0.099   0.0% |
  Orbital Layouts:                   0.341     0.341   0.0% |
  Potential matrix:                 37.555    37.555   0.7% |
  Sum over cells:                    0.088     0.088   0.0% |
 LCAO to grid:                     104.540   104.540   1.9% ||
 Set positions (LCAO WFS):           2.367     0.376   0.0% |
  Basic WFS set positions:           0.001     0.001   0.0% |
  Basis functions set positions:     0.000     0.000   0.0% |
  P tci:                             1.064     1.064   0.0% |
  ST tci:                            0.705     0.705   0.0% |
  mktci:                             0.220     0.220   0.0% |
PWDescriptor:                        0.023     0.023   0.0% |
SCF-cycle:                        2498.593    21.017   0.4% |
 Davidson:                        2079.858   666.857  11.8% |----|
  Apply H:                         146.197   141.831   2.5% ||
   HMM T:                            4.366     4.366   0.1% |
  Subspace diag:                   307.511     0.186   0.0% |
   calc_h_matrix:                  199.578    54.376   1.0% |
    Apply H:                       145.202   140.910   2.5% ||
     HMM T:                          4.293     4.293   0.1% |
   diagonalize:                      7.097     7.097   0.1% |
   rotate_psi:                     100.651   100.651   1.8% ||
  calc. matrices:                  657.026   366.703   6.5% |--|
   Apply H:                        290.324   281.832   5.0% |-|
    HMM T:                           8.492     8.492   0.2% |
  diagonalize:                      96.420    96.420   1.7% ||
  rotate_psi:                      205.847   205.847   3.6% ||
 Density:                           85.782     0.002   0.0% |
  Atomic density matrices:           1.529     1.529   0.0% |
  Mix:                              11.649    11.649   0.2% |
  Multipole moments:                 0.036     0.036   0.0% |
  Pseudo density:                   72.567    72.566   1.3% ||
   Symmetrize density:               0.002     0.002   0.0% |
 Forces:                           286.184   286.184   5.1% |-|
 Hamiltonian:                       21.777     0.137   0.0% |
  Atomic:                            3.038     3.038   0.1% |
   XC Correction:                    0.000     0.000   0.0% |
  Calculate atomic Hamiltonians:     8.830     8.830   0.2% |
  Communicate:                       0.100     0.100   0.0% |
  Poisson:                           0.072     0.072   0.0% |
  XC 3D grid:                        9.601     9.601   0.2% |
 Orthonormalize:                     3.975     0.003   0.0% |
  calc_s_matrix:                     0.478     0.478   0.0% |
  inverse-cholesky:                  0.053     0.053   0.0% |
  projections:                       2.590     2.590   0.0% |
  rotate_psi_s:                      0.850     0.850   0.0% |
Set symmetry:                        0.000     0.000   0.0% |
Other:                            2998.161  2998.161  53.1% |--------------------|
-----------------------------------------------------------
Total:                                      5642.918 100.0%

Memory usage: 12.69 GiB
Date: Mon Mar 22 06:12:20 2021
