
  ___ ___ ___ _ _ _  
 |   |   |_  | | | | 
 | | | | | . | | | | 
 |__ |  _|___|_____|  20.10.1b1
 |___|_|             

User:   madkru@i008.nifl.fysik.dtu.dk
Date:   Thu Mar 25 14:00:37 2021
Arch:   x86_64
Pid:    26969
Python: 3.7.4
gpaw:   /home/niflheim/madkru/venv_folder/gpaw/gpaw (d224efde0f)
_gpaw:  /home/niflheim/madkru/venv_folder/gpaw/build/lib.linux-x86_64-ivybridge-3.7/
        _gpaw.cpython-37m-x86_64-linux-gnu.so (4fd39e8b1e)
ase:    /home/niflheim/madkru/venv_folder/ase/ase (version 3.21.0b1-4d5a73cb29)
numpy:  /home/niflheim/madkru/venv_folder/lib/python3.7/site-packages/numpy (version 1.19.4)
scipy:  /home/niflheim/madkru/venv_folder/lib/python3.7/site-packages/scipy (version 1.5.4)
libxc:  4.3.4
units:  Angstrom and eV
cores: 64
OMP_NUM_THREADS: 1

Input parameters:
  convergence: {bands: occupied,
                density: 0.0001,
                eigenstates: 4e-08,
                energy: 0.0005,
                forces: 1e-06}
  kpts: [6 6 4]
  mode: {ecut: 600.0,
         gammacentered: False,
         name: pw}
  occupations: {fixmagmom: False,
                name: fermi-dirac,
                width: 0.001}
  symmetry: {point_group: False,
             time_reversal: False}

System changes: positions, numbers, cell, pbc, initial_charges, initial_magmoms 

Initialize ...

O-setup:
  name: Oxygen
  id: 9b9d51c344dea68c822856295a461509
  Z: 8.0
  valence: 6
  core: 2
  charge: 0.0
  file: /home/modules/software/GPAW-setups/0.9.20000/O.LDA.gz
  compensation charges: gauss, rc=0.21, lmax=2
  cutoffs: 1.17(filt), 0.83(core),
  valence states:
                energy  radius
    2s(2.00)   -23.752   0.688
    2p(4.00)    -9.195   0.598
    *s           3.459   0.688
    *p          18.016   0.598
    *d           0.000   0.619

  Using partial waves for O as LCAO basis

Mn-setup:
  name: Manganese
  id: 0d715a8018be061a6e9ea6f2d364ac92
  Z: 25.0
  valence: 15
  core: 10
  charge: 0.0
  file: /home/modules/software/GPAW-setups/0.9.20000/Mn.LDA.gz
  compensation charges: gauss, rc=0.38, lmax=2
  cutoffs: 2.14(filt), 0.86(core),
  valence states:
                energy  radius
    3s(2.00)   -85.387   1.275
    4s(2.00)    -5.282   1.275
    3p(6.00)   -54.493   1.281
    4p(0.00)    -1.471   1.281
    3d(5.00)    -7.009   1.138
    *d          20.203   1.138

  Using partial waves for Mn as LCAO basis

P-setup:
  name: Phosphorus
  id: a5561c299094968922a179ab894d2e2d
  Z: 15.0
  valence: 5
  core: 10
  charge: 0.0
  file: /home/modules/software/GPAW-setups/0.9.20000/P.LDA.gz
  compensation charges: gauss, rc=0.30, lmax=2
  cutoffs: 1.69(filt), 1.81(core),
  valence states:
                energy  radius
    3s(2.00)   -14.015   0.953
    3p(3.00)    -5.596   0.953
    *s          13.197   0.953
    *p          21.615   0.953
    *d           0.000   0.953

  Using partial waves for P as LCAO basis

Li-setup:
  name: Lithium
  id: b73562207f97a71b6967473b66fe8b65
  Z: 3.0
  valence: 1
  core: 2
  charge: 0.0
  file: /home/modules/software/GPAW-setups/0.9.20000/Li.LDA.gz
  compensation charges: gauss, rc=0.33, lmax=2
  cutoffs: 1.91(filt), 2.55(core),
  valence states:
                energy  radius
    2s(1.00)    -2.874   1.058
    2p(0.00)    -1.126   1.058
    *s          24.338   1.058

  Using partial waves for Li as LCAO basis

Reference energy: -196157.275402

Spin-polarized calculation.
Magnetic moment: 0.000000

Convergence criteria:
  Maximum total energy change: 0.0005 eV / electron
  Maximum integral of absolute density change: 0.0001 electrons
  Maximum integral of absolute eigenstate change: 4e-08 eV^2
  Maximum change in atomic force: 1e-06 eV / Ang
  Maximum number of iterations: 333

Symmetries present (total): 1

  ( 1  0  0)
  ( 0  1  0)
  ( 0  0  1)

144 k-points: 6 x 6 x 4 Monkhorst-Pack grid
144 k-points in the irreducible part of the Brillouin zone
       k-points in crystal coordinates                weights
   0:    -0.41666667   -0.41666667   -0.37500000          1/144
   1:    -0.41666667   -0.41666667   -0.12500000          1/144
   2:    -0.41666667   -0.41666667    0.12500000          1/144
   3:    -0.41666667   -0.41666667    0.37500000          1/144
   4:    -0.41666667   -0.25000000   -0.37500000          1/144
   5:    -0.41666667   -0.25000000   -0.12500000          1/144
   6:    -0.41666667   -0.25000000    0.12500000          1/144
   7:    -0.41666667   -0.25000000    0.37500000          1/144
   8:    -0.41666667   -0.08333333   -0.37500000          1/144
   9:    -0.41666667   -0.08333333   -0.12500000          1/144
          ...
 143:     0.41666667    0.41666667    0.37500000          1/144

Wave functions: Plane wave expansion
  Cutoff energy: 600.000 eV
  Number of coefficients (min, max): 9132, 9161
  Pulay-stress correction: 0.000000 eV/Ang^3 (de/decut=0.000000)
  Using FFTW library
  ScaLapack parameters: grid=1x1, blocksize=None
  Wavefunction extrapolation:
    Improved wavefunction reuse through dual PAW basis 

  Fermi-Dirac: width=0.0010 eV

Eigensolver
   Davidson(niter=2, smin=None, normalize=True) 

Densities:
  Coarse grid: 60*35*27 grid
  Fine grid: 120*70*54 grid
  Total Charge: 0.000000 

Density mixing:
  Method: difference
  Backend: pulay
  Linear mixing parameter: 0.05
  Mixing with 5 old densities
  Damping of long wave oscillations: 50 

Hamiltonian:
  XC and Coulomb potentials evaluated on a 120*70*54 grid
  Using the LDA Exchange-Correlation functional
 

Memory estimate:
  Process memory now: 13458.79 MiB
  Calculator: 322.47 MiB
    Density: 9.62 MiB
      Arrays: 3.79 MiB
      Localized functions: 4.27 MiB
      Mixer: 1.56 MiB
    Hamiltonian: 2.94 MiB
      Arrays: 2.82 MiB
      XC: 0.00 MiB
      Poisson: 0.00 MiB
      vbar: 0.12 MiB
    Wavefunctions: 309.91 MiB
      Arrays psit_nG: 281.81 MiB
      Eigensolver: 18.27 MiB
      Projections: 2.71 MiB
      Projectors: 4.40 MiB
      PW-descriptor: 2.71 MiB

Total number of cores used: 64
Parallelization over k-points: 16
Domain decomposition: 2 x 2 x 1

Number of atoms: 28
Number of atomic orbitals: 148
Number of bands in calculation: 112
Number of valence electrons: 180
Bands to converge: occupied

... initialized

Initializing position-dependent things.

Density initialized from atomic densities
Creating initial wave functions:
  112 bands from LCAO basis set

                                           
                                           
                                           
                                           
                                           
               O     O  P  O               
            PO           OMn     O         
                  O          MO            
            O        Li O                  
             Mn  Mn          OP            
         O       O Li O                    
         Li     O P         O              
       Li                                  
                                           
                                           
                                           
                                           

Positions:
   0 O     -1.280122   -2.495595   -1.112331    ( 0.0000,  0.0000,  0.0000)
   1 O     -3.023238    2.918858    1.191723    ( 0.0000,  0.0000,  0.0000)
   2 O      1.997451    0.467212    1.441442    ( 0.0000,  0.0000,  0.0000)
   3 O      3.740343   -0.043905   -0.862614    ( 0.0000,  0.0000,  0.0000)
   4 O      1.997419    2.918835    1.441465    ( 0.0000,  0.0000,  0.0000)
   5 O      3.740372   -2.495531   -0.862587    ( 0.0000,  0.0000,  0.0000)
   6 O     -1.280154   -0.043891   -1.112309    ( 0.0000,  0.0000,  0.0000)
   7 O     -3.023210    0.467136    1.191750    ( 0.0000,  0.0000,  0.0000)
   8 O     -4.147405   -1.269737   -0.856207    ( 0.0000,  0.0000,  0.0000)
   9 O     -0.155894    1.692986    1.447725    ( 0.0000,  0.0000,  0.0000)
  10 O      4.864578    1.693016    1.185324    ( 0.0000,  0.0000,  0.0000)
  11 O      0.873163   -1.269706   -1.118625    ( 0.0000,  0.0000,  0.0000)
  12 Mn    -2.437108   -1.269902    0.302197    ( 0.0000,  0.0000,  1.0000)
  13 Mn    -1.866187    1.693156   -2.001927    ( 0.0000,  0.0000, -1.0000)
  14 Mn     3.154299    1.693181    0.026917    ( 0.0000,  0.0000, -1.0000)
  15 Mn     2.583444   -1.269877    2.331074    ( 0.0000,  0.0000,  1.0000)
  16 P     -0.543052   -1.269720   -1.734187    ( 0.0000,  0.0000,  0.0000)
  17 P     -3.760282    1.692974    0.569859    ( 0.0000,  0.0000,  0.0000)
  18 P      1.260300    1.693000    2.063344    ( 0.0000,  0.0000,  0.0000)
  19 P      4.477470   -1.269695   -0.240696    ( 0.0000,  0.0000,  0.0000)
  20 O     -0.554413   -1.269738    1.348523    ( 0.0000,  0.0000,  0.0000)
  21 O     -3.758895    1.692992   -0.955558    ( 0.0000,  0.0000,  0.0000)
  22 O      1.261690    1.693018   -1.019367    ( 0.0000,  0.0000,  0.0000)
  23 O      4.476045   -1.269713    1.284716    ( 0.0000,  0.0000,  0.0000)
  24 Li    -4.662027   -2.751322   -2.139440    ( 0.0000,  0.0000,  0.0000)
  25 Li     0.358703   -2.751277    0.164614    ( 0.0000,  0.0000,  0.0000)
  26 Li    -4.662011    0.211617   -2.139439    ( 0.0000,  0.0000,  0.0000)
  27 Li     0.358720    0.211628    0.164615    ( 0.0000,  0.0000,  0.0000)

Unit cell:
           periodic     x           y           z      points  spacing
  1. axis:    yes   10.041096    0.000054   -0.000022    60     0.1674
  2. axis:    yes    0.000032    5.925857    0.000001    35     0.1693
  3. axis:    yes   -0.000010    0.000001    4.608134    27     0.1707

  Lengths:  10.041096   5.925857   4.608134
  Angles:   89.999974  90.000250  89.999381

Effective grid spacing dv^(1/3) = 0.1691

                     log10-error:           total        iterations:
           time      wfs    density  force  energy       poisson  magmom
iter:   1  14:02:10                       -233.733265             +0.0000
iter:   2  14:02:30  -0.47  -0.95         -231.552553             +0.0022
iter:   3  14:02:49  -0.61  -1.00         -220.811677             +0.0023
iter:   4  14:03:09  -1.20  -1.31         -220.947267             +0.3104
iter:   5  14:03:29  -2.06  -1.39         -222.742578             +0.1679
iter:   6  14:03:49  -2.16  -1.39         -224.845164             +0.1302
iter:   7  14:04:09  -2.12  -1.47         -223.921327             +0.5861
iter:   8  14:04:28  -2.39  -1.60         -225.210046             +1.1503
iter:   9  14:04:48  -2.54  -1.89         -226.262258             +0.4415
iter:  10  14:05:08  -2.21  -2.00         -226.357913             -0.0097
iter:  11  14:05:27  -2.60  -2.10         -226.310423             +0.0098
iter:  12  14:05:47  -2.62  -2.17         -226.212773             -0.0024
iter:  13  14:06:07  -3.79  -2.80         -226.201476             +0.0012
iter:  14  14:06:26  -3.64  -2.84         -226.178900             +0.0006
iter:  15  14:06:46  -4.05  -2.97         -226.176566             +0.0002
iter:  16  14:07:06  -4.02  -3.04         -226.175978             +0.0004
iter:  17  14:07:25  -5.14  -3.39         -226.175908             +0.0000
iter:  18  14:07:45  -5.35  -3.43         -226.175446             +0.0000
iter:  19  14:08:05  -5.01  -3.61         -226.175235             +0.0000
iter:  20  14:08:24  -5.44  -3.71         -226.175151             +0.0000
iter:  21  14:08:44  -5.82  -3.82         -226.175139             +0.0000
iter:  22  14:09:04  -5.79  -3.90         -226.175105             -0.0000
iter:  23  14:09:23  -6.32  -4.05         -226.175051             +0.0000
iter:  24  14:09:43  -6.72  -4.16         -226.175029             +0.0000
iter:  25  14:10:03  -6.09  -4.19         -226.175018             +0.0000
iter:  26  14:10:22  -6.95  -4.30         -226.175017             +0.0000
iter:  27  14:10:42  -6.74  -4.36         -226.175013             +0.0000
iter:  28  14:11:02  -7.29  -4.49         -226.175014             +0.0000
iter:  29  14:11:26  -7.72  -4.60         -226.175015             +0.0000
iter:  30  14:11:46  -6.91  -4.70         -226.175012             +0.0000
iter:  31  14:12:10  -8.06  -5.22    -2.38-226.175012             +0.0000
iter:  32  14:12:34  -8.35  -5.46    -3.06-226.175012             +0.0000
iter:  33  14:12:59  -9.24  -5.52    -3.34-226.175012             +0.0000
iter:  34  14:13:23  -9.02  -5.61    -3.50-226.175012             +0.0000
iter:  35  14:13:47  -9.44  -5.80    -3.80-226.175012             +0.0000
iter:  36  14:14:12  -9.84  -5.86    -3.52-226.175012             +0.0000
iter:  37  14:14:36 -10.47  -5.94    -4.53-226.175012             +0.0000
iter:  38  14:15:00 -10.01  -5.97    -3.72-226.175012             -0.0000
iter:  39  14:15:25 -10.52  -6.23    -3.97-226.175012             -0.0000
iter:  40  14:15:49 -11.04  -6.41    -4.35-226.175012             -0.0000
iter:  41  14:16:13 -11.30  -6.46    -4.60-226.175012             -0.0000
iter:  42  14:16:37 -11.15  -6.51    -4.50-226.175012             -0.0000
iter:  43  14:17:02 -11.90  -6.61    -5.12-226.175012             -0.0000
iter:  44  14:17:26 -11.60  -6.67    -4.41-226.175012             -0.0000
iter:  45  14:17:50 -11.61  -6.77    -4.20-226.175012             -0.0000
iter:  46  14:18:15 -12.16  -7.21    -5.10-226.175012             -0.0000
iter:  47  14:18:39 -13.06  -7.27    -5.41-226.175012             -0.0000
iter:  48  14:19:03 -12.92  -7.32    -4.90-226.175012             +0.0000
iter:  49  14:19:28 -12.96  -7.60    -5.22-226.175012             +0.0000
iter:  50  14:19:52 -13.85  -7.84    -5.84-226.175012             +0.0000
iter:  51  14:20:16 -13.89  -7.88    -5.96-226.175012             +0.0000
iter:  52  14:20:40 -13.55  -8.00    -5.66-226.175012             +0.0000
iter:  53  14:21:05 -14.23  -8.09    -5.73-226.175012             +0.0000
iter:  54  14:21:29 -14.38  -8.29    -6.08-226.175012             -0.0000

Converged after 54 iterations.

Dipole moment: (18.112519, -2.305029, -4.525147) |e|*Ang

Total magnetic moment: (0.000000, 0.000000, -0.000000)
Local magnetic moments:
   0 O  ( 0.000000,  0.000000, -0.001816)
   1 O  ( 0.000000,  0.000000,  0.001863)
   2 O  ( 0.000000,  0.000000,  0.001870)
   3 O  ( 0.000000,  0.000000, -0.001797)
   4 O  ( 0.000000,  0.000000,  0.001865)
   5 O  ( 0.000000,  0.000000, -0.001791)
   6 O  ( 0.000000,  0.000000, -0.001821)
   7 O  ( 0.000000,  0.000000,  0.001868)
   8 O  ( 0.000000,  0.000000,  0.030912)
   9 O  ( 0.000000,  0.000000, -0.031012)
  10 O  ( 0.000000,  0.000000, -0.031143)
  11 O  ( 0.000000,  0.000000,  0.031144)
  12 Mn ( 0.000000,  0.000000,  4.395207)
  13 Mn ( 0.000000,  0.000000, -4.395697)
  14 Mn ( 0.000000,  0.000000, -4.395696)
  15 Mn ( 0.000000,  0.000000,  4.395635)
  16 P  ( 0.000000,  0.000000,  0.001119)
  17 P  ( 0.000000,  0.000000, -0.000828)
  18 P  ( 0.000000,  0.000000, -0.000879)
  19 P  ( 0.000000,  0.000000,  0.000880)
  20 O  ( 0.000000,  0.000000,  0.028459)
  21 O  ( 0.000000,  0.000000, -0.028422)
  22 O  ( 0.000000,  0.000000, -0.028410)
  23 O  ( 0.000000,  0.000000,  0.028452)
  24 Li ( 0.000000,  0.000000,  0.000000)
  25 Li ( 0.000000,  0.000000,  0.000003)
  26 Li ( 0.000000,  0.000000,  0.000000)
  27 Li ( 0.000000,  0.000000,  0.000003)

Energy contributions relative to reference atoms: (reference = -196157.275402)

Kinetic:       +277.722656
Potential:     -241.048317
External:        +0.000000
XC:            -264.737300
Entropy (-ST):   -0.000000
Local:           +1.887949
--------------------------
Free energy:   -226.175012
Extrapolated:  -226.175012

Spin contamination: 9.455070 electrons
Showing only first 2 kpts
                      Up                     Down
 Kpt  Band  Eigenvalues  Occupancy  Eigenvalues  Occupancy
  0    88      6.53324    0.00694      6.53188    0.00694
  0    89      6.57527    0.00694      6.56560    0.00694
  0    90      8.42708    0.00000      8.42850    0.00000
  0    91      8.45092    0.00000      8.45426    0.00000

  1    88      6.57076    0.00694      6.57036    0.00694
  1    89      6.60961    0.00694      6.59743    0.00694
  1    90      8.38350    0.00000      8.38426    0.00000
  1    91      8.40763    0.00000      8.41025    0.00000


Fermi level: 7.84612

Gap: 1.691 eV
Transition (v -> c):
  (s=0, k=49, n=89, [-0.08, -0.42, -0.12]) -> (s=0, k=61, n=90, [-0.08, 0.08, -0.12])
Writing to born-0.01-20x-.gpw (mode='all')

Timing:                              incl.     excl.
-----------------------------------------------------------
Hamiltonian:                         0.226     0.002   0.0% |
 Atomic:                             0.067     0.067   0.0% |
  XC Correction:                     0.000     0.000   0.0% |
 Calculate atomic Hamiltonians:      0.072     0.072   0.0% |
 Communicate:                        0.002     0.002   0.0% |
 Initialize Hamiltonian:             0.000     0.000   0.0% |
 Poisson:                            0.001     0.001   0.0% |
 XC 3D grid:                         0.083     0.083   0.0% |
LCAO initialization:                68.804     0.647   0.0% |
 LCAO eigensolver:                  19.598     0.002   0.0% |
  Calculate projections:             0.029     0.029   0.0% |
  DenseAtomicCorrection:             0.045     0.045   0.0% |
  Distribute overlap matrix:         0.050     0.050   0.0% |
  Orbital Layouts:                   0.432     0.432   0.0% |
  Potential matrix:                 18.952    18.952   0.6% |
  Sum over cells:                    0.087     0.087   0.0% |
 LCAO to grid:                      47.216    47.216   1.5% ||
 Set positions (LCAO WFS):           1.343     0.197   0.0% |
  Basic WFS set positions:           0.001     0.001   0.0% |
  Basis functions set positions:     0.000     0.000   0.0% |
  P tci:                             0.521     0.521   0.0% |
  ST tci:                            0.377     0.377   0.0% |
  mktci:                             0.246     0.246   0.0% |
PWDescriptor:                        0.023     0.023   0.0% |
SCF-cycle:                        1181.775     2.653   0.1% |
 Davidson:                        1008.203   309.183   9.8% |---|
  Apply H:                          70.060    68.067   2.2% ||
   HMM T:                            1.993     1.993   0.1% |
  Subspace diag:                   146.175     0.152   0.0% |
   calc_h_matrix:                   93.932    24.315   0.8% |
    Apply H:                        69.617    67.615   2.2% ||
     HMM T:                          2.002     2.002   0.1% |
   diagonalize:                      7.354     7.354   0.2% |
   rotate_psi:                      44.737    44.737   1.4% ||
  calc. matrices:                  301.489   164.780   5.2% |-|
   Apply H:                        136.709   133.037   4.2% |-|
    HMM T:                           3.673     3.673   0.1% |
  diagonalize:                      84.542    84.542   2.7% ||
  rotate_psi:                       96.753    96.753   3.1% ||
 Density:                           40.852     0.001   0.0% |
  Atomic density matrices:           0.800     0.800   0.0% |
  Mix:                               5.508     5.508   0.2% |
  Multipole moments:                 0.019     0.019   0.0% |
  Pseudo density:                   34.523    34.521   1.1% |
   Symmetrize density:               0.002     0.002   0.0% |
 Forces:                           116.470   116.470   3.7% ||
 Hamiltonian:                       11.540     0.120   0.0% |
  Atomic:                            2.876     2.876   0.1% |
   XC Correction:                    0.000     0.000   0.0% |
  Calculate atomic Hamiltonians:     3.888     3.888   0.1% |
  Communicate:                       0.086     0.086   0.0% |
  Poisson:                           0.032     0.032   0.0% |
  XC 3D grid:                        4.537     4.537   0.1% |
 Orthonormalize:                     2.058     0.003   0.0% |
  calc_s_matrix:                     0.242     0.242   0.0% |
  inverse-cholesky:                  0.073     0.073   0.0% |
  projections:                       1.312     1.312   0.0% |
  rotate_psi_s:                      0.429     0.429   0.0% |
Set symmetry:                        0.000     0.000   0.0% |
Other:                            1892.582  1892.582  60.2% |-----------------------|
-----------------------------------------------------------
Total:                                      3143.410 100.0%

Memory usage: 13.16 GiB
Date: Thu Mar 25 14:53:01 2021
