
  ___ ___ ___ _ _ _  
 |   |   |_  | | | | 
 | | | | | . | | | | 
 |__ |  _|___|_____|  20.10.1b1
 |___|_|             

User:   madkru@i008.nifl.fysik.dtu.dk
Date:   Thu Mar 25 17:07:08 2021
Arch:   x86_64
Pid:    26969
Python: 3.7.4
gpaw:   /home/niflheim/madkru/venv_folder/gpaw/gpaw (d224efde0f)
_gpaw:  /home/niflheim/madkru/venv_folder/gpaw/build/lib.linux-x86_64-ivybridge-3.7/
        _gpaw.cpython-37m-x86_64-linux-gnu.so (4fd39e8b1e)
ase:    /home/niflheim/madkru/venv_folder/ase/ase (version 3.21.0b1-4d5a73cb29)
numpy:  /home/niflheim/madkru/venv_folder/lib/python3.7/site-packages/numpy (version 1.19.4)
scipy:  /home/niflheim/madkru/venv_folder/lib/python3.7/site-packages/scipy (version 1.5.4)
libxc:  4.3.4
units:  Angstrom and eV
cores: 64
OMP_NUM_THREADS: 1

Input parameters:
  convergence: {bands: occupied,
                density: 0.0001,
                eigenstates: 4e-08,
                energy: 0.0005,
                forces: 1e-06}
  kpts: [6 6 4]
  mode: {ecut: 600.0,
         gammacentered: False,
         name: pw}
  occupations: {fixmagmom: False,
                name: fermi-dirac,
                width: 0.001}
  symmetry: {point_group: False,
             time_reversal: False}

System changes: positions, numbers, cell, pbc, initial_charges, initial_magmoms 

Initialize ...

O-setup:
  name: Oxygen
  id: 9b9d51c344dea68c822856295a461509
  Z: 8.0
  valence: 6
  core: 2
  charge: 0.0
  file: /home/modules/software/GPAW-setups/0.9.20000/O.LDA.gz
  compensation charges: gauss, rc=0.21, lmax=2
  cutoffs: 1.17(filt), 0.83(core),
  valence states:
                energy  radius
    2s(2.00)   -23.752   0.688
    2p(4.00)    -9.195   0.598
    *s           3.459   0.688
    *p          18.016   0.598
    *d           0.000   0.619

  Using partial waves for O as LCAO basis

Mn-setup:
  name: Manganese
  id: 0d715a8018be061a6e9ea6f2d364ac92
  Z: 25.0
  valence: 15
  core: 10
  charge: 0.0
  file: /home/modules/software/GPAW-setups/0.9.20000/Mn.LDA.gz
  compensation charges: gauss, rc=0.38, lmax=2
  cutoffs: 2.14(filt), 0.86(core),
  valence states:
                energy  radius
    3s(2.00)   -85.387   1.275
    4s(2.00)    -5.282   1.275
    3p(6.00)   -54.493   1.281
    4p(0.00)    -1.471   1.281
    3d(5.00)    -7.009   1.138
    *d          20.203   1.138

  Using partial waves for Mn as LCAO basis

P-setup:
  name: Phosphorus
  id: a5561c299094968922a179ab894d2e2d
  Z: 15.0
  valence: 5
  core: 10
  charge: 0.0
  file: /home/modules/software/GPAW-setups/0.9.20000/P.LDA.gz
  compensation charges: gauss, rc=0.30, lmax=2
  cutoffs: 1.69(filt), 1.81(core),
  valence states:
                energy  radius
    3s(2.00)   -14.015   0.953
    3p(3.00)    -5.596   0.953
    *s          13.197   0.953
    *p          21.615   0.953
    *d           0.000   0.953

  Using partial waves for P as LCAO basis

Li-setup:
  name: Lithium
  id: b73562207f97a71b6967473b66fe8b65
  Z: 3.0
  valence: 1
  core: 2
  charge: 0.0
  file: /home/modules/software/GPAW-setups/0.9.20000/Li.LDA.gz
  compensation charges: gauss, rc=0.33, lmax=2
  cutoffs: 1.91(filt), 2.55(core),
  valence states:
                energy  radius
    2s(1.00)    -2.874   1.058
    2p(0.00)    -1.126   1.058
    *s          24.338   1.058

  Using partial waves for Li as LCAO basis

Reference energy: -196157.275402

Spin-polarized calculation.
Magnetic moment: 0.000000

Convergence criteria:
  Maximum total energy change: 0.0005 eV / electron
  Maximum integral of absolute density change: 0.0001 electrons
  Maximum integral of absolute eigenstate change: 4e-08 eV^2
  Maximum change in atomic force: 1e-06 eV / Ang
  Maximum number of iterations: 333

Symmetries present (total): 1

  ( 1  0  0)
  ( 0  1  0)
  ( 0  0  1)

144 k-points: 6 x 6 x 4 Monkhorst-Pack grid
144 k-points in the irreducible part of the Brillouin zone
       k-points in crystal coordinates                weights
   0:    -0.41666667   -0.41666667   -0.37500000          1/144
   1:    -0.41666667   -0.41666667   -0.12500000          1/144
   2:    -0.41666667   -0.41666667    0.12500000          1/144
   3:    -0.41666667   -0.41666667    0.37500000          1/144
   4:    -0.41666667   -0.25000000   -0.37500000          1/144
   5:    -0.41666667   -0.25000000   -0.12500000          1/144
   6:    -0.41666667   -0.25000000    0.12500000          1/144
   7:    -0.41666667   -0.25000000    0.37500000          1/144
   8:    -0.41666667   -0.08333333   -0.37500000          1/144
   9:    -0.41666667   -0.08333333   -0.12500000          1/144
          ...
 143:     0.41666667    0.41666667    0.37500000          1/144

Wave functions: Plane wave expansion
  Cutoff energy: 600.000 eV
  Number of coefficients (min, max): 9132, 9161
  Pulay-stress correction: 0.000000 eV/Ang^3 (de/decut=0.000000)
  Using FFTW library
  ScaLapack parameters: grid=1x1, blocksize=None
  Wavefunction extrapolation:
    Improved wavefunction reuse through dual PAW basis 

  Fermi-Dirac: width=0.0010 eV

Eigensolver
   Davidson(niter=2, smin=None, normalize=True) 

Densities:
  Coarse grid: 60*35*27 grid
  Fine grid: 120*70*54 grid
  Total Charge: 0.000000 

Density mixing:
  Method: difference
  Backend: pulay
  Linear mixing parameter: 0.05
  Mixing with 5 old densities
  Damping of long wave oscillations: 50 

Hamiltonian:
  XC and Coulomb potentials evaluated on a 120*70*54 grid
  Using the LDA Exchange-Correlation functional
 

Memory estimate:
  Process memory now: 13623.46 MiB
  Calculator: 322.47 MiB
    Density: 9.62 MiB
      Arrays: 3.79 MiB
      Localized functions: 4.27 MiB
      Mixer: 1.56 MiB
    Hamiltonian: 2.94 MiB
      Arrays: 2.82 MiB
      XC: 0.00 MiB
      Poisson: 0.00 MiB
      vbar: 0.12 MiB
    Wavefunctions: 309.91 MiB
      Arrays psit_nG: 281.81 MiB
      Eigensolver: 18.27 MiB
      Projections: 2.71 MiB
      Projectors: 4.40 MiB
      PW-descriptor: 2.71 MiB

Total number of cores used: 64
Parallelization over k-points: 16
Domain decomposition: 2 x 2 x 1

Number of atoms: 28
Number of atomic orbitals: 148
Number of bands in calculation: 112
Number of valence electrons: 180
Bands to converge: occupied

... initialized

Initializing position-dependent things.

Density initialized from atomic densities
Creating initial wave functions:
  112 bands from LCAO basis set

                                           
                                           
                                           
                                           
                                           
               O     O  P  O               
            PO           OMn     O         
                  O          MO            
            O        Li O                  
             Mn  Mn          OP            
         O       O Li O                    
         Li     O P         O              
       Li                                  
                                           
                                           
                                           
                                           

Positions:
   0 O     -1.280122   -2.495595   -1.112331    ( 0.0000,  0.0000,  0.0000)
   1 O     -3.023238    2.918858    1.191723    ( 0.0000,  0.0000,  0.0000)
   2 O      1.997451    0.467212    1.441442    ( 0.0000,  0.0000,  0.0000)
   3 O      3.740343   -0.043905   -0.862614    ( 0.0000,  0.0000,  0.0000)
   4 O      1.997419    2.918835    1.441465    ( 0.0000,  0.0000,  0.0000)
   5 O      3.740372   -2.495531   -0.862587    ( 0.0000,  0.0000,  0.0000)
   6 O     -1.280154   -0.043891   -1.112309    ( 0.0000,  0.0000,  0.0000)
   7 O     -3.023210    0.467136    1.191750    ( 0.0000,  0.0000,  0.0000)
   8 O     -4.147405   -1.269737   -0.856207    ( 0.0000,  0.0000,  0.0000)
   9 O     -0.155894    1.692986    1.447725    ( 0.0000,  0.0000,  0.0000)
  10 O      4.864578    1.693016    1.185324    ( 0.0000,  0.0000,  0.0000)
  11 O      0.873163   -1.269706   -1.118625    ( 0.0000,  0.0000,  0.0000)
  12 Mn    -2.437108   -1.269902    0.302197    ( 0.0000,  0.0000,  1.0000)
  13 Mn    -1.866187    1.693156   -2.001927    ( 0.0000,  0.0000, -1.0000)
  14 Mn     3.154299    1.693181    0.026917    ( 0.0000,  0.0000, -1.0000)
  15 Mn     2.583444   -1.269877    2.331074    ( 0.0000,  0.0000,  1.0000)
  16 P     -0.543052   -1.269720   -1.734187    ( 0.0000,  0.0000,  0.0000)
  17 P     -3.760282    1.692974    0.569859    ( 0.0000,  0.0000,  0.0000)
  18 P      1.260300    1.693000    2.063344    ( 0.0000,  0.0000,  0.0000)
  19 P      4.477470   -1.269695   -0.240696    ( 0.0000,  0.0000,  0.0000)
  20 O     -0.544413   -1.269738    1.348523    ( 0.0000,  0.0000,  0.0000)
  21 O     -3.768895    1.692992   -0.955558    ( 0.0000,  0.0000,  0.0000)
  22 O      1.261690    1.693018   -1.019367    ( 0.0000,  0.0000,  0.0000)
  23 O      4.476045   -1.269713    1.284716    ( 0.0000,  0.0000,  0.0000)
  24 Li    -4.662027   -2.751322   -2.139440    ( 0.0000,  0.0000,  0.0000)
  25 Li     0.358703   -2.751277    0.164614    ( 0.0000,  0.0000,  0.0000)
  26 Li    -4.662011    0.211617   -2.139439    ( 0.0000,  0.0000,  0.0000)
  27 Li     0.358720    0.211628    0.164615    ( 0.0000,  0.0000,  0.0000)

Unit cell:
           periodic     x           y           z      points  spacing
  1. axis:    yes   10.041096    0.000054   -0.000022    60     0.1674
  2. axis:    yes    0.000032    5.925857    0.000001    35     0.1693
  3. axis:    yes   -0.000010    0.000001    4.608134    27     0.1707

  Lengths:  10.041096   5.925857   4.608134
  Angles:   89.999974  90.000250  89.999381

Effective grid spacing dv^(1/3) = 0.1691

                     log10-error:           total        iterations:
           time      wfs    density  force  energy       poisson  magmom
iter:   1  17:08:44                       -233.727066             +0.0000
iter:   2  17:09:04  -0.47  -0.95         -231.547296             +0.0018
iter:   3  17:09:24  -0.61  -1.00         -220.791377             +0.0019
iter:   4  17:09:44  -1.17  -1.31         -220.800494             +0.2400
iter:   5  17:10:03  -2.05  -1.40         -222.978326             +0.1209
iter:   6  17:10:23  -2.09  -1.38         -224.751160             +0.3283
iter:   7  17:10:43  -2.03  -1.46         -223.604169             +0.3692
iter:   8  17:11:02  -2.31  -1.61         -224.733440             +0.4684
iter:   9  17:11:22  -2.43  -1.90         -226.328219             +0.0028
iter:  10  17:11:42  -2.48  -1.98         -226.527050             -0.0755
iter:  11  17:12:02  -2.30  -2.01         -226.392381             -0.0202
iter:  12  17:12:21  -3.27  -2.12         -226.320736             -0.0208
iter:  13  17:12:41  -2.34  -2.18         -226.232491             -0.0062
iter:  14  17:13:01  -3.85  -2.61         -226.205660             -0.0049
iter:  15  17:13:20  -3.40  -2.66         -226.178832             -0.0009
iter:  16  17:13:40  -3.77  -2.82         -226.179373             -0.0004
iter:  17  17:14:00  -4.53  -2.96         -226.180501             -0.0003
iter:  18  17:14:19  -4.68  -3.00         -226.176516             -0.0002
iter:  19  17:14:39  -4.11  -3.10         -226.175879             -0.0000
iter:  20  17:14:59  -5.07  -3.47         -226.175252             -0.0000
iter:  21  17:15:18  -6.42  -3.51         -226.175198             -0.0000
iter:  22  17:15:38  -5.35  -3.53         -226.175091             +0.0000
iter:  23  17:15:58  -6.00  -3.68         -226.175069             -0.0000
iter:  24  17:16:17  -6.21  -3.73         -226.175040             -0.0000
iter:  25  17:16:37  -6.37  -3.95         -226.175032             -0.0000
iter:  26  17:16:57  -6.75  -4.09         -226.175030             -0.0000
iter:  27  17:17:16  -6.69  -4.15         -226.175029             -0.0000
iter:  28  17:17:36  -6.73  -4.25         -226.175044             -0.0000
iter:  29  17:17:56  -7.36  -4.33         -226.175029             -0.0000
iter:  30  17:18:15  -6.23  -4.39         -226.175013             -0.0000
iter:  31  17:18:40  -7.60  -4.75         -226.175011             -0.0000
iter:  32  17:18:59  -7.36  -4.86         -226.175012             -0.0000
iter:  33  17:19:24  -8.04  -5.01    -2.71-226.175011             -0.0000
iter:  34  17:19:48  -8.90  -5.23    -3.38-226.175011             -0.0000
iter:  35  17:20:13  -8.72  -5.27    -3.19-226.175011             +0.0000
iter:  36  17:20:37  -8.96  -5.36    -3.18-226.175011             +0.0000
iter:  37  17:21:01  -9.35  -5.45    -3.48-226.175011             +0.0000
iter:  38  17:21:26  -9.41  -5.47    -3.74-226.175011             -0.0000
iter:  39  17:21:50  -9.11  -5.49    -3.41-226.175011             +0.0000
iter:  40  17:22:14  -9.75  -5.60    -3.78-226.175011             -0.0000
iter:  41  17:22:39  -9.21  -5.64    -3.42-226.175011             -0.0000
iter:  42  17:23:03  -9.69  -5.92    -3.75-226.175011             -0.0000
iter:  43  17:23:27 -10.71  -6.14    -4.37-226.175011             -0.0000
iter:  44  17:23:52  -9.71  -6.18    -3.79-226.175011             -0.0000
iter:  45  17:24:16 -10.77  -6.43    -4.26-226.175011             -0.0000
iter:  46  17:24:40 -10.67  -6.57    -4.21-226.175011             -0.0000
iter:  47  17:25:05 -11.16  -6.66    -4.40-226.175011             -0.0000
iter:  48  17:25:29 -11.17  -6.82    -4.39-226.175011             -0.0000
iter:  49  17:25:53 -12.42  -7.09    -5.12-226.175011             -0.0000
iter:  50  17:26:18 -12.05  -7.16    -4.85-226.175011             -0.0000
iter:  51  17:26:42 -12.33  -7.23    -4.82-226.175011             -0.0000
iter:  52  17:27:06 -13.72  -7.66    -5.76-226.175011             -0.0000
iter:  53  17:27:31 -13.53  -7.69    -5.56-226.175011             -0.0000
iter:  54  17:27:55 -13.46  -7.80    -5.46-226.175011             -0.0000
iter:  55  17:28:19 -14.65  -7.93    -6.03-226.175011             -0.0000

Converged after 55 iterations.

Dipole moment: (18.331346, -2.305833, -4.524989) |e|*Ang

Total magnetic moment: (0.000000, 0.000000, -0.000000)
Local magnetic moments:
   0 O  ( 0.000000,  0.000000, -0.001755)
   1 O  ( 0.000000,  0.000000,  0.001800)
   2 O  ( 0.000000,  0.000000,  0.001822)
   3 O  ( 0.000000,  0.000000, -0.001749)
   4 O  ( 0.000000,  0.000000,  0.001817)
   5 O  ( 0.000000,  0.000000, -0.001743)
   6 O  ( 0.000000,  0.000000, -0.001761)
   7 O  ( 0.000000,  0.000000,  0.001805)
   8 O  ( 0.000000,  0.000000,  0.031183)
   9 O  ( 0.000000,  0.000000, -0.031282)
  10 O  ( 0.000000,  0.000000, -0.031050)
  11 O  ( 0.000000,  0.000000,  0.031048)
  12 Mn ( 0.000000,  0.000000,  4.395845)
  13 Mn ( 0.000000,  0.000000, -4.396290)
  14 Mn ( 0.000000,  0.000000, -4.395853)
  15 Mn ( 0.000000,  0.000000,  4.395791)
  16 P  ( 0.000000,  0.000000,  0.000902)
  17 P  ( 0.000000,  0.000000, -0.000621)
  18 P  ( 0.000000,  0.000000, -0.000861)
  19 P  ( 0.000000,  0.000000,  0.000862)
  20 O  ( 0.000000,  0.000000,  0.028411)
  21 O  ( 0.000000,  0.000000, -0.028379)
  22 O  ( 0.000000,  0.000000, -0.028387)
  23 O  ( 0.000000,  0.000000,  0.028429)
  24 Li ( 0.000000,  0.000000,  0.000003)
  25 Li ( 0.000000,  0.000000,  0.000001)
  26 Li ( 0.000000,  0.000000,  0.000003)
  27 Li ( 0.000000,  0.000000,  0.000001)

Energy contributions relative to reference atoms: (reference = -196157.275402)

Kinetic:       +277.523576
Potential:     -240.883334
External:        +0.000000
XC:            -264.704208
Entropy (-ST):   -0.000000
Local:           +1.888957
--------------------------
Free energy:   -226.175011
Extrapolated:  -226.175011

Spin contamination: 9.455544 electrons
Showing only first 2 kpts
                      Up                     Down
 Kpt  Band  Eigenvalues  Occupancy  Eigenvalues  Occupancy
  0    88      6.52893    0.00694      6.51928    0.00694
  0    89      6.56280    0.00694      6.56148    0.00694
  0    90      8.42065    0.00000      8.42423    0.00000
  0    91      8.44638    0.00000      8.44815    0.00000

  1    88      6.56750    0.00694      6.55523    0.00694
  1    89      6.59468    0.00694      6.59451    0.00694
  1    90      8.37792    0.00000      8.38065    0.00000
  1    91      8.40398    0.00000      8.40496    0.00000


Fermi level: 7.73178

Gap: 1.696 eV
Transition (v -> c):
  (s=0, k=50, n=89, [-0.08, -0.42, 0.12]) -> (s=0, k=58, n=90, [-0.08, -0.08, 0.12])
Writing to born-0.01-21x-.gpw (mode='all')

Timing:                              incl.     excl.
-----------------------------------------------------------
Hamiltonian:                         0.219     0.002   0.0% |
 Atomic:                             0.056     0.056   0.0% |
  XC Correction:                     0.000     0.000   0.0% |
 Calculate atomic Hamiltonians:      0.075     0.075   0.0% |
 Communicate:                        0.002     0.002   0.0% |
 Initialize Hamiltonian:             0.000     0.000   0.0% |
 Poisson:                            0.001     0.001   0.0% |
 XC 3D grid:                         0.083     0.083   0.0% |
LCAO initialization:                70.561     0.673   0.0% |
 LCAO eigensolver:                  19.623     0.002   0.0% |
  Calculate projections:             0.029     0.029   0.0% |
  DenseAtomicCorrection:             0.045     0.045   0.0% |
  Distribute overlap matrix:         0.041     0.041   0.0% |
  Orbital Layouts:                   0.430     0.430   0.0% |
  Potential matrix:                 18.987    18.987   0.6% |
  Sum over cells:                    0.088     0.088   0.0% |
 LCAO to grid:                      48.958    48.958   1.5% ||
 Set positions (LCAO WFS):           1.307     0.192   0.0% |
  Basic WFS set positions:           0.001     0.001   0.0% |
  Basis functions set positions:     0.000     0.000   0.0% |
  P tci:                             0.519     0.519   0.0% |
  ST tci:                            0.380     0.380   0.0% |
  mktci:                             0.215     0.215   0.0% |
PWDescriptor:                        0.024     0.024   0.0% |
SCF-cycle:                        1199.580     4.392   0.1% |
 Davidson:                        1028.062   314.902   9.7% |---|
  Apply H:                          71.418    69.339   2.1% ||
   HMM T:                            2.079     2.079   0.1% |
  Subspace diag:                   149.192     0.155   0.0% |
   calc_h_matrix:                   95.973    24.811   0.8% |
    Apply H:                        71.162    69.066   2.1% ||
     HMM T:                          2.096     2.096   0.1% |
   diagonalize:                      7.504     7.504   0.2% |
   rotate_psi:                      45.560    45.560   1.4% ||
  calc. matrices:                  307.557   168.066   5.2% |-|
   Apply H:                        139.491   135.612   4.2% |-|
    HMM T:                           3.879     3.879   0.1% |
  diagonalize:                      86.347    86.347   2.7% ||
  rotate_psi:                       98.644    98.644   3.0% ||
 Density:                           41.362     0.001   0.0% |
  Atomic density matrices:           0.941     0.941   0.0% |
  Mix:                               5.682     5.682   0.2% |
  Multipole moments:                 0.020     0.020   0.0% |
  Pseudo density:                   34.718    34.717   1.1% |
   Symmetrize density:               0.001     0.001   0.0% |
 Forces:                           111.931   111.931   3.5% ||
 Hamiltonian:                       11.771     0.115   0.0% |
  Atomic:                            2.811     2.810   0.1% |
   XC Correction:                    0.000     0.000   0.0% |
  Calculate atomic Hamiltonians:     4.096     4.096   0.1% |
  Communicate:                       0.097     0.097   0.0% |
  Poisson:                           0.033     0.033   0.0% |
  XC 3D grid:                        4.619     4.619   0.1% |
 Orthonormalize:                     2.063     0.003   0.0% |
  calc_s_matrix:                     0.242     0.242   0.0% |
  inverse-cholesky:                  0.074     0.074   0.0% |
  projections:                       1.314     1.314   0.0% |
  rotate_psi_s:                      0.430     0.430   0.0% |
Set symmetry:                        0.000     0.000   0.0% |
Other:                            1969.496  1969.496  60.8% |-----------------------|
-----------------------------------------------------------
Total:                                      3239.880 100.0%

Memory usage: 13.31 GiB
Date: Thu Mar 25 18:01:08 2021
