
  ___ ___ ___ _ _ _  
 |   |   |_  | | | | 
 | | | | | . | | | | 
 |__ |  _|___|_____|  20.10.1b1
 |___|_|             

User:   madkru@i013.nifl.fysik.dtu.dk
Date:   Sun Mar 21 22:41:51 2021
Arch:   x86_64
Pid:    27943
Python: 3.7.4
gpaw:   /home/niflheim/madkru/venv_folder/gpaw/gpaw (d0d1ca1c71)
_gpaw:  /home/niflheim/madkru/venv_folder/gpaw/build/lib.linux-x86_64-ivybridge-3.7/
        _gpaw.cpython-37m-x86_64-linux-gnu.so (4fd39e8b1e)
ase:    /home/niflheim/madkru/venv_folder/ase/ase (version 3.21.0b1-7e6c206a91)
numpy:  /home/niflheim/madkru/venv_folder/lib/python3.7/site-packages/numpy (version 1.19.4)
scipy:  /home/niflheim/madkru/venv_folder/lib/python3.7/site-packages/scipy (version 1.5.4)
libxc:  4.3.4
units:  Angstrom and eV
cores: 32
OMP_NUM_THREADS: 1

Input parameters:
  convergence: {bands: occupied,
                density: 0.0001,
                eigenstates: 4e-08,
                energy: 0.0005,
                forces: 1e-06}
  kpts: [6 6 4]
  mode: {ecut: 600.0,
         gammacentered: False,
         name: pw}
  occupations: {fixmagmom: False,
                name: fermi-dirac,
                width: 0.001}
  symmetry: {point_group: False,
             time_reversal: False}

System changes: positions, numbers, cell, pbc, initial_charges, initial_magmoms 

Initialize ...

O-setup:
  name: Oxygen
  id: 9b9d51c344dea68c822856295a461509
  Z: 8.0
  valence: 6
  core: 2
  charge: 0.0
  file: /home/modules/software/GPAW-setups/0.9.20000/O.LDA.gz
  compensation charges: gauss, rc=0.21, lmax=2
  cutoffs: 1.17(filt), 0.83(core),
  valence states:
                energy  radius
    2s(2.00)   -23.752   0.688
    2p(4.00)    -9.195   0.598
    *s           3.459   0.688
    *p          18.016   0.598
    *d           0.000   0.619

  Using partial waves for O as LCAO basis

Mn-setup:
  name: Manganese
  id: 0d715a8018be061a6e9ea6f2d364ac92
  Z: 25.0
  valence: 15
  core: 10
  charge: 0.0
  file: /home/modules/software/GPAW-setups/0.9.20000/Mn.LDA.gz
  compensation charges: gauss, rc=0.38, lmax=2
  cutoffs: 2.14(filt), 0.86(core),
  valence states:
                energy  radius
    3s(2.00)   -85.387   1.275
    4s(2.00)    -5.282   1.275
    3p(6.00)   -54.493   1.281
    4p(0.00)    -1.471   1.281
    3d(5.00)    -7.009   1.138
    *d          20.203   1.138

  Using partial waves for Mn as LCAO basis

P-setup:
  name: Phosphorus
  id: a5561c299094968922a179ab894d2e2d
  Z: 15.0
  valence: 5
  core: 10
  charge: 0.0
  file: /home/modules/software/GPAW-setups/0.9.20000/P.LDA.gz
  compensation charges: gauss, rc=0.30, lmax=2
  cutoffs: 1.69(filt), 1.81(core),
  valence states:
                energy  radius
    3s(2.00)   -14.015   0.953
    3p(3.00)    -5.596   0.953
    *s          13.197   0.953
    *p          21.615   0.953
    *d           0.000   0.953

  Using partial waves for P as LCAO basis

Li-setup:
  name: Lithium
  id: b73562207f97a71b6967473b66fe8b65
  Z: 3.0
  valence: 1
  core: 2
  charge: 0.0
  file: /home/modules/software/GPAW-setups/0.9.20000/Li.LDA.gz
  compensation charges: gauss, rc=0.33, lmax=2
  cutoffs: 1.91(filt), 2.55(core),
  valence states:
                energy  radius
    2s(1.00)    -2.874   1.058
    2p(0.00)    -1.126   1.058
    *s          24.338   1.058

  Using partial waves for Li as LCAO basis

Reference energy: -196157.275402

Spin-polarized calculation.
Magnetic moment: 0.000000

Convergence criteria:
  Maximum total energy change: 0.0005 eV / electron
  Maximum integral of absolute density change: 0.0001 electrons
  Maximum integral of absolute eigenstate change: 4e-08 eV^2
  Maximum change in atomic force: 1e-06 eV / Ang
  Maximum number of iterations: 333

Symmetries present (total): 1

  ( 1  0  0)
  ( 0  1  0)
  ( 0  0  1)

144 k-points: 6 x 6 x 4 Monkhorst-Pack grid
144 k-points in the irreducible part of the Brillouin zone
       k-points in crystal coordinates                weights
   0:    -0.41666667   -0.41666667   -0.37500000          1/144
   1:    -0.41666667   -0.41666667   -0.12500000          1/144
   2:    -0.41666667   -0.41666667    0.12500000          1/144
   3:    -0.41666667   -0.41666667    0.37500000          1/144
   4:    -0.41666667   -0.25000000   -0.37500000          1/144
   5:    -0.41666667   -0.25000000   -0.12500000          1/144
   6:    -0.41666667   -0.25000000    0.12500000          1/144
   7:    -0.41666667   -0.25000000    0.37500000          1/144
   8:    -0.41666667   -0.08333333   -0.37500000          1/144
   9:    -0.41666667   -0.08333333   -0.12500000          1/144
          ...
 143:     0.41666667    0.41666667    0.37500000          1/144

Wave functions: Plane wave expansion
  Cutoff energy: 600.000 eV
  Number of coefficients (min, max): 9132, 9161
  Pulay-stress correction: 0.000000 eV/Ang^3 (de/decut=0.000000)
  Using FFTW library
  ScaLapack parameters: grid=1x1, blocksize=None
  Wavefunction extrapolation:
    Improved wavefunction reuse through dual PAW basis 

  Fermi-Dirac: width=0.0010 eV

Eigensolver
   Davidson(niter=2, smin=None, normalize=True) 

Densities:
  Coarse grid: 60*35*27 grid
  Fine grid: 120*70*54 grid
  Total Charge: 0.000000 

Density mixing:
  Method: difference
  Backend: pulay
  Linear mixing parameter: 0.05
  Mixing with 5 old densities
  Damping of long wave oscillations: 50 

Hamiltonian:
  XC and Coulomb potentials evaluated on a 120*70*54 grid
  Using the LDA Exchange-Correlation functional
 

Memory estimate:
  Process memory now: 12771.19 MiB
  Calculator: 342.26 MiB
    Density: 19.13 MiB
      Arrays: 7.57 MiB
      Localized functions: 8.54 MiB
      Mixer: 3.03 MiB
    Hamiltonian: 5.87 MiB
      Arrays: 5.62 MiB
      XC: 0.00 MiB
      Poisson: 0.00 MiB
      vbar: 0.25 MiB
    Wavefunctions: 317.25 MiB
      Arrays psit_nG: 281.81 MiB
      Eigensolver: 18.27 MiB
      Projections: 5.41 MiB
      Projectors: 8.81 MiB
      PW-descriptor: 2.95 MiB

Total number of cores used: 32
Parallelization over k-points: 16
Domain decomposition: 2 x 1 x 1

Number of atoms: 28
Number of atomic orbitals: 148
Number of bands in calculation: 112
Number of valence electrons: 180
Bands to converge: occupied

... initialized

Initializing position-dependent things.

Density initialized from atomic densities
Creating initial wave functions:
  112 bands from LCAO basis set

                                           
                                           
                                           
                                           
                                           
               O     O  P  O               
            PO           OMn     O         
                  O          MO            
            O        Li O                  
             Mn  Mn          OP            
         O       O Li O                    
         Li     O P         O              
       Li                                  
                                           
                                           
                                           
                                           

Positions:
   0 O     -1.280122   -2.495595   -1.112331    ( 0.0000,  0.0000,  0.0000)
   1 O     -3.023238    2.918858    1.191723    ( 0.0000,  0.0000,  0.0000)
   2 O      1.997451    0.467212    1.441442    ( 0.0000,  0.0000,  0.0000)
   3 O      3.740343   -0.043905   -0.862614    ( 0.0000,  0.0000,  0.0000)
   4 O      1.987419    2.918835    1.441465    ( 0.0000,  0.0000,  0.0000)
   5 O      3.740372   -2.495531   -0.862587    ( 0.0000,  0.0000,  0.0000)
   6 O     -1.280154   -0.043891   -1.112309    ( 0.0000,  0.0000,  0.0000)
   7 O     -3.023210    0.467136    1.191750    ( 0.0000,  0.0000,  0.0000)
   8 O     -4.147405   -1.269737   -0.856207    ( 0.0000,  0.0000,  0.0000)
   9 O     -0.155894    1.692986    1.447725    ( 0.0000,  0.0000,  0.0000)
  10 O      4.864578    1.693016    1.185324    ( 0.0000,  0.0000,  0.0000)
  11 O      0.873163   -1.269706   -1.118625    ( 0.0000,  0.0000,  0.0000)
  12 Mn    -2.437108   -1.269902    0.302197    ( 0.0000,  0.0000,  1.0000)
  13 Mn    -1.866187    1.693156   -2.001927    ( 0.0000,  0.0000, -1.0000)
  14 Mn     3.154299    1.693181    0.026917    ( 0.0000,  0.0000, -1.0000)
  15 Mn     2.583444   -1.269877    2.331074    ( 0.0000,  0.0000,  1.0000)
  16 P     -0.543052   -1.269720   -1.734187    ( 0.0000,  0.0000,  0.0000)
  17 P     -3.760282    1.692974    0.569859    ( 0.0000,  0.0000,  0.0000)
  18 P      1.260300    1.693000    2.063344    ( 0.0000,  0.0000,  0.0000)
  19 P      4.477470   -1.269695   -0.240696    ( 0.0000,  0.0000,  0.0000)
  20 O     -0.544413   -1.269738    1.348523    ( 0.0000,  0.0000,  0.0000)
  21 O     -3.758895    1.692992   -0.955558    ( 0.0000,  0.0000,  0.0000)
  22 O      1.261690    1.693018   -1.019367    ( 0.0000,  0.0000,  0.0000)
  23 O      4.476045   -1.269713    1.284716    ( 0.0000,  0.0000,  0.0000)
  24 Li    -4.662027   -2.751322   -2.139440    ( 0.0000,  0.0000,  0.0000)
  25 Li     0.358703   -2.751277    0.164614    ( 0.0000,  0.0000,  0.0000)
  26 Li    -4.662011    0.211617   -2.139439    ( 0.0000,  0.0000,  0.0000)
  27 Li     0.358720    0.211628    0.164615    ( 0.0000,  0.0000,  0.0000)

Unit cell:
           periodic     x           y           z      points  spacing
  1. axis:    yes   10.041096    0.000054   -0.000022    60     0.1674
  2. axis:    yes    0.000032    5.925857    0.000001    35     0.1693
  3. axis:    yes   -0.000010    0.000001    4.608134    27     0.1707

  Lengths:  10.041096   5.925857   4.608134
  Angles:   89.999974  90.000250  89.999381

Effective grid spacing dv^(1/3) = 0.1691

                     log10-error:           total        iterations:
           time      wfs    density  force  energy       poisson  magmom
iter:   1  22:44:55                       -233.728698             +0.0000
iter:   2  22:45:32  -0.47  -0.95         -231.554476             +0.0026
iter:   3  22:46:08  -0.60  -1.00         -220.827764             +0.0028
iter:   4  22:46:44  -1.21  -1.30         -221.582046             +0.3836
iter:   5  22:47:21  -2.07  -1.37         -222.264200             +0.1866
iter:   6  22:47:57  -2.28  -1.40         -224.468939             -0.1277
iter:   7  22:48:34  -2.05  -1.48         -224.853234             -0.9486
iter:   8  22:49:10  -2.26  -1.58         -226.170562             -0.9279
iter:   9  22:49:46  -2.54  -1.84         -225.953385             -0.2792
iter:  10  22:50:23  -2.81  -2.05         -226.194563             -0.1696
iter:  11  22:50:59  -2.06  -2.11         -226.619150             +0.0090
iter:  12  22:51:35  -3.11  -2.23         -226.433059             -0.0105
iter:  13  22:52:12  -2.67  -2.30         -226.423204             -0.0033
iter:  14  22:52:48  -2.65  -2.52         -226.217253             -0.0029
iter:  15  22:53:24  -3.08  -2.70         -226.203005             -0.0009
iter:  16  22:54:00  -3.10  -2.78         -226.183879             -0.0006
iter:  17  22:54:36  -4.25  -2.94         -226.182185             -0.0002
iter:  18  22:55:13  -3.66  -2.96         -226.177611             +0.0000
iter:  19  22:55:49  -4.61  -3.03         -226.176308             -0.0000
iter:  20  22:56:25  -3.99  -3.07         -226.180436             -0.0000
iter:  21  22:57:01  -5.04  -3.22         -226.179939             -0.0000
iter:  22  22:57:37  -3.87  -3.28         -226.175284             -0.0000
iter:  23  22:58:14  -4.97  -3.61         -226.174843             -0.0000
iter:  24  22:58:50  -5.33  -3.78         -226.174725             -0.0000
iter:  25  22:59:26  -6.20  -3.97         -226.174744             -0.0000
iter:  26  23:00:02  -5.82  -4.08         -226.174746             -0.0000
iter:  27  23:00:38  -6.43  -4.17         -226.174703             -0.0000
iter:  28  23:01:24  -7.42  -4.34         -226.174700             -0.0000
iter:  29  23:02:00  -6.76  -4.39         -226.174698             -0.0000
iter:  30  23:02:36  -6.97  -4.65         -226.174694             -0.0000
iter:  31  23:03:21  -7.98  -4.81    -2.19-226.174693             -0.0000
iter:  32  23:04:07  -7.61  -4.93    -2.52-226.174694             -0.0000
iter:  33  23:04:52  -7.54  -4.94    -2.58-226.174693             -0.0000
iter:  34  23:05:38  -8.77  -5.16    -3.24-226.174693             -0.0000
iter:  35  23:06:23  -8.23  -5.21    -2.69-226.174693             +0.0000
iter:  36  23:07:08  -8.63  -5.29    -3.08-226.174693             +0.0000
iter:  37  23:07:54  -8.58  -5.32    -2.99-226.174693             +0.0000
iter:  38  23:08:39  -9.01  -5.60    -3.31-226.174693             +0.0000
iter:  39  23:09:25  -9.68  -6.07    -3.83-226.174693             +0.0000
iter:  40  23:10:10 -10.56  -6.15    -4.24-226.174693             +0.0000
iter:  41  23:10:55 -10.95  -6.26    -3.93-226.174693             +0.0000
iter:  42  23:11:41 -11.26  -6.39    -4.27-226.174693             +0.0000
iter:  43  23:12:26 -11.13  -6.46    -4.62-226.174693             +0.0000
iter:  44  23:13:11 -10.65  -6.51    -4.08-226.174693             +0.0000
iter:  45  23:13:57 -11.26  -6.62    -4.63-226.174693             +0.0000
iter:  46  23:14:42 -11.50  -6.70    -4.46-226.174693             +0.0000
iter:  47  23:15:27 -12.02  -6.85    -4.87-226.174693             +0.0000
iter:  48  23:16:13 -12.18  -6.91    -5.00-226.174693             +0.0000
iter:  49  23:16:58 -12.34  -7.03    -5.03-226.174693             +0.0000
iter:  50  23:17:43 -12.68  -7.11    -5.10-226.174693             +0.0000
iter:  51  23:18:29 -12.05  -7.17    -4.85-226.174693             +0.0000
iter:  52  23:19:14 -12.24  -7.28    -5.10-226.174693             +0.0000
iter:  53  23:19:59 -13.58  -7.58    -5.76-226.174693             +0.0000
iter:  54  23:20:45 -12.35  -7.62    -5.05-226.174693             +0.0000
iter:  55  23:21:30 -13.64  -7.93    -5.61-226.174693             +0.0000
iter:  56  23:22:15 -13.95  -8.06    -6.18-226.174693             +0.0000

Converged after 56 iterations.

Dipole moment: (18.327961, -2.305185, -4.523761) |e|*Ang

Total magnetic moment: (0.000000, 0.000000, 0.000000)
Local magnetic moments:
   0 O  ( 0.000000,  0.000000, -0.001785)
   1 O  ( 0.000000,  0.000000,  0.001826)
   2 O  ( 0.000000,  0.000000,  0.001824)
   3 O  ( 0.000000,  0.000000, -0.001871)
   4 O  ( 0.000000,  0.000000,  0.001824)
   5 O  ( 0.000000,  0.000000, -0.001821)
   6 O  ( 0.000000,  0.000000, -0.001793)
   7 O  ( 0.000000,  0.000000,  0.001831)
   8 O  ( 0.000000,  0.000000,  0.031038)
   9 O  ( 0.000000,  0.000000, -0.031228)
  10 O  ( 0.000000,  0.000000, -0.031098)
  11 O  ( 0.000000,  0.000000,  0.031148)
  12 Mn ( 0.000000,  0.000000,  4.395784)
  13 Mn ( 0.000000,  0.000000, -4.395801)
  14 Mn ( 0.000000,  0.000000, -4.396557)
  15 Mn ( 0.000000,  0.000000,  4.396793)
  16 P  ( 0.000000,  0.000000,  0.000851)
  17 P  ( 0.000000,  0.000000, -0.000854)
  18 P  ( 0.000000,  0.000000, -0.000844)
  19 P  ( 0.000000,  0.000000,  0.000886)
  20 O  ( 0.000000,  0.000000,  0.028442)
  21 O  ( 0.000000,  0.000000, -0.028372)
  22 O  ( 0.000000,  0.000000, -0.028462)
  23 O  ( 0.000000,  0.000000,  0.028382)
  24 Li ( 0.000000,  0.000000, -0.000000)
  25 Li ( 0.000000,  0.000000,  0.000007)
  26 Li ( 0.000000,  0.000000,  0.000001)
  27 Li ( 0.000000,  0.000000, -0.000005)

Energy contributions relative to reference atoms: (reference = -196157.275402)

Kinetic:       +277.894959
Potential:     -241.171847
External:        +0.000000
XC:            -264.785898
Entropy (-ST):   -0.000000
Local:           +1.888094
--------------------------
Free energy:   -226.174693
Extrapolated:  -226.174693

Spin contamination: 9.456417 electrons
Showing only first 2 kpts
                      Up                     Down
 Kpt  Band  Eigenvalues  Occupancy  Eigenvalues  Occupancy
  0    88      6.52572    0.00694      6.52809    0.00694
  0    89      6.56156    0.00694      6.56360    0.00694
  0    90      8.42243    0.00000      8.42412    0.00000
  0    91      8.44885    0.00000      8.44582    0.00000

  1    88      6.56382    0.00694      6.56645    0.00694
  1    89      6.59386    0.00694      6.59550    0.00694
  1    90      8.37711    0.00000      8.38056    0.00000
  1    91      8.40527    0.00000      8.40293    0.00000


Fermi level: 7.24781

Gap: 1.695 eV
Transition (v -> c):
  (s=1, k=93, n=89, [0.08, 0.42, -0.12]) -> (s=0, k=57, n=90, [-0.08, -0.08, -0.12])
Writing to born-0.01-4x-.gpw (mode='all')

Timing:                              incl.     excl.
-----------------------------------------------------------
Hamiltonian:                         0.343     0.002   0.0% |
 Atomic:                             0.050     0.050   0.0% |
  XC Correction:                     0.000     0.000   0.0% |
 Calculate atomic Hamiltonians:      0.132     0.132   0.0% |
 Communicate:                        0.002     0.002   0.0% |
 Initialize Hamiltonian:             0.000     0.000   0.0% |
 Poisson:                            0.001     0.001   0.0% |
 XC 3D grid:                         0.156     0.156   0.0% |
LCAO initialization:               143.348     0.646   0.0% |
 LCAO eigensolver:                  38.098     0.002   0.0% |
  Calculate projections:             0.056     0.056   0.0% |
  DenseAtomicCorrection:             0.088     0.088   0.0% |
  Distribute overlap matrix:         0.006     0.006   0.0% |
  Orbital Layouts:                   0.341     0.341   0.0% |
  Potential matrix:                 37.517    37.517   0.7% |
  Sum over cells:                    0.088     0.088   0.0% |
 LCAO to grid:                     102.248   102.248   1.8% ||
 Set positions (LCAO WFS):           2.356     0.372   0.0% |
  Basic WFS set positions:           0.001     0.001   0.0% |
  Basis functions set positions:     0.000     0.000   0.0% |
  P tci:                             1.059     1.059   0.0% |
  ST tci:                            0.706     0.706   0.0% |
  mktci:                             0.218     0.218   0.0% |
PWDescriptor:                        0.023     0.023   0.0% |
SCF-cycle:                        2278.970    12.533   0.2% |
 Davidson:                        1915.534   611.583  10.9% |---|
  Apply H:                         136.792   132.433   2.4% ||
   HMM T:                            4.360     4.360   0.1% |
  Subspace diag:                   284.912     0.170   0.0% |
   calc_h_matrix:                  185.712    49.985   0.9% |
    Apply H:                       135.727   131.433   2.3% ||
     HMM T:                          4.294     4.294   0.1% |
   diagonalize:                      6.514     6.514   0.1% |
   rotate_psi:                      92.515    92.515   1.6% ||
  calc. matrices:                  605.177   336.470   6.0% |-|
   Apply H:                        268.707   260.365   4.6% |-|
    HMM T:                           8.342     8.342   0.1% |
  diagonalize:                      88.067    88.067   1.6% ||
  rotate_psi:                      189.003   189.003   3.4% ||
 Density:                           77.704     0.001   0.0% |
  Atomic density matrices:           1.383     1.383   0.0% |
  Mix:                              10.682    10.682   0.2% |
  Multipole moments:                 0.033     0.033   0.0% |
  Pseudo density:                   65.605    65.603   1.2% |
   Symmetrize density:               0.002     0.002   0.0% |
 Forces:                           249.325   249.325   4.4% |-|
 Hamiltonian:                       19.889     0.123   0.0% |
  Atomic:                            2.784     2.784   0.0% |
   XC Correction:                    0.000     0.000   0.0% |
  Calculate atomic Hamiltonians:     8.028     8.028   0.1% |
  Communicate:                       0.091     0.091   0.0% |
  Poisson:                           0.066     0.066   0.0% |
  XC 3D grid:                        8.797     8.797   0.2% |
 Orthonormalize:                     3.986     0.003   0.0% |
  calc_s_matrix:                     0.479     0.479   0.0% |
  inverse-cholesky:                  0.054     0.054   0.0% |
  projections:                       2.594     2.594   0.0% |
  rotate_psi_s:                      0.855     0.855   0.0% |
Set symmetry:                        0.000     0.000   0.0% |
Other:                            3197.122  3197.122  56.9% |----------------------|
-----------------------------------------------------------
Total:                                      5619.807 100.0%

Memory usage: 12.50 GiB
Date: Mon Mar 22 00:15:31 2021
