
  ___ ___ ___ _ _ _  
 |   |   |_  | | | | 
 | | | | | . | | | | 
 |__ |  _|___|_____|  20.10.1b1
 |___|_|             

User:   madkru@i013.nifl.fysik.dtu.dk
Date:   Sun Mar 21 05:18:48 2021
Arch:   x86_64
Pid:    27943
Python: 3.7.4
gpaw:   /home/niflheim/madkru/venv_folder/gpaw/gpaw (d0d1ca1c71)
_gpaw:  /home/niflheim/madkru/venv_folder/gpaw/build/lib.linux-x86_64-ivybridge-3.7/
        _gpaw.cpython-37m-x86_64-linux-gnu.so (4fd39e8b1e)
ase:    /home/niflheim/madkru/venv_folder/ase/ase (version 3.21.0b1-7e6c206a91)
numpy:  /home/niflheim/madkru/venv_folder/lib/python3.7/site-packages/numpy (version 1.19.4)
scipy:  /home/niflheim/madkru/venv_folder/lib/python3.7/site-packages/scipy (version 1.5.4)
libxc:  4.3.4
units:  Angstrom and eV
cores: 32
OMP_NUM_THREADS: 1

Input parameters:
  convergence: {bands: occupied,
                density: 0.0001,
                eigenstates: 4e-08,
                energy: 0.0005,
                forces: 1e-06}
  kpts: [6 6 4]
  mode: {ecut: 600.0,
         gammacentered: False,
         name: pw}
  occupations: {fixmagmom: False,
                name: fermi-dirac,
                width: 0.001}
  symmetry: {point_group: False,
             time_reversal: False}

System changes: positions, numbers, cell, pbc, initial_charges, initial_magmoms 

Initialize ...

O-setup:
  name: Oxygen
  id: 9b9d51c344dea68c822856295a461509
  Z: 8.0
  valence: 6
  core: 2
  charge: 0.0
  file: /home/modules/software/GPAW-setups/0.9.20000/O.LDA.gz
  compensation charges: gauss, rc=0.21, lmax=2
  cutoffs: 1.17(filt), 0.83(core),
  valence states:
                energy  radius
    2s(2.00)   -23.752   0.688
    2p(4.00)    -9.195   0.598
    *s           3.459   0.688
    *p          18.016   0.598
    *d           0.000   0.619

  Using partial waves for O as LCAO basis

Mn-setup:
  name: Manganese
  id: 0d715a8018be061a6e9ea6f2d364ac92
  Z: 25.0
  valence: 15
  core: 10
  charge: 0.0
  file: /home/modules/software/GPAW-setups/0.9.20000/Mn.LDA.gz
  compensation charges: gauss, rc=0.38, lmax=2
  cutoffs: 2.14(filt), 0.86(core),
  valence states:
                energy  radius
    3s(2.00)   -85.387   1.275
    4s(2.00)    -5.282   1.275
    3p(6.00)   -54.493   1.281
    4p(0.00)    -1.471   1.281
    3d(5.00)    -7.009   1.138
    *d          20.203   1.138

  Using partial waves for Mn as LCAO basis

P-setup:
  name: Phosphorus
  id: a5561c299094968922a179ab894d2e2d
  Z: 15.0
  valence: 5
  core: 10
  charge: 0.0
  file: /home/modules/software/GPAW-setups/0.9.20000/P.LDA.gz
  compensation charges: gauss, rc=0.30, lmax=2
  cutoffs: 1.69(filt), 1.81(core),
  valence states:
                energy  radius
    3s(2.00)   -14.015   0.953
    3p(3.00)    -5.596   0.953
    *s          13.197   0.953
    *p          21.615   0.953
    *d           0.000   0.953

  Using partial waves for P as LCAO basis

Li-setup:
  name: Lithium
  id: b73562207f97a71b6967473b66fe8b65
  Z: 3.0
  valence: 1
  core: 2
  charge: 0.0
  file: /home/modules/software/GPAW-setups/0.9.20000/Li.LDA.gz
  compensation charges: gauss, rc=0.33, lmax=2
  cutoffs: 1.91(filt), 2.55(core),
  valence states:
                energy  radius
    2s(1.00)    -2.874   1.058
    2p(0.00)    -1.126   1.058
    *s          24.338   1.058

  Using partial waves for Li as LCAO basis

Reference energy: -196157.275402

Spin-polarized calculation.
Magnetic moment: 0.000000

Convergence criteria:
  Maximum total energy change: 0.0005 eV / electron
  Maximum integral of absolute density change: 0.0001 electrons
  Maximum integral of absolute eigenstate change: 4e-08 eV^2
  Maximum change in atomic force: 1e-06 eV / Ang
  Maximum number of iterations: 333

Symmetries present (total): 1

  ( 1  0  0)
  ( 0  1  0)
  ( 0  0  1)

144 k-points: 6 x 6 x 4 Monkhorst-Pack grid
144 k-points in the irreducible part of the Brillouin zone
       k-points in crystal coordinates                weights
   0:    -0.41666667   -0.41666667   -0.37500000          1/144
   1:    -0.41666667   -0.41666667   -0.12500000          1/144
   2:    -0.41666667   -0.41666667    0.12500000          1/144
   3:    -0.41666667   -0.41666667    0.37500000          1/144
   4:    -0.41666667   -0.25000000   -0.37500000          1/144
   5:    -0.41666667   -0.25000000   -0.12500000          1/144
   6:    -0.41666667   -0.25000000    0.12500000          1/144
   7:    -0.41666667   -0.25000000    0.37500000          1/144
   8:    -0.41666667   -0.08333333   -0.37500000          1/144
   9:    -0.41666667   -0.08333333   -0.12500000          1/144
          ...
 143:     0.41666667    0.41666667    0.37500000          1/144

Wave functions: Plane wave expansion
  Cutoff energy: 600.000 eV
  Number of coefficients (min, max): 9132, 9161
  Pulay-stress correction: 0.000000 eV/Ang^3 (de/decut=0.000000)
  Using FFTW library
  ScaLapack parameters: grid=1x1, blocksize=None
  Wavefunction extrapolation:
    Improved wavefunction reuse through dual PAW basis 

  Fermi-Dirac: width=0.0010 eV

Eigensolver
   Davidson(niter=2, smin=None, normalize=True) 

Densities:
  Coarse grid: 60*35*27 grid
  Fine grid: 120*70*54 grid
  Total Charge: 0.000000 

Density mixing:
  Method: difference
  Backend: pulay
  Linear mixing parameter: 0.05
  Mixing with 5 old densities
  Damping of long wave oscillations: 50 

Hamiltonian:
  XC and Coulomb potentials evaluated on a 120*70*54 grid
  Using the LDA Exchange-Correlation functional
 

Memory estimate:
  Process memory now: 12159.14 MiB
  Calculator: 342.26 MiB
    Density: 19.13 MiB
      Arrays: 7.57 MiB
      Localized functions: 8.54 MiB
      Mixer: 3.03 MiB
    Hamiltonian: 5.87 MiB
      Arrays: 5.62 MiB
      XC: 0.00 MiB
      Poisson: 0.00 MiB
      vbar: 0.25 MiB
    Wavefunctions: 317.25 MiB
      Arrays psit_nG: 281.81 MiB
      Eigensolver: 18.27 MiB
      Projections: 5.41 MiB
      Projectors: 8.81 MiB
      PW-descriptor: 2.95 MiB

Total number of cores used: 32
Parallelization over k-points: 16
Domain decomposition: 2 x 1 x 1

Number of atoms: 28
Number of atomic orbitals: 148
Number of bands in calculation: 112
Number of valence electrons: 180
Bands to converge: occupied

... initialized

Initializing position-dependent things.

Density initialized from atomic densities
Creating initial wave functions:
  112 bands from LCAO basis set

                                           
                                           
                                           
                                           
                                           
               O     O  P  O               
            PO           OMn     O         
                  O          MO            
            O        Li O                  
             Mn  Mn          OP            
         O       O Li O                    
         Li     O P         O              
       Li                                  
                                           
                                           
                                           
                                           

Positions:
   0 O     -1.280122   -2.485595   -1.112331    ( 0.0000,  0.0000,  0.0000)
   1 O     -3.023238    2.918858    1.191723    ( 0.0000,  0.0000,  0.0000)
   2 O      1.997451    0.467212    1.441442    ( 0.0000,  0.0000,  0.0000)
   3 O      3.740343   -0.043905   -0.862614    ( 0.0000,  0.0000,  0.0000)
   4 O      1.997419    2.918835    1.441465    ( 0.0000,  0.0000,  0.0000)
   5 O      3.740372   -2.495531   -0.862587    ( 0.0000,  0.0000,  0.0000)
   6 O     -1.280154   -0.043891   -1.112309    ( 0.0000,  0.0000,  0.0000)
   7 O     -3.023210    0.467136    1.191750    ( 0.0000,  0.0000,  0.0000)
   8 O     -4.147405   -1.269737   -0.856207    ( 0.0000,  0.0000,  0.0000)
   9 O     -0.155894    1.692986    1.447725    ( 0.0000,  0.0000,  0.0000)
  10 O      4.864578    1.693016    1.185324    ( 0.0000,  0.0000,  0.0000)
  11 O      0.873163   -1.269706   -1.118625    ( 0.0000,  0.0000,  0.0000)
  12 Mn    -2.437108   -1.269902    0.302197    ( 0.0000,  0.0000,  1.0000)
  13 Mn    -1.866187    1.693156   -2.001927    ( 0.0000,  0.0000, -1.0000)
  14 Mn     3.154299    1.693181    0.026917    ( 0.0000,  0.0000, -1.0000)
  15 Mn     2.583444   -1.269877    2.331074    ( 0.0000,  0.0000,  1.0000)
  16 P     -0.543052   -1.269720   -1.734187    ( 0.0000,  0.0000,  0.0000)
  17 P     -3.760282    1.692974    0.569859    ( 0.0000,  0.0000,  0.0000)
  18 P      1.260300    1.693000    2.063344    ( 0.0000,  0.0000,  0.0000)
  19 P      4.477470   -1.269695   -0.240696    ( 0.0000,  0.0000,  0.0000)
  20 O     -0.544413   -1.269738    1.348523    ( 0.0000,  0.0000,  0.0000)
  21 O     -3.758895    1.692992   -0.955558    ( 0.0000,  0.0000,  0.0000)
  22 O      1.261690    1.693018   -1.019367    ( 0.0000,  0.0000,  0.0000)
  23 O      4.476045   -1.269713    1.284716    ( 0.0000,  0.0000,  0.0000)
  24 Li    -4.662027   -2.751322   -2.139440    ( 0.0000,  0.0000,  0.0000)
  25 Li     0.358703   -2.751277    0.164614    ( 0.0000,  0.0000,  0.0000)
  26 Li    -4.662011    0.211617   -2.139439    ( 0.0000,  0.0000,  0.0000)
  27 Li     0.358720    0.211628    0.164615    ( 0.0000,  0.0000,  0.0000)

Unit cell:
           periodic     x           y           z      points  spacing
  1. axis:    yes   10.041096    0.000054   -0.000022    60     0.1674
  2. axis:    yes    0.000032    5.925857    0.000001    35     0.1693
  3. axis:    yes   -0.000010    0.000001    4.608134    27     0.1707

  Lengths:  10.041096   5.925857   4.608134
  Angles:   89.999974  90.000250  89.999381

Effective grid spacing dv^(1/3) = 0.1691

                     log10-error:           total        iterations:
           time      wfs    density  force  energy       poisson  magmom
iter:   1  05:21:42                       -233.723750             +0.0000
iter:   2  05:22:18  -0.47  -0.95         -231.548706             +0.0008
iter:   3  05:22:55  -0.60  -1.00         -220.830800             +0.0008
iter:   4  05:23:31  -1.21  -1.30         -221.631103             +0.3878
iter:   5  05:24:08  -2.11  -1.37         -222.289973             +0.2050
iter:   6  05:24:44  -2.24  -1.39         -224.651399             -0.0538
iter:   7  05:25:21  -2.09  -1.48         -224.666094             -0.9283
iter:   8  05:25:57  -2.27  -1.58         -225.952499             -1.1128
iter:   9  05:26:34  -2.57  -1.82         -225.969187             -1.5300
iter:  10  05:27:10  -2.73  -2.04         -226.205132             -0.9763
iter:  11  05:27:47  -2.19  -2.11         -226.404256             -0.0336
iter:  12  05:28:23  -2.23  -2.20         -226.513363             -0.0410
iter:  13  05:29:00  -2.58  -2.37         -226.384390             -0.0099
iter:  14  05:29:36  -3.29  -2.52         -226.317677             -0.0110
iter:  15  05:30:13  -2.69  -2.65         -226.200598             -0.0034
iter:  16  05:30:49  -3.32  -2.87         -226.186367             -0.0019
iter:  17  05:31:25  -4.09  -2.89         -226.180423             -0.0000
iter:  18  05:32:02  -4.08  -2.98         -226.179614             -0.0001
iter:  19  05:32:38  -4.41  -3.17         -226.175566             -0.0000
iter:  20  05:33:15  -4.52  -3.18         -226.175695             -0.0000
iter:  21  05:33:51  -4.44  -3.19         -226.177196             -0.0000
iter:  22  05:34:28  -5.04  -3.37         -226.176453             -0.0000
iter:  23  05:35:04  -5.23  -3.46         -226.175208             -0.0000
iter:  24  05:35:40  -4.49  -3.58         -226.175062             -0.0000
iter:  25  05:36:17  -5.03  -3.70         -226.174034             -0.0000
iter:  26  05:36:53  -5.61  -3.83         -226.173967             -0.0000
iter:  27  05:37:29  -5.77  -3.85         -226.173948             -0.0000
iter:  28  05:38:06  -5.84  -4.06         -226.173868             +0.0000
iter:  29  05:38:42  -6.56  -4.11         -226.173870             +0.0000
iter:  30  05:39:18  -6.63  -4.23         -226.173877             +0.0000
iter:  31  05:39:55  -6.67  -4.26         -226.173870             +0.0000
iter:  32  05:40:31  -6.04  -4.24         -226.173871             +0.0000
iter:  33  05:41:07  -6.70  -4.42         -226.173867             +0.0000
iter:  34  05:41:44  -7.29  -4.49         -226.173856             +0.0000
iter:  35  05:42:20  -6.82  -4.55         -226.173847             +0.0000
iter:  36  05:42:56  -7.10  -4.78         -226.173847             +0.0000
iter:  37  05:43:41  -8.16  -4.84         -226.173847             +0.0000
iter:  38  05:44:27  -7.63  -4.87    -2.87-226.173846             -0.0000
iter:  39  05:45:12  -8.13  -5.02    -3.02-226.173847             -0.0000
iter:  40  05:45:57  -8.94  -5.16    -3.49-226.173847             -0.0000
iter:  41  05:46:42  -8.09  -5.23    -2.83-226.173846             -0.0000
iter:  42  05:47:28  -8.98  -5.53    -3.42-226.173846             -0.0000
iter:  43  05:48:13  -8.68  -5.61    -3.33-226.173846             -0.0000
iter:  44  05:48:58  -9.46  -6.01    -3.83-226.173846             -0.0000
iter:  45  05:49:43  -9.86  -6.21    -3.78-226.173846             -0.0000
iter:  46  05:50:28 -10.55  -6.32    -4.34-226.173846             -0.0000
iter:  47  05:51:14 -10.74  -6.39    -4.16-226.173846             -0.0000
iter:  48  05:51:59 -10.95  -6.48    -4.26-226.173846             -0.0000
iter:  49  05:52:44 -11.64  -6.77    -4.90-226.173846             -0.0000
iter:  50  05:53:29 -11.48  -6.85    -4.82-226.173846             -0.0000
iter:  51  05:54:14 -12.32  -6.94    -5.05-226.173846             -0.0000
iter:  52  05:55:00 -12.49  -7.02    -4.98-226.173846             -0.0000
iter:  53  05:55:45 -12.57  -7.09    -5.13-226.173846             -0.0000
iter:  54  05:56:30 -12.10  -7.17    -4.84-226.173846             -0.0000
iter:  55  05:57:15 -12.98  -7.55    -5.65-226.173846             -0.0000
iter:  56  05:58:01 -13.49  -7.61    -5.55-226.173846             -0.0000
iter:  57  05:58:46 -13.43  -7.72    -5.65-226.173846             -0.0000
iter:  58  05:59:31 -13.74  -7.85    -5.66-226.173846             -0.0000
iter:  59  06:00:16 -14.10  -7.97    -6.09-226.173846             -0.0000

Converged after 59 iterations.

Dipole moment: (18.328144, -2.311727, -4.524526) |e|*Ang

Total magnetic moment: (0.000000, 0.000000, -0.000000)
Local magnetic moments:
   0 O  ( 0.000000,  0.000000, -0.001407)
   1 O  ( 0.000000,  0.000000,  0.001840)
   2 O  ( 0.000000,  0.000000,  0.001798)
   3 O  ( 0.000000,  0.000000, -0.001817)
   4 O  ( 0.000000,  0.000000,  0.001786)
   5 O  ( 0.000000,  0.000000, -0.001815)
   6 O  ( 0.000000,  0.000000, -0.001964)
   7 O  ( 0.000000,  0.000000,  0.001577)
   8 O  ( 0.000000,  0.000000,  0.031099)
   9 O  ( 0.000000,  0.000000, -0.031088)
  10 O  ( 0.000000,  0.000000, -0.031077)
  11 O  ( 0.000000,  0.000000,  0.031335)
  12 Mn ( 0.000000,  0.000000,  4.396074)
  13 Mn ( 0.000000,  0.000000, -4.397555)
  14 Mn ( 0.000000,  0.000000, -4.395716)
  15 Mn ( 0.000000,  0.000000,  4.395880)
  16 P  ( 0.000000,  0.000000,  0.001252)
  17 P  ( 0.000000,  0.000000, -0.000848)
  18 P  ( 0.000000,  0.000000, -0.000852)
  19 P  ( 0.000000,  0.000000,  0.000878)
  20 O  ( 0.000000,  0.000000,  0.028574)
  21 O  ( 0.000000,  0.000000, -0.028367)
  22 O  ( 0.000000,  0.000000, -0.028422)
  23 O  ( 0.000000,  0.000000,  0.028397)
  24 Li ( 0.000000,  0.000000,  0.000001)
  25 Li ( 0.000000,  0.000000,  0.000030)
  26 Li ( 0.000000,  0.000000,  0.000001)
  27 Li ( 0.000000,  0.000000,  0.000002)

Energy contributions relative to reference atoms: (reference = -196157.275402)

Kinetic:       +278.151459
Potential:     -241.375060
External:        +0.000000
XC:            -264.837733
Entropy (-ST):   -0.000000
Local:           +1.887487
--------------------------
Free energy:   -226.173846
Extrapolated:  -226.173846

Spin contamination: 9.456585 electrons
Showing only first 2 kpts
                      Up                     Down
 Kpt  Band  Eigenvalues  Occupancy  Eigenvalues  Occupancy
  0    88      6.53283    0.00694      6.52276    0.00694
  0    89      6.56662    0.00694      6.55929    0.00694
  0    90      8.42246    0.00000      8.42903    0.00000
  0    91      8.44410    0.00000      8.45039    0.00000

  1    88      6.57125    0.00694      6.56091    0.00694
  1    89      6.59880    0.00694      6.59153    0.00694
  1    90      8.37886    0.00000      8.38656    0.00000
  1    91      8.40133    0.00000      8.40791    0.00000


Fermi level: 7.29677

Gap: 1.692 eV
Transition (v -> c):
  (s=0, k=69, n=89, [-0.08, 0.42, -0.12]) -> (s=0, k=81, n=90, [0.08, -0.08, -0.12])
Writing to born-0.01-0y+.gpw (mode='all')

Timing:                              incl.     excl.
-----------------------------------------------------------
Hamiltonian:                         0.353     0.002   0.0% |
 Atomic:                             0.050     0.050   0.0% |
  XC Correction:                     0.000     0.000   0.0% |
 Calculate atomic Hamiltonians:      0.139     0.139   0.0% |
 Communicate:                        0.004     0.004   0.0% |
 Initialize Hamiltonian:             0.000     0.000   0.0% |
 Poisson:                            0.001     0.001   0.0% |
 XC 3D grid:                         0.156     0.156   0.0% |
LCAO initialization:               123.834     0.652   0.0% |
 LCAO eigensolver:                  37.242     0.002   0.0% |
  Calculate projections:             0.056     0.056   0.0% |
  DenseAtomicCorrection:             0.088     0.088   0.0% |
  Distribute overlap matrix:         0.230     0.230   0.0% |
  Orbital Layouts:                   0.341     0.341   0.0% |
  Potential matrix:                 36.437    36.437   0.7% |
  Sum over cells:                    0.087     0.087   0.0% |
 LCAO to grid:                      83.562    83.562   1.5% ||
 Set positions (LCAO WFS):           2.378     0.375   0.0% |
  Basic WFS set positions:           0.001     0.001   0.0% |
  Basis functions set positions:     0.000     0.000   0.0% |
  P tci:                             1.067     1.067   0.0% |
  ST tci:                            0.713     0.713   0.0% |
  mktci:                             0.221     0.221   0.0% |
PWDescriptor:                        0.023     0.023   0.0% |
SCF-cycle:                        2361.832    20.431   0.4% |
 Davidson:                        2025.226   644.826  11.8% |----|
  Apply H:                         146.867   142.248   2.6% ||
   HMM T:                            4.620     4.620   0.1% |
  Subspace diag:                   302.655     0.193   0.0% |
   calc_h_matrix:                  197.927    52.777   1.0% |
    Apply H:                       145.150   140.632   2.6% ||
     HMM T:                          4.518     4.518   0.1% |
   diagonalize:                      6.934     6.934   0.1% |
   rotate_psi:                      97.601    97.601   1.8% ||
  calc. matrices:                  638.127   355.100   6.5% |--|
   Apply H:                        283.027   274.512   5.0% |-|
    HMM T:                           8.515     8.515   0.2% |
  diagonalize:                      93.300    93.300   1.7% ||
  rotate_psi:                      199.450   199.450   3.7% ||
 Density:                           82.149     0.002   0.0% |
  Atomic density matrices:           1.510     1.510   0.0% |
  Mix:                              11.764    11.764   0.2% |
  Multipole moments:                 0.037     0.037   0.0% |
  Pseudo density:                   68.837    68.835   1.3% ||
   Symmetrize density:               0.002     0.002   0.0% |
 Forces:                           209.245   209.245   3.8% |-|
 Hamiltonian:                       20.781     0.128   0.0% |
  Atomic:                            2.939     2.939   0.1% |
   XC Correction:                    0.000     0.000   0.0% |
  Calculate atomic Hamiltonians:     8.227     8.227   0.2% |
  Communicate:                       0.116     0.116   0.0% |
  Poisson:                           0.073     0.073   0.0% |
  XC 3D grid:                        9.297     9.297   0.2% |
 Orthonormalize:                     4.000     0.004   0.0% |
  calc_s_matrix:                     0.479     0.479   0.0% |
  inverse-cholesky:                  0.055     0.055   0.0% |
  projections:                       2.609     2.609   0.0% |
  rotate_psi_s:                      0.853     0.853   0.0% |
Set symmetry:                        0.000     0.000   0.0% |
Other:                            2976.980  2976.980  54.5% |---------------------|
-----------------------------------------------------------
Total:                                      5463.022 100.0%

Memory usage: 11.92 GiB
Date: Sun Mar 21 06:49:51 2021
