
  ___ ___ ___ _ _ _  
 |   |   |_  | | | | 
 | | | | | . | | | | 
 |__ |  _|___|_____|  20.10.1b1
 |___|_|             

User:   madkru@i008.nifl.fysik.dtu.dk
Date:   Thu Mar 25 19:11:39 2021
Arch:   x86_64
Pid:    26969
Python: 3.7.4
gpaw:   /home/niflheim/madkru/venv_folder/gpaw/gpaw (d224efde0f)
_gpaw:  /home/niflheim/madkru/venv_folder/gpaw/build/lib.linux-x86_64-ivybridge-3.7/
        _gpaw.cpython-37m-x86_64-linux-gnu.so (4fd39e8b1e)
ase:    /home/niflheim/madkru/venv_folder/ase/ase (version 3.21.0b1-4d5a73cb29)
numpy:  /home/niflheim/madkru/venv_folder/lib/python3.7/site-packages/numpy (version 1.19.4)
scipy:  /home/niflheim/madkru/venv_folder/lib/python3.7/site-packages/scipy (version 1.5.4)
libxc:  4.3.4
units:  Angstrom and eV
cores: 64
OMP_NUM_THREADS: 1

Input parameters:
  convergence: {bands: occupied,
                density: 0.0001,
                eigenstates: 4e-08,
                energy: 0.0005,
                forces: 1e-06}
  kpts: [6 6 4]
  mode: {ecut: 600.0,
         gammacentered: False,
         name: pw}
  occupations: {fixmagmom: False,
                name: fermi-dirac,
                width: 0.001}
  symmetry: {point_group: False,
             time_reversal: False}

System changes: positions, numbers, cell, pbc, initial_charges, initial_magmoms 

Initialize ...

O-setup:
  name: Oxygen
  id: 9b9d51c344dea68c822856295a461509
  Z: 8.0
  valence: 6
  core: 2
  charge: 0.0
  file: /home/modules/software/GPAW-setups/0.9.20000/O.LDA.gz
  compensation charges: gauss, rc=0.21, lmax=2
  cutoffs: 1.17(filt), 0.83(core),
  valence states:
                energy  radius
    2s(2.00)   -23.752   0.688
    2p(4.00)    -9.195   0.598
    *s           3.459   0.688
    *p          18.016   0.598
    *d           0.000   0.619

  Using partial waves for O as LCAO basis

Mn-setup:
  name: Manganese
  id: 0d715a8018be061a6e9ea6f2d364ac92
  Z: 25.0
  valence: 15
  core: 10
  charge: 0.0
  file: /home/modules/software/GPAW-setups/0.9.20000/Mn.LDA.gz
  compensation charges: gauss, rc=0.38, lmax=2
  cutoffs: 2.14(filt), 0.86(core),
  valence states:
                energy  radius
    3s(2.00)   -85.387   1.275
    4s(2.00)    -5.282   1.275
    3p(6.00)   -54.493   1.281
    4p(0.00)    -1.471   1.281
    3d(5.00)    -7.009   1.138
    *d          20.203   1.138

  Using partial waves for Mn as LCAO basis

P-setup:
  name: Phosphorus
  id: a5561c299094968922a179ab894d2e2d
  Z: 15.0
  valence: 5
  core: 10
  charge: 0.0
  file: /home/modules/software/GPAW-setups/0.9.20000/P.LDA.gz
  compensation charges: gauss, rc=0.30, lmax=2
  cutoffs: 1.69(filt), 1.81(core),
  valence states:
                energy  radius
    3s(2.00)   -14.015   0.953
    3p(3.00)    -5.596   0.953
    *s          13.197   0.953
    *p          21.615   0.953
    *d           0.000   0.953

  Using partial waves for P as LCAO basis

Li-setup:
  name: Lithium
  id: b73562207f97a71b6967473b66fe8b65
  Z: 3.0
  valence: 1
  core: 2
  charge: 0.0
  file: /home/modules/software/GPAW-setups/0.9.20000/Li.LDA.gz
  compensation charges: gauss, rc=0.33, lmax=2
  cutoffs: 1.91(filt), 2.55(core),
  valence states:
                energy  radius
    2s(1.00)    -2.874   1.058
    2p(0.00)    -1.126   1.058
    *s          24.338   1.058

  Using partial waves for Li as LCAO basis

Reference energy: -196157.275402

Spin-polarized calculation.
Magnetic moment: 0.000000

Convergence criteria:
  Maximum total energy change: 0.0005 eV / electron
  Maximum integral of absolute density change: 0.0001 electrons
  Maximum integral of absolute eigenstate change: 4e-08 eV^2
  Maximum change in atomic force: 1e-06 eV / Ang
  Maximum number of iterations: 333

Symmetries present (total): 1

  ( 1  0  0)
  ( 0  1  0)
  ( 0  0  1)

144 k-points: 6 x 6 x 4 Monkhorst-Pack grid
144 k-points in the irreducible part of the Brillouin zone
       k-points in crystal coordinates                weights
   0:    -0.41666667   -0.41666667   -0.37500000          1/144
   1:    -0.41666667   -0.41666667   -0.12500000          1/144
   2:    -0.41666667   -0.41666667    0.12500000          1/144
   3:    -0.41666667   -0.41666667    0.37500000          1/144
   4:    -0.41666667   -0.25000000   -0.37500000          1/144
   5:    -0.41666667   -0.25000000   -0.12500000          1/144
   6:    -0.41666667   -0.25000000    0.12500000          1/144
   7:    -0.41666667   -0.25000000    0.37500000          1/144
   8:    -0.41666667   -0.08333333   -0.37500000          1/144
   9:    -0.41666667   -0.08333333   -0.12500000          1/144
          ...
 143:     0.41666667    0.41666667    0.37500000          1/144

Wave functions: Plane wave expansion
  Cutoff energy: 600.000 eV
  Number of coefficients (min, max): 9132, 9161
  Pulay-stress correction: 0.000000 eV/Ang^3 (de/decut=0.000000)
  Using FFTW library
  ScaLapack parameters: grid=1x1, blocksize=None
  Wavefunction extrapolation:
    Improved wavefunction reuse through dual PAW basis 

  Fermi-Dirac: width=0.0010 eV

Eigensolver
   Davidson(niter=2, smin=None, normalize=True) 

Densities:
  Coarse grid: 60*35*27 grid
  Fine grid: 120*70*54 grid
  Total Charge: 0.000000 

Density mixing:
  Method: difference
  Backend: pulay
  Linear mixing parameter: 0.05
  Mixing with 5 old densities
  Damping of long wave oscillations: 50 

Hamiltonian:
  XC and Coulomb potentials evaluated on a 120*70*54 grid
  Using the LDA Exchange-Correlation functional
 

Memory estimate:
  Process memory now: 13724.99 MiB
  Calculator: 322.47 MiB
    Density: 9.62 MiB
      Arrays: 3.79 MiB
      Localized functions: 4.27 MiB
      Mixer: 1.56 MiB
    Hamiltonian: 2.94 MiB
      Arrays: 2.82 MiB
      XC: 0.00 MiB
      Poisson: 0.00 MiB
      vbar: 0.12 MiB
    Wavefunctions: 309.91 MiB
      Arrays psit_nG: 281.81 MiB
      Eigensolver: 18.27 MiB
      Projections: 2.71 MiB
      Projectors: 4.40 MiB
      PW-descriptor: 2.71 MiB

Total number of cores used: 64
Parallelization over k-points: 16
Domain decomposition: 2 x 2 x 1

Number of atoms: 28
Number of atomic orbitals: 148
Number of bands in calculation: 112
Number of valence electrons: 180
Bands to converge: occupied

... initialized

Initializing position-dependent things.

Density initialized from atomic densities
Creating initial wave functions:
  112 bands from LCAO basis set

                                           
                                           
                                           
                                           
                                           
               O     O  P  O               
            PO           OMn     O         
                  O          MO            
            O        Li O                  
             Mn  Mn          OP            
         O       O Li O                    
         Li     O P         O              
       Li                                  
                                           
                                           
                                           
                                           

Positions:
   0 O     -1.280122   -2.495595   -1.112331    ( 0.0000,  0.0000,  0.0000)
   1 O     -3.023238    2.918858    1.191723    ( 0.0000,  0.0000,  0.0000)
   2 O      1.997451    0.467212    1.441442    ( 0.0000,  0.0000,  0.0000)
   3 O      3.740343   -0.043905   -0.862614    ( 0.0000,  0.0000,  0.0000)
   4 O      1.997419    2.918835    1.441465    ( 0.0000,  0.0000,  0.0000)
   5 O      3.740372   -2.495531   -0.862587    ( 0.0000,  0.0000,  0.0000)
   6 O     -1.280154   -0.043891   -1.112309    ( 0.0000,  0.0000,  0.0000)
   7 O     -3.023210    0.467136    1.191750    ( 0.0000,  0.0000,  0.0000)
   8 O     -4.147405   -1.269737   -0.856207    ( 0.0000,  0.0000,  0.0000)
   9 O     -0.155894    1.692986    1.447725    ( 0.0000,  0.0000,  0.0000)
  10 O      4.864578    1.693016    1.185324    ( 0.0000,  0.0000,  0.0000)
  11 O      0.873163   -1.269706   -1.118625    ( 0.0000,  0.0000,  0.0000)
  12 Mn    -2.437108   -1.269902    0.302197    ( 0.0000,  0.0000,  1.0000)
  13 Mn    -1.866187    1.693156   -2.001927    ( 0.0000,  0.0000, -1.0000)
  14 Mn     3.154299    1.693181    0.026917    ( 0.0000,  0.0000, -1.0000)
  15 Mn     2.583444   -1.269877    2.331074    ( 0.0000,  0.0000,  1.0000)
  16 P     -0.543052   -1.269720   -1.734187    ( 0.0000,  0.0000,  0.0000)
  17 P     -3.760282    1.692974    0.569859    ( 0.0000,  0.0000,  0.0000)
  18 P      1.260300    1.693000    2.063344    ( 0.0000,  0.0000,  0.0000)
  19 P      4.477470   -1.269695   -0.240696    ( 0.0000,  0.0000,  0.0000)
  20 O     -0.544413   -1.269738    1.348523    ( 0.0000,  0.0000,  0.0000)
  21 O     -3.758895    1.692992   -0.965558    ( 0.0000,  0.0000,  0.0000)
  22 O      1.261690    1.693018   -1.019367    ( 0.0000,  0.0000,  0.0000)
  23 O      4.476045   -1.269713    1.284716    ( 0.0000,  0.0000,  0.0000)
  24 Li    -4.662027   -2.751322   -2.139440    ( 0.0000,  0.0000,  0.0000)
  25 Li     0.358703   -2.751277    0.164614    ( 0.0000,  0.0000,  0.0000)
  26 Li    -4.662011    0.211617   -2.139439    ( 0.0000,  0.0000,  0.0000)
  27 Li     0.358720    0.211628    0.164615    ( 0.0000,  0.0000,  0.0000)

Unit cell:
           periodic     x           y           z      points  spacing
  1. axis:    yes   10.041096    0.000054   -0.000022    60     0.1674
  2. axis:    yes    0.000032    5.925857    0.000001    35     0.1693
  3. axis:    yes   -0.000010    0.000001    4.608134    27     0.1707

  Lengths:  10.041096   5.925857   4.608134
  Angles:   89.999974  90.000250  89.999381

Effective grid spacing dv^(1/3) = 0.1691

                     log10-error:           total        iterations:
           time      wfs    density  force  energy       poisson  magmom
iter:   1  19:13:13                       -233.738960             +0.0000
iter:   2  19:13:33  -0.47  -0.95         -231.555352             +0.0016
iter:   3  19:13:53  -0.61  -1.00         -220.810576             +0.0017
iter:   4  19:14:13  -1.19  -1.31         -220.976201             +0.3336
iter:   5  19:14:32  -2.14  -1.39         -222.875440             +0.1818
iter:   6  19:14:52  -2.38  -1.37         -223.204240             +0.0738
iter:   7  19:15:12  -1.98  -1.54         -223.140036             +0.0529
iter:   8  19:15:32  -2.25  -1.89         -225.656027             +0.3342
iter:   9  19:15:51  -2.14  -2.01         -226.406175             -0.1691
iter:  10  19:16:11  -2.14  -2.09         -226.438951             -0.0276
iter:  11  19:16:31  -3.10  -2.21         -226.429847             -0.0167
iter:  12  19:16:51  -2.53  -2.23         -226.210041             -0.0011
iter:  13  19:17:10  -3.26  -2.51         -226.204550             -0.0032
iter:  14  19:17:30  -3.55  -2.65         -226.190466             -0.0017
iter:  15  19:17:50  -3.34  -2.84         -226.176686             -0.0005
iter:  16  19:18:09  -4.48  -3.01         -226.174201             -0.0005
iter:  17  19:18:29  -4.00  -3.12         -226.176014             -0.0001
iter:  18  19:18:49  -4.99  -3.44         -226.174007             -0.0000
iter:  19  19:19:09  -4.65  -3.49         -226.173499             -0.0000
iter:  20  19:19:28  -5.72  -3.58         -226.173533             -0.0000
iter:  21  19:19:48  -6.06  -3.64         -226.173373             +0.0000
iter:  22  19:20:08  -6.00  -3.74         -226.173257             +0.0000
iter:  23  19:20:28  -6.46  -3.84         -226.173255             +0.0000
iter:  24  19:20:47  -6.12  -3.90         -226.173244             +0.0000
iter:  25  19:21:07  -6.58  -4.04         -226.173219             +0.0000
iter:  26  19:21:27  -6.14  -4.10         -226.173163             +0.0000
iter:  27  19:21:46  -6.37  -4.12         -226.173174             +0.0000
iter:  28  19:22:06  -6.62  -4.25         -226.173160             +0.0000
iter:  29  19:22:26  -6.36  -4.34         -226.173162             +0.0000
iter:  30  19:22:45  -7.07  -4.51         -226.173153             +0.0000
iter:  31  19:23:10  -7.71  -4.64         -226.173154             +0.0000
iter:  32  19:23:34  -8.15  -4.71    -2.62-226.173155             +0.0000
iter:  33  19:23:59  -8.66  -4.87    -3.23-226.173154             +0.0000
iter:  34  19:24:23  -7.92  -5.01    -2.94-226.173153             +0.0000
iter:  35  19:24:47  -8.07  -5.21    -3.21-226.173152             +0.0000
iter:  36  19:25:11  -8.35  -5.38    -3.26-226.173152             +0.0000
iter:  37  19:25:36  -9.41  -5.50    -3.31-226.173152             +0.0000
iter:  38  19:26:00  -9.43  -5.56    -3.50-226.173152             +0.0000
iter:  39  19:26:25  -9.96  -5.76    -3.85-226.173152             +0.0000
iter:  40  19:26:49  -9.72  -5.87    -3.76-226.173152             +0.0000
iter:  41  19:27:13 -10.12  -6.14    -3.96-226.173152             +0.0000
iter:  42  19:27:38 -11.33  -6.29    -4.35-226.173152             +0.0000
iter:  43  19:28:02 -11.48  -6.32    -4.47-226.173152             -0.0000
iter:  44  19:28:26 -11.27  -6.36    -4.18-226.173152             +0.0000
iter:  45  19:28:51 -11.21  -6.49    -4.67-226.173152             -0.0000
iter:  46  19:29:15 -11.28  -6.65    -4.67-226.173152             +0.0000
iter:  47  19:29:39 -11.33  -6.78    -4.47-226.173152             -0.0000
iter:  48  19:30:04 -12.21  -6.91    -5.04-226.173152             +0.0000
iter:  49  19:30:28 -12.35  -6.96    -4.65-226.173152             +0.0000
iter:  50  19:30:53 -12.45  -7.26    -4.93-226.173152             +0.0000
iter:  51  19:31:17 -13.49  -7.52    -5.56-226.173152             +0.0000
iter:  52  19:31:41 -14.13  -7.55    -6.01-226.173152             +0.0000

Converged after 52 iterations.

Dipole moment: (18.326635, -2.306425, -4.538106) |e|*Ang

Total magnetic moment: (0.000000, 0.000000, 0.000000)
Local magnetic moments:
   0 O  ( 0.000000,  0.000000, -0.001825)
   1 O  ( 0.000000,  0.000000,  0.001883)
   2 O  ( 0.000000,  0.000000,  0.001807)
   3 O  ( 0.000000,  0.000000, -0.001826)
   4 O  ( 0.000000,  0.000000,  0.001801)
   5 O  ( 0.000000,  0.000000, -0.001820)
   6 O  ( 0.000000,  0.000000, -0.001830)
   7 O  ( 0.000000,  0.000000,  0.001888)
   8 O  ( 0.000000,  0.000000,  0.031092)
   9 O  ( 0.000000,  0.000000, -0.030955)
  10 O  ( 0.000000,  0.000000, -0.031123)
  11 O  ( 0.000000,  0.000000,  0.031100)
  12 Mn ( 0.000000,  0.000000,  4.395808)
  13 Mn ( 0.000000,  0.000000, -4.395284)
  14 Mn ( 0.000000,  0.000000, -4.395773)
  15 Mn ( 0.000000,  0.000000,  4.395721)
  16 P  ( 0.000000,  0.000000,  0.000836)
  17 P  ( 0.000000,  0.000000, -0.000956)
  18 P  ( 0.000000,  0.000000, -0.000873)
  19 P  ( 0.000000,  0.000000,  0.000873)
  20 O  ( 0.000000,  0.000000,  0.028424)
  21 O  ( 0.000000,  0.000000, -0.028647)
  22 O  ( 0.000000,  0.000000, -0.028432)
  23 O  ( 0.000000,  0.000000,  0.028416)
  24 Li ( 0.000000,  0.000000, -0.000015)
  25 Li ( 0.000000,  0.000000, -0.000000)
  26 Li ( 0.000000,  0.000000, -0.000015)
  27 Li ( 0.000000,  0.000000, -0.000000)

Energy contributions relative to reference atoms: (reference = -196157.275402)

Kinetic:       +276.914021
Potential:     -240.404791
External:        +0.000000
XC:            -264.572714
Entropy (-ST):   -0.000000
Local:           +1.890332
--------------------------
Free energy:   -226.173152
Extrapolated:  -226.173152

Spin contamination: 9.455450 electrons
Showing only first 2 kpts
                      Up                     Down
 Kpt  Band  Eigenvalues  Occupancy  Eigenvalues  Occupancy
  0    88      6.53050    0.00694      6.53559    0.00694
  0    89      6.56400    0.00694      6.57208    0.00694
  0    90      8.42779    0.00000      8.42622    0.00000
  0    91      8.44985    0.00000      8.44824    0.00000

  1    88      6.56894    0.00694      6.57461    0.00694
  1    89      6.59591    0.00694      6.60382    0.00694
  1    90      8.38423    0.00000      8.38271    0.00000
  1    91      8.40692    0.00000      8.40516    0.00000


Fermi level: 7.65158

Gap: 1.692 eV
Transition (v -> c):
  (s=1, k=93, n=89, [0.08, 0.42, -0.12]) -> (s=1, k=82, n=90, [0.08, -0.08, 0.12])
Writing to born-0.01-21z-.gpw (mode='all')

Timing:                              incl.     excl.
-----------------------------------------------------------
Hamiltonian:                         0.220     0.002   0.0% |
 Atomic:                             0.057     0.057   0.0% |
  XC Correction:                     0.000     0.000   0.0% |
 Calculate atomic Hamiltonians:      0.074     0.074   0.0% |
 Communicate:                        0.002     0.002   0.0% |
 Initialize Hamiltonian:             0.000     0.000   0.0% |
 Poisson:                            0.001     0.001   0.0% |
 XC 3D grid:                         0.084     0.084   0.0% |
LCAO initialization:                68.720     0.649   0.0% |
 LCAO eigensolver:                  19.689     0.002   0.0% |
  Calculate projections:             0.029     0.029   0.0% |
  DenseAtomicCorrection:             0.045     0.045   0.0% |
  Distribute overlap matrix:         0.009     0.009   0.0% |
  Orbital Layouts:                   0.433     0.433   0.0% |
  Potential matrix:                 19.071    19.071   0.6% |
  Sum over cells:                    0.101     0.101   0.0% |
 LCAO to grid:                      47.023    47.023   1.5% ||
 Set positions (LCAO WFS):           1.359     0.194   0.0% |
  Basic WFS set positions:           0.001     0.001   0.0% |
  Basis functions set positions:     0.000     0.000   0.0% |
  P tci:                             0.562     0.562   0.0% |
  ST tci:                            0.384     0.384   0.0% |
  mktci:                             0.218     0.218   0.0% |
PWDescriptor:                        0.023     0.023   0.0% |
SCF-cycle:                        1132.323     4.075   0.1% |
 Davidson:                         973.637   298.008   9.5% |---|
  Apply H:                          67.459    65.500   2.1% ||
   HMM T:                            1.959     1.959   0.1% |
  Subspace diag:                   141.188     0.152   0.0% |
   calc_h_matrix:                   90.918    23.502   0.7% |
    Apply H:                        67.416    65.422   2.1% ||
     HMM T:                          1.994     1.994   0.1% |
   diagonalize:                      7.065     7.065   0.2% |
   rotate_psi:                      43.053    43.053   1.4% ||
  calc. matrices:                  291.620   159.260   5.1% |-|
   Apply H:                        132.359   128.671   4.1% |-|
    HMM T:                           3.688     3.688   0.1% |
  diagonalize:                      82.021    82.021   2.6% ||
  rotate_psi:                       93.341    93.341   3.0% ||
 Density:                           39.133     0.001   0.0% |
  Atomic density matrices:           0.818     0.818   0.0% |
  Mix:                               5.394     5.394   0.2% |
  Multipole moments:                 0.019     0.019   0.0% |
  Pseudo density:                   32.900    32.898   1.0% |
   Symmetrize density:               0.001     0.001   0.0% |
 Forces:                           102.387   102.387   3.2% ||
 Hamiltonian:                       11.025     0.110   0.0% |
  Atomic:                            2.588     2.588   0.1% |
   XC Correction:                    0.000     0.000   0.0% |
  Calculate atomic Hamiltonians:     3.839     3.839   0.1% |
  Communicate:                       0.081     0.081   0.0% |
  Poisson:                           0.033     0.033   0.0% |
  XC 3D grid:                        4.375     4.375   0.1% |
 Orthonormalize:                     2.066     0.003   0.0% |
  calc_s_matrix:                     0.242     0.242   0.0% |
  inverse-cholesky:                  0.073     0.073   0.0% |
  projections:                       1.317     1.317   0.0% |
  rotate_psi_s:                      0.430     0.430   0.0% |
Set symmetry:                        0.000     0.000   0.0% |
Other:                            1951.560  1951.560  61.9% |------------------------|
-----------------------------------------------------------
Total:                                      3152.846 100.0%

Memory usage: 13.41 GiB
Date: Thu Mar 25 20:04:12 2021
