
  ___ ___ ___ _ _ _  
 |   |   |_  | | | | 
 | | | | | . | | | | 
 |__ |  _|___|_____|  20.10.1b1
 |___|_|             

User:   madkru@i013.nifl.fysik.dtu.dk
Date:   Mon Mar 22 20:17:41 2021
Arch:   x86_64
Pid:    27943
Python: 3.7.4
gpaw:   /home/niflheim/madkru/venv_folder/gpaw/gpaw (d0d1ca1c71)
_gpaw:  /home/niflheim/madkru/venv_folder/gpaw/build/lib.linux-x86_64-ivybridge-3.7/
        _gpaw.cpython-37m-x86_64-linux-gnu.so (4fd39e8b1e)
ase:    /home/niflheim/madkru/venv_folder/ase/ase (version 3.21.0b1-7e6c206a91)
numpy:  /home/niflheim/madkru/venv_folder/lib/python3.7/site-packages/numpy (version 1.19.4)
scipy:  /home/niflheim/madkru/venv_folder/lib/python3.7/site-packages/scipy (version 1.5.4)
libxc:  4.3.4
units:  Angstrom and eV
cores: 32
OMP_NUM_THREADS: 1

Input parameters:
  convergence: {bands: occupied,
                density: 0.0001,
                eigenstates: 4e-08,
                energy: 0.0005,
                forces: 1e-06}
  kpts: [6 6 4]
  mode: {ecut: 600.0,
         gammacentered: False,
         name: pw}
  occupations: {fixmagmom: False,
                name: fermi-dirac,
                width: 0.001}
  symmetry: {point_group: False,
             time_reversal: False}

System changes: positions, numbers, cell, pbc, initial_charges, initial_magmoms 

Initialize ...

O-setup:
  name: Oxygen
  id: 9b9d51c344dea68c822856295a461509
  Z: 8.0
  valence: 6
  core: 2
  charge: 0.0
  file: /home/modules/software/GPAW-setups/0.9.20000/O.LDA.gz
  compensation charges: gauss, rc=0.21, lmax=2
  cutoffs: 1.17(filt), 0.83(core),
  valence states:
                energy  radius
    2s(2.00)   -23.752   0.688
    2p(4.00)    -9.195   0.598
    *s           3.459   0.688
    *p          18.016   0.598
    *d           0.000   0.619

  Using partial waves for O as LCAO basis

Mn-setup:
  name: Manganese
  id: 0d715a8018be061a6e9ea6f2d364ac92
  Z: 25.0
  valence: 15
  core: 10
  charge: 0.0
  file: /home/modules/software/GPAW-setups/0.9.20000/Mn.LDA.gz
  compensation charges: gauss, rc=0.38, lmax=2
  cutoffs: 2.14(filt), 0.86(core),
  valence states:
                energy  radius
    3s(2.00)   -85.387   1.275
    4s(2.00)    -5.282   1.275
    3p(6.00)   -54.493   1.281
    4p(0.00)    -1.471   1.281
    3d(5.00)    -7.009   1.138
    *d          20.203   1.138

  Using partial waves for Mn as LCAO basis

P-setup:
  name: Phosphorus
  id: a5561c299094968922a179ab894d2e2d
  Z: 15.0
  valence: 5
  core: 10
  charge: 0.0
  file: /home/modules/software/GPAW-setups/0.9.20000/P.LDA.gz
  compensation charges: gauss, rc=0.30, lmax=2
  cutoffs: 1.69(filt), 1.81(core),
  valence states:
                energy  radius
    3s(2.00)   -14.015   0.953
    3p(3.00)    -5.596   0.953
    *s          13.197   0.953
    *p          21.615   0.953
    *d           0.000   0.953

  Using partial waves for P as LCAO basis

Li-setup:
  name: Lithium
  id: b73562207f97a71b6967473b66fe8b65
  Z: 3.0
  valence: 1
  core: 2
  charge: 0.0
  file: /home/modules/software/GPAW-setups/0.9.20000/Li.LDA.gz
  compensation charges: gauss, rc=0.33, lmax=2
  cutoffs: 1.91(filt), 2.55(core),
  valence states:
                energy  radius
    2s(1.00)    -2.874   1.058
    2p(0.00)    -1.126   1.058
    *s          24.338   1.058

  Using partial waves for Li as LCAO basis

Reference energy: -196157.275402

Spin-polarized calculation.
Magnetic moment: 0.000000

Convergence criteria:
  Maximum total energy change: 0.0005 eV / electron
  Maximum integral of absolute density change: 0.0001 electrons
  Maximum integral of absolute eigenstate change: 4e-08 eV^2
  Maximum change in atomic force: 1e-06 eV / Ang
  Maximum number of iterations: 333

Symmetries present (total): 1

  ( 1  0  0)
  ( 0  1  0)
  ( 0  0  1)

144 k-points: 6 x 6 x 4 Monkhorst-Pack grid
144 k-points in the irreducible part of the Brillouin zone
       k-points in crystal coordinates                weights
   0:    -0.41666667   -0.41666667   -0.37500000          1/144
   1:    -0.41666667   -0.41666667   -0.12500000          1/144
   2:    -0.41666667   -0.41666667    0.12500000          1/144
   3:    -0.41666667   -0.41666667    0.37500000          1/144
   4:    -0.41666667   -0.25000000   -0.37500000          1/144
   5:    -0.41666667   -0.25000000   -0.12500000          1/144
   6:    -0.41666667   -0.25000000    0.12500000          1/144
   7:    -0.41666667   -0.25000000    0.37500000          1/144
   8:    -0.41666667   -0.08333333   -0.37500000          1/144
   9:    -0.41666667   -0.08333333   -0.12500000          1/144
          ...
 143:     0.41666667    0.41666667    0.37500000          1/144

Wave functions: Plane wave expansion
  Cutoff energy: 600.000 eV
  Number of coefficients (min, max): 9132, 9161
  Pulay-stress correction: 0.000000 eV/Ang^3 (de/decut=0.000000)
  Using FFTW library
  ScaLapack parameters: grid=1x1, blocksize=None
  Wavefunction extrapolation:
    Improved wavefunction reuse through dual PAW basis 

  Fermi-Dirac: width=0.0010 eV

Eigensolver
   Davidson(niter=2, smin=None, normalize=True) 

Densities:
  Coarse grid: 60*35*27 grid
  Fine grid: 120*70*54 grid
  Total Charge: 0.000000 

Density mixing:
  Method: difference
  Backend: pulay
  Linear mixing parameter: 0.05
  Mixing with 5 old densities
  Damping of long wave oscillations: 50 

Hamiltonian:
  XC and Coulomb potentials evaluated on a 120*70*54 grid
  Using the LDA Exchange-Correlation functional
 

Memory estimate:
  Process memory now: 13433.75 MiB
  Calculator: 342.26 MiB
    Density: 19.13 MiB
      Arrays: 7.57 MiB
      Localized functions: 8.54 MiB
      Mixer: 3.03 MiB
    Hamiltonian: 5.87 MiB
      Arrays: 5.62 MiB
      XC: 0.00 MiB
      Poisson: 0.00 MiB
      vbar: 0.25 MiB
    Wavefunctions: 317.25 MiB
      Arrays psit_nG: 281.81 MiB
      Eigensolver: 18.27 MiB
      Projections: 5.41 MiB
      Projectors: 8.81 MiB
      PW-descriptor: 2.95 MiB

Total number of cores used: 32
Parallelization over k-points: 16
Domain decomposition: 2 x 1 x 1

Number of atoms: 28
Number of atomic orbitals: 148
Number of bands in calculation: 112
Number of valence electrons: 180
Bands to converge: occupied

... initialized

Initializing position-dependent things.

Density initialized from atomic densities
Creating initial wave functions:
  112 bands from LCAO basis set

                                           
                                           
                                           
                                           
                                           
               O     O  P  O               
            PO           OMn     O         
                  O          MO            
            O        Li O                  
             Mn  Mn          OP            
         O       O Li O                    
         Li     O P         O              
       Li                                  
                                           
                                           
                                           
                                           

Positions:
   0 O     -1.280122   -2.495595   -1.112331    ( 0.0000,  0.0000,  0.0000)
   1 O     -3.023238    2.918858    1.191723    ( 0.0000,  0.0000,  0.0000)
   2 O      1.997451    0.467212    1.441442    ( 0.0000,  0.0000,  0.0000)
   3 O      3.740343   -0.043905   -0.862614    ( 0.0000,  0.0000,  0.0000)
   4 O      1.997419    2.918835    1.441465    ( 0.0000,  0.0000,  0.0000)
   5 O      3.740372   -2.495531   -0.862587    ( 0.0000,  0.0000,  0.0000)
   6 O     -1.280154   -0.043891   -1.112309    ( 0.0000,  0.0000,  0.0000)
   7 O     -3.023210    0.467136    1.191750    ( 0.0000,  0.0000,  0.0000)
   8 O     -4.147405   -1.279737   -0.856207    ( 0.0000,  0.0000,  0.0000)
   9 O     -0.155894    1.692986    1.447725    ( 0.0000,  0.0000,  0.0000)
  10 O      4.864578    1.693016    1.185324    ( 0.0000,  0.0000,  0.0000)
  11 O      0.873163   -1.269706   -1.118625    ( 0.0000,  0.0000,  0.0000)
  12 Mn    -2.437108   -1.269902    0.302197    ( 0.0000,  0.0000,  1.0000)
  13 Mn    -1.866187    1.693156   -2.001927    ( 0.0000,  0.0000, -1.0000)
  14 Mn     3.154299    1.693181    0.026917    ( 0.0000,  0.0000, -1.0000)
  15 Mn     2.583444   -1.269877    2.331074    ( 0.0000,  0.0000,  1.0000)
  16 P     -0.543052   -1.269720   -1.734187    ( 0.0000,  0.0000,  0.0000)
  17 P     -3.760282    1.692974    0.569859    ( 0.0000,  0.0000,  0.0000)
  18 P      1.260300    1.693000    2.063344    ( 0.0000,  0.0000,  0.0000)
  19 P      4.477470   -1.269695   -0.240696    ( 0.0000,  0.0000,  0.0000)
  20 O     -0.544413   -1.269738    1.348523    ( 0.0000,  0.0000,  0.0000)
  21 O     -3.758895    1.692992   -0.955558    ( 0.0000,  0.0000,  0.0000)
  22 O      1.261690    1.693018   -1.019367    ( 0.0000,  0.0000,  0.0000)
  23 O      4.476045   -1.269713    1.284716    ( 0.0000,  0.0000,  0.0000)
  24 Li    -4.662027   -2.751322   -2.139440    ( 0.0000,  0.0000,  0.0000)
  25 Li     0.358703   -2.751277    0.164614    ( 0.0000,  0.0000,  0.0000)
  26 Li    -4.662011    0.211617   -2.139439    ( 0.0000,  0.0000,  0.0000)
  27 Li     0.358720    0.211628    0.164615    ( 0.0000,  0.0000,  0.0000)

Unit cell:
           periodic     x           y           z      points  spacing
  1. axis:    yes   10.041096    0.000054   -0.000022    60     0.1674
  2. axis:    yes    0.000032    5.925857    0.000001    35     0.1693
  3. axis:    yes   -0.000010    0.000001    4.608134    27     0.1707

  Lengths:  10.041096   5.925857   4.608134
  Angles:   89.999974  90.000250  89.999381

Effective grid spacing dv^(1/3) = 0.1691

                     log10-error:           total        iterations:
           time      wfs    density  force  energy       poisson  magmom
iter:   1  20:20:47                       -233.730131             +0.0000
iter:   2  20:21:23  -0.47  -0.95         -231.549829             +0.0019
iter:   3  20:21:59  -0.61  -1.00         -220.802913             +0.0020
iter:   4  20:22:36  -1.19  -1.31         -220.894400             +0.3151
iter:   5  20:23:12  -2.12  -1.40         -222.886519             +0.1697
iter:   6  20:23:48  -2.17  -1.38         -223.686929             +0.2413
iter:   7  20:24:24  -2.18  -1.53         -223.777937             -0.1558
iter:   8  20:25:01  -2.54  -1.68         -225.626134             -0.5875
iter:   9  20:25:37  -2.17  -1.90         -226.374188             -0.3144
iter:  10  20:26:13  -2.25  -2.02         -226.305898             -0.1102
iter:  11  20:26:49  -3.01  -2.13         -226.296716             -0.0237
iter:  12  20:27:25  -2.54  -2.15         -226.225513             +0.0051
iter:  13  20:28:01  -3.27  -2.60         -226.222363             -0.0059
iter:  14  20:28:38  -2.88  -2.76         -226.182041             +0.0089
iter:  15  20:29:14  -4.27  -3.09         -226.180613             +0.0009
iter:  16  20:29:50  -4.38  -3.18         -226.176463             -0.0005
iter:  17  20:30:26  -5.41  -3.26         -226.176312             -0.0001
iter:  18  20:31:02  -4.54  -3.29         -226.175358             -0.0000
iter:  19  20:31:39  -5.57  -3.36         -226.175216             -0.0000
iter:  20  20:32:15  -4.75  -3.39         -226.175705             -0.0000
iter:  21  20:32:51  -5.40  -3.69         -226.175158             -0.0000
iter:  22  20:33:27  -5.78  -3.79         -226.175119             -0.0000
iter:  23  20:34:03  -6.25  -3.83         -226.175090             -0.0000
iter:  24  20:34:39  -5.41  -3.90         -226.175230             -0.0000
iter:  25  20:35:16  -6.54  -3.96         -226.175197             +0.0000
iter:  26  20:35:52  -5.32  -4.06         -226.175104             +0.0000
iter:  27  20:36:28  -6.34  -4.35         -226.175060             +0.0000
iter:  28  20:37:04  -6.86  -4.54         -226.175063             -0.0000
iter:  29  20:37:40  -7.23  -4.62         -226.175062             -0.0000
iter:  30  20:38:26  -7.51  -4.77         -226.175062             -0.0000
iter:  31  20:39:11  -8.43  -4.85    -3.45-226.175062             -0.0000
iter:  32  20:39:56  -8.01  -4.90    -3.09-226.175062             -0.0000
iter:  33  20:40:42  -8.73  -5.02    -3.33-226.175062             -0.0000
iter:  34  20:41:27  -9.05  -5.16    -2.95-226.175062             +0.0000
iter:  35  20:42:13  -8.99  -5.37    -3.01-226.175062             +0.0000
iter:  36  20:42:58  -8.46  -5.54    -3.14-226.175061             +0.0000
iter:  37  20:43:43  -9.35  -5.77    -3.69-226.175061             +0.0000
iter:  38  20:44:29 -10.02  -5.95    -4.24-226.175061             +0.0000
iter:  39  20:45:14 -10.19  -5.98    -3.93-226.175061             +0.0000
iter:  40  20:45:59 -10.10  -6.06    -4.33-226.175061             +0.0000
iter:  41  20:46:45 -10.53  -6.15    -4.16-226.175061             +0.0000
iter:  42  20:47:30 -11.29  -6.34    -4.49-226.175061             +0.0000
iter:  43  20:48:15 -10.39  -6.38    -4.13-226.175061             +0.0000
iter:  44  20:49:01 -11.83  -6.61    -4.72-226.175061             +0.0000
iter:  45  20:49:46 -10.53  -6.67    -4.21-226.175061             +0.0000
iter:  46  20:50:32 -11.48  -6.95    -4.48-226.175061             +0.0000
iter:  47  20:51:17 -12.85  -7.19    -5.53-226.175061             +0.0000
iter:  48  20:52:02 -12.56  -7.23    -5.11-226.175061             +0.0000
iter:  49  20:52:48 -12.53  -7.33    -5.21-226.175061             +0.0000
iter:  50  20:53:33 -13.17  -7.37    -5.36-226.175061             +0.0000
iter:  51  20:54:18 -13.24  -7.45    -5.64-226.175061             +0.0000
iter:  52  20:55:04 -13.37  -7.52    -5.12-226.175061             +0.0000
iter:  53  20:55:49 -13.60  -7.85    -5.69-226.175061             +0.0000
iter:  54  20:56:35 -15.10  -8.01    -6.41-226.175061             +0.0000

Converged after 54 iterations.

Dipole moment: (18.327090, -2.308106, -4.524273) |e|*Ang

Total magnetic moment: (0.000000, 0.000000, 0.000000)
Local magnetic moments:
   0 O  ( 0.000000,  0.000000, -0.001810)
   1 O  ( 0.000000,  0.000000,  0.001771)
   2 O  ( 0.000000,  0.000000,  0.001811)
   3 O  ( 0.000000,  0.000000, -0.001825)
   4 O  ( 0.000000,  0.000000,  0.001803)
   5 O  ( 0.000000,  0.000000, -0.001788)
   6 O  ( 0.000000,  0.000000, -0.001812)
   7 O  ( 0.000000,  0.000000,  0.001851)
   8 O  ( 0.000000,  0.000000,  0.031099)
   9 O  ( 0.000000,  0.000000, -0.031097)
  10 O  ( 0.000000,  0.000000, -0.031096)
  11 O  ( 0.000000,  0.000000,  0.031096)
  12 Mn ( 0.000000,  0.000000,  4.395765)
  13 Mn ( 0.000000,  0.000000, -4.395782)
  14 Mn ( 0.000000,  0.000000, -4.395736)
  15 Mn ( 0.000000,  0.000000,  4.395750)
  16 P  ( 0.000000,  0.000000,  0.000866)
  17 P  ( 0.000000,  0.000000, -0.000864)
  18 P  ( 0.000000,  0.000000, -0.000871)
  19 P  ( 0.000000,  0.000000,  0.000869)
  20 O  ( 0.000000,  0.000000,  0.028417)
  21 O  ( 0.000000,  0.000000, -0.028416)
  22 O  ( 0.000000,  0.000000, -0.028420)
  23 O  ( 0.000000,  0.000000,  0.028418)
  24 Li ( 0.000000,  0.000000,  0.000022)
  25 Li ( 0.000000,  0.000000, -0.000000)
  26 Li ( 0.000000,  0.000000, -0.000022)
  27 Li ( 0.000000,  0.000000,  0.000000)

Energy contributions relative to reference atoms: (reference = -196157.275402)

Kinetic:       +277.622547
Potential:     -240.965309
External:        +0.000000
XC:            -264.720747
Entropy (-ST):   -0.000000
Local:           +1.888448
--------------------------
Free energy:   -226.175061
Extrapolated:  -226.175061

Spin contamination: 9.455314 electrons
Showing only first 2 kpts
                      Up                     Down
 Kpt  Band  Eigenvalues  Occupancy  Eigenvalues  Occupancy
  0    88      6.53037    0.00694      6.53045    0.00694
  0    89      6.56421    0.00694      6.56413    0.00694
  0    90      8.42678    0.00000      8.42675    0.00000
  0    91      8.44835    0.00000      8.44836    0.00000

  1    88      6.56903    0.00694      6.56893    0.00694
  1    89      6.59599    0.00694      6.59604    0.00694
  1    90      8.38310    0.00000      8.38311    0.00000
  1    91      8.40523    0.00000      8.40523    0.00000


Fermi level: 7.61409

Gap: 1.699 eV
Transition (v -> c):
  (s=0, k=74, n=89, [0.08, -0.42, 0.12]) -> (s=1, k=62, n=90, [-0.08, 0.08, 0.12])
Writing to born-0.01-8y-.gpw (mode='all')

Timing:                              incl.     excl.
-----------------------------------------------------------
Hamiltonian:                         0.355     0.002   0.0% |
 Atomic:                             0.050     0.050   0.0% |
  XC Correction:                     0.000     0.000   0.0% |
 Calculate atomic Hamiltonians:      0.144     0.144   0.0% |
 Communicate:                        0.002     0.002   0.0% |
 Initialize Hamiltonian:             0.000     0.000   0.0% |
 Poisson:                            0.001     0.001   0.0% |
 XC 3D grid:                         0.156     0.156   0.0% |
LCAO initialization:               142.622     0.646   0.0% |
 LCAO eigensolver:                  38.260     0.002   0.0% |
  Calculate projections:             0.056     0.056   0.0% |
  DenseAtomicCorrection:             0.088     0.088   0.0% |
  Distribute overlap matrix:         0.036     0.036   0.0% |
  Orbital Layouts:                   0.341     0.341   0.0% |
  Potential matrix:                 37.650    37.650   0.7% |
  Sum over cells:                    0.086     0.086   0.0% |
 LCAO to grid:                     101.376   101.376   1.9% ||
 Set positions (LCAO WFS):           2.340     0.371   0.0% |
  Basic WFS set positions:           0.001     0.001   0.0% |
  Basis functions set positions:     0.000     0.000   0.0% |
  P tci:                             1.051     1.051   0.0% |
  ST tci:                            0.700     0.700   0.0% |
  mktci:                             0.217     0.217   0.0% |
PWDescriptor:                        0.023     0.023   0.0% |
SCF-cycle:                        2188.728     6.681   0.1% |
 Davidson:                        1852.986   589.171  11.1% |---|
  Apply H:                         134.570   130.380   2.5% ||
   HMM T:                            4.190     4.190   0.1% |
  Subspace diag:                   277.680     0.171   0.0% |
   calc_h_matrix:                  181.910    48.264   0.9% |
    Apply H:                       133.646   129.515   2.4% ||
     HMM T:                          4.132     4.132   0.1% |
   diagonalize:                      6.401     6.401   0.1% |
   rotate_psi:                      89.197    89.197   1.7% ||
  calc. matrices:                  583.447   324.952   6.1% |-|
   Apply H:                        258.495   250.793   4.7% |-|
    HMM T:                           7.702     7.702   0.1% |
  diagonalize:                      85.619    85.619   1.6% ||
  rotate_psi:                      182.499   182.499   3.4% ||
 Density:                           74.798     0.001   0.0% |
  Atomic density matrices:           1.312     1.312   0.0% |
  Mix:                              10.200    10.200   0.2% |
  Multipole moments:                 0.031     0.031   0.0% |
  Pseudo density:                   63.254    63.252   1.2% |
   Symmetrize density:               0.002     0.002   0.0% |
 Forces:                           231.119   231.119   4.4% |-|
 Hamiltonian:                       19.164     0.129   0.0% |
  Atomic:                            2.677     2.676   0.1% |
   XC Correction:                    0.000     0.000   0.0% |
  Calculate atomic Hamiltonians:     7.766     7.766   0.1% |
  Communicate:                       0.086     0.086   0.0% |
  Poisson:                           0.063     0.063   0.0% |
  XC 3D grid:                        8.443     8.443   0.2% |
 Orthonormalize:                     3.980     0.003   0.0% |
  calc_s_matrix:                     0.478     0.478   0.0% |
  inverse-cholesky:                  0.053     0.053   0.0% |
  projections:                       2.592     2.592   0.0% |
  rotate_psi_s:                      0.854     0.854   0.0% |
Set symmetry:                        0.000     0.000   0.0% |
Other:                            2976.061  2976.061  56.1% |---------------------|
-----------------------------------------------------------
Total:                                      5307.789 100.0%

Memory usage: 13.15 GiB
Date: Mon Mar 22 21:46:09 2021
