
  ___ ___ ___ _ _ _  
 |   |   |_  | | | | 
 | | | | | . | | | | 
 |__ |  _|___|_____|  20.10.1b1
 |___|_|             

User:   madkru@i008.nifl.fysik.dtu.dk
Date:   Thu Mar 25 06:53:48 2021
Arch:   x86_64
Pid:    26969
Python: 3.7.4
gpaw:   /home/niflheim/madkru/venv_folder/gpaw/gpaw (d224efde0f)
_gpaw:  /home/niflheim/madkru/venv_folder/gpaw/build/lib.linux-x86_64-ivybridge-3.7/
        _gpaw.cpython-37m-x86_64-linux-gnu.so (4fd39e8b1e)
ase:    /home/niflheim/madkru/venv_folder/ase/ase (version 3.21.0b1-4d5a73cb29)
numpy:  /home/niflheim/madkru/venv_folder/lib/python3.7/site-packages/numpy (version 1.19.4)
scipy:  /home/niflheim/madkru/venv_folder/lib/python3.7/site-packages/scipy (version 1.5.4)
libxc:  4.3.4
units:  Angstrom and eV
cores: 64
OMP_NUM_THREADS: 1

Input parameters:
  convergence: {bands: occupied,
                density: 0.0001,
                eigenstates: 4e-08,
                energy: 0.0005,
                forces: 1e-06}
  kpts: [6 6 4]
  mode: {ecut: 600.0,
         gammacentered: False,
         name: pw}
  occupations: {fixmagmom: False,
                name: fermi-dirac,
                width: 0.001}
  symmetry: {point_group: False,
             time_reversal: False}

System changes: positions, numbers, cell, pbc, initial_charges, initial_magmoms 

Initialize ...

O-setup:
  name: Oxygen
  id: 9b9d51c344dea68c822856295a461509
  Z: 8.0
  valence: 6
  core: 2
  charge: 0.0
  file: /home/modules/software/GPAW-setups/0.9.20000/O.LDA.gz
  compensation charges: gauss, rc=0.21, lmax=2
  cutoffs: 1.17(filt), 0.83(core),
  valence states:
                energy  radius
    2s(2.00)   -23.752   0.688
    2p(4.00)    -9.195   0.598
    *s           3.459   0.688
    *p          18.016   0.598
    *d           0.000   0.619

  Using partial waves for O as LCAO basis

Mn-setup:
  name: Manganese
  id: 0d715a8018be061a6e9ea6f2d364ac92
  Z: 25.0
  valence: 15
  core: 10
  charge: 0.0
  file: /home/modules/software/GPAW-setups/0.9.20000/Mn.LDA.gz
  compensation charges: gauss, rc=0.38, lmax=2
  cutoffs: 2.14(filt), 0.86(core),
  valence states:
                energy  radius
    3s(2.00)   -85.387   1.275
    4s(2.00)    -5.282   1.275
    3p(6.00)   -54.493   1.281
    4p(0.00)    -1.471   1.281
    3d(5.00)    -7.009   1.138
    *d          20.203   1.138

  Using partial waves for Mn as LCAO basis

P-setup:
  name: Phosphorus
  id: a5561c299094968922a179ab894d2e2d
  Z: 15.0
  valence: 5
  core: 10
  charge: 0.0
  file: /home/modules/software/GPAW-setups/0.9.20000/P.LDA.gz
  compensation charges: gauss, rc=0.30, lmax=2
  cutoffs: 1.69(filt), 1.81(core),
  valence states:
                energy  radius
    3s(2.00)   -14.015   0.953
    3p(3.00)    -5.596   0.953
    *s          13.197   0.953
    *p          21.615   0.953
    *d           0.000   0.953

  Using partial waves for P as LCAO basis

Li-setup:
  name: Lithium
  id: b73562207f97a71b6967473b66fe8b65
  Z: 3.0
  valence: 1
  core: 2
  charge: 0.0
  file: /home/modules/software/GPAW-setups/0.9.20000/Li.LDA.gz
  compensation charges: gauss, rc=0.33, lmax=2
  cutoffs: 1.91(filt), 2.55(core),
  valence states:
                energy  radius
    2s(1.00)    -2.874   1.058
    2p(0.00)    -1.126   1.058
    *s          24.338   1.058

  Using partial waves for Li as LCAO basis

Reference energy: -196157.275402

Spin-polarized calculation.
Magnetic moment: 0.000000

Convergence criteria:
  Maximum total energy change: 0.0005 eV / electron
  Maximum integral of absolute density change: 0.0001 electrons
  Maximum integral of absolute eigenstate change: 4e-08 eV^2
  Maximum change in atomic force: 1e-06 eV / Ang
  Maximum number of iterations: 333

Symmetries present (total): 1

  ( 1  0  0)
  ( 0  1  0)
  ( 0  0  1)

144 k-points: 6 x 6 x 4 Monkhorst-Pack grid
144 k-points in the irreducible part of the Brillouin zone
       k-points in crystal coordinates                weights
   0:    -0.41666667   -0.41666667   -0.37500000          1/144
   1:    -0.41666667   -0.41666667   -0.12500000          1/144
   2:    -0.41666667   -0.41666667    0.12500000          1/144
   3:    -0.41666667   -0.41666667    0.37500000          1/144
   4:    -0.41666667   -0.25000000   -0.37500000          1/144
   5:    -0.41666667   -0.25000000   -0.12500000          1/144
   6:    -0.41666667   -0.25000000    0.12500000          1/144
   7:    -0.41666667   -0.25000000    0.37500000          1/144
   8:    -0.41666667   -0.08333333   -0.37500000          1/144
   9:    -0.41666667   -0.08333333   -0.12500000          1/144
          ...
 143:     0.41666667    0.41666667    0.37500000          1/144

Wave functions: Plane wave expansion
  Cutoff energy: 600.000 eV
  Number of coefficients (min, max): 9132, 9161
  Pulay-stress correction: 0.000000 eV/Ang^3 (de/decut=0.000000)
  Using FFTW library
  ScaLapack parameters: grid=1x1, blocksize=None
  Wavefunction extrapolation:
    Improved wavefunction reuse through dual PAW basis 

  Fermi-Dirac: width=0.0010 eV

Eigensolver
   Davidson(niter=2, smin=None, normalize=True) 

Densities:
  Coarse grid: 60*35*27 grid
  Fine grid: 120*70*54 grid
  Total Charge: 0.000000 

Density mixing:
  Method: difference
  Backend: pulay
  Linear mixing parameter: 0.05
  Mixing with 5 old densities
  Damping of long wave oscillations: 50 

Hamiltonian:
  XC and Coulomb potentials evaluated on a 120*70*54 grid
  Using the LDA Exchange-Correlation functional
 

Memory estimate:
  Process memory now: 13115.90 MiB
  Calculator: 322.47 MiB
    Density: 9.62 MiB
      Arrays: 3.79 MiB
      Localized functions: 4.27 MiB
      Mixer: 1.56 MiB
    Hamiltonian: 2.94 MiB
      Arrays: 2.82 MiB
      XC: 0.00 MiB
      Poisson: 0.00 MiB
      vbar: 0.12 MiB
    Wavefunctions: 309.91 MiB
      Arrays psit_nG: 281.81 MiB
      Eigensolver: 18.27 MiB
      Projections: 2.71 MiB
      Projectors: 4.40 MiB
      PW-descriptor: 2.71 MiB

Total number of cores used: 64
Parallelization over k-points: 16
Domain decomposition: 2 x 2 x 1

Number of atoms: 28
Number of atomic orbitals: 148
Number of bands in calculation: 112
Number of valence electrons: 180
Bands to converge: occupied

... initialized

Initializing position-dependent things.

Density initialized from atomic densities
Creating initial wave functions:
  112 bands from LCAO basis set

                                           
                                           
                                           
                                           
                                           
               O     O  P  O               
            PO           OMn     O         
                  O          MO            
            O        Li O                  
             Mn  Mn          OP            
         O       O Li O                    
         Li     O P         O              
       Li                                  
                                           
                                           
                                           
                                           

Positions:
   0 O     -1.280122   -2.495595   -1.112331    ( 0.0000,  0.0000,  0.0000)
   1 O     -3.023238    2.918858    1.191723    ( 0.0000,  0.0000,  0.0000)
   2 O      1.997451    0.467212    1.441442    ( 0.0000,  0.0000,  0.0000)
   3 O      3.740343   -0.043905   -0.862614    ( 0.0000,  0.0000,  0.0000)
   4 O      1.997419    2.918835    1.441465    ( 0.0000,  0.0000,  0.0000)
   5 O      3.740372   -2.495531   -0.862587    ( 0.0000,  0.0000,  0.0000)
   6 O     -1.280154   -0.043891   -1.112309    ( 0.0000,  0.0000,  0.0000)
   7 O     -3.023210    0.467136    1.191750    ( 0.0000,  0.0000,  0.0000)
   8 O     -4.147405   -1.269737   -0.856207    ( 0.0000,  0.0000,  0.0000)
   9 O     -0.155894    1.692986    1.447725    ( 0.0000,  0.0000,  0.0000)
  10 O      4.864578    1.693016    1.185324    ( 0.0000,  0.0000,  0.0000)
  11 O      0.873163   -1.269706   -1.118625    ( 0.0000,  0.0000,  0.0000)
  12 Mn    -2.437108   -1.269902    0.302197    ( 0.0000,  0.0000,  1.0000)
  13 Mn    -1.866187    1.693156   -2.001927    ( 0.0000,  0.0000, -1.0000)
  14 Mn     3.154299    1.693181    0.026917    ( 0.0000,  0.0000, -1.0000)
  15 Mn     2.583444   -1.269877    2.331074    ( 0.0000,  0.0000,  1.0000)
  16 P     -0.543052   -1.269720   -1.734187    ( 0.0000,  0.0000,  0.0000)
  17 P     -3.760282    1.692974    0.559859    ( 0.0000,  0.0000,  0.0000)
  18 P      1.260300    1.693000    2.063344    ( 0.0000,  0.0000,  0.0000)
  19 P      4.477470   -1.269695   -0.240696    ( 0.0000,  0.0000,  0.0000)
  20 O     -0.544413   -1.269738    1.348523    ( 0.0000,  0.0000,  0.0000)
  21 O     -3.758895    1.692992   -0.955558    ( 0.0000,  0.0000,  0.0000)
  22 O      1.261690    1.693018   -1.019367    ( 0.0000,  0.0000,  0.0000)
  23 O      4.476045   -1.269713    1.284716    ( 0.0000,  0.0000,  0.0000)
  24 Li    -4.662027   -2.751322   -2.139440    ( 0.0000,  0.0000,  0.0000)
  25 Li     0.358703   -2.751277    0.164614    ( 0.0000,  0.0000,  0.0000)
  26 Li    -4.662011    0.211617   -2.139439    ( 0.0000,  0.0000,  0.0000)
  27 Li     0.358720    0.211628    0.164615    ( 0.0000,  0.0000,  0.0000)

Unit cell:
           periodic     x           y           z      points  spacing
  1. axis:    yes   10.041096    0.000054   -0.000022    60     0.1674
  2. axis:    yes    0.000032    5.925857    0.000001    35     0.1693
  3. axis:    yes   -0.000010    0.000001    4.608134    27     0.1707

  Lengths:  10.041096   5.925857   4.608134
  Angles:   89.999974  90.000250  89.999381

Effective grid spacing dv^(1/3) = 0.1691

                     log10-error:           total        iterations:
           time      wfs    density  force  energy       poisson  magmom
iter:   1  06:55:23                       -233.738321             +0.0000
iter:   2  06:55:43  -0.47  -0.95         -231.551291             +0.0010
iter:   3  06:56:03  -0.61  -1.00         -220.805356             +0.0010
iter:   4  06:56:22  -1.19  -1.31         -220.905580             +0.3181
iter:   5  06:56:42  -2.13  -1.40         -223.017106             +0.1717
iter:   6  06:57:02  -2.39  -1.37         -223.064551             +0.0714
iter:   7  06:57:22  -1.99  -1.54         -222.955299             +0.0496
iter:   8  06:57:42  -2.28  -1.91         -225.794018             +0.0204
iter:   9  06:58:01  -2.11  -2.05         -226.355092             -0.0013
iter:  10  06:58:21  -2.30  -2.13         -226.392919             +0.0009
iter:  11  06:58:41  -3.00  -2.28         -226.390662             +0.0003
iter:  12  06:59:01  -2.98  -2.33         -226.246411             +0.0000
iter:  13  06:59:21  -3.24  -2.44         -226.222982             +0.0001
iter:  14  06:59:40  -3.19  -2.68         -226.182565             +0.0000
iter:  15  07:00:00  -4.24  -2.77         -226.187629             +0.0000
iter:  16  07:00:20  -3.95  -2.80         -226.188262             -0.0000
iter:  17  07:00:40  -3.96  -2.85         -226.178539             -0.0000
iter:  18  07:01:00  -4.15  -2.99         -226.174117             -0.0000
iter:  19  07:01:19  -4.29  -3.07         -226.172279             -0.0000
iter:  20  07:01:39  -4.32  -3.15         -226.172276             +0.0000
iter:  21  07:01:59  -5.05  -3.38         -226.172158             +0.0000
iter:  22  07:02:19  -6.03  -3.44         -226.172147             +0.0000
iter:  23  07:02:38  -4.99  -3.47         -226.172054             +0.0000
iter:  24  07:02:58  -6.12  -3.77         -226.171948             +0.0000
iter:  25  07:03:18  -6.73  -4.12         -226.171928             +0.0000
iter:  26  07:03:38  -6.27  -4.24         -226.171911             +0.0000
iter:  27  07:03:57  -7.04  -4.44         -226.171911             +0.0000
iter:  28  07:04:22  -7.68  -4.56         -226.171910             -0.0000
iter:  29  07:04:41  -7.21  -4.65         -226.171912             +0.0000
iter:  30  07:05:01  -6.76  -4.56         -226.171911             -0.0000
iter:  31  07:05:26  -7.96  -4.86    -2.24-226.171909             +0.0000
iter:  32  07:05:50  -8.60  -5.26    -3.44-226.171909             +0.0000
iter:  33  07:06:14  -8.31  -5.32    -2.83-226.171909             +0.0000
iter:  34  07:06:39  -8.94  -5.35    -3.56-226.171909             -0.0000
iter:  35  07:07:03  -9.49  -5.58    -3.90-226.171909             -0.0000
iter:  36  07:07:27  -9.22  -5.65    -3.55-226.171909             -0.0000
iter:  37  07:07:52 -10.12  -5.78    -3.57-226.171909             -0.0000
iter:  38  07:08:16  -9.59  -5.86    -3.66-226.171909             -0.0000
iter:  39  07:08:40 -10.05  -5.84    -3.92-226.171909             -0.0000
iter:  40  07:09:05 -10.25  -6.04    -4.22-226.171909             -0.0000
iter:  41  07:09:29 -10.61  -6.13    -3.90-226.171909             -0.0000
iter:  42  07:09:53 -11.15  -6.25    -4.55-226.171909             -0.0000
iter:  43  07:10:18 -10.34  -6.37    -4.18-226.171909             -0.0000
iter:  44  07:10:42 -11.32  -6.62    -4.77-226.171909             -0.0000
iter:  45  07:11:07 -11.86  -6.65    -4.84-226.171909             -0.0000
iter:  46  07:11:31 -12.25  -6.70    -4.77-226.171909             -0.0000
iter:  47  07:11:55 -11.71  -6.76    -4.98-226.171909             -0.0000
iter:  48  07:12:20 -12.26  -6.78    -5.22-226.171909             -0.0000
iter:  49  07:12:44 -12.34  -6.83    -4.94-226.171909             -0.0000
iter:  50  07:13:08 -12.44  -6.91    -5.19-226.171909             -0.0000
iter:  51  07:13:33 -12.14  -6.99    -4.72-226.171909             -0.0000
iter:  52  07:13:57 -12.93  -7.25    -5.52-226.171909             -0.0000
iter:  53  07:14:21 -12.72  -7.33    -4.99-226.171909             -0.0000
iter:  54  07:14:46 -13.36  -7.46    -5.29-226.171909             -0.0000
iter:  55  07:15:10 -14.09  -7.52    -5.87-226.171909             -0.0000
iter:  56  07:15:34 -13.03  -7.56    -5.26-226.171909             -0.0000
iter:  57  07:15:59 -14.38  -7.81    -5.99-226.171909             -0.0000
iter:  58  07:16:23 -13.40  -7.85    -5.67-226.171909             -0.0000
iter:  59  07:16:47 -14.59  -8.05    -5.95-226.171909             -0.0000
iter:  60  07:17:12 -15.65  -8.25    -6.53-226.171909             -0.0000

Converged after 60 iterations.

Dipole moment: (18.327828, -2.312870, -4.600200) |e|*Ang

Total magnetic moment: (0.000000, 0.000000, -0.000000)
Local magnetic moments:
   0 O  ( 0.000000,  0.000000, -0.001837)
   1 O  ( 0.000000,  0.000000,  0.001991)
   2 O  ( 0.000000,  0.000000,  0.001813)
   3 O  ( 0.000000,  0.000000, -0.001830)
   4 O  ( 0.000000,  0.000000,  0.001808)
   5 O  ( 0.000000,  0.000000, -0.001825)
   6 O  ( 0.000000,  0.000000, -0.001842)
   7 O  ( 0.000000,  0.000000,  0.001997)
   8 O  ( 0.000000,  0.000000,  0.031076)
   9 O  ( 0.000000,  0.000000, -0.031203)
  10 O  ( 0.000000,  0.000000, -0.031383)
  11 O  ( 0.000000,  0.000000,  0.031085)
  12 Mn ( 0.000000,  0.000000,  4.395380)
  13 Mn ( 0.000000,  0.000000, -4.395779)
  14 Mn ( 0.000000,  0.000000, -4.395460)
  15 Mn ( 0.000000,  0.000000,  4.395718)
  16 P  ( 0.000000,  0.000000,  0.000879)
  17 P  ( 0.000000,  0.000000, -0.001024)
  18 P  ( 0.000000,  0.000000, -0.000870)
  19 P  ( 0.000000,  0.000000,  0.000873)
  20 O  ( 0.000000,  0.000000,  0.028438)
  21 O  ( 0.000000,  0.000000, -0.028033)
  22 O  ( 0.000000,  0.000000, -0.028374)
  23 O  ( 0.000000,  0.000000,  0.028419)
  24 Li ( 0.000000,  0.000000,  0.000003)
  25 Li ( 0.000000,  0.000000,  0.000000)
  26 Li ( 0.000000,  0.000000,  0.000003)
  27 Li ( 0.000000,  0.000000,  0.000000)

Energy contributions relative to reference atoms: (reference = -196157.275402)

Kinetic:       +277.623892
Potential:     -240.980383
External:        +0.000000
XC:            -264.704001
Entropy (-ST):   -0.000000
Local:           +1.888583
--------------------------
Free energy:   -226.171909
Extrapolated:  -226.171909

Spin contamination: 9.455102 electrons
Showing only first 2 kpts
                      Up                     Down
 Kpt  Band  Eigenvalues  Occupancy  Eigenvalues  Occupancy
  0    88      6.53514    0.00694      6.52751    0.00694
  0    89      6.56956    0.00694      6.56600    0.00694
  0    90      8.42686    0.00000      8.43068    0.00000
  0    91      8.44830    0.00000      8.45215    0.00000

  1    88      6.57353    0.00694      6.56493    0.00694
  1    89      6.60160    0.00694      6.59922    0.00694
  1    90      8.38363    0.00000      8.38686    0.00000
  1    91      8.40573    0.00000      8.40895    0.00000


Fermi level: 7.54097

Gap: 1.695 eV
Transition (v -> c):
  (s=0, k=49, n=89, [-0.08, -0.42, -0.12]) -> (s=0, k=62, n=90, [-0.08, 0.08, 0.12])
Writing to born-0.01-17z-.gpw (mode='all')

Timing:                              incl.     excl.
-----------------------------------------------------------
Hamiltonian:                         0.219     0.002   0.0% |
 Atomic:                             0.056     0.056   0.0% |
  XC Correction:                     0.000     0.000   0.0% |
 Calculate atomic Hamiltonians:      0.074     0.074   0.0% |
 Communicate:                        0.002     0.002   0.0% |
 Initialize Hamiltonian:             0.000     0.000   0.0% |
 Poisson:                            0.001     0.001   0.0% |
 XC 3D grid:                         0.084     0.084   0.0% |
LCAO initialization:                71.151     0.676   0.0% |
 LCAO eigensolver:                  19.684     0.002   0.0% |
  Calculate projections:             0.029     0.029   0.0% |
  DenseAtomicCorrection:             0.045     0.045   0.0% |
  Distribute overlap matrix:         0.016     0.016   0.0% |
  Orbital Layouts:                   0.435     0.435   0.0% |
  Potential matrix:                 19.058    19.058   0.6% |
  Sum over cells:                    0.100     0.100   0.0% |
 LCAO to grid:                      49.478    49.478   1.5% ||
 Set positions (LCAO WFS):           1.313     0.193   0.0% |
  Basic WFS set positions:           0.001     0.001   0.0% |
  Basis functions set positions:     0.000     0.000   0.0% |
  P tci:                             0.521     0.521   0.0% |
  ST tci:                            0.381     0.381   0.0% |
  mktci:                             0.216     0.216   0.0% |
PWDescriptor:                        0.023     0.023   0.0% |
SCF-cycle:                        1331.694     3.394   0.1% |
 Davidson:                        1123.217   343.234  10.1% |---|
  Apply H:                          78.483    76.174   2.2% ||
   HMM T:                            2.309     2.309   0.1% |
  Subspace diag:                   163.384     0.171   0.0% |
   calc_h_matrix:                  105.374    27.119   0.8% |
    Apply H:                        78.255    76.009   2.2% ||
     HMM T:                          2.246     2.246   0.1% |
   diagonalize:                      8.122     8.122   0.2% |
   rotate_psi:                      49.718    49.718   1.5% ||
  calc. matrices:                  336.287   183.433   5.4% |-|
   Apply H:                        152.854   148.752   4.4% |-|
    HMM T:                           4.103     4.103   0.1% |
  diagonalize:                      94.191    94.191   2.8% ||
  rotate_psi:                      107.637   107.637   3.2% ||
 Density:                           45.527     0.002   0.0% |
  Atomic density matrices:           0.968     0.968   0.0% |
  Mix:                               6.230     6.230   0.2% |
  Multipole moments:                 0.022     0.022   0.0% |
  Pseudo density:                   38.306    38.305   1.1% |
   Symmetrize density:               0.002     0.002   0.0% |
 Forces:                           144.723   144.723   4.3% |-|
 Hamiltonian:                       12.771     0.126   0.0% |
  Atomic:                            2.999     2.998   0.1% |
   XC Correction:                    0.000     0.000   0.0% |
  Calculate atomic Hamiltonians:     4.453     4.453   0.1% |
  Communicate:                       0.109     0.109   0.0% |
  Poisson:                           0.036     0.036   0.0% |
  XC 3D grid:                        5.049     5.049   0.1% |
 Orthonormalize:                     2.062     0.003   0.0% |
  calc_s_matrix:                     0.242     0.242   0.0% |
  inverse-cholesky:                  0.073     0.073   0.0% |
  projections:                       1.315     1.315   0.0% |
  rotate_psi_s:                      0.429     0.429   0.0% |
Set symmetry:                        0.000     0.000   0.0% |
Other:                            1999.617  1999.617  58.8% |-----------------------|
-----------------------------------------------------------
Total:                                      3402.705 100.0%

Memory usage: 12.83 GiB
Date: Thu Mar 25 07:50:30 2021
