
  ___ ___ ___ _ _ _  
 |   |   |_  | | | | 
 | | | | | . | | | | 
 |__ |  _|___|_____|  20.10.1b1
 |___|_|             

User:   madkru@i013.nifl.fysik.dtu.dk
Date:   Mon Mar 22 05:31:19 2021
Arch:   x86_64
Pid:    27943
Python: 3.7.4
gpaw:   /home/niflheim/madkru/venv_folder/gpaw/gpaw (d0d1ca1c71)
_gpaw:  /home/niflheim/madkru/venv_folder/gpaw/build/lib.linux-x86_64-ivybridge-3.7/
        _gpaw.cpython-37m-x86_64-linux-gnu.so (4fd39e8b1e)
ase:    /home/niflheim/madkru/venv_folder/ase/ase (version 3.21.0b1-7e6c206a91)
numpy:  /home/niflheim/madkru/venv_folder/lib/python3.7/site-packages/numpy (version 1.19.4)
scipy:  /home/niflheim/madkru/venv_folder/lib/python3.7/site-packages/scipy (version 1.5.4)
libxc:  4.3.4
units:  Angstrom and eV
cores: 32
OMP_NUM_THREADS: 1

Input parameters:
  convergence: {bands: occupied,
                density: 0.0001,
                eigenstates: 4e-08,
                energy: 0.0005,
                forces: 1e-06}
  kpts: [6 6 4]
  mode: {ecut: 600.0,
         gammacentered: False,
         name: pw}
  occupations: {fixmagmom: False,
                name: fermi-dirac,
                width: 0.001}
  symmetry: {point_group: False,
             time_reversal: False}

System changes: positions, numbers, cell, pbc, initial_charges, initial_magmoms 

Initialize ...

O-setup:
  name: Oxygen
  id: 9b9d51c344dea68c822856295a461509
  Z: 8.0
  valence: 6
  core: 2
  charge: 0.0
  file: /home/modules/software/GPAW-setups/0.9.20000/O.LDA.gz
  compensation charges: gauss, rc=0.21, lmax=2
  cutoffs: 1.17(filt), 0.83(core),
  valence states:
                energy  radius
    2s(2.00)   -23.752   0.688
    2p(4.00)    -9.195   0.598
    *s           3.459   0.688
    *p          18.016   0.598
    *d           0.000   0.619

  Using partial waves for O as LCAO basis

Mn-setup:
  name: Manganese
  id: 0d715a8018be061a6e9ea6f2d364ac92
  Z: 25.0
  valence: 15
  core: 10
  charge: 0.0
  file: /home/modules/software/GPAW-setups/0.9.20000/Mn.LDA.gz
  compensation charges: gauss, rc=0.38, lmax=2
  cutoffs: 2.14(filt), 0.86(core),
  valence states:
                energy  radius
    3s(2.00)   -85.387   1.275
    4s(2.00)    -5.282   1.275
    3p(6.00)   -54.493   1.281
    4p(0.00)    -1.471   1.281
    3d(5.00)    -7.009   1.138
    *d          20.203   1.138

  Using partial waves for Mn as LCAO basis

P-setup:
  name: Phosphorus
  id: a5561c299094968922a179ab894d2e2d
  Z: 15.0
  valence: 5
  core: 10
  charge: 0.0
  file: /home/modules/software/GPAW-setups/0.9.20000/P.LDA.gz
  compensation charges: gauss, rc=0.30, lmax=2
  cutoffs: 1.69(filt), 1.81(core),
  valence states:
                energy  radius
    3s(2.00)   -14.015   0.953
    3p(3.00)    -5.596   0.953
    *s          13.197   0.953
    *p          21.615   0.953
    *d           0.000   0.953

  Using partial waves for P as LCAO basis

Li-setup:
  name: Lithium
  id: b73562207f97a71b6967473b66fe8b65
  Z: 3.0
  valence: 1
  core: 2
  charge: 0.0
  file: /home/modules/software/GPAW-setups/0.9.20000/Li.LDA.gz
  compensation charges: gauss, rc=0.33, lmax=2
  cutoffs: 1.91(filt), 2.55(core),
  valence states:
                energy  radius
    2s(1.00)    -2.874   1.058
    2p(0.00)    -1.126   1.058
    *s          24.338   1.058

  Using partial waves for Li as LCAO basis

Reference energy: -196157.275402

Spin-polarized calculation.
Magnetic moment: 0.000000

Convergence criteria:
  Maximum total energy change: 0.0005 eV / electron
  Maximum integral of absolute density change: 0.0001 electrons
  Maximum integral of absolute eigenstate change: 4e-08 eV^2
  Maximum change in atomic force: 1e-06 eV / Ang
  Maximum number of iterations: 333

Symmetries present (total): 1

  ( 1  0  0)
  ( 0  1  0)
  ( 0  0  1)

144 k-points: 6 x 6 x 4 Monkhorst-Pack grid
144 k-points in the irreducible part of the Brillouin zone
       k-points in crystal coordinates                weights
   0:    -0.41666667   -0.41666667   -0.37500000          1/144
   1:    -0.41666667   -0.41666667   -0.12500000          1/144
   2:    -0.41666667   -0.41666667    0.12500000          1/144
   3:    -0.41666667   -0.41666667    0.37500000          1/144
   4:    -0.41666667   -0.25000000   -0.37500000          1/144
   5:    -0.41666667   -0.25000000   -0.12500000          1/144
   6:    -0.41666667   -0.25000000    0.12500000          1/144
   7:    -0.41666667   -0.25000000    0.37500000          1/144
   8:    -0.41666667   -0.08333333   -0.37500000          1/144
   9:    -0.41666667   -0.08333333   -0.12500000          1/144
          ...
 143:     0.41666667    0.41666667    0.37500000          1/144

Wave functions: Plane wave expansion
  Cutoff energy: 600.000 eV
  Number of coefficients (min, max): 9132, 9161
  Pulay-stress correction: 0.000000 eV/Ang^3 (de/decut=0.000000)
  Using FFTW library
  ScaLapack parameters: grid=1x1, blocksize=None
  Wavefunction extrapolation:
    Improved wavefunction reuse through dual PAW basis 

  Fermi-Dirac: width=0.0010 eV

Eigensolver
   Davidson(niter=2, smin=None, normalize=True) 

Densities:
  Coarse grid: 60*35*27 grid
  Fine grid: 120*70*54 grid
  Total Charge: 0.000000 

Density mixing:
  Method: difference
  Backend: pulay
  Linear mixing parameter: 0.05
  Mixing with 5 old densities
  Damping of long wave oscillations: 50 

Hamiltonian:
  XC and Coulomb potentials evaluated on a 120*70*54 grid
  Using the LDA Exchange-Correlation functional
 

Memory estimate:
  Process memory now: 12993.29 MiB
  Calculator: 342.26 MiB
    Density: 19.13 MiB
      Arrays: 7.57 MiB
      Localized functions: 8.54 MiB
      Mixer: 3.03 MiB
    Hamiltonian: 5.87 MiB
      Arrays: 5.62 MiB
      XC: 0.00 MiB
      Poisson: 0.00 MiB
      vbar: 0.25 MiB
    Wavefunctions: 317.25 MiB
      Arrays psit_nG: 281.81 MiB
      Eigensolver: 18.27 MiB
      Projections: 5.41 MiB
      Projectors: 8.81 MiB
      PW-descriptor: 2.95 MiB

Total number of cores used: 32
Parallelization over k-points: 16
Domain decomposition: 2 x 1 x 1

Number of atoms: 28
Number of atomic orbitals: 148
Number of bands in calculation: 112
Number of valence electrons: 180
Bands to converge: occupied

... initialized

Initializing position-dependent things.

Density initialized from atomic densities
Creating initial wave functions:
  112 bands from LCAO basis set

                                           
                                           
                                           
                                           
                                           
               O     O  P  O               
            PO           OMn     O         
                  O          MO            
            O        Li O                  
             Mn  Mn          OP            
         O       O Li O                    
         Li     O P         O              
       Li                                  
                                           
                                           
                                           
                                           

Positions:
   0 O     -1.280122   -2.495595   -1.112331    ( 0.0000,  0.0000,  0.0000)
   1 O     -3.023238    2.918858    1.191723    ( 0.0000,  0.0000,  0.0000)
   2 O      1.997451    0.467212    1.441442    ( 0.0000,  0.0000,  0.0000)
   3 O      3.740343   -0.043905   -0.862614    ( 0.0000,  0.0000,  0.0000)
   4 O      1.997419    2.918835    1.441465    ( 0.0000,  0.0000,  0.0000)
   5 O      3.740372   -2.505531   -0.862587    ( 0.0000,  0.0000,  0.0000)
   6 O     -1.280154   -0.043891   -1.112309    ( 0.0000,  0.0000,  0.0000)
   7 O     -3.023210    0.467136    1.191750    ( 0.0000,  0.0000,  0.0000)
   8 O     -4.147405   -1.269737   -0.856207    ( 0.0000,  0.0000,  0.0000)
   9 O     -0.155894    1.692986    1.447725    ( 0.0000,  0.0000,  0.0000)
  10 O      4.864578    1.693016    1.185324    ( 0.0000,  0.0000,  0.0000)
  11 O      0.873163   -1.269706   -1.118625    ( 0.0000,  0.0000,  0.0000)
  12 Mn    -2.437108   -1.269902    0.302197    ( 0.0000,  0.0000,  1.0000)
  13 Mn    -1.866187    1.693156   -2.001927    ( 0.0000,  0.0000, -1.0000)
  14 Mn     3.154299    1.693181    0.026917    ( 0.0000,  0.0000, -1.0000)
  15 Mn     2.583444   -1.269877    2.331074    ( 0.0000,  0.0000,  1.0000)
  16 P     -0.543052   -1.269720   -1.734187    ( 0.0000,  0.0000,  0.0000)
  17 P     -3.760282    1.692974    0.569859    ( 0.0000,  0.0000,  0.0000)
  18 P      1.260300    1.693000    2.063344    ( 0.0000,  0.0000,  0.0000)
  19 P      4.477470   -1.269695   -0.240696    ( 0.0000,  0.0000,  0.0000)
  20 O     -0.544413   -1.269738    1.348523    ( 0.0000,  0.0000,  0.0000)
  21 O     -3.758895    1.692992   -0.955558    ( 0.0000,  0.0000,  0.0000)
  22 O      1.261690    1.693018   -1.019367    ( 0.0000,  0.0000,  0.0000)
  23 O      4.476045   -1.269713    1.284716    ( 0.0000,  0.0000,  0.0000)
  24 Li    -4.662027   -2.751322   -2.139440    ( 0.0000,  0.0000,  0.0000)
  25 Li     0.358703   -2.751277    0.164614    ( 0.0000,  0.0000,  0.0000)
  26 Li    -4.662011    0.211617   -2.139439    ( 0.0000,  0.0000,  0.0000)
  27 Li     0.358720    0.211628    0.164615    ( 0.0000,  0.0000,  0.0000)

Unit cell:
           periodic     x           y           z      points  spacing
  1. axis:    yes   10.041096    0.000054   -0.000022    60     0.1674
  2. axis:    yes    0.000032    5.925857    0.000001    35     0.1693
  3. axis:    yes   -0.000010    0.000001    4.608134    27     0.1707

  Lengths:  10.041096   5.925857   4.608134
  Angles:   89.999974  90.000250  89.999381

Effective grid spacing dv^(1/3) = 0.1691

                     log10-error:           total        iterations:
           time      wfs    density  force  energy       poisson  magmom
iter:   1  05:34:24                       -233.734947             +0.0000
iter:   2  05:35:01  -0.47  -0.95         -231.549723             +0.0039
iter:   3  05:35:37  -0.61  -1.00         -220.807990             +0.0041
iter:   4  05:36:13  -1.19  -1.31         -220.921042             +0.1270
iter:   5  05:36:50  -2.13  -1.39         -223.028378             +0.0576
iter:   6  05:37:26  -2.35  -1.37         -223.085562             +0.0469
iter:   7  05:38:02  -1.97  -1.55         -223.210805             -0.0666
iter:   8  05:38:39  -2.25  -1.80         -225.424988             +0.3211
iter:   9  05:39:15  -2.31  -1.94         -226.378143             +0.0679
iter:  10  05:39:51  -2.43  -2.03         -226.444482             -0.0131
iter:  11  05:40:28  -3.27  -2.06         -226.406367             -0.0020
iter:  12  05:41:04  -1.69  -2.07         -226.890359             +0.0015
iter:  13  05:41:40  -3.06  -2.18         -226.458105             -0.0025
iter:  14  05:42:17  -3.00  -2.34         -226.428804             -0.1151
iter:  15  05:42:53  -2.73  -2.47         -226.214732             -0.0482
iter:  16  05:43:29  -3.54  -2.53         -226.197857             -0.0214
iter:  17  05:44:05  -3.93  -2.59         -226.193660             +0.0077
iter:  18  05:44:41  -3.19  -2.67         -226.179743             +0.0004
iter:  19  05:45:17  -3.81  -2.98         -226.174420             +0.0018
iter:  20  05:45:53  -4.75  -3.26         -226.174727             +0.0010
iter:  21  05:46:29  -4.63  -3.30         -226.175478             +0.0001
iter:  22  05:47:06  -4.69  -3.40         -226.174411             -0.0001
iter:  23  05:47:42  -5.71  -3.53         -226.174292             +0.0000
iter:  24  05:48:18  -5.14  -3.57         -226.174191             +0.0000
iter:  25  05:48:54  -4.91  -3.51         -226.173991             +0.0000
iter:  26  05:49:30  -5.65  -3.89         -226.173963             +0.0000
iter:  27  05:50:06  -5.85  -4.08         -226.173931             +0.0000
iter:  28  05:50:42  -6.28  -4.28         -226.173894             +0.0000
iter:  29  05:51:27  -7.46  -4.43         -226.173895             +0.0000
iter:  30  05:52:04  -7.21  -4.49         -226.173894             -0.0000
iter:  31  05:52:49  -7.47  -4.58    -2.35-226.173894             -0.0000
iter:  32  05:53:34  -7.96  -4.65    -2.51-226.173893             -0.0000
iter:  33  05:54:20  -8.65  -4.74    -3.29-226.173893             -0.0000
iter:  34  05:55:05  -8.32  -4.78    -2.54-226.173893             -0.0000
iter:  35  05:55:50  -8.11  -5.32    -2.87-226.173892             -0.0000
iter:  36  05:56:36  -9.13  -5.62    -3.38-226.173892             -0.0000
iter:  37  05:57:21  -9.67  -5.68    -3.48-226.173892             -0.0000
iter:  38  05:58:06  -9.31  -5.76    -3.27-226.173892             +0.0000
iter:  39  05:58:52  -9.35  -5.80    -3.62-226.173892             +0.0000
iter:  40  05:59:37 -10.39  -5.99    -4.26-226.173892             +0.0000
iter:  41  06:00:22  -9.96  -6.04    -3.90-226.173892             -0.0000
iter:  42  06:01:08 -10.52  -6.15    -4.17-226.173892             +0.0000
iter:  43  06:01:53 -10.17  -6.21    -4.17-226.173892             -0.0000
iter:  44  06:02:38 -10.41  -6.23    -4.10-226.173892             +0.0000
iter:  45  06:03:24 -10.69  -6.48    -4.26-226.173892             -0.0000
iter:  46  06:04:09 -11.54  -6.85    -4.75-226.173892             -0.0000
iter:  47  06:04:54 -12.45  -6.99    -5.40-226.173892             -0.0000
iter:  48  06:05:39 -12.32  -7.03    -4.73-226.173892             +0.0000
iter:  49  06:06:25 -12.73  -7.16    -5.28-226.173892             +0.0000
iter:  50  06:07:10 -11.97  -7.25    -5.01-226.173892             +0.0000
iter:  51  06:07:55 -12.93  -7.38    -5.31-226.173892             +0.0000
iter:  52  06:08:40 -12.86  -7.47    -5.06-226.173892             +0.0000
iter:  53  06:09:26 -13.08  -7.56    -5.48-226.173892             +0.0000
iter:  54  06:10:11 -13.38  -7.65    -5.53-226.173892             +0.0000
iter:  55  06:10:56 -13.85  -7.73    -6.02-226.173892             +0.0000

Converged after 55 iterations.

Dipole moment: (18.328683, -2.302633, -4.521024) |e|*Ang

Total magnetic moment: (0.000000, 0.000000, 0.000000)
Local magnetic moments:
   0 O  ( 0.000000,  0.000000, -0.001797)
   1 O  ( 0.000000,  0.000000,  0.001827)
   2 O  ( 0.000000,  0.000000,  0.002049)
   3 O  ( 0.000000,  0.000000, -0.001664)
   4 O  ( 0.000000,  0.000000,  0.001772)
   5 O  ( 0.000000,  0.000000, -0.002212)
   6 O  ( 0.000000,  0.000000, -0.001805)
   7 O  ( 0.000000,  0.000000,  0.001825)
   8 O  ( 0.000000,  0.000000,  0.030854)
   9 O  ( 0.000000,  0.000000, -0.031116)
  10 O  ( 0.000000,  0.000000, -0.031105)
  11 O  ( 0.000000,  0.000000,  0.031094)
  12 Mn ( 0.000000,  0.000000,  4.395632)
  13 Mn ( 0.000000,  0.000000, -4.395804)
  14 Mn ( 0.000000,  0.000000, -4.393860)
  15 Mn ( 0.000000,  0.000000,  4.395409)
  16 P  ( 0.000000,  0.000000,  0.000858)
  17 P  ( 0.000000,  0.000000, -0.000884)
  18 P  ( 0.000000,  0.000000, -0.000887)
  19 P  ( 0.000000,  0.000000,  0.000473)
  20 O  ( 0.000000,  0.000000,  0.028439)
  21 O  ( 0.000000,  0.000000, -0.028414)
  22 O  ( 0.000000,  0.000000, -0.028469)
  23 O  ( 0.000000,  0.000000,  0.028260)
  24 Li ( 0.000000,  0.000000, -0.000032)
  25 Li ( 0.000000,  0.000000, -0.000001)
  26 Li ( 0.000000,  0.000000, -0.000002)
  27 Li ( 0.000000,  0.000000, -0.000001)

Energy contributions relative to reference atoms: (reference = -196157.275402)

Kinetic:       +277.120513
Potential:     -240.576750
External:        +0.000000
XC:            -264.607001
Entropy (-ST):   -0.000000
Local:           +1.889345
--------------------------
Free energy:   -226.173892
Extrapolated:  -226.173892

Spin contamination: 9.453980 electrons
Showing only first 2 kpts
                      Up                     Down
 Kpt  Band  Eigenvalues  Occupancy  Eigenvalues  Occupancy
  0    88      6.52795    0.00694      6.53548    0.00694
  0    89      6.56159    0.00694      6.57163    0.00694
  0    90      8.43075    0.00000      8.42463    0.00000
  0    91      8.45270    0.00000      8.44599    0.00000

  1    88      6.56641    0.00694      6.57344    0.00694
  1    89      6.59337    0.00694      6.60401    0.00694
  1    90      8.38688    0.00000      8.38016    0.00000
  1    91      8.40949    0.00000      8.40185    0.00000


Fermi level: 7.61718

Gap: 1.689 eV
Transition (v -> c):
  (s=1, k=74, n=89, [0.08, -0.42, 0.12]) -> (s=1, k=62, n=90, [-0.08, 0.08, 0.12])
Writing to born-0.01-5y-.gpw (mode='all')

Timing:                              incl.     excl.
-----------------------------------------------------------
Hamiltonian:                         0.357     0.002   0.0% |
 Atomic:                             0.056     0.056   0.0% |
  XC Correction:                     0.000     0.000   0.0% |
 Calculate atomic Hamiltonians:      0.142     0.142   0.0% |
 Communicate:                        0.001     0.001   0.0% |
 Initialize Hamiltonian:             0.000     0.000   0.0% |
 Poisson:                            0.001     0.001   0.0% |
 XC 3D grid:                         0.154     0.154   0.0% |
LCAO initialization:               141.722     0.648   0.0% |
 LCAO eigensolver:                  38.243     0.002   0.0% |
  Calculate projections:             0.056     0.056   0.0% |
  DenseAtomicCorrection:             0.088     0.088   0.0% |
  Distribute overlap matrix:         0.006     0.006   0.0% |
  Orbital Layouts:                   0.341     0.341   0.0% |
  Potential matrix:                 37.661    37.661   0.7% |
  Sum over cells:                    0.088     0.088   0.0% |
 LCAO to grid:                     100.469   100.469   1.9% ||
 Set positions (LCAO WFS):           2.362     0.374   0.0% |
  Basic WFS set positions:           0.001     0.001   0.0% |
  Basis functions set positions:     0.000     0.000   0.0% |
  P tci:                             1.062     1.062   0.0% |
  ST tci:                            0.704     0.704   0.0% |
  mktci:                             0.220     0.220   0.0% |
PWDescriptor:                        0.023     0.023   0.0% |
SCF-cycle:                        2233.143    16.769   0.3% |
 Davidson:                        1876.562   601.112  11.1% |---|
  Apply H:                         132.451   128.336   2.4% ||
   HMM T:                            4.115     4.115   0.1% |
  Subspace diag:                   277.888     0.171   0.0% |
   calc_h_matrix:                  180.368    49.078   0.9% |
    Apply H:                       131.290   127.229   2.3% ||
     HMM T:                          4.061     4.061   0.1% |
   diagonalize:                      6.410     6.410   0.1% |
   rotate_psi:                      90.940    90.940   1.7% ||
  calc. matrices:                  592.541   330.624   6.1% |-|
   Apply H:                        261.916   253.933   4.7% |-|
    HMM T:                           7.984     7.984   0.1% |
  diagonalize:                      86.701    86.701   1.6% ||
  rotate_psi:                      185.868   185.868   3.4% ||
 Density:                           76.307     0.001   0.0% |
  Atomic density matrices:           1.394     1.394   0.0% |
  Mix:                              10.503    10.503   0.2% |
  Multipole moments:                 0.032     0.032   0.0% |
  Pseudo density:                   64.375    64.374   1.2% |
   Symmetrize density:               0.002     0.002   0.0% |
 Forces:                           239.945   239.945   4.4% |-|
 Hamiltonian:                       19.576     0.123   0.0% |
  Atomic:                            2.731     2.730   0.1% |
   XC Correction:                    0.000     0.000   0.0% |
  Calculate atomic Hamiltonians:     7.891     7.891   0.1% |
  Communicate:                       0.094     0.094   0.0% |
  Poisson:                           0.065     0.065   0.0% |
  XC 3D grid:                        8.672     8.672   0.2% |
 Orthonormalize:                     3.985     0.004   0.0% |
  calc_s_matrix:                     0.479     0.479   0.0% |
  inverse-cholesky:                  0.054     0.054   0.0% |
  projections:                       2.595     2.595   0.0% |
  rotate_psi_s:                      0.854     0.854   0.0% |
Set symmetry:                        0.000     0.000   0.0% |
Other:                            3041.652  3041.652  56.2% |---------------------|
-----------------------------------------------------------
Total:                                      5416.897 100.0%

Memory usage: 12.71 GiB
Date: Mon Mar 22 07:01:36 2021
