
  ___ ___ ___ _ _ _  
 |   |   |_  | | | | 
 | | | | | . | | | | 
 |__ |  _|___|_____|  20.10.1b1
 |___|_|             

User:   madkru@i013.nifl.fysik.dtu.dk
Date:   Sun Mar 21 03:43:34 2021
Arch:   x86_64
Pid:    27943
Python: 3.7.4
gpaw:   /home/niflheim/madkru/venv_folder/gpaw/gpaw (d0d1ca1c71)
_gpaw:  /home/niflheim/madkru/venv_folder/gpaw/build/lib.linux-x86_64-ivybridge-3.7/
        _gpaw.cpython-37m-x86_64-linux-gnu.so (4fd39e8b1e)
ase:    /home/niflheim/madkru/venv_folder/ase/ase (version 3.21.0b1-7e6c206a91)
numpy:  /home/niflheim/madkru/venv_folder/lib/python3.7/site-packages/numpy (version 1.19.4)
scipy:  /home/niflheim/madkru/venv_folder/lib/python3.7/site-packages/scipy (version 1.5.4)
libxc:  4.3.4
units:  Angstrom and eV
cores: 32
OMP_NUM_THREADS: 1

Input parameters:
  convergence: {bands: occupied,
                density: 0.0001,
                eigenstates: 4e-08,
                energy: 0.0005,
                forces: 1e-06}
  kpts: [6 6 4]
  mode: {ecut: 600.0,
         gammacentered: False,
         name: pw}
  occupations: {fixmagmom: False,
                name: fermi-dirac,
                width: 0.001}
  symmetry: {point_group: False,
             time_reversal: False}

System changes: positions, numbers, cell, pbc, initial_charges, initial_magmoms 

Initialize ...

O-setup:
  name: Oxygen
  id: 9b9d51c344dea68c822856295a461509
  Z: 8.0
  valence: 6
  core: 2
  charge: 0.0
  file: /home/modules/software/GPAW-setups/0.9.20000/O.LDA.gz
  compensation charges: gauss, rc=0.21, lmax=2
  cutoffs: 1.17(filt), 0.83(core),
  valence states:
                energy  radius
    2s(2.00)   -23.752   0.688
    2p(4.00)    -9.195   0.598
    *s           3.459   0.688
    *p          18.016   0.598
    *d           0.000   0.619

  Using partial waves for O as LCAO basis

Mn-setup:
  name: Manganese
  id: 0d715a8018be061a6e9ea6f2d364ac92
  Z: 25.0
  valence: 15
  core: 10
  charge: 0.0
  file: /home/modules/software/GPAW-setups/0.9.20000/Mn.LDA.gz
  compensation charges: gauss, rc=0.38, lmax=2
  cutoffs: 2.14(filt), 0.86(core),
  valence states:
                energy  radius
    3s(2.00)   -85.387   1.275
    4s(2.00)    -5.282   1.275
    3p(6.00)   -54.493   1.281
    4p(0.00)    -1.471   1.281
    3d(5.00)    -7.009   1.138
    *d          20.203   1.138

  Using partial waves for Mn as LCAO basis

P-setup:
  name: Phosphorus
  id: a5561c299094968922a179ab894d2e2d
  Z: 15.0
  valence: 5
  core: 10
  charge: 0.0
  file: /home/modules/software/GPAW-setups/0.9.20000/P.LDA.gz
  compensation charges: gauss, rc=0.30, lmax=2
  cutoffs: 1.69(filt), 1.81(core),
  valence states:
                energy  radius
    3s(2.00)   -14.015   0.953
    3p(3.00)    -5.596   0.953
    *s          13.197   0.953
    *p          21.615   0.953
    *d           0.000   0.953

  Using partial waves for P as LCAO basis

Li-setup:
  name: Lithium
  id: b73562207f97a71b6967473b66fe8b65
  Z: 3.0
  valence: 1
  core: 2
  charge: 0.0
  file: /home/modules/software/GPAW-setups/0.9.20000/Li.LDA.gz
  compensation charges: gauss, rc=0.33, lmax=2
  cutoffs: 1.91(filt), 2.55(core),
  valence states:
                energy  radius
    2s(1.00)    -2.874   1.058
    2p(0.00)    -1.126   1.058
    *s          24.338   1.058

  Using partial waves for Li as LCAO basis

Reference energy: -196157.275402

Spin-polarized calculation.
Magnetic moment: 0.000000

Convergence criteria:
  Maximum total energy change: 0.0005 eV / electron
  Maximum integral of absolute density change: 0.0001 electrons
  Maximum integral of absolute eigenstate change: 4e-08 eV^2
  Maximum change in atomic force: 1e-06 eV / Ang
  Maximum number of iterations: 333

Symmetries present (total): 1

  ( 1  0  0)
  ( 0  1  0)
  ( 0  0  1)

144 k-points: 6 x 6 x 4 Monkhorst-Pack grid
144 k-points in the irreducible part of the Brillouin zone
       k-points in crystal coordinates                weights
   0:    -0.41666667   -0.41666667   -0.37500000          1/144
   1:    -0.41666667   -0.41666667   -0.12500000          1/144
   2:    -0.41666667   -0.41666667    0.12500000          1/144
   3:    -0.41666667   -0.41666667    0.37500000          1/144
   4:    -0.41666667   -0.25000000   -0.37500000          1/144
   5:    -0.41666667   -0.25000000   -0.12500000          1/144
   6:    -0.41666667   -0.25000000    0.12500000          1/144
   7:    -0.41666667   -0.25000000    0.37500000          1/144
   8:    -0.41666667   -0.08333333   -0.37500000          1/144
   9:    -0.41666667   -0.08333333   -0.12500000          1/144
          ...
 143:     0.41666667    0.41666667    0.37500000          1/144

Wave functions: Plane wave expansion
  Cutoff energy: 600.000 eV
  Number of coefficients (min, max): 9132, 9161
  Pulay-stress correction: 0.000000 eV/Ang^3 (de/decut=0.000000)
  Using FFTW library
  ScaLapack parameters: grid=1x1, blocksize=None
  Wavefunction extrapolation:
    Improved wavefunction reuse through dual PAW basis 

  Fermi-Dirac: width=0.0010 eV

Eigensolver
   Davidson(niter=2, smin=None, normalize=True) 

Densities:
  Coarse grid: 60*35*27 grid
  Fine grid: 120*70*54 grid
  Total Charge: 0.000000 

Density mixing:
  Method: difference
  Backend: pulay
  Linear mixing parameter: 0.05
  Mixing with 5 old densities
  Damping of long wave oscillations: 50 

Hamiltonian:
  XC and Coulomb potentials evaluated on a 120*70*54 grid
  Using the LDA Exchange-Correlation functional
 

Memory estimate:
  Process memory now: 12077.94 MiB
  Calculator: 342.26 MiB
    Density: 19.13 MiB
      Arrays: 7.57 MiB
      Localized functions: 8.54 MiB
      Mixer: 3.03 MiB
    Hamiltonian: 5.87 MiB
      Arrays: 5.62 MiB
      XC: 0.00 MiB
      Poisson: 0.00 MiB
      vbar: 0.25 MiB
    Wavefunctions: 317.25 MiB
      Arrays psit_nG: 281.81 MiB
      Eigensolver: 18.27 MiB
      Projections: 5.41 MiB
      Projectors: 8.81 MiB
      PW-descriptor: 2.95 MiB

Total number of cores used: 32
Parallelization over k-points: 16
Domain decomposition: 2 x 1 x 1

Number of atoms: 28
Number of atomic orbitals: 148
Number of bands in calculation: 112
Number of valence electrons: 180
Bands to converge: occupied

... initialized

Initializing position-dependent things.

Density initialized from atomic densities
Creating initial wave functions:
  112 bands from LCAO basis set

                                           
                                           
                                           
                                           
                                           
               O     O  P  O               
            PO           OMn     O         
                  O          MO            
            O        Li O                  
             Mn  Mn          OP            
         O       O Li O                    
         Li     O P         O              
       Li                                  
                                           
                                           
                                           
                                           

Positions:
   0 O     -1.270122   -2.495595   -1.112331    ( 0.0000,  0.0000,  0.0000)
   1 O     -3.023238    2.918858    1.191723    ( 0.0000,  0.0000,  0.0000)
   2 O      1.997451    0.467212    1.441442    ( 0.0000,  0.0000,  0.0000)
   3 O      3.740343   -0.043905   -0.862614    ( 0.0000,  0.0000,  0.0000)
   4 O      1.997419    2.918835    1.441465    ( 0.0000,  0.0000,  0.0000)
   5 O      3.740372   -2.495531   -0.862587    ( 0.0000,  0.0000,  0.0000)
   6 O     -1.280154   -0.043891   -1.112309    ( 0.0000,  0.0000,  0.0000)
   7 O     -3.023210    0.467136    1.191750    ( 0.0000,  0.0000,  0.0000)
   8 O     -4.147405   -1.269737   -0.856207    ( 0.0000,  0.0000,  0.0000)
   9 O     -0.155894    1.692986    1.447725    ( 0.0000,  0.0000,  0.0000)
  10 O      4.864578    1.693016    1.185324    ( 0.0000,  0.0000,  0.0000)
  11 O      0.873163   -1.269706   -1.118625    ( 0.0000,  0.0000,  0.0000)
  12 Mn    -2.437108   -1.269902    0.302197    ( 0.0000,  0.0000,  1.0000)
  13 Mn    -1.866187    1.693156   -2.001927    ( 0.0000,  0.0000, -1.0000)
  14 Mn     3.154299    1.693181    0.026917    ( 0.0000,  0.0000, -1.0000)
  15 Mn     2.583444   -1.269877    2.331074    ( 0.0000,  0.0000,  1.0000)
  16 P     -0.543052   -1.269720   -1.734187    ( 0.0000,  0.0000,  0.0000)
  17 P     -3.760282    1.692974    0.569859    ( 0.0000,  0.0000,  0.0000)
  18 P      1.260300    1.693000    2.063344    ( 0.0000,  0.0000,  0.0000)
  19 P      4.477470   -1.269695   -0.240696    ( 0.0000,  0.0000,  0.0000)
  20 O     -0.544413   -1.269738    1.348523    ( 0.0000,  0.0000,  0.0000)
  21 O     -3.758895    1.692992   -0.955558    ( 0.0000,  0.0000,  0.0000)
  22 O      1.261690    1.693018   -1.019367    ( 0.0000,  0.0000,  0.0000)
  23 O      4.476045   -1.269713    1.284716    ( 0.0000,  0.0000,  0.0000)
  24 Li    -4.662027   -2.751322   -2.139440    ( 0.0000,  0.0000,  0.0000)
  25 Li     0.358703   -2.751277    0.164614    ( 0.0000,  0.0000,  0.0000)
  26 Li    -4.662011    0.211617   -2.139439    ( 0.0000,  0.0000,  0.0000)
  27 Li     0.358720    0.211628    0.164615    ( 0.0000,  0.0000,  0.0000)

Unit cell:
           periodic     x           y           z      points  spacing
  1. axis:    yes   10.041096    0.000054   -0.000022    60     0.1674
  2. axis:    yes    0.000032    5.925857    0.000001    35     0.1693
  3. axis:    yes   -0.000010    0.000001    4.608134    27     0.1707

  Lengths:  10.041096   5.925857   4.608134
  Angles:   89.999974  90.000250  89.999381

Effective grid spacing dv^(1/3) = 0.1691

                     log10-error:           total        iterations:
           time      wfs    density  force  energy       poisson  magmom
iter:   1  03:46:26                       -233.728683             +0.0000
iter:   2  03:47:02  -0.47  -0.95         -231.554435             +0.0020
iter:   3  03:47:39  -0.61  -1.00         -220.799078             +0.0021
iter:   4  03:48:15  -1.20  -1.31         -220.984505             -0.0261
iter:   5  03:48:51  -2.14  -1.39         -222.813431             -0.0137
iter:   6  03:49:28  -2.44  -1.37         -223.166875             -0.0056
iter:   7  03:50:04  -1.89  -1.55         -222.906722             -0.0042
iter:   8  03:50:40  -2.17  -1.93         -225.863809             -0.0019
iter:   9  03:51:16  -2.10  -2.06         -226.317014             -0.0001
iter:  10  03:51:53  -2.27  -2.14         -226.443661             -0.0002
iter:  11  03:52:29  -3.14  -2.27         -226.429714             -0.0000
iter:  12  03:53:05  -2.95  -2.31         -226.256081             +0.0000
iter:  13  03:53:41  -3.14  -2.44         -226.231916             -0.0000
iter:  14  03:54:17  -3.26  -2.67         -226.189967             -0.0000
iter:  15  03:54:54  -4.21  -2.71         -226.201177             -0.0000
iter:  16  03:55:30  -3.41  -2.74         -226.197068             +0.0000
iter:  17  03:56:06  -4.20  -2.82         -226.187081             -0.0000
iter:  18  03:56:42  -4.22  -2.92         -226.180069             +0.0000
iter:  19  03:57:18  -3.83  -2.98         -226.178921             -0.0000
iter:  20  03:57:55  -4.09  -3.13         -226.175091             -0.0000
iter:  21  03:58:31  -4.75  -3.51         -226.175104             -0.0000
iter:  22  03:59:07  -6.09  -3.65         -226.175126             -0.0000
iter:  23  03:59:43  -5.31  -3.68         -226.174821             +0.0000
iter:  24  04:00:19  -5.40  -3.89         -226.174734             -0.0000
iter:  25  04:00:55  -6.46  -3.90         -226.174728             +0.0000
iter:  26  04:01:31  -5.81  -3.96         -226.174756             +0.0000
iter:  27  04:02:08  -6.36  -4.01         -226.174712             +0.0000
iter:  28  04:02:53  -7.61  -4.32         -226.174715             +0.0000
iter:  29  04:03:29  -6.09  -4.36         -226.174710             +0.0000
iter:  30  04:04:05  -6.36  -4.27         -226.174689             +0.0000
iter:  31  04:04:51  -7.85  -4.90    -1.91-226.174690             +0.0000
iter:  32  04:05:36  -7.92  -4.99    -2.83-226.174690             -0.0000
iter:  33  04:06:22  -7.68  -4.98    -2.93-226.174689             -0.0000
iter:  34  04:07:07  -8.36  -5.26    -2.99-226.174689             -0.0000
iter:  35  04:07:53  -8.90  -5.46    -3.38-226.174689             +0.0000
iter:  36  04:08:38  -9.06  -5.53    -3.35-226.174689             -0.0000
iter:  37  04:09:23  -9.75  -5.83    -3.49-226.174689             +0.0000
iter:  38  04:10:09 -10.87  -6.01    -4.22-226.174689             +0.0000
iter:  39  04:10:54  -9.44  -6.05    -3.71-226.174689             +0.0000
iter:  40  04:11:40 -10.75  -6.35    -4.06-226.174689             +0.0000
iter:  41  04:12:25 -11.62  -6.47    -5.01-226.174689             +0.0000
iter:  42  04:13:11 -11.10  -6.50    -4.39-226.174689             +0.0000
iter:  43  04:13:56 -10.83  -6.64    -4.37-226.174689             +0.0000
iter:  44  04:14:41 -12.10  -6.93    -5.04-226.174689             +0.0000
iter:  45  04:15:27 -12.56  -6.98    -4.83-226.174689             +0.0000
iter:  46  04:16:12 -12.16  -7.04    -5.09-226.174689             +0.0000
iter:  47  04:16:57 -11.57  -7.08    -4.64-226.174689             +0.0000
iter:  48  04:17:43 -12.73  -7.28    -5.26-226.174689             +0.0000
iter:  49  04:18:28 -12.66  -7.38    -5.39-226.174689             +0.0000
iter:  50  04:19:14 -13.50  -7.50    -5.21-226.174689             +0.0000
iter:  51  04:19:59 -13.57  -7.58    -5.80-226.174689             +0.0000
iter:  52  04:20:45 -13.79  -7.62    -5.70-226.174689             +0.0000
iter:  53  04:21:30 -13.36  -7.73    -5.44-226.174689             +0.0000
iter:  54  04:22:15 -13.86  -7.80    -5.66-226.174689             +0.0000
iter:  55  04:23:01 -14.94  -7.89    -6.00-226.174689             +0.0000
iter:  56  04:23:46 -13.62  -7.95    -5.75-226.174689             +0.0000
iter:  57  04:24:31 -14.83  -8.05    -6.29-226.174689             +0.0000

Converged after 57 iterations.

Dipole moment: (18.332375, -2.309162, -4.524889) |e|*Ang

Total magnetic moment: (0.000000, 0.000000, 0.000000)
Local magnetic moments:
   0 O  ( 0.000000,  0.000000, -0.001827)
   1 O  ( 0.000000,  0.000000,  0.001826)
   2 O  ( 0.000000,  0.000000,  0.001789)
   3 O  ( 0.000000,  0.000000, -0.001826)
   4 O  ( 0.000000,  0.000000,  0.001781)
   5 O  ( 0.000000,  0.000000, -0.001821)
   6 O  ( 0.000000,  0.000000, -0.001828)
   7 O  ( 0.000000,  0.000000,  0.001876)
   8 O  ( 0.000000,  0.000000,  0.031100)
   9 O  ( 0.000000,  0.000000, -0.031150)
  10 O  ( 0.000000,  0.000000, -0.031036)
  11 O  ( 0.000000,  0.000000,  0.031226)
  12 Mn ( 0.000000,  0.000000,  4.396586)
  13 Mn ( 0.000000,  0.000000, -4.396823)
  14 Mn ( 0.000000,  0.000000, -4.395756)
  15 Mn ( 0.000000,  0.000000,  4.395771)
  16 P  ( 0.000000,  0.000000,  0.000838)
  17 P  ( 0.000000,  0.000000, -0.000880)
  18 P  ( 0.000000,  0.000000, -0.000856)
  19 P  ( 0.000000,  0.000000,  0.000860)
  20 O  ( 0.000000,  0.000000,  0.028459)
  21 O  ( 0.000000,  0.000000, -0.028379)
  22 O  ( 0.000000,  0.000000, -0.028446)
  23 O  ( 0.000000,  0.000000,  0.028375)
  24 Li ( 0.000000,  0.000000,  0.000000)
  25 Li ( 0.000000,  0.000000, -0.000007)
  26 Li ( 0.000000,  0.000000, -0.000001)
  27 Li ( 0.000000,  0.000000,  0.000005)

Energy contributions relative to reference atoms: (reference = -196157.275402)

Kinetic:       +277.894944
Potential:     -241.171839
External:        +0.000000
XC:            -264.785890
Entropy (-ST):   -0.000000
Local:           +1.888095
--------------------------
Free energy:   -226.174689
Extrapolated:  -226.174689

Spin contamination: 9.456408 electrons
Showing only first 2 kpts
                      Up                     Down
 Kpt  Band  Eigenvalues  Occupancy  Eigenvalues  Occupancy
  0    88      6.52800    0.00694      6.52561    0.00694
  0    89      6.56371    0.00694      6.56165    0.00694
  0    90      8.42409    0.00000      8.42237    0.00000
  0    91      8.44583    0.00000      8.44893    0.00000

  1    88      6.56635    0.00694      6.56367    0.00694
  1    89      6.59563    0.00694      6.59398    0.00694
  1    90      8.38052    0.00000      8.37701    0.00000
  1    91      8.40296    0.00000      8.40538    0.00000


Fermi level: 7.42326

Gap: 1.695 eV
Transition (v -> c):
  (s=0, k=93, n=89, [0.08, 0.42, -0.12]) -> (s=1, k=57, n=90, [-0.08, -0.08, -0.12])
Writing to born-0.01-0x+.gpw (mode='all')

Timing:                              incl.     excl.
-----------------------------------------------------------
Hamiltonian:                         0.355     0.002   0.0% |
 Atomic:                             0.053     0.053   0.0% |
  XC Correction:                     0.000     0.000   0.0% |
 Calculate atomic Hamiltonians:      0.144     0.144   0.0% |
 Communicate:                        0.001     0.001   0.0% |
 Initialize Hamiltonian:             0.000     0.000   0.0% |
 Poisson:                            0.001     0.001   0.0% |
 XC 3D grid:                         0.154     0.154   0.0% |
LCAO initialization:               124.829     0.651   0.0% |
 LCAO eigensolver:                  37.138     0.002   0.0% |
  Calculate projections:             0.057     0.057   0.0% |
  DenseAtomicCorrection:             0.087     0.087   0.0% |
  Distribute overlap matrix:         0.165     0.165   0.0% |
  Orbital Layouts:                   0.343     0.343   0.0% |
  Potential matrix:                 36.395    36.395   0.7% |
  Sum over cells:                    0.088     0.088   0.0% |
 LCAO to grid:                      84.667    84.667   1.6% ||
 Set positions (LCAO WFS):           2.373     0.378   0.0% |
  Basic WFS set positions:           0.001     0.001   0.0% |
  Basis functions set positions:     0.000     0.000   0.0% |
  P tci:                             1.065     1.065   0.0% |
  ST tci:                            0.709     0.709   0.0% |
  mktci:                             0.219     0.219   0.0% |
PWDescriptor:                        0.023     0.023   0.0% |
SCF-cycle:                        2330.231    10.276   0.2% |
 Davidson:                        1958.088   622.736  11.8% |----|
  Apply H:                         141.899   137.562   2.6% ||
   HMM T:                            4.338     4.338   0.1% |
  Subspace diag:                   292.838     0.187   0.0% |
   calc_h_matrix:                  191.748    50.978   1.0% |
    Apply H:                       140.771   136.461   2.6% ||
     HMM T:                          4.310     4.310   0.1% |
   diagonalize:                      6.703     6.703   0.1% |
   rotate_psi:                      94.199    94.199   1.8% ||
  calc. matrices:                  617.629   342.990   6.5% |--|
   Apply H:                        274.640   266.587   5.1% |-|
    HMM T:                           8.052     8.052   0.2% |
  diagonalize:                      90.316    90.316   1.7% ||
  rotate_psi:                      192.670   192.670   3.7% ||
 Density:                           79.151     0.002   0.0% |
  Atomic density matrices:           1.427     1.427   0.0% |
  Mix:                              11.041    11.041   0.2% |
  Multipole moments:                 0.035     0.035   0.0% |
  Pseudo density:                   66.646    66.644   1.3% ||
   Symmetrize density:               0.002     0.002   0.0% |
 Forces:                           258.560   258.560   4.9% |-|
 Hamiltonian:                       20.155     0.126   0.0% |
  Atomic:                            2.888     2.888   0.1% |
   XC Correction:                    0.000     0.000   0.0% |
  Calculate atomic Hamiltonians:     8.009     8.009   0.2% |
  Communicate:                       0.097     0.097   0.0% |
  Poisson:                           0.080     0.080   0.0% |
  XC 3D grid:                        8.955     8.955   0.2% |
 Orthonormalize:                     4.001     0.004   0.0% |
  calc_s_matrix:                     0.479     0.479   0.0% |
  inverse-cholesky:                  0.054     0.054   0.0% |
  projections:                       2.610     2.610   0.0% |
  rotate_psi_s:                      0.855     0.855   0.0% |
Set symmetry:                        0.000     0.000   0.0% |
Other:                            2806.414  2806.414  53.3% |--------------------|
-----------------------------------------------------------
Total:                                      5261.853 100.0%

Memory usage: 11.84 GiB
Date: Sun Mar 21 05:11:16 2021
