
  ___ ___ ___ _ _ _  
 |   |   |_  | | | | 
 | | | | | . | | | | 
 |__ |  _|___|_____|  20.10.1b1
 |___|_|             

User:   madkru@i008.nifl.fysik.dtu.dk
Date:   Thu Mar 25 08:26:16 2021
Arch:   x86_64
Pid:    26969
Python: 3.7.4
gpaw:   /home/niflheim/madkru/venv_folder/gpaw/gpaw (d224efde0f)
_gpaw:  /home/niflheim/madkru/venv_folder/gpaw/build/lib.linux-x86_64-ivybridge-3.7/
        _gpaw.cpython-37m-x86_64-linux-gnu.so (4fd39e8b1e)
ase:    /home/niflheim/madkru/venv_folder/ase/ase (version 3.21.0b1-4d5a73cb29)
numpy:  /home/niflheim/madkru/venv_folder/lib/python3.7/site-packages/numpy (version 1.19.4)
scipy:  /home/niflheim/madkru/venv_folder/lib/python3.7/site-packages/scipy (version 1.5.4)
libxc:  4.3.4
units:  Angstrom and eV
cores: 64
OMP_NUM_THREADS: 1

Input parameters:
  convergence: {bands: occupied,
                density: 0.0001,
                eigenstates: 4e-08,
                energy: 0.0005,
                forces: 1e-06}
  kpts: [6 6 4]
  mode: {ecut: 600.0,
         gammacentered: False,
         name: pw}
  occupations: {fixmagmom: False,
                name: fermi-dirac,
                width: 0.001}
  symmetry: {point_group: False,
             time_reversal: False}

System changes: positions, numbers, cell, pbc, initial_charges, initial_magmoms 

Initialize ...

O-setup:
  name: Oxygen
  id: 9b9d51c344dea68c822856295a461509
  Z: 8.0
  valence: 6
  core: 2
  charge: 0.0
  file: /home/modules/software/GPAW-setups/0.9.20000/O.LDA.gz
  compensation charges: gauss, rc=0.21, lmax=2
  cutoffs: 1.17(filt), 0.83(core),
  valence states:
                energy  radius
    2s(2.00)   -23.752   0.688
    2p(4.00)    -9.195   0.598
    *s           3.459   0.688
    *p          18.016   0.598
    *d           0.000   0.619

  Using partial waves for O as LCAO basis

Mn-setup:
  name: Manganese
  id: 0d715a8018be061a6e9ea6f2d364ac92
  Z: 25.0
  valence: 15
  core: 10
  charge: 0.0
  file: /home/modules/software/GPAW-setups/0.9.20000/Mn.LDA.gz
  compensation charges: gauss, rc=0.38, lmax=2
  cutoffs: 2.14(filt), 0.86(core),
  valence states:
                energy  radius
    3s(2.00)   -85.387   1.275
    4s(2.00)    -5.282   1.275
    3p(6.00)   -54.493   1.281
    4p(0.00)    -1.471   1.281
    3d(5.00)    -7.009   1.138
    *d          20.203   1.138

  Using partial waves for Mn as LCAO basis

P-setup:
  name: Phosphorus
  id: a5561c299094968922a179ab894d2e2d
  Z: 15.0
  valence: 5
  core: 10
  charge: 0.0
  file: /home/modules/software/GPAW-setups/0.9.20000/P.LDA.gz
  compensation charges: gauss, rc=0.30, lmax=2
  cutoffs: 1.69(filt), 1.81(core),
  valence states:
                energy  radius
    3s(2.00)   -14.015   0.953
    3p(3.00)    -5.596   0.953
    *s          13.197   0.953
    *p          21.615   0.953
    *d           0.000   0.953

  Using partial waves for P as LCAO basis

Li-setup:
  name: Lithium
  id: b73562207f97a71b6967473b66fe8b65
  Z: 3.0
  valence: 1
  core: 2
  charge: 0.0
  file: /home/modules/software/GPAW-setups/0.9.20000/Li.LDA.gz
  compensation charges: gauss, rc=0.33, lmax=2
  cutoffs: 1.91(filt), 2.55(core),
  valence states:
                energy  radius
    2s(1.00)    -2.874   1.058
    2p(0.00)    -1.126   1.058
    *s          24.338   1.058

  Using partial waves for Li as LCAO basis

Reference energy: -196157.275402

Spin-polarized calculation.
Magnetic moment: 0.000000

Convergence criteria:
  Maximum total energy change: 0.0005 eV / electron
  Maximum integral of absolute density change: 0.0001 electrons
  Maximum integral of absolute eigenstate change: 4e-08 eV^2
  Maximum change in atomic force: 1e-06 eV / Ang
  Maximum number of iterations: 333

Symmetries present (total): 1

  ( 1  0  0)
  ( 0  1  0)
  ( 0  0  1)

144 k-points: 6 x 6 x 4 Monkhorst-Pack grid
144 k-points in the irreducible part of the Brillouin zone
       k-points in crystal coordinates                weights
   0:    -0.41666667   -0.41666667   -0.37500000          1/144
   1:    -0.41666667   -0.41666667   -0.12500000          1/144
   2:    -0.41666667   -0.41666667    0.12500000          1/144
   3:    -0.41666667   -0.41666667    0.37500000          1/144
   4:    -0.41666667   -0.25000000   -0.37500000          1/144
   5:    -0.41666667   -0.25000000   -0.12500000          1/144
   6:    -0.41666667   -0.25000000    0.12500000          1/144
   7:    -0.41666667   -0.25000000    0.37500000          1/144
   8:    -0.41666667   -0.08333333   -0.37500000          1/144
   9:    -0.41666667   -0.08333333   -0.12500000          1/144
          ...
 143:     0.41666667    0.41666667    0.37500000          1/144

Wave functions: Plane wave expansion
  Cutoff energy: 600.000 eV
  Number of coefficients (min, max): 9132, 9161
  Pulay-stress correction: 0.000000 eV/Ang^3 (de/decut=0.000000)
  Using FFTW library
  ScaLapack parameters: grid=1x1, blocksize=None
  Wavefunction extrapolation:
    Improved wavefunction reuse through dual PAW basis 

  Fermi-Dirac: width=0.0010 eV

Eigensolver
   Davidson(niter=2, smin=None, normalize=True) 

Densities:
  Coarse grid: 60*35*27 grid
  Fine grid: 120*70*54 grid
  Total Charge: 0.000000 

Density mixing:
  Method: difference
  Backend: pulay
  Linear mixing parameter: 0.05
  Mixing with 5 old densities
  Damping of long wave oscillations: 50 

Hamiltonian:
  XC and Coulomb potentials evaluated on a 120*70*54 grid
  Using the LDA Exchange-Correlation functional
 

Memory estimate:
  Process memory now: 13190.29 MiB
  Calculator: 322.47 MiB
    Density: 9.62 MiB
      Arrays: 3.79 MiB
      Localized functions: 4.27 MiB
      Mixer: 1.56 MiB
    Hamiltonian: 2.94 MiB
      Arrays: 2.82 MiB
      XC: 0.00 MiB
      Poisson: 0.00 MiB
      vbar: 0.12 MiB
    Wavefunctions: 309.91 MiB
      Arrays psit_nG: 281.81 MiB
      Eigensolver: 18.27 MiB
      Projections: 2.71 MiB
      Projectors: 4.40 MiB
      PW-descriptor: 2.71 MiB

Total number of cores used: 64
Parallelization over k-points: 16
Domain decomposition: 2 x 2 x 1

Number of atoms: 28
Number of atomic orbitals: 148
Number of bands in calculation: 112
Number of valence electrons: 180
Bands to converge: occupied

... initialized

Initializing position-dependent things.

Density initialized from atomic densities
Creating initial wave functions:
  112 bands from LCAO basis set

                                           
                                           
                                           
                                           
                                           
               O     O  P  O               
            PO           OMn     O         
                  O          MO            
            O        Li O                  
             Mn  Mn          OP            
         O       O Li O                    
         Li     O P         O              
       Li                                  
                                           
                                           
                                           
                                           

Positions:
   0 O     -1.280122   -2.495595   -1.112331    ( 0.0000,  0.0000,  0.0000)
   1 O     -3.023238    2.918858    1.191723    ( 0.0000,  0.0000,  0.0000)
   2 O      1.997451    0.467212    1.441442    ( 0.0000,  0.0000,  0.0000)
   3 O      3.740343   -0.043905   -0.862614    ( 0.0000,  0.0000,  0.0000)
   4 O      1.997419    2.918835    1.441465    ( 0.0000,  0.0000,  0.0000)
   5 O      3.740372   -2.495531   -0.862587    ( 0.0000,  0.0000,  0.0000)
   6 O     -1.280154   -0.043891   -1.112309    ( 0.0000,  0.0000,  0.0000)
   7 O     -3.023210    0.467136    1.191750    ( 0.0000,  0.0000,  0.0000)
   8 O     -4.147405   -1.269737   -0.856207    ( 0.0000,  0.0000,  0.0000)
   9 O     -0.155894    1.692986    1.447725    ( 0.0000,  0.0000,  0.0000)
  10 O      4.864578    1.693016    1.185324    ( 0.0000,  0.0000,  0.0000)
  11 O      0.873163   -1.269706   -1.118625    ( 0.0000,  0.0000,  0.0000)
  12 Mn    -2.437108   -1.269902    0.302197    ( 0.0000,  0.0000,  1.0000)
  13 Mn    -1.866187    1.693156   -2.001927    ( 0.0000,  0.0000, -1.0000)
  14 Mn     3.154299    1.693181    0.026917    ( 0.0000,  0.0000, -1.0000)
  15 Mn     2.583444   -1.269877    2.331074    ( 0.0000,  0.0000,  1.0000)
  16 P     -0.543052   -1.269720   -1.734187    ( 0.0000,  0.0000,  0.0000)
  17 P     -3.760282    1.692974    0.569859    ( 0.0000,  0.0000,  0.0000)
  18 P      1.270300    1.693000    2.063344    ( 0.0000,  0.0000,  0.0000)
  19 P      4.477470   -1.269695   -0.240696    ( 0.0000,  0.0000,  0.0000)
  20 O     -0.544413   -1.269738    1.348523    ( 0.0000,  0.0000,  0.0000)
  21 O     -3.758895    1.692992   -0.955558    ( 0.0000,  0.0000,  0.0000)
  22 O      1.261690    1.693018   -1.019367    ( 0.0000,  0.0000,  0.0000)
  23 O      4.476045   -1.269713    1.284716    ( 0.0000,  0.0000,  0.0000)
  24 Li    -4.662027   -2.751322   -2.139440    ( 0.0000,  0.0000,  0.0000)
  25 Li     0.358703   -2.751277    0.164614    ( 0.0000,  0.0000,  0.0000)
  26 Li    -4.662011    0.211617   -2.139439    ( 0.0000,  0.0000,  0.0000)
  27 Li     0.358720    0.211628    0.164615    ( 0.0000,  0.0000,  0.0000)

Unit cell:
           periodic     x           y           z      points  spacing
  1. axis:    yes   10.041096    0.000054   -0.000022    60     0.1674
  2. axis:    yes    0.000032    5.925857    0.000001    35     0.1693
  3. axis:    yes   -0.000010    0.000001    4.608134    27     0.1707

  Lengths:  10.041096   5.925857   4.608134
  Angles:   89.999974  90.000250  89.999381

Effective grid spacing dv^(1/3) = 0.1691

                     log10-error:           total        iterations:
           time      wfs    density  force  energy       poisson  magmom
iter:   1  08:27:50                       -233.734851             +0.0000
iter:   2  08:28:10  -0.47  -0.95         -231.557102             +0.0020
iter:   3  08:28:30  -0.60  -1.00         -220.805309             +0.0020
iter:   4  08:28:49  -1.21  -1.31         -221.138146             +0.4212
iter:   5  08:29:09  -2.09  -1.39         -222.523393             +0.2457
iter:   6  08:29:29  -2.11  -1.39         -225.216041             -0.0309
iter:   7  08:29:49  -2.12  -1.45         -224.011619             -1.0149
iter:   8  08:30:09  -2.34  -1.58         -225.367172             -1.4248
iter:   9  08:30:28  -2.17  -1.83         -226.482622             -0.6166
iter:  10  08:30:48  -2.76  -2.04         -226.444855             -0.1986
iter:  11  08:31:08  -3.00  -2.07         -226.372367             -0.0152
iter:  12  08:31:27  -2.22  -2.12         -226.279340             -0.0094
iter:  13  08:31:47  -3.07  -2.53         -226.265553             -0.0046
iter:  14  08:32:07  -3.03  -2.62         -226.188770             -0.0028
iter:  15  08:32:26  -3.12  -2.73         -226.182745             -0.0009
iter:  16  08:32:46  -4.02  -2.83         -226.183967             -0.0006
iter:  17  08:33:06  -4.45  -2.89         -226.176379             +0.0001
iter:  18  08:33:26  -4.37  -2.95         -226.173931             -0.0000
iter:  19  08:33:45  -4.04  -3.04         -226.175319             -0.0001
iter:  20  08:34:05  -4.36  -3.10         -226.176286             -0.0000
iter:  21  08:34:25  -4.89  -3.45         -226.173784             -0.0000
iter:  22  08:34:45  -4.41  -3.59         -226.172446             -0.0000
iter:  23  08:35:04  -5.78  -3.69         -226.172419             -0.0000
iter:  24  08:35:24  -5.09  -3.75         -226.172804             +0.0000
iter:  25  08:35:44  -5.21  -3.89         -226.172408             +0.0000
iter:  26  08:36:03  -6.13  -4.13         -226.172418             -0.0000
iter:  27  08:36:23  -6.91  -4.22         -226.172419             -0.0000
iter:  28  08:36:43  -6.80  -4.29         -226.172418             -0.0000
iter:  29  08:37:02  -7.22  -4.47         -226.172421             -0.0000
iter:  30  08:37:27  -8.17  -4.56         -226.172419             -0.0000
iter:  31  08:37:51  -7.43  -4.60    -2.49-226.172416             -0.0000
iter:  32  08:38:15  -7.89  -4.69    -2.98-226.172416             -0.0000
iter:  33  08:38:40  -7.48  -4.74    -2.65-226.172416             -0.0000
iter:  34  08:39:04  -7.81  -4.79    -2.47-226.172416             -0.0000
iter:  35  08:39:29  -8.08  -5.07    -2.89-226.172416             -0.0000
iter:  36  08:39:53  -9.18  -5.20    -3.43-226.172416             -0.0000
iter:  37  08:40:17  -8.65  -5.23    -3.40-226.172415             +0.0000
iter:  38  08:40:42  -8.81  -5.41    -3.11-226.172416             -0.0000
iter:  39  08:41:06  -9.21  -5.44    -3.36-226.172415             -0.0000
iter:  40  08:41:30  -9.10  -5.83    -3.58-226.172415             -0.0000
iter:  41  08:41:55 -10.42  -6.14    -4.14-226.172415             -0.0000
iter:  42  08:42:19  -9.89  -6.17    -4.08-226.172415             -0.0000
iter:  43  08:42:43 -10.24  -6.29    -3.95-226.172415             -0.0000
iter:  44  08:43:08 -11.63  -6.69    -4.66-226.172415             -0.0000
iter:  45  08:43:32 -11.79  -6.75    -4.87-226.172415             -0.0000
iter:  46  08:43:56 -11.60  -6.81    -4.83-226.172415             -0.0000
iter:  47  08:44:21 -11.70  -6.97    -4.82-226.172415             -0.0000
iter:  48  08:44:45 -12.58  -7.13    -5.66-226.172415             -0.0000
iter:  49  08:45:09 -12.20  -7.16    -5.07-226.172415             -0.0000
iter:  50  08:45:34 -12.70  -7.40    -5.26-226.172415             -0.0000
iter:  51  08:45:58 -13.25  -7.45    -5.34-226.172415             -0.0000
iter:  52  08:46:22 -12.48  -7.54    -5.22-226.172415             -0.0000
iter:  53  08:46:47 -13.37  -7.60    -5.59-226.172415             -0.0000
iter:  54  08:47:11 -13.76  -7.66    -5.70-226.172415             -0.0000
iter:  55  08:47:35 -13.55  -7.71    -5.60-226.172415             -0.0000
iter:  56  08:47:59 -14.38  -7.76    -6.12-226.172415             -0.0000

Converged after 56 iterations.

Dipole moment: (18.352405, -2.300707, -4.523510) |e|*Ang

Total magnetic moment: (0.000000, 0.000000, -0.000000)
Local magnetic moments:
   0 O  ( 0.000000,  0.000000, -0.001689)
   1 O  ( 0.000000,  0.000000,  0.001875)
   2 O  ( 0.000000,  0.000000,  0.001595)
   3 O  ( 0.000000,  0.000000, -0.001839)
   4 O  ( 0.000000,  0.000000,  0.001590)
   5 O  ( 0.000000,  0.000000, -0.001834)
   6 O  ( 0.000000,  0.000000, -0.001695)
   7 O  ( 0.000000,  0.000000,  0.001880)
   8 O  ( 0.000000,  0.000000,  0.030975)
   9 O  ( 0.000000,  0.000000, -0.031371)
  10 O  ( 0.000000,  0.000000, -0.031190)
  11 O  ( 0.000000,  0.000000,  0.031271)
  12 Mn ( 0.000000,  0.000000,  4.395813)
  13 Mn ( 0.000000,  0.000000, -4.395635)
  14 Mn ( 0.000000,  0.000000, -4.395512)
  15 Mn ( 0.000000,  0.000000,  4.395897)
  16 P  ( 0.000000,  0.000000,  0.000823)
  17 P  ( 0.000000,  0.000000, -0.000850)
  18 P  ( 0.000000,  0.000000, -0.000690)
  19 P  ( 0.000000,  0.000000,  0.000883)
  20 O  ( 0.000000,  0.000000,  0.028437)
  21 O  ( 0.000000,  0.000000, -0.028287)
  22 O  ( 0.000000,  0.000000, -0.028665)
  23 O  ( 0.000000,  0.000000,  0.028441)
  24 Li ( 0.000000,  0.000000,  0.000001)
  25 Li ( 0.000000,  0.000000, -0.000022)
  26 Li ( 0.000000,  0.000000,  0.000001)
  27 Li ( 0.000000,  0.000000, -0.000022)

Energy contributions relative to reference atoms: (reference = -196157.275402)

Kinetic:       +277.608794
Potential:     -240.949068
External:        +0.000000
XC:            -264.720587
Entropy (-ST):   -0.000000
Local:           +1.888444
--------------------------
Free energy:   -226.172415
Extrapolated:  -226.172415

Spin contamination: 9.455529 electrons
Showing only first 2 kpts
                      Up                     Down
 Kpt  Band  Eigenvalues  Occupancy  Eigenvalues  Occupancy
  0    88      6.52132    0.00694      6.52932    0.00694
  0    89      6.56406    0.00694      6.57474    0.00694
  0    90      8.41295    0.00000      8.41776    0.00000
  0    91      8.45923    0.00000      8.44832    0.00000

  1    88      6.55880    0.00694      6.56667    0.00694
  1    89      6.59694    0.00694      6.60743    0.00694
  1    90      8.36928    0.00000      8.37418    0.00000
  1    91      8.41550    0.00000      8.40547    0.00000


Fermi level: 7.65061

Gap: 1.681 eV
Transition (v -> c):
  (s=1, k=73, n=89, [0.08, -0.42, -0.12]) -> (s=0, k=86, n=90, [0.08, 0.08, 0.12])
Writing to born-0.01-18x+.gpw (mode='all')

Timing:                              incl.     excl.
-----------------------------------------------------------
Hamiltonian:                         0.218     0.002   0.0% |
 Atomic:                             0.053     0.053   0.0% |
  XC Correction:                     0.000     0.000   0.0% |
 Calculate atomic Hamiltonians:      0.075     0.075   0.0% |
 Communicate:                        0.002     0.002   0.0% |
 Initialize Hamiltonian:             0.000     0.000   0.0% |
 Poisson:                            0.001     0.001   0.0% |
 XC 3D grid:                         0.084     0.084   0.0% |
LCAO initialization:                71.449     0.649   0.0% |
 LCAO eigensolver:                  19.839     0.002   0.0% |
  Calculate projections:             0.029     0.029   0.0% |
  DenseAtomicCorrection:             0.045     0.045   0.0% |
  Distribute overlap matrix:         0.019     0.019   0.0% |
  Orbital Layouts:                   0.432     0.432   0.0% |
  Potential matrix:                 19.213    19.213   0.6% |
  Sum over cells:                    0.099     0.099   0.0% |
 LCAO to grid:                      49.636    49.636   1.6% ||
 Set positions (LCAO WFS):           1.326     0.192   0.0% |
  Basic WFS set positions:           0.001     0.001   0.0% |
  Basis functions set positions:     0.000     0.000   0.0% |
  P tci:                             0.529     0.529   0.0% |
  ST tci:                            0.384     0.384   0.0% |
  mktci:                             0.218     0.218   0.0% |
PWDescriptor:                        0.023     0.023   0.0% |
SCF-cycle:                        1231.137     1.818   0.1% |
 Davidson:                        1046.358   320.498  10.1% |---|
  Apply H:                          72.627    70.544   2.2% ||
   HMM T:                            2.083     2.083   0.1% |
  Subspace diag:                   151.731     0.158   0.0% |
   calc_h_matrix:                   97.574    25.263   0.8% |
    Apply H:                        72.311    70.203   2.2% ||
     HMM T:                          2.108     2.108   0.1% |
   diagonalize:                      7.557     7.557   0.2% |
   rotate_psi:                      46.442    46.442   1.5% ||
  calc. matrices:                  312.657   171.048   5.4% |-|
   Apply H:                        141.609   137.702   4.3% |-|
    HMM T:                           3.906     3.906   0.1% |
  diagonalize:                      88.393    88.393   2.8% ||
  rotate_psi:                      100.452   100.452   3.2% ||
 Density:                           43.007     0.001   0.0% |
  Atomic density matrices:           0.829     0.829   0.0% |
  Mix:                               5.846     5.846   0.2% |
  Multipole moments:                 0.021     0.021   0.0% |
  Pseudo density:                   36.310    36.308   1.1% |
   Symmetrize density:               0.001     0.001   0.0% |
 Forces:                           125.997   125.997   4.0% |-|
 Hamiltonian:                       11.891     0.118   0.0% |
  Atomic:                            2.742     2.742   0.1% |
   XC Correction:                    0.000     0.000   0.0% |
  Calculate atomic Hamiltonians:     4.139     4.139   0.1% |
  Communicate:                       0.110     0.110   0.0% |
  Poisson:                           0.032     0.032   0.0% |
  XC 3D grid:                        4.750     4.750   0.1% |
 Orthonormalize:                     2.066     0.003   0.0% |
  calc_s_matrix:                     0.242     0.242   0.0% |
  inverse-cholesky:                  0.073     0.073   0.0% |
  projections:                       1.318     1.318   0.0% |
  rotate_psi_s:                      0.430     0.430   0.0% |
Set symmetry:                        0.000     0.000   0.0% |
Other:                            1869.106  1869.106  58.9% |-----------------------|
-----------------------------------------------------------
Total:                                      3171.933 100.0%

Memory usage: 12.89 GiB
Date: Thu Mar 25 09:19:08 2021
