
  ___ ___ ___ _ _ _  
 |   |   |_  | | | | 
 | | | | | . | | | | 
 |__ |  _|___|_____|  20.10.1b1
 |___|_|             

User:   madkru@i008.nifl.fysik.dtu.dk
Date:   Wed Mar 24 16:18:32 2021
Arch:   x86_64
Pid:    26969
Python: 3.7.4
gpaw:   /home/niflheim/madkru/venv_folder/gpaw/gpaw (d224efde0f)
_gpaw:  /home/niflheim/madkru/venv_folder/gpaw/build/lib.linux-x86_64-ivybridge-3.7/
        _gpaw.cpython-37m-x86_64-linux-gnu.so (4fd39e8b1e)
ase:    /home/niflheim/madkru/venv_folder/ase/ase (version 3.21.0b1-4d5a73cb29)
numpy:  /home/niflheim/madkru/venv_folder/lib/python3.7/site-packages/numpy (version 1.19.4)
scipy:  /home/niflheim/madkru/venv_folder/lib/python3.7/site-packages/scipy (version 1.5.4)
libxc:  4.3.4
units:  Angstrom and eV
cores: 64
OMP_NUM_THREADS: 1

Input parameters:
  convergence: {bands: occupied,
                density: 0.0001,
                eigenstates: 4e-08,
                energy: 0.0005,
                forces: 1e-06}
  kpts: [6 6 4]
  mode: {ecut: 600.0,
         gammacentered: False,
         name: pw}
  occupations: {fixmagmom: False,
                name: fermi-dirac,
                width: 0.001}
  symmetry: {point_group: False,
             time_reversal: False}

System changes: positions, numbers, cell, pbc, initial_charges, initial_magmoms 

Initialize ...

O-setup:
  name: Oxygen
  id: 9b9d51c344dea68c822856295a461509
  Z: 8.0
  valence: 6
  core: 2
  charge: 0.0
  file: /home/modules/software/GPAW-setups/0.9.20000/O.LDA.gz
  compensation charges: gauss, rc=0.21, lmax=2
  cutoffs: 1.17(filt), 0.83(core),
  valence states:
                energy  radius
    2s(2.00)   -23.752   0.688
    2p(4.00)    -9.195   0.598
    *s           3.459   0.688
    *p          18.016   0.598
    *d           0.000   0.619

  Using partial waves for O as LCAO basis

Mn-setup:
  name: Manganese
  id: 0d715a8018be061a6e9ea6f2d364ac92
  Z: 25.0
  valence: 15
  core: 10
  charge: 0.0
  file: /home/modules/software/GPAW-setups/0.9.20000/Mn.LDA.gz
  compensation charges: gauss, rc=0.38, lmax=2
  cutoffs: 2.14(filt), 0.86(core),
  valence states:
                energy  radius
    3s(2.00)   -85.387   1.275
    4s(2.00)    -5.282   1.275
    3p(6.00)   -54.493   1.281
    4p(0.00)    -1.471   1.281
    3d(5.00)    -7.009   1.138
    *d          20.203   1.138

  Using partial waves for Mn as LCAO basis

P-setup:
  name: Phosphorus
  id: a5561c299094968922a179ab894d2e2d
  Z: 15.0
  valence: 5
  core: 10
  charge: 0.0
  file: /home/modules/software/GPAW-setups/0.9.20000/P.LDA.gz
  compensation charges: gauss, rc=0.30, lmax=2
  cutoffs: 1.69(filt), 1.81(core),
  valence states:
                energy  radius
    3s(2.00)   -14.015   0.953
    3p(3.00)    -5.596   0.953
    *s          13.197   0.953
    *p          21.615   0.953
    *d           0.000   0.953

  Using partial waves for P as LCAO basis

Li-setup:
  name: Lithium
  id: b73562207f97a71b6967473b66fe8b65
  Z: 3.0
  valence: 1
  core: 2
  charge: 0.0
  file: /home/modules/software/GPAW-setups/0.9.20000/Li.LDA.gz
  compensation charges: gauss, rc=0.33, lmax=2
  cutoffs: 1.91(filt), 2.55(core),
  valence states:
                energy  radius
    2s(1.00)    -2.874   1.058
    2p(0.00)    -1.126   1.058
    *s          24.338   1.058

  Using partial waves for Li as LCAO basis

Reference energy: -196157.275402

Spin-polarized calculation.
Magnetic moment: 0.000000

Convergence criteria:
  Maximum total energy change: 0.0005 eV / electron
  Maximum integral of absolute density change: 0.0001 electrons
  Maximum integral of absolute eigenstate change: 4e-08 eV^2
  Maximum change in atomic force: 1e-06 eV / Ang
  Maximum number of iterations: 333

Symmetries present (total): 1

  ( 1  0  0)
  ( 0  1  0)
  ( 0  0  1)

144 k-points: 6 x 6 x 4 Monkhorst-Pack grid
144 k-points in the irreducible part of the Brillouin zone
       k-points in crystal coordinates                weights
   0:    -0.41666667   -0.41666667   -0.37500000          1/144
   1:    -0.41666667   -0.41666667   -0.12500000          1/144
   2:    -0.41666667   -0.41666667    0.12500000          1/144
   3:    -0.41666667   -0.41666667    0.37500000          1/144
   4:    -0.41666667   -0.25000000   -0.37500000          1/144
   5:    -0.41666667   -0.25000000   -0.12500000          1/144
   6:    -0.41666667   -0.25000000    0.12500000          1/144
   7:    -0.41666667   -0.25000000    0.37500000          1/144
   8:    -0.41666667   -0.08333333   -0.37500000          1/144
   9:    -0.41666667   -0.08333333   -0.12500000          1/144
          ...
 143:     0.41666667    0.41666667    0.37500000          1/144

Wave functions: Plane wave expansion
  Cutoff energy: 600.000 eV
  Number of coefficients (min, max): 9132, 9161
  Pulay-stress correction: 0.000000 eV/Ang^3 (de/decut=0.000000)
  Using FFTW library
  ScaLapack parameters: grid=1x1, blocksize=None
  Wavefunction extrapolation:
    Improved wavefunction reuse through dual PAW basis 

  Fermi-Dirac: width=0.0010 eV

Eigensolver
   Davidson(niter=2, smin=None, normalize=True) 

Densities:
  Coarse grid: 60*35*27 grid
  Fine grid: 120*70*54 grid
  Total Charge: 0.000000 

Density mixing:
  Method: difference
  Backend: pulay
  Linear mixing parameter: 0.05
  Mixing with 5 old densities
  Damping of long wave oscillations: 50 

Hamiltonian:
  XC and Coulomb potentials evaluated on a 120*70*54 grid
  Using the LDA Exchange-Correlation functional
 

Memory estimate:
  Process memory now: 12427.34 MiB
  Calculator: 322.47 MiB
    Density: 9.62 MiB
      Arrays: 3.79 MiB
      Localized functions: 4.27 MiB
      Mixer: 1.56 MiB
    Hamiltonian: 2.94 MiB
      Arrays: 2.82 MiB
      XC: 0.00 MiB
      Poisson: 0.00 MiB
      vbar: 0.12 MiB
    Wavefunctions: 309.91 MiB
      Arrays psit_nG: 281.81 MiB
      Eigensolver: 18.27 MiB
      Projections: 2.71 MiB
      Projectors: 4.40 MiB
      PW-descriptor: 2.71 MiB

Total number of cores used: 64
Parallelization over k-points: 16
Domain decomposition: 2 x 2 x 1

Number of atoms: 28
Number of atomic orbitals: 148
Number of bands in calculation: 112
Number of valence electrons: 180
Bands to converge: occupied

... initialized

Initializing position-dependent things.

Density initialized from atomic densities
Creating initial wave functions:
  112 bands from LCAO basis set

                                           
                                           
                                           
                                           
                                           
               O     O  P  O               
            PO           OMn     O         
                  O          MO            
            O        Li O                  
             Mn  Mn          OP            
         O       O Li O                    
         Li     O P         O              
       Li                                  
                                           
                                           
                                           
                                           

Positions:
   0 O     -1.280122   -2.495595   -1.112331    ( 0.0000,  0.0000,  0.0000)
   1 O     -3.023238    2.918858    1.191723    ( 0.0000,  0.0000,  0.0000)
   2 O      1.997451    0.467212    1.441442    ( 0.0000,  0.0000,  0.0000)
   3 O      3.740343   -0.043905   -0.862614    ( 0.0000,  0.0000,  0.0000)
   4 O      1.997419    2.918835    1.441465    ( 0.0000,  0.0000,  0.0000)
   5 O      3.740372   -2.495531   -0.862587    ( 0.0000,  0.0000,  0.0000)
   6 O     -1.280154   -0.043891   -1.112309    ( 0.0000,  0.0000,  0.0000)
   7 O     -3.023210    0.467136    1.191750    ( 0.0000,  0.0000,  0.0000)
   8 O     -4.147405   -1.269737   -0.856207    ( 0.0000,  0.0000,  0.0000)
   9 O     -0.155894    1.692986    1.447725    ( 0.0000,  0.0000,  0.0000)
  10 O      4.864578    1.693016    1.185324    ( 0.0000,  0.0000,  0.0000)
  11 O      0.873163   -1.269706   -1.118625    ( 0.0000,  0.0000,  0.0000)
  12 Mn    -2.437108   -1.269902    0.312197    ( 0.0000,  0.0000,  1.0000)
  13 Mn    -1.866187    1.693156   -2.001927    ( 0.0000,  0.0000, -1.0000)
  14 Mn     3.154299    1.693181    0.026917    ( 0.0000,  0.0000, -1.0000)
  15 Mn     2.583444   -1.269877    2.331074    ( 0.0000,  0.0000,  1.0000)
  16 P     -0.543052   -1.269720   -1.734187    ( 0.0000,  0.0000,  0.0000)
  17 P     -3.760282    1.692974    0.569859    ( 0.0000,  0.0000,  0.0000)
  18 P      1.260300    1.693000    2.063344    ( 0.0000,  0.0000,  0.0000)
  19 P      4.477470   -1.269695   -0.240696    ( 0.0000,  0.0000,  0.0000)
  20 O     -0.544413   -1.269738    1.348523    ( 0.0000,  0.0000,  0.0000)
  21 O     -3.758895    1.692992   -0.955558    ( 0.0000,  0.0000,  0.0000)
  22 O      1.261690    1.693018   -1.019367    ( 0.0000,  0.0000,  0.0000)
  23 O      4.476045   -1.269713    1.284716    ( 0.0000,  0.0000,  0.0000)
  24 Li    -4.662027   -2.751322   -2.139440    ( 0.0000,  0.0000,  0.0000)
  25 Li     0.358703   -2.751277    0.164614    ( 0.0000,  0.0000,  0.0000)
  26 Li    -4.662011    0.211617   -2.139439    ( 0.0000,  0.0000,  0.0000)
  27 Li     0.358720    0.211628    0.164615    ( 0.0000,  0.0000,  0.0000)

Unit cell:
           periodic     x           y           z      points  spacing
  1. axis:    yes   10.041096    0.000054   -0.000022    60     0.1674
  2. axis:    yes    0.000032    5.925857    0.000001    35     0.1693
  3. axis:    yes   -0.000010    0.000001    4.608134    27     0.1707

  Lengths:  10.041096   5.925857   4.608134
  Angles:   89.999974  90.000250  89.999381

Effective grid spacing dv^(1/3) = 0.1691

                     log10-error:           total        iterations:
           time      wfs    density  force  energy       poisson  magmom
iter:   1  16:20:07                       -233.727353             +0.0000
iter:   2  16:20:26  -0.47  -0.95         -231.556086             +0.0029
iter:   3  16:20:46  -0.60  -1.00         -220.835480             +0.0030
iter:   4  16:21:06  -1.22  -1.30         -221.724486             -0.3668
iter:   5  16:21:26  -2.15  -1.37         -222.348915             -0.2095
iter:   6  16:21:45  -2.23  -1.39         -224.510728             -0.0259
iter:   7  16:22:05  -2.16  -1.50         -224.627323             -0.0394
iter:   8  16:22:25  -2.45  -1.62         -225.858711             -0.0098
iter:   9  16:22:44  -2.45  -1.89         -226.435505             +0.0072
iter:  10  16:23:04  -2.48  -2.11         -226.278678             +0.0024
iter:  11  16:23:24  -2.66  -2.23         -226.283233             +0.0009
iter:  12  16:23:43  -3.06  -2.36         -226.243137             +0.0008
iter:  13  16:24:03  -3.63  -2.86         -226.202962             +0.0002
iter:  14  16:24:23  -3.39  -2.94         -226.178468             +0.0001
iter:  15  16:24:42  -4.13  -2.99         -226.177211             +0.0001
iter:  16  16:25:02  -4.28  -3.03         -226.176094             +0.0000
iter:  17  16:25:22  -4.65  -3.24         -226.176234             +0.0000
iter:  18  16:25:41  -5.16  -3.34         -226.175904             -0.0000
iter:  19  16:26:01  -5.47  -3.41         -226.175676             -0.0000
iter:  20  16:26:21  -4.76  -3.51         -226.175580             +0.0000
iter:  21  16:26:40  -5.67  -3.70         -226.175235             -0.0000
iter:  22  16:27:00  -5.27  -3.75         -226.175161             -0.0000
iter:  23  16:27:20  -5.81  -3.94         -226.175063             -0.0000
iter:  24  16:27:39  -6.05  -4.05         -226.175060             -0.0000
iter:  25  16:27:59  -6.17  -4.32         -226.175045             -0.0000
iter:  26  16:28:19  -7.35  -4.52         -226.175043             -0.0000
iter:  27  16:28:38  -7.00  -4.61         -226.175045             -0.0000
iter:  28  16:28:58  -7.25  -4.75         -226.175040             -0.0000
iter:  29  16:29:23  -8.03  -4.81         -226.175040             -0.0000
iter:  30  16:29:47  -7.97  -4.86    -2.90-226.175039             +0.0000
iter:  31  16:30:11  -8.33  -4.96    -3.13-226.175039             -0.0000
iter:  32  16:30:36  -8.10  -5.03    -2.69-226.175038             +0.0000
iter:  33  16:31:00  -8.88  -5.28    -3.12-226.175038             -0.0000
iter:  34  16:31:24  -8.88  -5.34    -3.16-226.175038             -0.0000
iter:  35  16:31:49  -9.14  -5.42    -3.45-226.175038             -0.0000
iter:  36  16:32:13  -9.01  -5.56    -3.48-226.175038             -0.0000
iter:  37  16:32:37  -9.78  -5.73    -3.98-226.175038             +0.0000
iter:  38  16:33:02  -9.72  -5.78    -3.62-226.175038             +0.0000
iter:  39  16:33:26 -10.04  -5.95    -3.84-226.175038             +0.0000
iter:  40  16:33:50  -9.53  -6.07    -3.61-226.175038             +0.0000
iter:  41  16:34:15 -10.67  -6.16    -4.20-226.175038             +0.0000
iter:  42  16:34:39 -10.88  -6.34    -4.26-226.175038             +0.0000
iter:  43  16:35:04 -10.81  -6.39    -4.18-226.175038             +0.0000
iter:  44  16:35:28 -10.80  -6.59    -4.22-226.175038             +0.0000
iter:  45  16:35:52 -12.26  -6.74    -5.06-226.175038             +0.0000
iter:  46  16:36:17 -11.37  -6.79    -4.33-226.175038             +0.0000
iter:  47  16:36:41 -11.61  -6.94    -4.62-226.175038             +0.0000
iter:  48  16:37:05 -12.17  -7.14    -5.02-226.175038             +0.0000
iter:  49  16:37:30 -12.53  -7.28    -4.98-226.175038             +0.0000
iter:  50  16:37:54 -13.71  -7.56    -5.51-226.175038             +0.0000
iter:  51  16:38:19 -13.07  -7.61    -5.27-226.175038             +0.0000
iter:  52  16:38:43 -14.11  -7.83    -5.73-226.175038             +0.0000
iter:  53  16:39:07 -13.62  -7.96    -5.44-226.175038             +0.0000
iter:  54  16:39:32 -14.47  -8.32    -6.09-226.175038             +0.0000

Converged after 54 iterations.

Dipole moment: (18.325030, -2.308157, -4.585222) |e|*Ang

Total magnetic moment: (0.000000, 0.000000, 0.000000)
Local magnetic moments:
   0 O  ( 0.000000,  0.000000, -0.002207)
   1 O  ( 0.000000,  0.000000,  0.002048)
   2 O  ( 0.000000,  0.000000,  0.001813)
   3 O  ( 0.000000,  0.000000, -0.001848)
   4 O  ( 0.000000,  0.000000,  0.001807)
   5 O  ( 0.000000,  0.000000, -0.001842)
   6 O  ( 0.000000,  0.000000, -0.002213)
   7 O  ( 0.000000,  0.000000,  0.002054)
   8 O  ( 0.000000,  0.000000,  0.030884)
   9 O  ( 0.000000,  0.000000, -0.031128)
  10 O  ( 0.000000,  0.000000, -0.031004)
  11 O  ( 0.000000,  0.000000,  0.031086)
  12 Mn ( 0.000000,  0.000000,  4.395851)
  13 Mn ( 0.000000,  0.000000, -4.396120)
  14 Mn ( 0.000000,  0.000000, -4.395736)
  15 Mn ( 0.000000,  0.000000,  4.395724)
  16 P  ( 0.000000,  0.000000,  0.000844)
  17 P  ( 0.000000,  0.000000, -0.000654)
  18 P  ( 0.000000,  0.000000, -0.000871)
  19 P  ( 0.000000,  0.000000,  0.000737)
  20 O  ( 0.000000,  0.000000,  0.028676)
  21 O  ( 0.000000,  0.000000, -0.028345)
  22 O  ( 0.000000,  0.000000, -0.028437)
  23 O  ( 0.000000,  0.000000,  0.028428)
  24 Li ( 0.000000,  0.000000, -0.000004)
  25 Li ( 0.000000,  0.000000, -0.000003)
  26 Li ( 0.000000,  0.000000, -0.000004)
  27 Li ( 0.000000,  0.000000, -0.000003)

Energy contributions relative to reference atoms: (reference = -196157.275402)

Kinetic:       +277.572298
Potential:     -240.926774
External:        +0.000000
XC:            -264.709137
Entropy (-ST):   -0.000000
Local:           +1.888575
--------------------------
Free energy:   -226.175038
Extrapolated:  -226.175038

Spin contamination: 9.455918 electrons
Showing only first 2 kpts
                      Up                     Down
 Kpt  Band  Eigenvalues  Occupancy  Eigenvalues  Occupancy
  0    88      6.53106    0.00694      6.53057    0.00694
  0    89      6.56444    0.00694      6.56423    0.00694
  0    90      8.42638    0.00000      8.42185    0.00000
  0    91      8.44791    0.00000      8.44632    0.00000

  1    88      6.56896    0.00694      6.56869    0.00694
  1    89      6.59525    0.00694      6.59600    0.00694
  1    90      8.38280    0.00000      8.38070    0.00000
  1    91      8.40476    0.00000      8.40421    0.00000


Fermi level: 7.71009

Gap: 1.698 eV
Transition (v -> c):
  (s=1, k=49, n=89, [-0.08, -0.42, -0.12]) -> (s=1, k=82, n=90, [0.08, -0.08, 0.12])
Writing to born-0.01-12z+.gpw (mode='all')

Timing:                              incl.     excl.
-----------------------------------------------------------
Hamiltonian:                         0.223     0.002   0.0% |
 Atomic:                             0.061     0.061   0.0% |
  XC Correction:                     0.000     0.000   0.0% |
 Calculate atomic Hamiltonians:      0.074     0.074   0.0% |
 Communicate:                        0.001     0.001   0.0% |
 Initialize Hamiltonian:             0.000     0.000   0.0% |
 Poisson:                            0.001     0.001   0.0% |
 XC 3D grid:                         0.084     0.084   0.0% |
LCAO initialization:                70.949     0.676   0.0% |
 LCAO eigensolver:                  19.661     0.002   0.0% |
  Calculate projections:             0.029     0.029   0.0% |
  DenseAtomicCorrection:             0.045     0.045   0.0% |
  Distribute overlap matrix:         0.009     0.009   0.0% |
  Orbital Layouts:                   0.433     0.433   0.0% |
  Potential matrix:                 19.053    19.053   0.6% |
  Sum over cells:                    0.091     0.091   0.0% |
 LCAO to grid:                      49.299    49.299   1.6% ||
 Set positions (LCAO WFS):           1.313     0.192   0.0% |
  Basic WFS set positions:           0.001     0.001   0.0% |
  Basis functions set positions:     0.000     0.000   0.0% |
  P tci:                             0.521     0.521   0.0% |
  ST tci:                            0.383     0.383   0.0% |
  mktci:                             0.215     0.215   0.0% |
PWDescriptor:                        0.023     0.023   0.0% |
SCF-cycle:                        1187.788     2.758   0.1% |
 Davidson:                        1009.875   309.069   9.8% |---|
  Apply H:                          69.930    67.905   2.1% ||
   HMM T:                            2.026     2.026   0.1% |
  Subspace diag:                   146.692     0.150   0.0% |
   calc_h_matrix:                   94.322    24.411   0.8% |
    Apply H:                        69.911    67.863   2.1% ||
     HMM T:                          2.048     2.048   0.1% |
   diagonalize:                      7.321     7.321   0.2% |
   rotate_psi:                      44.899    44.899   1.4% ||
  calc. matrices:                  301.724   165.118   5.2% |-|
   Apply H:                        136.606   132.821   4.2% |-|
    HMM T:                           3.786     3.786   0.1% |
  diagonalize:                      85.205    85.205   2.7% ||
  rotate_psi:                       97.254    97.254   3.1% ||
 Density:                           40.663     0.001   0.0% |
  Atomic density matrices:           0.859     0.859   0.0% |
  Mix:                               5.626     5.626   0.2% |
  Multipole moments:                 0.019     0.019   0.0% |
  Pseudo density:                   34.158    34.156   1.1% |
   Symmetrize density:               0.001     0.001   0.0% |
 Forces:                           120.932   120.932   3.8% |-|
 Hamiltonian:                       11.493     0.114   0.0% |
  Atomic:                            2.726     2.726   0.1% |
   XC Correction:                    0.000     0.000   0.0% |
  Calculate atomic Hamiltonians:     3.988     3.988   0.1% |
  Communicate:                       0.079     0.079   0.0% |
  Poisson:                           0.032     0.032   0.0% |
  XC 3D grid:                        4.553     4.553   0.1% |
 Orthonormalize:                     2.067     0.003   0.0% |
  calc_s_matrix:                     0.242     0.242   0.0% |
  inverse-cholesky:                  0.073     0.073   0.0% |
  projections:                       1.318     1.318   0.0% |
  rotate_psi_s:                      0.431     0.431   0.0% |
Set symmetry:                        0.000     0.000   0.0% |
Other:                            1903.255  1903.255  60.2% |-----------------------|
-----------------------------------------------------------
Total:                                      3162.239 100.0%

Memory usage: 12.14 GiB
Date: Wed Mar 24 17:11:14 2021
