
  ___ ___ ___ _ _ _  
 |   |   |_  | | | | 
 | | | | | . | | | | 
 |__ |  _|___|_____|  20.10.1b1
 |___|_|             

User:   madkru@i013.nifl.fysik.dtu.dk
Date:   Mon Mar 22 07:09:06 2021
Arch:   x86_64
Pid:    27943
Python: 3.7.4
gpaw:   /home/niflheim/madkru/venv_folder/gpaw/gpaw (d0d1ca1c71)
_gpaw:  /home/niflheim/madkru/venv_folder/gpaw/build/lib.linux-x86_64-ivybridge-3.7/
        _gpaw.cpython-37m-x86_64-linux-gnu.so (4fd39e8b1e)
ase:    /home/niflheim/madkru/venv_folder/ase/ase (version 3.21.0b1-7e6c206a91)
numpy:  /home/niflheim/madkru/venv_folder/lib/python3.7/site-packages/numpy (version 1.19.4)
scipy:  /home/niflheim/madkru/venv_folder/lib/python3.7/site-packages/scipy (version 1.5.4)
libxc:  4.3.4
units:  Angstrom and eV
cores: 32
OMP_NUM_THREADS: 1

Input parameters:
  convergence: {bands: occupied,
                density: 0.0001,
                eigenstates: 4e-08,
                energy: 0.0005,
                forces: 1e-06}
  kpts: [6 6 4]
  mode: {ecut: 600.0,
         gammacentered: False,
         name: pw}
  occupations: {fixmagmom: False,
                name: fermi-dirac,
                width: 0.001}
  symmetry: {point_group: False,
             time_reversal: False}

System changes: positions, numbers, cell, pbc, initial_charges, initial_magmoms 

Initialize ...

O-setup:
  name: Oxygen
  id: 9b9d51c344dea68c822856295a461509
  Z: 8.0
  valence: 6
  core: 2
  charge: 0.0
  file: /home/modules/software/GPAW-setups/0.9.20000/O.LDA.gz
  compensation charges: gauss, rc=0.21, lmax=2
  cutoffs: 1.17(filt), 0.83(core),
  valence states:
                energy  radius
    2s(2.00)   -23.752   0.688
    2p(4.00)    -9.195   0.598
    *s           3.459   0.688
    *p          18.016   0.598
    *d           0.000   0.619

  Using partial waves for O as LCAO basis

Mn-setup:
  name: Manganese
  id: 0d715a8018be061a6e9ea6f2d364ac92
  Z: 25.0
  valence: 15
  core: 10
  charge: 0.0
  file: /home/modules/software/GPAW-setups/0.9.20000/Mn.LDA.gz
  compensation charges: gauss, rc=0.38, lmax=2
  cutoffs: 2.14(filt), 0.86(core),
  valence states:
                energy  radius
    3s(2.00)   -85.387   1.275
    4s(2.00)    -5.282   1.275
    3p(6.00)   -54.493   1.281
    4p(0.00)    -1.471   1.281
    3d(5.00)    -7.009   1.138
    *d          20.203   1.138

  Using partial waves for Mn as LCAO basis

P-setup:
  name: Phosphorus
  id: a5561c299094968922a179ab894d2e2d
  Z: 15.0
  valence: 5
  core: 10
  charge: 0.0
  file: /home/modules/software/GPAW-setups/0.9.20000/P.LDA.gz
  compensation charges: gauss, rc=0.30, lmax=2
  cutoffs: 1.69(filt), 1.81(core),
  valence states:
                energy  radius
    3s(2.00)   -14.015   0.953
    3p(3.00)    -5.596   0.953
    *s          13.197   0.953
    *p          21.615   0.953
    *d           0.000   0.953

  Using partial waves for P as LCAO basis

Li-setup:
  name: Lithium
  id: b73562207f97a71b6967473b66fe8b65
  Z: 3.0
  valence: 1
  core: 2
  charge: 0.0
  file: /home/modules/software/GPAW-setups/0.9.20000/Li.LDA.gz
  compensation charges: gauss, rc=0.33, lmax=2
  cutoffs: 1.91(filt), 2.55(core),
  valence states:
                energy  radius
    2s(1.00)    -2.874   1.058
    2p(0.00)    -1.126   1.058
    *s          24.338   1.058

  Using partial waves for Li as LCAO basis

Reference energy: -196157.275402

Spin-polarized calculation.
Magnetic moment: 0.000000

Convergence criteria:
  Maximum total energy change: 0.0005 eV / electron
  Maximum integral of absolute density change: 0.0001 electrons
  Maximum integral of absolute eigenstate change: 4e-08 eV^2
  Maximum change in atomic force: 1e-06 eV / Ang
  Maximum number of iterations: 333

Symmetries present (total): 1

  ( 1  0  0)
  ( 0  1  0)
  ( 0  0  1)

144 k-points: 6 x 6 x 4 Monkhorst-Pack grid
144 k-points in the irreducible part of the Brillouin zone
       k-points in crystal coordinates                weights
   0:    -0.41666667   -0.41666667   -0.37500000          1/144
   1:    -0.41666667   -0.41666667   -0.12500000          1/144
   2:    -0.41666667   -0.41666667    0.12500000          1/144
   3:    -0.41666667   -0.41666667    0.37500000          1/144
   4:    -0.41666667   -0.25000000   -0.37500000          1/144
   5:    -0.41666667   -0.25000000   -0.12500000          1/144
   6:    -0.41666667   -0.25000000    0.12500000          1/144
   7:    -0.41666667   -0.25000000    0.37500000          1/144
   8:    -0.41666667   -0.08333333   -0.37500000          1/144
   9:    -0.41666667   -0.08333333   -0.12500000          1/144
          ...
 143:     0.41666667    0.41666667    0.37500000          1/144

Wave functions: Plane wave expansion
  Cutoff energy: 600.000 eV
  Number of coefficients (min, max): 9132, 9161
  Pulay-stress correction: 0.000000 eV/Ang^3 (de/decut=0.000000)
  Using FFTW library
  ScaLapack parameters: grid=1x1, blocksize=None
  Wavefunction extrapolation:
    Improved wavefunction reuse through dual PAW basis 

  Fermi-Dirac: width=0.0010 eV

Eigensolver
   Davidson(niter=2, smin=None, normalize=True) 

Densities:
  Coarse grid: 60*35*27 grid
  Fine grid: 120*70*54 grid
  Total Charge: 0.000000 

Density mixing:
  Method: difference
  Backend: pulay
  Linear mixing parameter: 0.05
  Mixing with 5 old densities
  Damping of long wave oscillations: 50 

Hamiltonian:
  XC and Coulomb potentials evaluated on a 120*70*54 grid
  Using the LDA Exchange-Correlation functional
 

Memory estimate:
  Process memory now: 13036.10 MiB
  Calculator: 342.26 MiB
    Density: 19.13 MiB
      Arrays: 7.57 MiB
      Localized functions: 8.54 MiB
      Mixer: 3.03 MiB
    Hamiltonian: 5.87 MiB
      Arrays: 5.62 MiB
      XC: 0.00 MiB
      Poisson: 0.00 MiB
      vbar: 0.25 MiB
    Wavefunctions: 317.25 MiB
      Arrays psit_nG: 281.81 MiB
      Eigensolver: 18.27 MiB
      Projections: 5.41 MiB
      Projectors: 8.81 MiB
      PW-descriptor: 2.95 MiB

Total number of cores used: 32
Parallelization over k-points: 16
Domain decomposition: 2 x 1 x 1

Number of atoms: 28
Number of atomic orbitals: 148
Number of bands in calculation: 112
Number of valence electrons: 180
Bands to converge: occupied

... initialized

Initializing position-dependent things.

Density initialized from atomic densities
Creating initial wave functions:
  112 bands from LCAO basis set

                                           
                                           
                                           
                                           
                                           
               O     O  P  O               
            PO           OMn     O         
                  O          MO            
            O        Li O                  
             Mn  Mn          OP            
         O       O Li O                    
         Li     O P         O              
       Li                                  
                                           
                                           
                                           
                                           

Positions:
   0 O     -1.280122   -2.495595   -1.112331    ( 0.0000,  0.0000,  0.0000)
   1 O     -3.023238    2.918858    1.191723    ( 0.0000,  0.0000,  0.0000)
   2 O      1.997451    0.467212    1.441442    ( 0.0000,  0.0000,  0.0000)
   3 O      3.740343   -0.043905   -0.862614    ( 0.0000,  0.0000,  0.0000)
   4 O      1.997419    2.918835    1.441465    ( 0.0000,  0.0000,  0.0000)
   5 O      3.740372   -2.495531   -0.872587    ( 0.0000,  0.0000,  0.0000)
   6 O     -1.280154   -0.043891   -1.112309    ( 0.0000,  0.0000,  0.0000)
   7 O     -3.023210    0.467136    1.191750    ( 0.0000,  0.0000,  0.0000)
   8 O     -4.147405   -1.269737   -0.856207    ( 0.0000,  0.0000,  0.0000)
   9 O     -0.155894    1.692986    1.447725    ( 0.0000,  0.0000,  0.0000)
  10 O      4.864578    1.693016    1.185324    ( 0.0000,  0.0000,  0.0000)
  11 O      0.873163   -1.269706   -1.118625    ( 0.0000,  0.0000,  0.0000)
  12 Mn    -2.437108   -1.269902    0.302197    ( 0.0000,  0.0000,  1.0000)
  13 Mn    -1.866187    1.693156   -2.001927    ( 0.0000,  0.0000, -1.0000)
  14 Mn     3.154299    1.693181    0.026917    ( 0.0000,  0.0000, -1.0000)
  15 Mn     2.583444   -1.269877    2.331074    ( 0.0000,  0.0000,  1.0000)
  16 P     -0.543052   -1.269720   -1.734187    ( 0.0000,  0.0000,  0.0000)
  17 P     -3.760282    1.692974    0.569859    ( 0.0000,  0.0000,  0.0000)
  18 P      1.260300    1.693000    2.063344    ( 0.0000,  0.0000,  0.0000)
  19 P      4.477470   -1.269695   -0.240696    ( 0.0000,  0.0000,  0.0000)
  20 O     -0.544413   -1.269738    1.348523    ( 0.0000,  0.0000,  0.0000)
  21 O     -3.758895    1.692992   -0.955558    ( 0.0000,  0.0000,  0.0000)
  22 O      1.261690    1.693018   -1.019367    ( 0.0000,  0.0000,  0.0000)
  23 O      4.476045   -1.269713    1.284716    ( 0.0000,  0.0000,  0.0000)
  24 Li    -4.662027   -2.751322   -2.139440    ( 0.0000,  0.0000,  0.0000)
  25 Li     0.358703   -2.751277    0.164614    ( 0.0000,  0.0000,  0.0000)
  26 Li    -4.662011    0.211617   -2.139439    ( 0.0000,  0.0000,  0.0000)
  27 Li     0.358720    0.211628    0.164615    ( 0.0000,  0.0000,  0.0000)

Unit cell:
           periodic     x           y           z      points  spacing
  1. axis:    yes   10.041096    0.000054   -0.000022    60     0.1674
  2. axis:    yes    0.000032    5.925857    0.000001    35     0.1693
  3. axis:    yes   -0.000010    0.000001    4.608134    27     0.1707

  Lengths:  10.041096   5.925857   4.608134
  Angles:   89.999974  90.000250  89.999381

Effective grid spacing dv^(1/3) = 0.1691

                     log10-error:           total        iterations:
           time      wfs    density  force  energy       poisson  magmom
iter:   1  07:12:13                       -233.734952             +0.0000
iter:   2  07:12:49  -0.47  -0.95         -231.547726             +0.0013
iter:   3  07:13:25  -0.60  -1.00         -220.837824             +0.0014
iter:   4  07:14:01  -1.21  -1.30         -221.688436             +0.3770
iter:   5  07:14:37  -2.07  -1.37         -222.256021             +0.1862
iter:   6  07:15:14  -2.29  -1.40         -224.283949             -0.1284
iter:   7  07:15:50  -2.02  -1.49         -225.213380             -0.9452
iter:   8  07:16:26  -2.26  -1.61         -226.312091             -0.7405
iter:   9  07:17:02  -2.52  -1.90         -226.137533             -0.4086
iter:  10  07:17:39  -2.77  -2.08         -226.267426             -0.2461
iter:  11  07:18:15  -2.32  -2.14         -226.445290             +0.0009
iter:  12  07:18:51  -2.57  -2.20         -226.442447             -0.0081
iter:  13  07:19:27  -2.58  -2.41         -226.205345             +0.0010
iter:  14  07:20:03  -3.13  -2.65         -226.198438             -0.0008
iter:  15  07:20:40  -3.18  -2.71         -226.193909             -0.0000
iter:  16  07:21:16  -3.95  -3.06         -226.183427             -0.0001
iter:  17  07:21:52  -4.05  -3.06         -226.176284             -0.0000
iter:  18  07:22:28  -4.17  -3.15         -226.182815             -0.0000
iter:  19  07:23:05  -4.01  -3.30         -226.175278             -0.0000
iter:  20  07:23:41  -5.36  -3.54         -226.175282             -0.0000
iter:  21  07:24:17  -4.88  -3.59         -226.175267             +0.0000
iter:  22  07:24:53  -5.07  -3.86         -226.174810             +0.0000
iter:  23  07:25:30  -6.12  -3.91         -226.174867             +0.0000
iter:  24  07:26:06  -6.09  -4.00         -226.174805             +0.0000
iter:  25  07:26:42  -5.97  -4.23         -226.174811             +0.0000
iter:  26  07:27:19  -6.07  -4.33         -226.174800             +0.0000
iter:  27  07:27:55  -6.70  -4.36         -226.174807             +0.0000
iter:  28  07:28:31  -6.96  -4.46         -226.174804             +0.0000
iter:  29  07:29:17  -7.83  -4.51         -226.174803             +0.0000
iter:  30  07:30:02  -7.58  -4.57    -2.54-226.174804             +0.0000
iter:  31  07:30:38  -7.32  -4.62         -226.174802             +0.0000
iter:  32  07:31:24  -8.04  -4.80    -2.22-226.174802             +0.0000
iter:  33  07:32:09  -8.36  -4.90    -3.05-226.174802             +0.0000
iter:  34  07:32:54  -7.99  -4.97    -2.85-226.174802             +0.0000
iter:  35  07:33:40  -8.52  -5.04    -2.89-226.174802             +0.0000
iter:  36  07:34:25  -8.80  -5.16    -2.91-226.174802             -0.0000
iter:  37  07:35:11  -9.12  -5.25    -3.79-226.174801             -0.0000
iter:  38  07:35:56  -8.58  -5.29    -3.00-226.174801             -0.0000
iter:  39  07:36:41  -9.13  -5.46    -3.41-226.174801             -0.0000
iter:  40  07:37:27  -9.73  -5.55    -3.11-226.174801             -0.0000
iter:  41  07:38:12  -9.20  -5.70    -3.52-226.174801             -0.0000
iter:  42  07:38:58  -9.90  -5.94    -3.78-226.174801             -0.0000
iter:  43  07:39:43 -10.14  -6.01    -4.07-226.174801             -0.0000
iter:  44  07:40:28 -10.65  -6.09    -4.04-226.174801             -0.0000
iter:  45  07:41:14 -10.60  -6.17    -4.09-226.174801             -0.0000
iter:  46  07:41:59 -11.05  -6.26    -4.18-226.174801             -0.0000
iter:  47  07:42:45 -10.86  -6.28    -4.50-226.174801             -0.0000
iter:  48  07:43:30 -11.10  -6.35    -4.49-226.174801             -0.0000
iter:  49  07:44:16 -10.94  -6.38    -4.11-226.174801             -0.0000
iter:  50  07:45:01 -11.52  -6.66    -4.41-226.174801             -0.0000
iter:  51  07:45:47 -11.94  -6.81    -4.44-226.174801             -0.0000
iter:  52  07:46:32 -11.98  -6.99    -4.57-226.174801             -0.0000
iter:  53  07:47:18 -12.01  -7.14    -5.18-226.174801             -0.0000
iter:  54  07:48:03 -12.27  -7.20    -5.36-226.174801             -0.0000
iter:  55  07:48:49 -12.60  -7.25    -5.03-226.174801             -0.0000
iter:  56  07:49:34 -13.16  -7.35    -5.68-226.174801             -0.0000
iter:  57  07:50:19 -12.40  -7.37    -4.95-226.174801             -0.0000
iter:  58  07:51:05 -13.24  -7.58    -5.14-226.174801             -0.0000
iter:  59  07:51:50 -13.54  -7.84    -5.54-226.174801             -0.0000
iter:  60  07:52:35 -14.17  -8.08    -5.45-226.174801             -0.0000
iter:  61  07:53:21 -15.03  -8.40    -6.61-226.174801             -0.0000

Converged after 61 iterations.

Dipole moment: (18.327781, -2.306307, -4.546867) |e|*Ang

Total magnetic moment: (0.000000, 0.000000, -0.000000)
Local magnetic moments:
   0 O  ( 0.000000,  0.000000, -0.001804)
   1 O  ( 0.000000,  0.000000,  0.001820)
   2 O  ( 0.000000,  0.000000,  0.001667)
   3 O  ( 0.000000,  0.000000, -0.001792)
   4 O  ( 0.000000,  0.000000,  0.001852)
   5 O  ( 0.000000,  0.000000, -0.001523)
   6 O  ( 0.000000,  0.000000, -0.001805)
   7 O  ( 0.000000,  0.000000,  0.001827)
   8 O  ( 0.000000,  0.000000,  0.031191)
   9 O  ( 0.000000,  0.000000, -0.031104)
  10 O  ( 0.000000,  0.000000, -0.031040)
  11 O  ( 0.000000,  0.000000,  0.031115)
  12 Mn ( 0.000000,  0.000000,  4.395783)
  13 Mn ( 0.000000,  0.000000, -4.395761)
  14 Mn ( 0.000000,  0.000000, -4.396174)
  15 Mn ( 0.000000,  0.000000,  4.395193)
  16 P  ( 0.000000,  0.000000,  0.000878)
  17 P  ( 0.000000,  0.000000, -0.000857)
  18 P  ( 0.000000,  0.000000, -0.000864)
  19 P  ( 0.000000,  0.000000,  0.001083)
  20 O  ( 0.000000,  0.000000,  0.028421)
  21 O  ( 0.000000,  0.000000, -0.028403)
  22 O  ( 0.000000,  0.000000, -0.028398)
  23 O  ( 0.000000,  0.000000,  0.028417)
  24 Li ( 0.000000,  0.000000,  0.000008)
  25 Li ( 0.000000,  0.000000, -0.000001)
  26 Li ( 0.000000,  0.000000,  0.000001)
  27 Li ( 0.000000,  0.000000,  0.000001)

Energy contributions relative to reference atoms: (reference = -196157.275402)

Kinetic:       +277.375478
Potential:     -240.774835
External:        +0.000000
XC:            -264.664702
Entropy (-ST):   -0.000000
Local:           +1.889257
--------------------------
Free energy:   -226.174801
Extrapolated:  -226.174801

Spin contamination: 9.455140 electrons
Showing only first 2 kpts
                      Up                     Down
 Kpt  Band  Eigenvalues  Occupancy  Eigenvalues  Occupancy
  0    88      6.53290    0.00694      6.52901    0.00694
  0    89      6.56619    0.00694      6.56259    0.00694
  0    90      8.42729    0.00000      8.42872    0.00000
  0    91      8.44885    0.00000      8.45102    0.00000

  1    88      6.57161    0.00694      6.56761    0.00694
  1    89      6.59832    0.00694      6.59483    0.00694
  1    90      8.38347    0.00000      8.38476    0.00000
  1    91      8.40559    0.00000      8.40735    0.00000


Fermi level: 7.58755

Gap: 1.697 eV
Transition (v -> c):
  (s=0, k=50, n=89, [-0.08, -0.42, 0.12]) -> (s=0, k=85, n=90, [0.08, 0.08, -0.12])
Writing to born-0.01-5z-.gpw (mode='all')

Timing:                              incl.     excl.
-----------------------------------------------------------
Hamiltonian:                         0.362     0.002   0.0% |
 Atomic:                             0.050     0.050   0.0% |
  XC Correction:                     0.000     0.000   0.0% |
 Calculate atomic Hamiltonians:      0.150     0.150   0.0% |
 Communicate:                        0.002     0.002   0.0% |
 Initialize Hamiltonian:             0.000     0.000   0.0% |
 Poisson:                            0.001     0.001   0.0% |
 XC 3D grid:                         0.156     0.156   0.0% |
LCAO initialization:               140.743     0.646   0.0% |
 LCAO eigensolver:                  38.078     0.002   0.0% |
  Calculate projections:             0.056     0.056   0.0% |
  DenseAtomicCorrection:             0.088     0.088   0.0% |
  Distribute overlap matrix:         0.006     0.006   0.0% |
  Orbital Layouts:                   0.340     0.340   0.0% |
  Potential matrix:                 37.497    37.497   0.7% |
  Sum over cells:                    0.088     0.088   0.0% |
 LCAO to grid:                      99.644    99.644   1.8% ||
 Set positions (LCAO WFS):           2.375     0.371   0.0% |
  Basic WFS set positions:           0.001     0.001   0.0% |
  Basis functions set positions:     0.000     0.000   0.0% |
  P tci:                             1.085     1.085   0.0% |
  ST tci:                            0.700     0.700   0.0% |
  mktci:                             0.217     0.217   0.0% |
PWDescriptor:                        0.023     0.023   0.0% |
SCF-cycle:                        2511.697    14.638   0.3% |
 Davidson:                        2088.756   665.328  12.0% |----|
  Apply H:                         151.105   146.653   2.6% ||
   HMM T:                            4.452     4.452   0.1% |
  Subspace diag:                   311.066     0.190   0.0% |
   calc_h_matrix:                  203.029    54.468   1.0% |
    Apply H:                       148.561   144.251   2.6% ||
     HMM T:                          4.309     4.309   0.1% |
   diagonalize:                      7.158     7.158   0.1% |
   rotate_psi:                     100.689   100.689   1.8% ||
  calc. matrices:                  658.898   366.532   6.6% |--|
   Apply H:                        292.365   284.196   5.1% |-|
    HMM T:                           8.169     8.169   0.1% |
  diagonalize:                      96.401    96.401   1.7% ||
  rotate_psi:                      205.958   205.958   3.7% ||
 Density:                           86.944     0.002   0.0% |
  Atomic density matrices:           1.687     1.687   0.0% |
  Mix:                              11.580    11.580   0.2% |
  Multipole moments:                 0.036     0.036   0.0% |
  Pseudo density:                   73.640    73.638   1.3% ||
   Symmetrize density:               0.002     0.002   0.0% |
 Forces:                           295.735   295.735   5.3% |-|
 Hamiltonian:                       21.644     0.140   0.0% |
  Atomic:                            3.042     3.042   0.1% |
   XC Correction:                    0.000     0.000   0.0% |
  Calculate atomic Hamiltonians:     8.727     8.727   0.2% |
  Communicate:                       0.107     0.107   0.0% |
  Poisson:                           0.075     0.075   0.0% |
  XC 3D grid:                        9.554     9.554   0.2% |
 Orthonormalize:                     3.979     0.003   0.0% |
  calc_s_matrix:                     0.479     0.479   0.0% |
  inverse-cholesky:                  0.053     0.053   0.0% |
  projections:                       2.591     2.591   0.0% |
  rotate_psi_s:                      0.853     0.853   0.0% |
Set symmetry:                        0.000     0.000   0.0% |
Other:                            2888.163  2888.163  52.1% |--------------------|
-----------------------------------------------------------
Total:                                      5540.989 100.0%

Memory usage: 12.75 GiB
Date: Mon Mar 22 08:41:27 2021
