
  ___ ___ ___ _ _ _  
 |   |   |_  | | | | 
 | | | | | . | | | | 
 |__ |  _|___|_____|  20.10.1b1
 |___|_|             

User:   madkru@i013.nifl.fysik.dtu.dk
Date:   Mon Mar 22 09:37:36 2021
Arch:   x86_64
Pid:    27943
Python: 3.7.4
gpaw:   /home/niflheim/madkru/venv_folder/gpaw/gpaw (d0d1ca1c71)
_gpaw:  /home/niflheim/madkru/venv_folder/gpaw/build/lib.linux-x86_64-ivybridge-3.7/
        _gpaw.cpython-37m-x86_64-linux-gnu.so (4fd39e8b1e)
ase:    /home/niflheim/madkru/venv_folder/ase/ase (version 3.21.0b1-7e6c206a91)
numpy:  /home/niflheim/madkru/venv_folder/lib/python3.7/site-packages/numpy (version 1.19.4)
scipy:  /home/niflheim/madkru/venv_folder/lib/python3.7/site-packages/scipy (version 1.5.4)
libxc:  4.3.4
units:  Angstrom and eV
cores: 32
OMP_NUM_THREADS: 1

Input parameters:
  convergence: {bands: occupied,
                density: 0.0001,
                eigenstates: 4e-08,
                energy: 0.0005,
                forces: 1e-06}
  kpts: [6 6 4]
  mode: {ecut: 600.0,
         gammacentered: False,
         name: pw}
  occupations: {fixmagmom: False,
                name: fermi-dirac,
                width: 0.001}
  symmetry: {point_group: False,
             time_reversal: False}

System changes: positions, numbers, cell, pbc, initial_charges, initial_magmoms 

Initialize ...

O-setup:
  name: Oxygen
  id: 9b9d51c344dea68c822856295a461509
  Z: 8.0
  valence: 6
  core: 2
  charge: 0.0
  file: /home/modules/software/GPAW-setups/0.9.20000/O.LDA.gz
  compensation charges: gauss, rc=0.21, lmax=2
  cutoffs: 1.17(filt), 0.83(core),
  valence states:
                energy  radius
    2s(2.00)   -23.752   0.688
    2p(4.00)    -9.195   0.598
    *s           3.459   0.688
    *p          18.016   0.598
    *d           0.000   0.619

  Using partial waves for O as LCAO basis

Mn-setup:
  name: Manganese
  id: 0d715a8018be061a6e9ea6f2d364ac92
  Z: 25.0
  valence: 15
  core: 10
  charge: 0.0
  file: /home/modules/software/GPAW-setups/0.9.20000/Mn.LDA.gz
  compensation charges: gauss, rc=0.38, lmax=2
  cutoffs: 2.14(filt), 0.86(core),
  valence states:
                energy  radius
    3s(2.00)   -85.387   1.275
    4s(2.00)    -5.282   1.275
    3p(6.00)   -54.493   1.281
    4p(0.00)    -1.471   1.281
    3d(5.00)    -7.009   1.138
    *d          20.203   1.138

  Using partial waves for Mn as LCAO basis

P-setup:
  name: Phosphorus
  id: a5561c299094968922a179ab894d2e2d
  Z: 15.0
  valence: 5
  core: 10
  charge: 0.0
  file: /home/modules/software/GPAW-setups/0.9.20000/P.LDA.gz
  compensation charges: gauss, rc=0.30, lmax=2
  cutoffs: 1.69(filt), 1.81(core),
  valence states:
                energy  radius
    3s(2.00)   -14.015   0.953
    3p(3.00)    -5.596   0.953
    *s          13.197   0.953
    *p          21.615   0.953
    *d           0.000   0.953

  Using partial waves for P as LCAO basis

Li-setup:
  name: Lithium
  id: b73562207f97a71b6967473b66fe8b65
  Z: 3.0
  valence: 1
  core: 2
  charge: 0.0
  file: /home/modules/software/GPAW-setups/0.9.20000/Li.LDA.gz
  compensation charges: gauss, rc=0.33, lmax=2
  cutoffs: 1.91(filt), 2.55(core),
  valence states:
                energy  radius
    2s(1.00)    -2.874   1.058
    2p(0.00)    -1.126   1.058
    *s          24.338   1.058

  Using partial waves for Li as LCAO basis

Reference energy: -196157.275402

Spin-polarized calculation.
Magnetic moment: 0.000000

Convergence criteria:
  Maximum total energy change: 0.0005 eV / electron
  Maximum integral of absolute density change: 0.0001 electrons
  Maximum integral of absolute eigenstate change: 4e-08 eV^2
  Maximum change in atomic force: 1e-06 eV / Ang
  Maximum number of iterations: 333

Symmetries present (total): 1

  ( 1  0  0)
  ( 0  1  0)
  ( 0  0  1)

144 k-points: 6 x 6 x 4 Monkhorst-Pack grid
144 k-points in the irreducible part of the Brillouin zone
       k-points in crystal coordinates                weights
   0:    -0.41666667   -0.41666667   -0.37500000          1/144
   1:    -0.41666667   -0.41666667   -0.12500000          1/144
   2:    -0.41666667   -0.41666667    0.12500000          1/144
   3:    -0.41666667   -0.41666667    0.37500000          1/144
   4:    -0.41666667   -0.25000000   -0.37500000          1/144
   5:    -0.41666667   -0.25000000   -0.12500000          1/144
   6:    -0.41666667   -0.25000000    0.12500000          1/144
   7:    -0.41666667   -0.25000000    0.37500000          1/144
   8:    -0.41666667   -0.08333333   -0.37500000          1/144
   9:    -0.41666667   -0.08333333   -0.12500000          1/144
          ...
 143:     0.41666667    0.41666667    0.37500000          1/144

Wave functions: Plane wave expansion
  Cutoff energy: 600.000 eV
  Number of coefficients (min, max): 9132, 9161
  Pulay-stress correction: 0.000000 eV/Ang^3 (de/decut=0.000000)
  Using FFTW library
  ScaLapack parameters: grid=1x1, blocksize=None
  Wavefunction extrapolation:
    Improved wavefunction reuse through dual PAW basis 

  Fermi-Dirac: width=0.0010 eV

Eigensolver
   Davidson(niter=2, smin=None, normalize=True) 

Densities:
  Coarse grid: 60*35*27 grid
  Fine grid: 120*70*54 grid
  Total Charge: 0.000000 

Density mixing:
  Method: difference
  Backend: pulay
  Linear mixing parameter: 0.05
  Mixing with 5 old densities
  Damping of long wave oscillations: 50 

Hamiltonian:
  XC and Coulomb potentials evaluated on a 120*70*54 grid
  Using the LDA Exchange-Correlation functional
 

Memory estimate:
  Process memory now: 13110.32 MiB
  Calculator: 342.26 MiB
    Density: 19.13 MiB
      Arrays: 7.57 MiB
      Localized functions: 8.54 MiB
      Mixer: 3.03 MiB
    Hamiltonian: 5.87 MiB
      Arrays: 5.62 MiB
      XC: 0.00 MiB
      Poisson: 0.00 MiB
      vbar: 0.25 MiB
    Wavefunctions: 317.25 MiB
      Arrays psit_nG: 281.81 MiB
      Eigensolver: 18.27 MiB
      Projections: 5.41 MiB
      Projectors: 8.81 MiB
      PW-descriptor: 2.95 MiB

Total number of cores used: 32
Parallelization over k-points: 16
Domain decomposition: 2 x 1 x 1

Number of atoms: 28
Number of atomic orbitals: 148
Number of bands in calculation: 112
Number of valence electrons: 180
Bands to converge: occupied

... initialized

Initializing position-dependent things.

Density initialized from atomic densities
Creating initial wave functions:
  112 bands from LCAO basis set

                                           
                                           
                                           
                                           
                                           
               O     O  P  O               
            PO           OMn     O         
                  O          MO            
            O        Li O                  
             Mn  Mn          OP            
         O       O Li O                    
         Li     O P         O              
       Li                                  
                                           
                                           
                                           
                                           

Positions:
   0 O     -1.280122   -2.495595   -1.112331    ( 0.0000,  0.0000,  0.0000)
   1 O     -3.023238    2.918858    1.191723    ( 0.0000,  0.0000,  0.0000)
   2 O      1.997451    0.467212    1.441442    ( 0.0000,  0.0000,  0.0000)
   3 O      3.740343   -0.043905   -0.862614    ( 0.0000,  0.0000,  0.0000)
   4 O      1.997419    2.918835    1.441465    ( 0.0000,  0.0000,  0.0000)
   5 O      3.740372   -2.495531   -0.862587    ( 0.0000,  0.0000,  0.0000)
   6 O     -1.270154   -0.043891   -1.112309    ( 0.0000,  0.0000,  0.0000)
   7 O     -3.023210    0.467136    1.191750    ( 0.0000,  0.0000,  0.0000)
   8 O     -4.147405   -1.269737   -0.856207    ( 0.0000,  0.0000,  0.0000)
   9 O     -0.155894    1.692986    1.447725    ( 0.0000,  0.0000,  0.0000)
  10 O      4.864578    1.693016    1.185324    ( 0.0000,  0.0000,  0.0000)
  11 O      0.873163   -1.269706   -1.118625    ( 0.0000,  0.0000,  0.0000)
  12 Mn    -2.437108   -1.269902    0.302197    ( 0.0000,  0.0000,  1.0000)
  13 Mn    -1.866187    1.693156   -2.001927    ( 0.0000,  0.0000, -1.0000)
  14 Mn     3.154299    1.693181    0.026917    ( 0.0000,  0.0000, -1.0000)
  15 Mn     2.583444   -1.269877    2.331074    ( 0.0000,  0.0000,  1.0000)
  16 P     -0.543052   -1.269720   -1.734187    ( 0.0000,  0.0000,  0.0000)
  17 P     -3.760282    1.692974    0.569859    ( 0.0000,  0.0000,  0.0000)
  18 P      1.260300    1.693000    2.063344    ( 0.0000,  0.0000,  0.0000)
  19 P      4.477470   -1.269695   -0.240696    ( 0.0000,  0.0000,  0.0000)
  20 O     -0.544413   -1.269738    1.348523    ( 0.0000,  0.0000,  0.0000)
  21 O     -3.758895    1.692992   -0.955558    ( 0.0000,  0.0000,  0.0000)
  22 O      1.261690    1.693018   -1.019367    ( 0.0000,  0.0000,  0.0000)
  23 O      4.476045   -1.269713    1.284716    ( 0.0000,  0.0000,  0.0000)
  24 Li    -4.662027   -2.751322   -2.139440    ( 0.0000,  0.0000,  0.0000)
  25 Li     0.358703   -2.751277    0.164614    ( 0.0000,  0.0000,  0.0000)
  26 Li    -4.662011    0.211617   -2.139439    ( 0.0000,  0.0000,  0.0000)
  27 Li     0.358720    0.211628    0.164615    ( 0.0000,  0.0000,  0.0000)

Unit cell:
           periodic     x           y           z      points  spacing
  1. axis:    yes   10.041096    0.000054   -0.000022    60     0.1674
  2. axis:    yes    0.000032    5.925857    0.000001    35     0.1693
  3. axis:    yes   -0.000010    0.000001    4.608134    27     0.1707

  Lengths:  10.041096   5.925857   4.608134
  Angles:   89.999974  90.000250  89.999381

Effective grid spacing dv^(1/3) = 0.1691

                     log10-error:           total        iterations:
           time      wfs    density  force  energy       poisson  magmom
iter:   1  09:40:40                       -233.728688             +0.0000
iter:   2  09:41:17  -0.47  -0.95         -231.554440             +0.0020
iter:   3  09:41:53  -0.61  -1.00         -220.799093             +0.0021
iter:   4  09:42:29  -1.20  -1.31         -220.985028             -0.0274
iter:   5  09:43:05  -2.14  -1.39         -222.812805             -0.0144
iter:   6  09:43:41  -2.44  -1.37         -223.167434             -0.0059
iter:   7  09:44:17  -1.89  -1.55         -222.905726             -0.0044
iter:   8  09:44:54  -2.17  -1.93         -225.866889             -0.0026
iter:   9  09:45:30  -2.10  -2.06         -226.318117             -0.0016
iter:  10  09:46:06  -2.27  -2.14         -226.443923             -0.0006
iter:  11  09:46:42  -3.15  -2.27         -226.428896             -0.0002
iter:  12  09:47:18  -2.95  -2.31         -226.254940             +0.0000
iter:  13  09:47:54  -3.14  -2.44         -226.236561             -0.0000
iter:  14  09:48:30  -3.22  -2.66         -226.190197             -0.0000
iter:  15  09:49:06  -4.13  -2.70         -226.204094             -0.0000
iter:  16  09:49:42  -3.37  -2.72         -226.197933             -0.0000
iter:  17  09:50:18  -4.19  -2.81         -226.188600             -0.0000
iter:  18  09:50:54  -4.20  -2.90         -226.181022             -0.0000
iter:  19  09:51:30  -3.84  -2.96         -226.179344             -0.0000
iter:  20  09:52:06  -4.10  -3.10         -226.175096             -0.0000
iter:  21  09:52:42  -5.15  -3.47         -226.174980             -0.0000
iter:  22  09:53:18  -6.03  -3.46         -226.175099             -0.0000
iter:  23  09:53:54  -5.86  -3.48         -226.174956             +0.0000
iter:  24  09:54:30  -5.64  -3.75         -226.174797             +0.0000
iter:  25  09:55:06  -5.98  -3.81         -226.174774             +0.0000
iter:  26  09:55:42  -6.10  -3.85         -226.174797             +0.0000
iter:  27  09:56:18  -6.77  -3.91         -226.174768             -0.0000
iter:  28  09:56:54  -6.82  -3.96         -226.174740             -0.0000
iter:  29  09:57:30  -6.03  -4.12         -226.174735             -0.0000
iter:  30  09:58:06  -6.23  -4.20         -226.174701             -0.0000
iter:  31  09:58:52  -7.42  -4.32         -226.174700             -0.0000
iter:  32  09:59:28  -6.43  -4.33         -226.174699             -0.0000
iter:  33  10:00:04  -7.18  -4.50         -226.174693             -0.0000
iter:  34  10:00:49  -7.64  -4.58    -2.21-226.174692             -0.0000
iter:  35  10:01:34  -7.99  -4.62    -2.45-226.174692             -0.0000
iter:  36  10:02:20  -7.84  -4.78    -2.94-226.174691             +0.0000
iter:  37  10:03:05  -7.62  -4.82    -2.54-226.174691             +0.0000
iter:  38  10:03:50  -8.27  -5.10    -2.97-226.174691             +0.0000
iter:  39  10:04:36  -8.74  -5.43    -3.22-226.174691             +0.0000
iter:  40  10:05:21  -8.78  -5.57    -3.38-226.174691             +0.0000
iter:  41  10:06:06  -9.71  -5.65    -3.76-226.174691             +0.0000
iter:  42  10:06:52  -9.97  -5.70    -3.53-226.174691             +0.0000
iter:  43  10:07:37 -10.50  -5.81    -3.94-226.174691             +0.0000
iter:  44  10:08:22 -10.07  -5.85    -4.10-226.174691             +0.0000
iter:  45  10:09:07 -10.50  -5.98    -3.69-226.174691             +0.0000
iter:  46  10:09:53 -10.31  -6.09    -3.82-226.174691             +0.0000
iter:  47  10:10:38 -11.11  -6.37    -4.53-226.174691             +0.0000
iter:  48  10:11:23 -11.00  -6.41    -4.54-226.174691             +0.0000
iter:  49  10:12:09 -11.11  -6.46    -4.57-226.174691             +0.0000
iter:  50  10:12:54 -11.68  -6.50    -4.72-226.174691             +0.0000
iter:  51  10:13:39 -11.66  -6.55    -4.66-226.174691             +0.0000
iter:  52  10:14:24 -11.75  -6.64    -4.85-226.174691             +0.0000
iter:  53  10:15:10 -12.06  -6.81    -4.86-226.174691             +0.0000
iter:  54  10:15:55 -13.52  -7.04    -5.47-226.174691             +0.0000
iter:  55  10:16:40 -12.37  -7.07    -4.86-226.174691             +0.0000
iter:  56  10:17:26 -12.69  -7.26    -5.11-226.174691             +0.0000
iter:  57  10:18:11 -13.97  -7.37    -6.30-226.174691             +0.0000

Converged after 57 iterations.

Dipole moment: (18.332373, -2.310195, -4.524889) |e|*Ang

Total magnetic moment: (0.000000, 0.000000, 0.000000)
Local magnetic moments:
   0 O  ( 0.000000,  0.000000, -0.001822)
   1 O  ( 0.000000,  0.000000,  0.001871)
   2 O  ( 0.000000,  0.000000,  0.001786)
   3 O  ( 0.000000,  0.000000, -0.001826)
   4 O  ( 0.000000,  0.000000,  0.001784)
   5 O  ( 0.000000,  0.000000, -0.001821)
   6 O  ( 0.000000,  0.000000, -0.001833)
   7 O  ( 0.000000,  0.000000,  0.001831)
   8 O  ( 0.000000,  0.000000,  0.031101)
   9 O  ( 0.000000,  0.000000, -0.031150)
  10 O  ( 0.000000,  0.000000, -0.031036)
  11 O  ( 0.000000,  0.000000,  0.031226)
  12 Mn ( 0.000000,  0.000000,  4.396585)
  13 Mn ( 0.000000,  0.000000, -4.396823)
  14 Mn ( 0.000000,  0.000000, -4.395756)
  15 Mn ( 0.000000,  0.000000,  4.395771)
  16 P  ( 0.000000,  0.000000,  0.000838)
  17 P  ( 0.000000,  0.000000, -0.000880)
  18 P  ( 0.000000,  0.000000, -0.000856)
  19 P  ( 0.000000,  0.000000,  0.000860)
  20 O  ( 0.000000,  0.000000,  0.028459)
  21 O  ( 0.000000,  0.000000, -0.028379)
  22 O  ( 0.000000,  0.000000, -0.028446)
  23 O  ( 0.000000,  0.000000,  0.028375)
  24 Li ( 0.000000,  0.000000, -0.000001)
  25 Li ( 0.000000,  0.000000,  0.000005)
  26 Li ( 0.000000,  0.000000,  0.000000)
  27 Li ( 0.000000,  0.000000, -0.000007)

Energy contributions relative to reference atoms: (reference = -196157.275402)

Kinetic:       +277.894538
Potential:     -241.171448
External:        +0.000000
XC:            -264.785860
Entropy (-ST):   -0.000000
Local:           +1.888078
--------------------------
Free energy:   -226.174691
Extrapolated:  -226.174691

Spin contamination: 9.456409 electrons
Showing only first 2 kpts
                      Up                     Down
 Kpt  Band  Eigenvalues  Occupancy  Eigenvalues  Occupancy
  0    88      6.52798    0.00694      6.52575    0.00694
  0    89      6.56391    0.00694      6.56158    0.00694
  0    90      8.42396    0.00000      8.42244    0.00000
  0    91      8.44591    0.00000      8.44895    0.00000

  1    88      6.56646    0.00694      6.56376    0.00694
  1    89      6.59575    0.00694      6.59396    0.00694
  1    90      8.38044    0.00000      8.37721    0.00000
  1    91      8.40300    0.00000      8.40532    0.00000


Fermi level: 7.44211

Gap: 1.695 eV
Transition (v -> c):
  (s=0, k=70, n=89, [-0.08, 0.42, 0.12]) -> (s=1, k=61, n=90, [-0.08, 0.08, -0.12])
Writing to born-0.01-6x+.gpw (mode='all')

Timing:                              incl.     excl.
-----------------------------------------------------------
Hamiltonian:                         0.353     0.002   0.0% |
 Atomic:                             0.050     0.050   0.0% |
  XC Correction:                     0.000     0.000   0.0% |
 Calculate atomic Hamiltonians:      0.142     0.142   0.0% |
 Communicate:                        0.002     0.002   0.0% |
 Initialize Hamiltonian:             0.000     0.000   0.0% |
 Poisson:                            0.001     0.001   0.0% |
 XC 3D grid:                         0.155     0.155   0.0% |
LCAO initialization:               141.657     0.647   0.0% |
 LCAO eigensolver:                  38.185     0.002   0.0% |
  Calculate projections:             0.056     0.056   0.0% |
  DenseAtomicCorrection:             0.088     0.088   0.0% |
  Distribute overlap matrix:         0.006     0.006   0.0% |
  Orbital Layouts:                   0.342     0.342   0.0% |
  Potential matrix:                 37.603    37.603   0.7% |
  Sum over cells:                    0.086     0.086   0.0% |
 LCAO to grid:                     100.474   100.474   1.8% ||
 Set positions (LCAO WFS):           2.351     0.371   0.0% |
  Basic WFS set positions:           0.001     0.001   0.0% |
  Basis functions set positions:     0.000     0.000   0.0% |
  P tci:                             1.060     1.060   0.0% |
  ST tci:                            0.702     0.702   0.0% |
  mktci:                             0.216     0.216   0.0% |
PWDescriptor:                        0.023     0.023   0.0% |
SCF-cycle:                        2291.022     5.531   0.1% |
 Davidson:                        1951.465   621.936  11.0% |---|
  Apply H:                         140.756   136.414   2.4% ||
   HMM T:                            4.341     4.341   0.1% |
  Subspace diag:                   290.752     0.177   0.0% |
   calc_h_matrix:                  189.722    50.896   0.9% |
    Apply H:                       138.826   134.609   2.4% ||
     HMM T:                          4.217     4.217   0.1% |
   diagonalize:                      6.706     6.706   0.1% |
   rotate_psi:                      94.147    94.147   1.7% ||
  calc. matrices:                  615.356   342.538   6.0% |-|
   Apply H:                        272.818   264.836   4.7% |-|
    HMM T:                           7.982     7.982   0.1% |
  diagonalize:                      90.238    90.238   1.6% ||
  rotate_psi:                      192.428   192.428   3.4% ||
 Density:                           78.500     0.002   0.0% |
  Atomic density matrices:           1.446     1.446   0.0% |
  Mix:                              10.887    10.887   0.2% |
  Multipole moments:                 0.033     0.033   0.0% |
  Pseudo density:                   66.133    66.131   1.2% |
   Symmetrize density:               0.002     0.002   0.0% |
 Forces:                           231.321   231.321   4.1% |-|
 Hamiltonian:                       20.222     0.129   0.0% |
  Atomic:                            2.829     2.828   0.0% |
   XC Correction:                    0.000     0.000   0.0% |
  Calculate atomic Hamiltonians:     8.116     8.116   0.1% |
  Communicate:                       0.106     0.106   0.0% |
  Poisson:                           0.066     0.066   0.0% |
  XC 3D grid:                        8.976     8.976   0.2% |
 Orthonormalize:                     3.982     0.004   0.0% |
  calc_s_matrix:                     0.478     0.478   0.0% |
  inverse-cholesky:                  0.054     0.054   0.0% |
  projections:                       2.594     2.594   0.0% |
  rotate_psi_s:                      0.853     0.853   0.0% |
Set symmetry:                        0.000     0.000   0.0% |
Other:                            3244.248  3244.248  57.1% |----------------------|
-----------------------------------------------------------
Total:                                      5677.303 100.0%

Memory usage: 12.83 GiB
Date: Mon Mar 22 11:12:13 2021
