
  ___ ___ ___ _ _ _  
 |   |   |_  | | | | 
 | | | | | . | | | | 
 |__ |  _|___|_____|  20.10.1b1
 |___|_|             

User:   madkru@i013.nifl.fysik.dtu.dk
Date:   Mon Mar 22 17:05:34 2021
Arch:   x86_64
Pid:    27943
Python: 3.7.4
gpaw:   /home/niflheim/madkru/venv_folder/gpaw/gpaw (d0d1ca1c71)
_gpaw:  /home/niflheim/madkru/venv_folder/gpaw/build/lib.linux-x86_64-ivybridge-3.7/
        _gpaw.cpython-37m-x86_64-linux-gnu.so (4fd39e8b1e)
ase:    /home/niflheim/madkru/venv_folder/ase/ase (version 3.21.0b1-7e6c206a91)
numpy:  /home/niflheim/madkru/venv_folder/lib/python3.7/site-packages/numpy (version 1.19.4)
scipy:  /home/niflheim/madkru/venv_folder/lib/python3.7/site-packages/scipy (version 1.5.4)
libxc:  4.3.4
units:  Angstrom and eV
cores: 32
OMP_NUM_THREADS: 1

Input parameters:
  convergence: {bands: occupied,
                density: 0.0001,
                eigenstates: 4e-08,
                energy: 0.0005,
                forces: 1e-06}
  kpts: [6 6 4]
  mode: {ecut: 600.0,
         gammacentered: False,
         name: pw}
  occupations: {fixmagmom: False,
                name: fermi-dirac,
                width: 0.001}
  symmetry: {point_group: False,
             time_reversal: False}

System changes: positions, numbers, cell, pbc, initial_charges, initial_magmoms 

Initialize ...

O-setup:
  name: Oxygen
  id: 9b9d51c344dea68c822856295a461509
  Z: 8.0
  valence: 6
  core: 2
  charge: 0.0
  file: /home/modules/software/GPAW-setups/0.9.20000/O.LDA.gz
  compensation charges: gauss, rc=0.21, lmax=2
  cutoffs: 1.17(filt), 0.83(core),
  valence states:
                energy  radius
    2s(2.00)   -23.752   0.688
    2p(4.00)    -9.195   0.598
    *s           3.459   0.688
    *p          18.016   0.598
    *d           0.000   0.619

  Using partial waves for O as LCAO basis

Mn-setup:
  name: Manganese
  id: 0d715a8018be061a6e9ea6f2d364ac92
  Z: 25.0
  valence: 15
  core: 10
  charge: 0.0
  file: /home/modules/software/GPAW-setups/0.9.20000/Mn.LDA.gz
  compensation charges: gauss, rc=0.38, lmax=2
  cutoffs: 2.14(filt), 0.86(core),
  valence states:
                energy  radius
    3s(2.00)   -85.387   1.275
    4s(2.00)    -5.282   1.275
    3p(6.00)   -54.493   1.281
    4p(0.00)    -1.471   1.281
    3d(5.00)    -7.009   1.138
    *d          20.203   1.138

  Using partial waves for Mn as LCAO basis

P-setup:
  name: Phosphorus
  id: a5561c299094968922a179ab894d2e2d
  Z: 15.0
  valence: 5
  core: 10
  charge: 0.0
  file: /home/modules/software/GPAW-setups/0.9.20000/P.LDA.gz
  compensation charges: gauss, rc=0.30, lmax=2
  cutoffs: 1.69(filt), 1.81(core),
  valence states:
                energy  radius
    3s(2.00)   -14.015   0.953
    3p(3.00)    -5.596   0.953
    *s          13.197   0.953
    *p          21.615   0.953
    *d           0.000   0.953

  Using partial waves for P as LCAO basis

Li-setup:
  name: Lithium
  id: b73562207f97a71b6967473b66fe8b65
  Z: 3.0
  valence: 1
  core: 2
  charge: 0.0
  file: /home/modules/software/GPAW-setups/0.9.20000/Li.LDA.gz
  compensation charges: gauss, rc=0.33, lmax=2
  cutoffs: 1.91(filt), 2.55(core),
  valence states:
                energy  radius
    2s(1.00)    -2.874   1.058
    2p(0.00)    -1.126   1.058
    *s          24.338   1.058

  Using partial waves for Li as LCAO basis

Reference energy: -196157.275402

Spin-polarized calculation.
Magnetic moment: 0.000000

Convergence criteria:
  Maximum total energy change: 0.0005 eV / electron
  Maximum integral of absolute density change: 0.0001 electrons
  Maximum integral of absolute eigenstate change: 4e-08 eV^2
  Maximum change in atomic force: 1e-06 eV / Ang
  Maximum number of iterations: 333

Symmetries present (total): 1

  ( 1  0  0)
  ( 0  1  0)
  ( 0  0  1)

144 k-points: 6 x 6 x 4 Monkhorst-Pack grid
144 k-points in the irreducible part of the Brillouin zone
       k-points in crystal coordinates                weights
   0:    -0.41666667   -0.41666667   -0.37500000          1/144
   1:    -0.41666667   -0.41666667   -0.12500000          1/144
   2:    -0.41666667   -0.41666667    0.12500000          1/144
   3:    -0.41666667   -0.41666667    0.37500000          1/144
   4:    -0.41666667   -0.25000000   -0.37500000          1/144
   5:    -0.41666667   -0.25000000   -0.12500000          1/144
   6:    -0.41666667   -0.25000000    0.12500000          1/144
   7:    -0.41666667   -0.25000000    0.37500000          1/144
   8:    -0.41666667   -0.08333333   -0.37500000          1/144
   9:    -0.41666667   -0.08333333   -0.12500000          1/144
          ...
 143:     0.41666667    0.41666667    0.37500000          1/144

Wave functions: Plane wave expansion
  Cutoff energy: 600.000 eV
  Number of coefficients (min, max): 9132, 9161
  Pulay-stress correction: 0.000000 eV/Ang^3 (de/decut=0.000000)
  Using FFTW library
  ScaLapack parameters: grid=1x1, blocksize=None
  Wavefunction extrapolation:
    Improved wavefunction reuse through dual PAW basis 

  Fermi-Dirac: width=0.0010 eV

Eigensolver
   Davidson(niter=2, smin=None, normalize=True) 

Densities:
  Coarse grid: 60*35*27 grid
  Fine grid: 120*70*54 grid
  Total Charge: 0.000000 

Density mixing:
  Method: difference
  Backend: pulay
  Linear mixing parameter: 0.05
  Mixing with 5 old densities
  Damping of long wave oscillations: 50 

Hamiltonian:
  XC and Coulomb potentials evaluated on a 120*70*54 grid
  Using the LDA Exchange-Correlation functional
 

Memory estimate:
  Process memory now: 13339.54 MiB
  Calculator: 342.26 MiB
    Density: 19.13 MiB
      Arrays: 7.57 MiB
      Localized functions: 8.54 MiB
      Mixer: 3.03 MiB
    Hamiltonian: 5.87 MiB
      Arrays: 5.62 MiB
      XC: 0.00 MiB
      Poisson: 0.00 MiB
      vbar: 0.25 MiB
    Wavefunctions: 317.25 MiB
      Arrays psit_nG: 281.81 MiB
      Eigensolver: 18.27 MiB
      Projections: 5.41 MiB
      Projectors: 8.81 MiB
      PW-descriptor: 2.95 MiB

Total number of cores used: 32
Parallelization over k-points: 16
Domain decomposition: 2 x 1 x 1

Number of atoms: 28
Number of atomic orbitals: 148
Number of bands in calculation: 112
Number of valence electrons: 180
Bands to converge: occupied

... initialized

Initializing position-dependent things.

Density initialized from atomic densities
Creating initial wave functions:
  112 bands from LCAO basis set

                                           
                                           
                                           
                                           
                                           
               O     O  P  O               
            PO           OMn     O         
                  O          MO            
            O        Li O                  
             Mn  Mn          OP            
         O       O Li O                    
         Li     O P         O              
       Li                                  
                                           
                                           
                                           
                                           

Positions:
   0 O     -1.280122   -2.495595   -1.112331    ( 0.0000,  0.0000,  0.0000)
   1 O     -3.023238    2.918858    1.191723    ( 0.0000,  0.0000,  0.0000)
   2 O      1.997451    0.467212    1.441442    ( 0.0000,  0.0000,  0.0000)
   3 O      3.740343   -0.043905   -0.862614    ( 0.0000,  0.0000,  0.0000)
   4 O      1.997419    2.918835    1.441465    ( 0.0000,  0.0000,  0.0000)
   5 O      3.740372   -2.495531   -0.862587    ( 0.0000,  0.0000,  0.0000)
   6 O     -1.280154   -0.043891   -1.112309    ( 0.0000,  0.0000,  0.0000)
   7 O     -3.023210    0.467136    1.181750    ( 0.0000,  0.0000,  0.0000)
   8 O     -4.147405   -1.269737   -0.856207    ( 0.0000,  0.0000,  0.0000)
   9 O     -0.155894    1.692986    1.447725    ( 0.0000,  0.0000,  0.0000)
  10 O      4.864578    1.693016    1.185324    ( 0.0000,  0.0000,  0.0000)
  11 O      0.873163   -1.269706   -1.118625    ( 0.0000,  0.0000,  0.0000)
  12 Mn    -2.437108   -1.269902    0.302197    ( 0.0000,  0.0000,  1.0000)
  13 Mn    -1.866187    1.693156   -2.001927    ( 0.0000,  0.0000, -1.0000)
  14 Mn     3.154299    1.693181    0.026917    ( 0.0000,  0.0000, -1.0000)
  15 Mn     2.583444   -1.269877    2.331074    ( 0.0000,  0.0000,  1.0000)
  16 P     -0.543052   -1.269720   -1.734187    ( 0.0000,  0.0000,  0.0000)
  17 P     -3.760282    1.692974    0.569859    ( 0.0000,  0.0000,  0.0000)
  18 P      1.260300    1.693000    2.063344    ( 0.0000,  0.0000,  0.0000)
  19 P      4.477470   -1.269695   -0.240696    ( 0.0000,  0.0000,  0.0000)
  20 O     -0.544413   -1.269738    1.348523    ( 0.0000,  0.0000,  0.0000)
  21 O     -3.758895    1.692992   -0.955558    ( 0.0000,  0.0000,  0.0000)
  22 O      1.261690    1.693018   -1.019367    ( 0.0000,  0.0000,  0.0000)
  23 O      4.476045   -1.269713    1.284716    ( 0.0000,  0.0000,  0.0000)
  24 Li    -4.662027   -2.751322   -2.139440    ( 0.0000,  0.0000,  0.0000)
  25 Li     0.358703   -2.751277    0.164614    ( 0.0000,  0.0000,  0.0000)
  26 Li    -4.662011    0.211617   -2.139439    ( 0.0000,  0.0000,  0.0000)
  27 Li     0.358720    0.211628    0.164615    ( 0.0000,  0.0000,  0.0000)

Unit cell:
           periodic     x           y           z      points  spacing
  1. axis:    yes   10.041096    0.000054   -0.000022    60     0.1674
  2. axis:    yes    0.000032    5.925857    0.000001    35     0.1693
  3. axis:    yes   -0.000010    0.000001    4.608134    27     0.1707

  Lengths:  10.041096   5.925857   4.608134
  Angles:   89.999974  90.000250  89.999381

Effective grid spacing dv^(1/3) = 0.1691

                     log10-error:           total        iterations:
           time      wfs    density  force  energy       poisson  magmom
iter:   1  17:08:42                       -233.725035             +0.0000
iter:   2  17:09:18  -0.47  -0.95         -231.551840             +0.0017
iter:   3  17:09:54  -0.60  -1.00         -220.827041             +0.0017
iter:   4  17:10:31  -1.21  -1.30         -221.416274             +0.4069
iter:   5  17:11:08  -2.15  -1.38         -222.426455             +0.2314
iter:   6  17:11:44  -2.22  -1.38         -224.322604             +0.0019
iter:   7  17:12:21  -2.17  -1.50         -224.394917             -0.6600
iter:   8  17:12:57  -2.46  -1.63         -225.745736             -1.0526
iter:   9  17:13:34  -2.36  -1.89         -226.435644             -0.4522
iter:  10  17:14:10  -2.10  -2.10         -226.260228             -0.1295
iter:  11  17:14:46  -2.94  -2.28         -226.268814             -0.0713
iter:  12  17:15:23  -2.32  -2.33         -226.272681             +0.0193
iter:  13  17:15:59  -2.85  -2.67         -226.191930             -0.0125
iter:  14  17:16:36  -3.37  -2.84         -226.199600             -0.0042
iter:  15  17:17:12  -3.16  -2.83         -226.177092             -0.0020
iter:  16  17:17:48  -4.12  -3.24         -226.177521             -0.0011
iter:  17  17:18:25  -4.38  -3.28         -226.176214             -0.0001
iter:  18  17:19:01  -4.14  -3.35         -226.175683             -0.0001
iter:  19  17:19:38  -4.90  -3.59         -226.174629             -0.0000
iter:  20  17:20:14  -5.02  -3.70         -226.174331             -0.0001
iter:  21  17:20:50  -5.70  -4.08         -226.174839             -0.0000
iter:  22  17:21:27  -5.99  -4.17         -226.174818             -0.0000
iter:  23  17:22:03  -6.58  -4.21         -226.174816             -0.0000
iter:  24  17:22:40  -7.36  -4.30         -226.174815             -0.0000
iter:  25  17:23:16  -6.55  -4.36         -226.174808             -0.0000
iter:  26  17:23:52  -6.66  -4.59         -226.174815             -0.0000
iter:  27  17:24:29  -6.44  -4.66         -226.174812             -0.0000
iter:  28  17:25:05  -7.18  -4.77         -226.174807             -0.0000
iter:  29  17:25:51  -8.23  -5.20         -226.174807             -0.0000
iter:  30  17:26:36  -8.72  -5.23    -3.34-226.174807             +0.0000
iter:  31  17:27:22  -8.79  -5.30    -3.43-226.174806             +0.0000
iter:  32  17:28:08  -9.31  -5.38    -3.58-226.174806             +0.0000
iter:  33  17:28:53  -9.50  -5.42    -3.02-226.174806             +0.0000
iter:  34  17:29:38  -9.87  -5.54    -3.64-226.174806             -0.0000
iter:  35  17:30:24  -9.40  -5.59    -3.59-226.174806             -0.0000
iter:  36  17:31:09  -9.67  -5.73    -3.46-226.174806             -0.0000
iter:  37  17:31:55 -10.33  -5.80    -3.64-226.174806             +0.0000
iter:  38  17:32:40 -10.28  -5.85    -4.52-226.174806             +0.0000
iter:  39  17:33:25  -9.92  -5.90    -3.60-226.174806             +0.0000
iter:  40  17:34:11 -10.52  -6.06    -4.14-226.174806             +0.0000
iter:  41  17:34:56  -9.85  -6.13    -3.80-226.174806             +0.0000
iter:  42  17:35:41 -10.77  -6.42    -4.37-226.174806             +0.0000
iter:  43  17:36:27 -11.12  -6.51    -4.77-226.174806             -0.0000
iter:  44  17:37:12 -11.20  -6.58    -4.37-226.174806             -0.0000
iter:  45  17:37:57 -11.39  -6.83    -4.74-226.174806             -0.0000
iter:  46  17:38:43 -12.12  -6.98    -5.19-226.174806             -0.0000
iter:  47  17:39:28 -11.64  -7.02    -4.61-226.174806             -0.0000
iter:  48  17:40:13 -11.87  -7.25    -4.92-226.174806             -0.0000
iter:  49  17:40:59 -12.61  -7.39    -5.31-226.174806             -0.0000
iter:  50  17:41:44 -12.70  -7.59    -5.33-226.174806             -0.0000
iter:  51  17:42:29 -13.32  -7.74    -5.69-226.174806             -0.0000
iter:  52  17:43:15 -14.34  -7.89    -6.26-226.174806             -0.0000

Converged after 52 iterations.

Dipole moment: (18.327769, -2.305530, -4.526706) |e|*Ang

Total magnetic moment: (0.000000, 0.000000, -0.000000)
Local magnetic moments:
   0 O  ( 0.000000,  0.000000, -0.001950)
   1 O  ( 0.000000,  0.000000,  0.001824)
   2 O  ( 0.000000,  0.000000,  0.001814)
   3 O  ( 0.000000,  0.000000, -0.001798)
   4 O  ( 0.000000,  0.000000,  0.001813)
   5 O  ( 0.000000,  0.000000, -0.001790)
   6 O  ( 0.000000,  0.000000, -0.001765)
   7 O  ( 0.000000,  0.000000,  0.002096)
   8 O  ( 0.000000,  0.000000,  0.031153)
   9 O  ( 0.000000,  0.000000, -0.031077)
  10 O  ( 0.000000,  0.000000, -0.031002)
  11 O  ( 0.000000,  0.000000,  0.031089)
  12 Mn ( 0.000000,  0.000000,  4.395310)
  13 Mn ( 0.000000,  0.000000, -4.396313)
  14 Mn ( 0.000000,  0.000000, -4.395719)
  15 Mn ( 0.000000,  0.000000,  4.395774)
  16 P  ( 0.000000,  0.000000,  0.000873)
  17 P  ( 0.000000,  0.000000, -0.000653)
  18 P  ( 0.000000,  0.000000, -0.000859)
  19 P  ( 0.000000,  0.000000,  0.000878)
  20 O  ( 0.000000,  0.000000,  0.028439)
  21 O  ( 0.000000,  0.000000, -0.028419)
  22 O  ( 0.000000,  0.000000, -0.028416)
  23 O  ( 0.000000,  0.000000,  0.028432)
  24 Li ( 0.000000,  0.000000,  0.000001)
  25 Li ( 0.000000,  0.000000,  0.000001)
  26 Li ( 0.000000,  0.000000,  0.000007)
  27 Li ( 0.000000,  0.000000, -0.000001)

Energy contributions relative to reference atoms: (reference = -196157.275402)

Kinetic:       +277.876443
Potential:     -241.161277
External:        +0.000000
XC:            -264.777615
Entropy (-ST):   -0.000000
Local:           +1.887643
--------------------------
Free energy:   -226.174806
Extrapolated:  -226.174806

Spin contamination: 9.455465 electrons
Showing only first 2 kpts
                      Up                     Down
 Kpt  Band  Eigenvalues  Occupancy  Eigenvalues  Occupancy
  0    88      6.53186    0.00694      6.52757    0.00694
  0    89      6.56567    0.00694      6.56233    0.00694
  0    90      8.42431    0.00000      8.42615    0.00000
  0    91      8.44627    0.00000      8.44789    0.00000

  1    88      6.57007    0.00694      6.56577    0.00694
  1    89      6.59741    0.00694      6.59406    0.00694
  1    90      8.38111    0.00000      8.38273    0.00000
  1    91      8.40352    0.00000      8.40488    0.00000


Fermi level: 7.73828

Gap: 1.697 eV
Transition (v -> c):
  (s=0, k=74, n=89, [0.08, -0.42, 0.12]) -> (s=0, k=82, n=90, [0.08, -0.08, 0.12])
Writing to born-0.01-7z-.gpw (mode='all')

Timing:                              incl.     excl.
-----------------------------------------------------------
Hamiltonian:                         0.355     0.002   0.0% |
 Atomic:                             0.051     0.051   0.0% |
  XC Correction:                     0.000     0.000   0.0% |
 Calculate atomic Hamiltonians:      0.146     0.146   0.0% |
 Communicate:                        0.001     0.001   0.0% |
 Initialize Hamiltonian:             0.000     0.000   0.0% |
 Poisson:                            0.001     0.001   0.0% |
 XC 3D grid:                         0.152     0.152   0.0% |
LCAO initialization:               144.092     0.647   0.0% |
 LCAO eigensolver:                  38.346     0.002   0.0% |
  Calculate projections:             0.057     0.057   0.0% |
  DenseAtomicCorrection:             0.088     0.088   0.0% |
  Distribute overlap matrix:         0.063     0.063   0.0% |
  Orbital Layouts:                   0.341     0.341   0.0% |
  Potential matrix:                 37.710    37.710   0.8% |
  Sum over cells:                    0.085     0.085   0.0% |
 LCAO to grid:                     102.756   102.756   2.1% ||
 Set positions (LCAO WFS):           2.344     0.371   0.0% |
  Basic WFS set positions:           0.001     0.001   0.0% |
  Basis functions set positions:     0.000     0.000   0.0% |
  P tci:                             1.051     1.051   0.0% |
  ST tci:                            0.700     0.700   0.0% |
  mktci:                             0.220     0.220   0.0% |
PWDescriptor:                        0.023     0.023   0.0% |
SCF-cycle:                        2115.057    13.480   0.3% |
 Davidson:                        1785.461   567.164  11.6% |----|
  Apply H:                         129.188   125.300   2.6% ||
   HMM T:                            3.888     3.888   0.1% |
  Subspace diag:                   267.006     0.162   0.0% |
   calc_h_matrix:                  174.991    46.456   0.9% |
    Apply H:                       128.535   124.708   2.5% ||
     HMM T:                          3.827     3.827   0.1% |
   diagonalize:                      6.125     6.125   0.1% |
   rotate_psi:                      85.728    85.728   1.7% ||
  calc. matrices:                  564.674   312.657   6.4% |--|
   Apply H:                        252.017   244.889   5.0% |-|
    HMM T:                           7.127     7.127   0.1% |
  diagonalize:                      81.933    81.933   1.7% ||
  rotate_psi:                      175.496   175.496   3.6% ||
 Density:                           73.142     0.001   0.0% |
  Atomic density matrices:           1.294     1.294   0.0% |
  Mix:                               9.759     9.759   0.2% |
  Multipole moments:                 0.029     0.029   0.0% |
  Pseudo density:                   62.059    62.057   1.3% ||
   Symmetrize density:               0.001     0.001   0.0% |
 Forces:                           220.605   220.605   4.5% |-|
 Hamiltonian:                       18.374     0.119   0.0% |
  Atomic:                            2.574     2.573   0.1% |
   XC Correction:                    0.000     0.000   0.0% |
  Calculate atomic Hamiltonians:     7.415     7.415   0.2% |
  Communicate:                       0.100     0.100   0.0% |
  Poisson:                           0.066     0.066   0.0% |
  XC 3D grid:                        8.101     8.101   0.2% |
 Orthonormalize:                     3.994     0.004   0.0% |
  calc_s_matrix:                     0.479     0.479   0.0% |
  inverse-cholesky:                  0.055     0.055   0.0% |
  projections:                       2.603     2.603   0.1% |
  rotate_psi_s:                      0.853     0.853   0.0% |
Set symmetry:                        0.000     0.000   0.0% |
Other:                            2639.779  2639.779  53.9% |---------------------|
-----------------------------------------------------------
Total:                                      4899.306 100.0%

Memory usage: 13.04 GiB
Date: Mon Mar 22 18:27:13 2021
