
  ___ ___ ___ _ _ _  
 |   |   |_  | | | | 
 | | | | | . | | | | 
 |__ |  _|___|_____|  20.10.1b1
 |___|_|             

User:   madkru@i013.nifl.fysik.dtu.dk
Date:   Sun Mar 21 11:45:23 2021
Arch:   x86_64
Pid:    27943
Python: 3.7.4
gpaw:   /home/niflheim/madkru/venv_folder/gpaw/gpaw (d0d1ca1c71)
_gpaw:  /home/niflheim/madkru/venv_folder/gpaw/build/lib.linux-x86_64-ivybridge-3.7/
        _gpaw.cpython-37m-x86_64-linux-gnu.so (4fd39e8b1e)
ase:    /home/niflheim/madkru/venv_folder/ase/ase (version 3.21.0b1-7e6c206a91)
numpy:  /home/niflheim/madkru/venv_folder/lib/python3.7/site-packages/numpy (version 1.19.4)
scipy:  /home/niflheim/madkru/venv_folder/lib/python3.7/site-packages/scipy (version 1.5.4)
libxc:  4.3.4
units:  Angstrom and eV
cores: 32
OMP_NUM_THREADS: 1

Input parameters:
  convergence: {bands: occupied,
                density: 0.0001,
                eigenstates: 4e-08,
                energy: 0.0005,
                forces: 1e-06}
  kpts: [6 6 4]
  mode: {ecut: 600.0,
         gammacentered: False,
         name: pw}
  occupations: {fixmagmom: False,
                name: fermi-dirac,
                width: 0.001}
  symmetry: {point_group: False,
             time_reversal: False}

System changes: positions, numbers, cell, pbc, initial_charges, initial_magmoms 

Initialize ...

O-setup:
  name: Oxygen
  id: 9b9d51c344dea68c822856295a461509
  Z: 8.0
  valence: 6
  core: 2
  charge: 0.0
  file: /home/modules/software/GPAW-setups/0.9.20000/O.LDA.gz
  compensation charges: gauss, rc=0.21, lmax=2
  cutoffs: 1.17(filt), 0.83(core),
  valence states:
                energy  radius
    2s(2.00)   -23.752   0.688
    2p(4.00)    -9.195   0.598
    *s           3.459   0.688
    *p          18.016   0.598
    *d           0.000   0.619

  Using partial waves for O as LCAO basis

Mn-setup:
  name: Manganese
  id: 0d715a8018be061a6e9ea6f2d364ac92
  Z: 25.0
  valence: 15
  core: 10
  charge: 0.0
  file: /home/modules/software/GPAW-setups/0.9.20000/Mn.LDA.gz
  compensation charges: gauss, rc=0.38, lmax=2
  cutoffs: 2.14(filt), 0.86(core),
  valence states:
                energy  radius
    3s(2.00)   -85.387   1.275
    4s(2.00)    -5.282   1.275
    3p(6.00)   -54.493   1.281
    4p(0.00)    -1.471   1.281
    3d(5.00)    -7.009   1.138
    *d          20.203   1.138

  Using partial waves for Mn as LCAO basis

P-setup:
  name: Phosphorus
  id: a5561c299094968922a179ab894d2e2d
  Z: 15.0
  valence: 5
  core: 10
  charge: 0.0
  file: /home/modules/software/GPAW-setups/0.9.20000/P.LDA.gz
  compensation charges: gauss, rc=0.30, lmax=2
  cutoffs: 1.69(filt), 1.81(core),
  valence states:
                energy  radius
    3s(2.00)   -14.015   0.953
    3p(3.00)    -5.596   0.953
    *s          13.197   0.953
    *p          21.615   0.953
    *d           0.000   0.953

  Using partial waves for P as LCAO basis

Li-setup:
  name: Lithium
  id: b73562207f97a71b6967473b66fe8b65
  Z: 3.0
  valence: 1
  core: 2
  charge: 0.0
  file: /home/modules/software/GPAW-setups/0.9.20000/Li.LDA.gz
  compensation charges: gauss, rc=0.33, lmax=2
  cutoffs: 1.91(filt), 2.55(core),
  valence states:
                energy  radius
    2s(1.00)    -2.874   1.058
    2p(0.00)    -1.126   1.058
    *s          24.338   1.058

  Using partial waves for Li as LCAO basis

Reference energy: -196157.275402

Spin-polarized calculation.
Magnetic moment: 0.000000

Convergence criteria:
  Maximum total energy change: 0.0005 eV / electron
  Maximum integral of absolute density change: 0.0001 electrons
  Maximum integral of absolute eigenstate change: 4e-08 eV^2
  Maximum change in atomic force: 1e-06 eV / Ang
  Maximum number of iterations: 333

Symmetries present (total): 1

  ( 1  0  0)
  ( 0  1  0)
  ( 0  0  1)

144 k-points: 6 x 6 x 4 Monkhorst-Pack grid
144 k-points in the irreducible part of the Brillouin zone
       k-points in crystal coordinates                weights
   0:    -0.41666667   -0.41666667   -0.37500000          1/144
   1:    -0.41666667   -0.41666667   -0.12500000          1/144
   2:    -0.41666667   -0.41666667    0.12500000          1/144
   3:    -0.41666667   -0.41666667    0.37500000          1/144
   4:    -0.41666667   -0.25000000   -0.37500000          1/144
   5:    -0.41666667   -0.25000000   -0.12500000          1/144
   6:    -0.41666667   -0.25000000    0.12500000          1/144
   7:    -0.41666667   -0.25000000    0.37500000          1/144
   8:    -0.41666667   -0.08333333   -0.37500000          1/144
   9:    -0.41666667   -0.08333333   -0.12500000          1/144
          ...
 143:     0.41666667    0.41666667    0.37500000          1/144

Wave functions: Plane wave expansion
  Cutoff energy: 600.000 eV
  Number of coefficients (min, max): 9132, 9161
  Pulay-stress correction: 0.000000 eV/Ang^3 (de/decut=0.000000)
  Using FFTW library
  ScaLapack parameters: grid=1x1, blocksize=None
  Wavefunction extrapolation:
    Improved wavefunction reuse through dual PAW basis 

  Fermi-Dirac: width=0.0010 eV

Eigensolver
   Davidson(niter=2, smin=None, normalize=True) 

Densities:
  Coarse grid: 60*35*27 grid
  Fine grid: 120*70*54 grid
  Total Charge: 0.000000 

Density mixing:
  Method: difference
  Backend: pulay
  Linear mixing parameter: 0.05
  Mixing with 5 old densities
  Damping of long wave oscillations: 50 

Hamiltonian:
  XC and Coulomb potentials evaluated on a 120*70*54 grid
  Using the LDA Exchange-Correlation functional
 

Memory estimate:
  Process memory now: 12442.10 MiB
  Calculator: 342.26 MiB
    Density: 19.13 MiB
      Arrays: 7.57 MiB
      Localized functions: 8.54 MiB
      Mixer: 3.03 MiB
    Hamiltonian: 5.87 MiB
      Arrays: 5.62 MiB
      XC: 0.00 MiB
      Poisson: 0.00 MiB
      vbar: 0.25 MiB
    Wavefunctions: 317.25 MiB
      Arrays psit_nG: 281.81 MiB
      Eigensolver: 18.27 MiB
      Projections: 5.41 MiB
      Projectors: 8.81 MiB
      PW-descriptor: 2.95 MiB

Total number of cores used: 32
Parallelization over k-points: 16
Domain decomposition: 2 x 1 x 1

Number of atoms: 28
Number of atomic orbitals: 148
Number of bands in calculation: 112
Number of valence electrons: 180
Bands to converge: occupied

... initialized

Initializing position-dependent things.

Density initialized from atomic densities
Creating initial wave functions:
  112 bands from LCAO basis set

                                           
                                           
                                           
                                           
                                           
               O     O  P  O               
            PO           OMn     O         
                  O          MO            
            O        Li O                  
             Mn  Mn          OP            
         O       O Li O                    
         Li     O P         O              
       Li                                  
                                           
                                           
                                           
                                           

Positions:
   0 O     -1.280122   -2.495595   -1.112331    ( 0.0000,  0.0000,  0.0000)
   1 O     -3.023238    2.918858    1.201723    ( 0.0000,  0.0000,  0.0000)
   2 O      1.997451    0.467212    1.441442    ( 0.0000,  0.0000,  0.0000)
   3 O      3.740343   -0.043905   -0.862614    ( 0.0000,  0.0000,  0.0000)
   4 O      1.997419    2.918835    1.441465    ( 0.0000,  0.0000,  0.0000)
   5 O      3.740372   -2.495531   -0.862587    ( 0.0000,  0.0000,  0.0000)
   6 O     -1.280154   -0.043891   -1.112309    ( 0.0000,  0.0000,  0.0000)
   7 O     -3.023210    0.467136    1.191750    ( 0.0000,  0.0000,  0.0000)
   8 O     -4.147405   -1.269737   -0.856207    ( 0.0000,  0.0000,  0.0000)
   9 O     -0.155894    1.692986    1.447725    ( 0.0000,  0.0000,  0.0000)
  10 O      4.864578    1.693016    1.185324    ( 0.0000,  0.0000,  0.0000)
  11 O      0.873163   -1.269706   -1.118625    ( 0.0000,  0.0000,  0.0000)
  12 Mn    -2.437108   -1.269902    0.302197    ( 0.0000,  0.0000,  1.0000)
  13 Mn    -1.866187    1.693156   -2.001927    ( 0.0000,  0.0000, -1.0000)
  14 Mn     3.154299    1.693181    0.026917    ( 0.0000,  0.0000, -1.0000)
  15 Mn     2.583444   -1.269877    2.331074    ( 0.0000,  0.0000,  1.0000)
  16 P     -0.543052   -1.269720   -1.734187    ( 0.0000,  0.0000,  0.0000)
  17 P     -3.760282    1.692974    0.569859    ( 0.0000,  0.0000,  0.0000)
  18 P      1.260300    1.693000    2.063344    ( 0.0000,  0.0000,  0.0000)
  19 P      4.477470   -1.269695   -0.240696    ( 0.0000,  0.0000,  0.0000)
  20 O     -0.544413   -1.269738    1.348523    ( 0.0000,  0.0000,  0.0000)
  21 O     -3.758895    1.692992   -0.955558    ( 0.0000,  0.0000,  0.0000)
  22 O      1.261690    1.693018   -1.019367    ( 0.0000,  0.0000,  0.0000)
  23 O      4.476045   -1.269713    1.284716    ( 0.0000,  0.0000,  0.0000)
  24 Li    -4.662027   -2.751322   -2.139440    ( 0.0000,  0.0000,  0.0000)
  25 Li     0.358703   -2.751277    0.164614    ( 0.0000,  0.0000,  0.0000)
  26 Li    -4.662011    0.211617   -2.139439    ( 0.0000,  0.0000,  0.0000)
  27 Li     0.358720    0.211628    0.164615    ( 0.0000,  0.0000,  0.0000)

Unit cell:
           periodic     x           y           z      points  spacing
  1. axis:    yes   10.041096    0.000054   -0.000022    60     0.1674
  2. axis:    yes    0.000032    5.925857    0.000001    35     0.1693
  3. axis:    yes   -0.000010    0.000001    4.608134    27     0.1707

  Lengths:  10.041096   5.925857   4.608134
  Angles:   89.999974  90.000250  89.999381

Effective grid spacing dv^(1/3) = 0.1691

                     log10-error:           total        iterations:
           time      wfs    density  force  energy       poisson  magmom
iter:   1  11:48:27                       -233.734935             +0.0000
iter:   2  11:49:03  -0.47  -0.95         -231.547673             +0.0025
iter:   3  11:49:39  -0.61  -1.00         -220.810674             +0.0025
iter:   4  11:50:15  -1.21  -1.31         -221.163745             +0.0001
iter:   5  11:50:51  -2.15  -1.38         -222.641558             +0.0004
iter:   6  11:51:28  -2.48  -1.37         -223.327102             +0.0001
iter:   7  11:52:04  -1.83  -1.55         -222.985702             +0.0001
iter:   8  11:52:40  -2.09  -1.93         -226.020340             +0.0000
iter:   9  11:53:16  -2.20  -2.07         -226.320587             -0.0000
iter:  10  11:53:52  -2.24  -2.15         -226.400438             -0.0000
iter:  11  11:54:28  -3.18  -2.30         -226.386148             -0.0000
iter:  12  11:55:05  -2.72  -2.34         -226.205760             -0.0000
iter:  13  11:55:41  -3.02  -2.51         -226.204938             -0.0000
iter:  14  11:56:17  -3.38  -2.77         -226.199722             -0.0000
iter:  15  11:56:53  -3.12  -2.84         -226.181886             +0.0000
iter:  16  11:57:29  -3.62  -2.90         -226.177419             +0.0000
iter:  17  11:58:05  -4.74  -3.37         -226.177026             -0.0000
iter:  18  11:58:41  -4.64  -3.43         -226.175983             -0.0000
iter:  19  11:59:17  -4.76  -3.55         -226.175080             +0.0000
iter:  20  11:59:53  -5.34  -3.56         -226.174905             +0.0000
iter:  21  12:00:29  -5.51  -3.69         -226.174817             +0.0000
iter:  22  12:01:05  -6.34  -3.96         -226.174834             +0.0000
iter:  23  12:01:41  -6.37  -4.00         -226.174841             +0.0000
iter:  24  12:02:18  -6.95  -4.37         -226.174825             +0.0000
iter:  25  12:02:54  -7.25  -4.48         -226.174817             +0.0000
iter:  26  12:03:30  -7.06  -4.57         -226.174810             +0.0000
iter:  27  12:04:15  -7.79  -4.67         -226.174810             +0.0000
iter:  28  12:04:51  -7.04  -4.71         -226.174808             +0.0000
iter:  29  12:05:37  -7.66  -4.87    -2.21-226.174809             +0.0000
iter:  30  12:06:22  -8.04  -4.99    -3.10-226.174808             -0.0000
iter:  31  12:07:07  -8.18  -5.07    -3.04-226.174808             -0.0000
iter:  32  12:07:52  -9.07  -5.12    -2.92-226.174808             +0.0000
iter:  33  12:08:38  -8.34  -5.27    -3.11-226.174808             +0.0000
iter:  34  12:09:23  -9.13  -5.45    -3.63-226.174808             +0.0000
iter:  35  12:10:08 -10.00  -5.47    -4.13-226.174808             +0.0000
iter:  36  12:10:53  -8.88  -5.51    -3.39-226.174808             +0.0000
iter:  37  12:11:39  -9.84  -5.70    -3.94-226.174808             +0.0000
iter:  38  12:12:24  -9.96  -5.77    -3.58-226.174808             +0.0000
iter:  39  12:13:09 -10.56  -5.84    -3.98-226.174808             +0.0000
iter:  40  12:13:54  -9.73  -5.86    -3.72-226.174808             +0.0000
iter:  41  12:14:40 -10.72  -5.92    -4.34-226.174808             +0.0000
iter:  42  12:15:25  -9.58  -5.96    -3.80-226.174808             -0.0000
iter:  43  12:16:10 -10.81  -6.56    -4.24-226.174808             +0.0000
iter:  44  12:16:55 -11.16  -6.71    -4.61-226.174808             +0.0000
iter:  45  12:17:41 -11.77  -6.75    -4.65-226.174808             +0.0000
iter:  46  12:18:26 -11.51  -6.83    -4.62-226.174808             +0.0000
iter:  47  12:19:11 -11.72  -6.98    -4.71-226.174808             +0.0000
iter:  48  12:19:56 -12.53  -7.17    -5.48-226.174808             +0.0000
iter:  49  12:20:42 -12.07  -7.21    -5.00-226.174808             +0.0000
iter:  50  12:21:27 -12.42  -7.48    -4.99-226.174808             +0.0000
iter:  51  12:22:12 -13.26  -7.61    -5.22-226.174808             +0.0000
iter:  52  12:22:57 -13.10  -7.78    -5.39-226.174808             +0.0000
iter:  53  12:23:43 -13.73  -7.82    -5.75-226.174808             +0.0000
iter:  54  12:24:28 -14.11  -7.89    -5.90-226.174808             +0.0000
iter:  55  12:25:13 -14.82  -7.96    -6.07-226.174808             +0.0000

Converged after 55 iterations.

Dipole moment: (18.326428, -2.308180, -4.522124) |e|*Ang

Total magnetic moment: (0.000000, 0.000000, 0.000000)
Local magnetic moments:
   0 O  ( 0.000000,  0.000000, -0.001856)
   1 O  ( 0.000000,  0.000000,  0.001528)
   2 O  ( 0.000000,  0.000000,  0.001801)
   3 O  ( 0.000000,  0.000000, -0.001823)
   4 O  ( 0.000000,  0.000000,  0.001800)
   5 O  ( 0.000000,  0.000000, -0.001815)
   6 O  ( 0.000000,  0.000000, -0.001671)
   7 O  ( 0.000000,  0.000000,  0.001797)
   8 O  ( 0.000000,  0.000000,  0.031042)
   9 O  ( 0.000000,  0.000000, -0.031117)
  10 O  ( 0.000000,  0.000000, -0.031189)
  11 O  ( 0.000000,  0.000000,  0.031103)
  12 Mn ( 0.000000,  0.000000,  4.396202)
  13 Mn ( 0.000000,  0.000000, -4.395224)
  14 Mn ( 0.000000,  0.000000, -4.395754)
  15 Mn ( 0.000000,  0.000000,  4.395731)
  16 P  ( 0.000000,  0.000000,  0.000858)
  17 P  ( 0.000000,  0.000000, -0.001077)
  18 P  ( 0.000000,  0.000000, -0.000884)
  19 P  ( 0.000000,  0.000000,  0.000862)
  20 O  ( 0.000000,  0.000000,  0.028395)
  21 O  ( 0.000000,  0.000000, -0.028414)
  22 O  ( 0.000000,  0.000000, -0.028425)
  23 O  ( 0.000000,  0.000000,  0.028406)
  24 Li ( 0.000000,  0.000000, -0.000008)
  25 Li ( 0.000000,  0.000000,  0.000001)
  26 Li ( 0.000000,  0.000000, -0.000001)
  27 Li ( 0.000000,  0.000000, -0.000001)

Energy contributions relative to reference atoms: (reference = -196157.275402)

Kinetic:       +277.375461
Potential:     -240.774796
External:        +0.000000
XC:            -264.664708
Entropy (-ST):   -0.000000
Local:           +1.889235
--------------------------
Free energy:   -226.174808
Extrapolated:  -226.174808

Spin contamination: 9.455143 electrons
Showing only first 2 kpts
                      Up                     Down
 Kpt  Band  Eigenvalues  Occupancy  Eigenvalues  Occupancy
  0    88      6.52901    0.00694      6.53291    0.00694
  0    89      6.56262    0.00694      6.56615    0.00694
  0    90      8.42876    0.00000      8.42729    0.00000
  0    91      8.45096    0.00000      8.44888    0.00000

  1    88      6.56762    0.00694      6.57161    0.00694
  1    89      6.59485    0.00694      6.59829    0.00694
  1    90      8.38481    0.00000      8.38346    0.00000
  1    91      8.40729    0.00000      8.40562    0.00000


Fermi level: 7.64084

Gap: 1.697 eV
Transition (v -> c):
  (s=1, k=50, n=89, [-0.08, -0.42, 0.12]) -> (s=1, k=85, n=90, [0.08, 0.08, -0.12])
Writing to born-0.01-1z+.gpw (mode='all')

Timing:                              incl.     excl.
-----------------------------------------------------------
Hamiltonian:                         0.355     0.002   0.0% |
 Atomic:                             0.050     0.050   0.0% |
  XC Correction:                     0.000     0.000   0.0% |
 Calculate atomic Hamiltonians:      0.144     0.144   0.0% |
 Communicate:                        0.002     0.002   0.0% |
 Initialize Hamiltonian:             0.000     0.000   0.0% |
 Poisson:                            0.001     0.001   0.0% |
 XC 3D grid:                         0.156     0.156   0.0% |
LCAO initialization:               142.803     0.646   0.0% |
 LCAO eigensolver:                  38.241     0.002   0.0% |
  Calculate projections:             0.056     0.056   0.0% |
  DenseAtomicCorrection:             0.088     0.088   0.0% |
  Distribute overlap matrix:         0.007     0.007   0.0% |
  Orbital Layouts:                   0.341     0.341   0.0% |
  Potential matrix:                 37.654    37.654   0.7% |
  Sum over cells:                    0.093     0.093   0.0% |
 LCAO to grid:                     101.570   101.570   1.9% ||
 Set positions (LCAO WFS):           2.345     0.372   0.0% |
  Basic WFS set positions:           0.001     0.001   0.0% |
  Basis functions set positions:     0.000     0.000   0.0% |
  P tci:                             1.055     1.055   0.0% |
  ST tci:                            0.700     0.700   0.0% |
  mktci:                             0.217     0.217   0.0% |
PWDescriptor:                        0.024     0.024   0.0% |
SCF-cycle:                        2245.402    10.628   0.2% |
 Davidson:                        1876.940   601.062  11.1% |---|
  Apply H:                         133.290   129.096   2.4% ||
   HMM T:                            4.194     4.194   0.1% |
  Subspace diag:                   278.556     0.167   0.0% |
   calc_h_matrix:                  181.164    49.159   0.9% |
    Apply H:                       132.005   127.884   2.4% ||
     HMM T:                          4.121     4.121   0.1% |
   diagonalize:                      6.446     6.446   0.1% |
   rotate_psi:                      90.779    90.779   1.7% ||
  calc. matrices:                  591.842   330.726   6.1% |-|
   Apply H:                        261.116   253.189   4.7% |-|
    HMM T:                           7.926     7.926   0.1% |
  diagonalize:                      86.709    86.709   1.6% ||
  rotate_psi:                      185.481   185.481   3.4% ||
 Density:                           75.521     0.001   0.0% |
  Atomic density matrices:           1.376     1.376   0.0% |
  Mix:                              10.557    10.557   0.2% |
  Multipole moments:                 0.031     0.031   0.0% |
  Pseudo density:                   63.555    63.553   1.2% |
   Symmetrize density:               0.002     0.002   0.0% |
 Forces:                           258.837   258.837   4.8% |-|
 Hamiltonian:                       19.491     0.120   0.0% |
  Atomic:                            2.722     2.721   0.1% |
   XC Correction:                    0.000     0.000   0.0% |
  Calculate atomic Hamiltonians:     7.850     7.850   0.1% |
  Communicate:                       0.097     0.097   0.0% |
  Poisson:                           0.064     0.064   0.0% |
  XC 3D grid:                        8.638     8.638   0.2% |
 Orthonormalize:                     3.986     0.003   0.0% |
  calc_s_matrix:                     0.479     0.479   0.0% |
  inverse-cholesky:                  0.054     0.054   0.0% |
  projections:                       2.597     2.597   0.0% |
  rotate_psi_s:                      0.852     0.852   0.0% |
Set symmetry:                        0.000     0.000   0.0% |
Other:                            3024.952  3024.952  55.9% |---------------------|
-----------------------------------------------------------
Total:                                      5413.536 100.0%

Memory usage: 12.18 GiB
Date: Sun Mar 21 13:15:36 2021
