
  ___ ___ ___ _ _ _  
 |   |   |_  | | | | 
 | | | | | . | | | | 
 |__ |  _|___|_____|  20.10.1b1
 |___|_|             

User:   madkru@i008.nifl.fysik.dtu.dk
Date:   Thu Mar 25 07:58:00 2021
Arch:   x86_64
Pid:    26969
Python: 3.7.4
gpaw:   /home/niflheim/madkru/venv_folder/gpaw/gpaw (d224efde0f)
_gpaw:  /home/niflheim/madkru/venv_folder/gpaw/build/lib.linux-x86_64-ivybridge-3.7/
        _gpaw.cpython-37m-x86_64-linux-gnu.so (4fd39e8b1e)
ase:    /home/niflheim/madkru/venv_folder/ase/ase (version 3.21.0b1-4d5a73cb29)
numpy:  /home/niflheim/madkru/venv_folder/lib/python3.7/site-packages/numpy (version 1.19.4)
scipy:  /home/niflheim/madkru/venv_folder/lib/python3.7/site-packages/scipy (version 1.5.4)
libxc:  4.3.4
units:  Angstrom and eV
cores: 64
OMP_NUM_THREADS: 1

Input parameters:
  convergence: {bands: occupied,
                density: 0.0001,
                eigenstates: 4e-08,
                energy: 0.0005,
                forces: 1e-06}
  kpts: [6 6 4]
  mode: {ecut: 600.0,
         gammacentered: False,
         name: pw}
  occupations: {fixmagmom: False,
                name: fermi-dirac,
                width: 0.001}
  symmetry: {point_group: False,
             time_reversal: False}

System changes: positions, numbers, cell, pbc, initial_charges, initial_magmoms 

Initialize ...

O-setup:
  name: Oxygen
  id: 9b9d51c344dea68c822856295a461509
  Z: 8.0
  valence: 6
  core: 2
  charge: 0.0
  file: /home/modules/software/GPAW-setups/0.9.20000/O.LDA.gz
  compensation charges: gauss, rc=0.21, lmax=2
  cutoffs: 1.17(filt), 0.83(core),
  valence states:
                energy  radius
    2s(2.00)   -23.752   0.688
    2p(4.00)    -9.195   0.598
    *s           3.459   0.688
    *p          18.016   0.598
    *d           0.000   0.619

  Using partial waves for O as LCAO basis

Mn-setup:
  name: Manganese
  id: 0d715a8018be061a6e9ea6f2d364ac92
  Z: 25.0
  valence: 15
  core: 10
  charge: 0.0
  file: /home/modules/software/GPAW-setups/0.9.20000/Mn.LDA.gz
  compensation charges: gauss, rc=0.38, lmax=2
  cutoffs: 2.14(filt), 0.86(core),
  valence states:
                energy  radius
    3s(2.00)   -85.387   1.275
    4s(2.00)    -5.282   1.275
    3p(6.00)   -54.493   1.281
    4p(0.00)    -1.471   1.281
    3d(5.00)    -7.009   1.138
    *d          20.203   1.138

  Using partial waves for Mn as LCAO basis

P-setup:
  name: Phosphorus
  id: a5561c299094968922a179ab894d2e2d
  Z: 15.0
  valence: 5
  core: 10
  charge: 0.0
  file: /home/modules/software/GPAW-setups/0.9.20000/P.LDA.gz
  compensation charges: gauss, rc=0.30, lmax=2
  cutoffs: 1.69(filt), 1.81(core),
  valence states:
                energy  radius
    3s(2.00)   -14.015   0.953
    3p(3.00)    -5.596   0.953
    *s          13.197   0.953
    *p          21.615   0.953
    *d           0.000   0.953

  Using partial waves for P as LCAO basis

Li-setup:
  name: Lithium
  id: b73562207f97a71b6967473b66fe8b65
  Z: 3.0
  valence: 1
  core: 2
  charge: 0.0
  file: /home/modules/software/GPAW-setups/0.9.20000/Li.LDA.gz
  compensation charges: gauss, rc=0.33, lmax=2
  cutoffs: 1.91(filt), 2.55(core),
  valence states:
                energy  radius
    2s(1.00)    -2.874   1.058
    2p(0.00)    -1.126   1.058
    *s          24.338   1.058

  Using partial waves for Li as LCAO basis

Reference energy: -196157.275402

Spin-polarized calculation.
Magnetic moment: 0.000000

Convergence criteria:
  Maximum total energy change: 0.0005 eV / electron
  Maximum integral of absolute density change: 0.0001 electrons
  Maximum integral of absolute eigenstate change: 4e-08 eV^2
  Maximum change in atomic force: 1e-06 eV / Ang
  Maximum number of iterations: 333

Symmetries present (total): 1

  ( 1  0  0)
  ( 0  1  0)
  ( 0  0  1)

144 k-points: 6 x 6 x 4 Monkhorst-Pack grid
144 k-points in the irreducible part of the Brillouin zone
       k-points in crystal coordinates                weights
   0:    -0.41666667   -0.41666667   -0.37500000          1/144
   1:    -0.41666667   -0.41666667   -0.12500000          1/144
   2:    -0.41666667   -0.41666667    0.12500000          1/144
   3:    -0.41666667   -0.41666667    0.37500000          1/144
   4:    -0.41666667   -0.25000000   -0.37500000          1/144
   5:    -0.41666667   -0.25000000   -0.12500000          1/144
   6:    -0.41666667   -0.25000000    0.12500000          1/144
   7:    -0.41666667   -0.25000000    0.37500000          1/144
   8:    -0.41666667   -0.08333333   -0.37500000          1/144
   9:    -0.41666667   -0.08333333   -0.12500000          1/144
          ...
 143:     0.41666667    0.41666667    0.37500000          1/144

Wave functions: Plane wave expansion
  Cutoff energy: 600.000 eV
  Number of coefficients (min, max): 9132, 9161
  Pulay-stress correction: 0.000000 eV/Ang^3 (de/decut=0.000000)
  Using FFTW library
  ScaLapack parameters: grid=1x1, blocksize=None
  Wavefunction extrapolation:
    Improved wavefunction reuse through dual PAW basis 

  Fermi-Dirac: width=0.0010 eV

Eigensolver
   Davidson(niter=2, smin=None, normalize=True) 

Densities:
  Coarse grid: 60*35*27 grid
  Fine grid: 120*70*54 grid
  Total Charge: 0.000000 

Density mixing:
  Method: difference
  Backend: pulay
  Linear mixing parameter: 0.05
  Mixing with 5 old densities
  Damping of long wave oscillations: 50 

Hamiltonian:
  XC and Coulomb potentials evaluated on a 120*70*54 grid
  Using the LDA Exchange-Correlation functional
 

Memory estimate:
  Process memory now: 13158.08 MiB
  Calculator: 322.47 MiB
    Density: 9.62 MiB
      Arrays: 3.79 MiB
      Localized functions: 4.27 MiB
      Mixer: 1.56 MiB
    Hamiltonian: 2.94 MiB
      Arrays: 2.82 MiB
      XC: 0.00 MiB
      Poisson: 0.00 MiB
      vbar: 0.12 MiB
    Wavefunctions: 309.91 MiB
      Arrays psit_nG: 281.81 MiB
      Eigensolver: 18.27 MiB
      Projections: 2.71 MiB
      Projectors: 4.40 MiB
      PW-descriptor: 2.71 MiB

Total number of cores used: 64
Parallelization over k-points: 16
Domain decomposition: 2 x 2 x 1

Number of atoms: 28
Number of atomic orbitals: 148
Number of bands in calculation: 112
Number of valence electrons: 180
Bands to converge: occupied

... initialized

Initializing position-dependent things.

Density initialized from atomic densities
Creating initial wave functions:
  112 bands from LCAO basis set

                                           
                                           
                                           
                                           
                                           
               O     O  P  O               
            PO           OMn     O         
                  O          MO            
            O        Li O                  
             Mn  Mn          OP            
         O       O Li O                    
         Li     O P         O              
       Li                                  
                                           
                                           
                                           
                                           

Positions:
   0 O     -1.280122   -2.495595   -1.112331    ( 0.0000,  0.0000,  0.0000)
   1 O     -3.023238    2.918858    1.191723    ( 0.0000,  0.0000,  0.0000)
   2 O      1.997451    0.467212    1.441442    ( 0.0000,  0.0000,  0.0000)
   3 O      3.740343   -0.043905   -0.862614    ( 0.0000,  0.0000,  0.0000)
   4 O      1.997419    2.918835    1.441465    ( 0.0000,  0.0000,  0.0000)
   5 O      3.740372   -2.495531   -0.862587    ( 0.0000,  0.0000,  0.0000)
   6 O     -1.280154   -0.043891   -1.112309    ( 0.0000,  0.0000,  0.0000)
   7 O     -3.023210    0.467136    1.191750    ( 0.0000,  0.0000,  0.0000)
   8 O     -4.147405   -1.269737   -0.856207    ( 0.0000,  0.0000,  0.0000)
   9 O     -0.155894    1.692986    1.447725    ( 0.0000,  0.0000,  0.0000)
  10 O      4.864578    1.693016    1.185324    ( 0.0000,  0.0000,  0.0000)
  11 O      0.873163   -1.269706   -1.118625    ( 0.0000,  0.0000,  0.0000)
  12 Mn    -2.437108   -1.269902    0.302197    ( 0.0000,  0.0000,  1.0000)
  13 Mn    -1.866187    1.693156   -2.001927    ( 0.0000,  0.0000, -1.0000)
  14 Mn     3.154299    1.693181    0.026917    ( 0.0000,  0.0000, -1.0000)
  15 Mn     2.583444   -1.269877    2.331074    ( 0.0000,  0.0000,  1.0000)
  16 P     -0.543052   -1.269720   -1.734187    ( 0.0000,  0.0000,  0.0000)
  17 P     -3.760282    1.692974    0.569859    ( 0.0000,  0.0000,  0.0000)
  18 P      1.250300    1.693000    2.063344    ( 0.0000,  0.0000,  0.0000)
  19 P      4.477470   -1.269695   -0.240696    ( 0.0000,  0.0000,  0.0000)
  20 O     -0.544413   -1.269738    1.348523    ( 0.0000,  0.0000,  0.0000)
  21 O     -3.758895    1.692992   -0.955558    ( 0.0000,  0.0000,  0.0000)
  22 O      1.261690    1.693018   -1.019367    ( 0.0000,  0.0000,  0.0000)
  23 O      4.476045   -1.269713    1.284716    ( 0.0000,  0.0000,  0.0000)
  24 Li    -4.662027   -2.751322   -2.139440    ( 0.0000,  0.0000,  0.0000)
  25 Li     0.358703   -2.751277    0.164614    ( 0.0000,  0.0000,  0.0000)
  26 Li    -4.662011    0.211617   -2.139439    ( 0.0000,  0.0000,  0.0000)
  27 Li     0.358720    0.211628    0.164615    ( 0.0000,  0.0000,  0.0000)

Unit cell:
           periodic     x           y           z      points  spacing
  1. axis:    yes   10.041096    0.000054   -0.000022    60     0.1674
  2. axis:    yes    0.000032    5.925857    0.000001    35     0.1693
  3. axis:    yes   -0.000010    0.000001    4.608134    27     0.1707

  Lengths:  10.041096   5.925857   4.608134
  Angles:   89.999974  90.000250  89.999381

Effective grid spacing dv^(1/3) = 0.1691

                     log10-error:           total        iterations:
           time      wfs    density  force  energy       poisson  magmom
iter:   1  07:59:36                       -233.721310             +0.0000
iter:   2  07:59:56  -0.47  -0.95         -231.538285             +0.0020
iter:   3  08:00:15  -0.61  -1.00         -220.801869             +0.0021
iter:   4  08:00:35  -1.18  -1.31         -220.883787             +0.3380
iter:   5  08:00:55  -2.12  -1.40         -223.078638             +0.1852
iter:   6  08:01:14  -2.35  -1.37         -223.027943             +0.0759
iter:   7  08:01:34  -2.04  -1.54         -222.911074             +0.0531
iter:   8  08:01:54  -2.25  -1.88         -225.801597             -0.0434
iter:   9  08:02:14  -2.14  -2.04         -226.397007             +0.1459
iter:  10  08:02:33  -2.23  -2.11         -226.433758             +0.0341
iter:  11  08:02:53  -2.97  -2.24         -226.426839             +0.0111
iter:  12  08:03:13  -2.98  -2.30         -226.269169             -0.0014
iter:  13  08:03:32  -3.09  -2.44         -226.207913             +0.0016
iter:  14  08:03:52  -3.29  -2.71         -226.176194             -0.0026
iter:  15  08:04:12  -2.89  -2.85         -226.187902             +0.0014
iter:  16  08:04:31  -3.54  -2.82         -226.173161             +0.0010
iter:  17  08:04:51  -4.53  -3.16         -226.173247             +0.0003
iter:  18  08:05:11  -4.26  -3.18         -226.174364             -0.0001
iter:  19  08:05:30  -4.34  -3.23         -226.172748             +0.0001
iter:  20  08:05:50  -5.08  -3.52         -226.172814             +0.0000
iter:  21  08:06:10  -4.88  -3.58         -226.172504             -0.0000
iter:  22  08:06:29  -5.15  -3.69         -226.172617             +0.0000
iter:  23  08:06:49  -5.58  -4.00         -226.172381             +0.0000
iter:  24  08:07:09  -6.38  -4.16         -226.172361             +0.0000
iter:  25  08:07:28  -6.02  -4.21         -226.172383             +0.0000
iter:  26  08:07:48  -6.36  -4.39         -226.172351             +0.0000
iter:  27  08:08:12  -7.69  -4.62         -226.172350             +0.0000
iter:  28  08:08:32  -6.97  -4.66         -226.172346             -0.0000
iter:  29  08:08:56  -7.42  -4.85    -2.53-226.172346             +0.0000
iter:  30  08:09:20  -7.41  -4.91    -2.71-226.172347             +0.0000
iter:  31  08:09:45  -8.19  -5.12    -3.04-226.172346             +0.0000
iter:  32  08:10:09  -7.62  -5.23    -2.77-226.172345             +0.0000
iter:  33  08:10:33  -8.61  -5.40    -3.28-226.172345             +0.0000
iter:  34  08:10:58  -9.58  -5.85    -4.18-226.172345             +0.0000
iter:  35  08:11:22  -9.55  -5.90    -3.79-226.172345             -0.0000
iter:  36  08:11:46  -9.64  -5.96    -3.93-226.172345             -0.0000
iter:  37  08:12:11 -10.91  -6.24    -4.34-226.172345             -0.0000
iter:  38  08:12:35 -10.10  -6.28    -4.05-226.172345             -0.0000
iter:  39  08:12:59 -10.04  -6.39    -4.09-226.172345             -0.0000
iter:  40  08:13:24 -11.50  -6.65    -4.66-226.172345             -0.0000
iter:  41  08:13:48 -11.68  -6.72    -4.84-226.172345             +0.0000
iter:  42  08:14:12 -11.90  -6.78    -4.67-226.172345             +0.0000
iter:  43  08:14:36 -11.40  -6.98    -4.67-226.172345             -0.0000
iter:  44  08:15:01 -12.77  -7.13    -5.35-226.172345             -0.0000
iter:  45  08:15:25 -11.86  -7.19    -4.92-226.172345             -0.0000
iter:  46  08:15:49 -12.50  -7.47    -5.22-226.172345             -0.0000
iter:  47  08:16:14 -13.69  -7.71    -5.64-226.172345             -0.0000
iter:  48  08:16:38 -13.42  -7.78    -5.84-226.172345             -0.0000
iter:  49  08:17:02 -13.99  -8.18    -5.90-226.172345             -0.0000
iter:  50  08:17:27 -15.33  -8.30    -6.50-226.172345             -0.0000

Converged after 50 iterations.

Dipole moment: (18.300867, -2.313685, -4.525050) |e|*Ang

Total magnetic moment: (0.000000, 0.000000, -0.000000)
Local magnetic moments:
   0 O  ( 0.000000,  0.000000, -0.001928)
   1 O  ( 0.000000,  0.000000,  0.001742)
   2 O  ( 0.000000,  0.000000,  0.002023)
   3 O  ( 0.000000,  0.000000, -0.001781)
   4 O  ( 0.000000,  0.000000,  0.002018)
   5 O  ( 0.000000,  0.000000, -0.001775)
   6 O  ( 0.000000,  0.000000, -0.001934)
   7 O  ( 0.000000,  0.000000,  0.001747)
   8 O  ( 0.000000,  0.000000,  0.031221)
   9 O  ( 0.000000,  0.000000, -0.030831)
  10 O  ( 0.000000,  0.000000, -0.031002)
  11 O  ( 0.000000,  0.000000,  0.030920)
  12 Mn ( 0.000000,  0.000000,  4.395706)
  13 Mn ( 0.000000,  0.000000, -4.395897)
  14 Mn ( 0.000000,  0.000000, -4.395923)
  15 Mn ( 0.000000,  0.000000,  4.395582)
  16 P  ( 0.000000,  0.000000,  0.000909)
  17 P  ( 0.000000,  0.000000, -0.000879)
  18 P  ( 0.000000,  0.000000, -0.001056)
  19 P  ( 0.000000,  0.000000,  0.000858)
  20 O  ( 0.000000,  0.000000,  0.028397)
  21 O  ( 0.000000,  0.000000, -0.028545)
  22 O  ( 0.000000,  0.000000, -0.028177)
  23 O  ( 0.000000,  0.000000,  0.028396)
  24 Li ( 0.000000,  0.000000, -0.000001)
  25 Li ( 0.000000,  0.000000,  0.000022)
  26 Li ( 0.000000,  0.000000, -0.000001)
  27 Li ( 0.000000,  0.000000,  0.000022)

Energy contributions relative to reference atoms: (reference = -196157.275402)

Kinetic:       +277.668355
Potential:     -241.005693
External:        +0.000000
XC:            -264.723402
Entropy (-ST):   -0.000000
Local:           +1.888394
--------------------------
Free energy:   -226.172345
Extrapolated:  -226.172345

Spin contamination: 9.455070 electrons
Showing only first 2 kpts
                      Up                     Down
 Kpt  Band  Eigenvalues  Occupancy  Eigenvalues  Occupancy
  0    88      6.53166    0.00694      6.51813    0.00694
  0    89      6.57218    0.00694      6.56690    0.00694
  0    90      8.41831    0.00000      8.42408    0.00000
  0    91      8.45917    0.00000      8.45988    0.00000

  1    88      6.56987    0.00694      6.55502    0.00694
  1    89      6.60439    0.00694      6.60075    0.00694
  1    90      8.37469    0.00000      8.38068    0.00000
  1    91      8.41659    0.00000      8.41615    0.00000


Fermi level: 7.19950

Gap: 1.687 eV
Transition (v -> c):
  (s=0, k=73, n=89, [0.08, -0.42, -0.12]) -> (s=0, k=58, n=90, [-0.08, -0.08, 0.12])
Writing to born-0.01-18x-.gpw (mode='all')

Timing:                              incl.     excl.
-----------------------------------------------------------
Hamiltonian:                         0.219     0.002   0.0% |
 Atomic:                             0.057     0.057   0.0% |
  XC Correction:                     0.000     0.000   0.0% |
 Calculate atomic Hamiltonians:      0.075     0.075   0.0% |
 Communicate:                        0.002     0.002   0.0% |
 Initialize Hamiltonian:             0.000     0.000   0.0% |
 Poisson:                            0.001     0.001   0.0% |
 XC 3D grid:                         0.083     0.083   0.0% |
LCAO initialization:                74.130     0.646   0.0% |
 LCAO eigensolver:                  19.958     0.002   0.0% |
  Calculate projections:             0.029     0.029   0.0% |
  DenseAtomicCorrection:             0.045     0.045   0.0% |
  Distribute overlap matrix:         0.009     0.009   0.0% |
  Orbital Layouts:                   0.430     0.430   0.0% |
  Potential matrix:                 19.344    19.344   0.6% |
  Sum over cells:                    0.099     0.099   0.0% |
 LCAO to grid:                      52.199    52.199   1.7% ||
 Set positions (LCAO WFS):           1.328     0.195   0.0% |
  Basic WFS set positions:           0.001     0.001   0.0% |
  Basis functions set positions:     0.000     0.000   0.0% |
  P tci:                             0.527     0.527   0.0% |
  ST tci:                            0.382     0.382   0.0% |
  mktci:                             0.223     0.223   0.0% |
PWDescriptor:                        0.023     0.023   0.0% |
SCF-cycle:                        1091.680     0.937   0.0% |
 Davidson:                         933.217   285.927   9.3% |---|
  Apply H:                          64.740    62.808   2.0% ||
   HMM T:                            1.931     1.931   0.1% |
  Subspace diag:                   135.387     0.143   0.0% |
   calc_h_matrix:                   87.050    22.559   0.7% |
    Apply H:                        64.491    62.564   2.0% ||
     HMM T:                          1.927     1.927   0.1% |
   diagonalize:                      6.799     6.799   0.2% |
   rotate_psi:                      41.396    41.396   1.3% ||
  calc. matrices:                  278.897   152.766   5.0% |-|
   Apply H:                        126.130   122.536   4.0% |-|
    HMM T:                           3.594     3.594   0.1% |
  diagonalize:                      78.610    78.610   2.6% ||
  rotate_psi:                       89.657    89.657   2.9% ||
 Density:                           37.554     0.001   0.0% |
  Atomic density matrices:           0.770     0.770   0.0% |
  Mix:                               5.122     5.122   0.2% |
  Multipole moments:                 0.018     0.018   0.0% |
  Pseudo density:                   31.643    31.641   1.0% |
   Symmetrize density:               0.001     0.001   0.0% |
 Forces:                           107.279   107.279   3.5% ||
 Hamiltonian:                       10.629     0.104   0.0% |
  Atomic:                            2.514     2.513   0.1% |
   XC Correction:                    0.000     0.000   0.0% |
  Calculate atomic Hamiltonians:     3.690     3.690   0.1% |
  Communicate:                       0.097     0.097   0.0% |
  Poisson:                           0.028     0.028   0.0% |
  XC 3D grid:                        4.196     4.196   0.1% |
 Orthonormalize:                     2.065     0.003   0.0% |
  calc_s_matrix:                     0.243     0.243   0.0% |
  inverse-cholesky:                  0.073     0.073   0.0% |
  projections:                       1.316     1.316   0.0% |
  rotate_psi_s:                      0.430     0.430   0.0% |
Set symmetry:                        0.000     0.000   0.0% |
Other:                            1912.081  1912.081  62.1% |------------------------|
-----------------------------------------------------------
Total:                                      3078.134 100.0%

Memory usage: 12.88 GiB
Date: Thu Mar 25 08:49:18 2021
