
  ___ ___ ___ _ _ _  
 |   |   |_  | | | | 
 | | | | | . | | | | 
 |__ |  _|___|_____|  20.10.1b1
 |___|_|             

User:   madkru@i008.nifl.fysik.dtu.dk
Date:   Thu Mar 25 19:40:30 2021
Arch:   x86_64
Pid:    26969
Python: 3.7.4
gpaw:   /home/niflheim/madkru/venv_folder/gpaw/gpaw (d224efde0f)
_gpaw:  /home/niflheim/madkru/venv_folder/gpaw/build/lib.linux-x86_64-ivybridge-3.7/
        _gpaw.cpython-37m-x86_64-linux-gnu.so (4fd39e8b1e)
ase:    /home/niflheim/madkru/venv_folder/ase/ase (version 3.21.0b1-4d5a73cb29)
numpy:  /home/niflheim/madkru/venv_folder/lib/python3.7/site-packages/numpy (version 1.19.4)
scipy:  /home/niflheim/madkru/venv_folder/lib/python3.7/site-packages/scipy (version 1.5.4)
libxc:  4.3.4
units:  Angstrom and eV
cores: 64
OMP_NUM_THREADS: 1

Input parameters:
  convergence: {bands: occupied,
                density: 0.0001,
                eigenstates: 4e-08,
                energy: 0.0005,
                forces: 1e-06}
  kpts: [6 6 4]
  mode: {ecut: 600.0,
         gammacentered: False,
         name: pw}
  occupations: {fixmagmom: False,
                name: fermi-dirac,
                width: 0.001}
  symmetry: {point_group: False,
             time_reversal: False}

System changes: positions, numbers, cell, pbc, initial_charges, initial_magmoms 

Initialize ...

O-setup:
  name: Oxygen
  id: 9b9d51c344dea68c822856295a461509
  Z: 8.0
  valence: 6
  core: 2
  charge: 0.0
  file: /home/modules/software/GPAW-setups/0.9.20000/O.LDA.gz
  compensation charges: gauss, rc=0.21, lmax=2
  cutoffs: 1.17(filt), 0.83(core),
  valence states:
                energy  radius
    2s(2.00)   -23.752   0.688
    2p(4.00)    -9.195   0.598
    *s           3.459   0.688
    *p          18.016   0.598
    *d           0.000   0.619

  Using partial waves for O as LCAO basis

Mn-setup:
  name: Manganese
  id: 0d715a8018be061a6e9ea6f2d364ac92
  Z: 25.0
  valence: 15
  core: 10
  charge: 0.0
  file: /home/modules/software/GPAW-setups/0.9.20000/Mn.LDA.gz
  compensation charges: gauss, rc=0.38, lmax=2
  cutoffs: 2.14(filt), 0.86(core),
  valence states:
                energy  radius
    3s(2.00)   -85.387   1.275
    4s(2.00)    -5.282   1.275
    3p(6.00)   -54.493   1.281
    4p(0.00)    -1.471   1.281
    3d(5.00)    -7.009   1.138
    *d          20.203   1.138

  Using partial waves for Mn as LCAO basis

P-setup:
  name: Phosphorus
  id: a5561c299094968922a179ab894d2e2d
  Z: 15.0
  valence: 5
  core: 10
  charge: 0.0
  file: /home/modules/software/GPAW-setups/0.9.20000/P.LDA.gz
  compensation charges: gauss, rc=0.30, lmax=2
  cutoffs: 1.69(filt), 1.81(core),
  valence states:
                energy  radius
    3s(2.00)   -14.015   0.953
    3p(3.00)    -5.596   0.953
    *s          13.197   0.953
    *p          21.615   0.953
    *d           0.000   0.953

  Using partial waves for P as LCAO basis

Li-setup:
  name: Lithium
  id: b73562207f97a71b6967473b66fe8b65
  Z: 3.0
  valence: 1
  core: 2
  charge: 0.0
  file: /home/modules/software/GPAW-setups/0.9.20000/Li.LDA.gz
  compensation charges: gauss, rc=0.33, lmax=2
  cutoffs: 1.91(filt), 2.55(core),
  valence states:
                energy  radius
    2s(1.00)    -2.874   1.058
    2p(0.00)    -1.126   1.058
    *s          24.338   1.058

  Using partial waves for Li as LCAO basis

Reference energy: -196157.275402

Spin-polarized calculation.
Magnetic moment: 0.000000

Convergence criteria:
  Maximum total energy change: 0.0005 eV / electron
  Maximum integral of absolute density change: 0.0001 electrons
  Maximum integral of absolute eigenstate change: 4e-08 eV^2
  Maximum change in atomic force: 1e-06 eV / Ang
  Maximum number of iterations: 333

Symmetries present (total): 1

  ( 1  0  0)
  ( 0  1  0)
  ( 0  0  1)

144 k-points: 6 x 6 x 4 Monkhorst-Pack grid
144 k-points in the irreducible part of the Brillouin zone
       k-points in crystal coordinates                weights
   0:    -0.41666667   -0.41666667   -0.37500000          1/144
   1:    -0.41666667   -0.41666667   -0.12500000          1/144
   2:    -0.41666667   -0.41666667    0.12500000          1/144
   3:    -0.41666667   -0.41666667    0.37500000          1/144
   4:    -0.41666667   -0.25000000   -0.37500000          1/144
   5:    -0.41666667   -0.25000000   -0.12500000          1/144
   6:    -0.41666667   -0.25000000    0.12500000          1/144
   7:    -0.41666667   -0.25000000    0.37500000          1/144
   8:    -0.41666667   -0.08333333   -0.37500000          1/144
   9:    -0.41666667   -0.08333333   -0.12500000          1/144
          ...
 143:     0.41666667    0.41666667    0.37500000          1/144

Wave functions: Plane wave expansion
  Cutoff energy: 600.000 eV
  Number of coefficients (min, max): 9132, 9161
  Pulay-stress correction: 0.000000 eV/Ang^3 (de/decut=0.000000)
  Using FFTW library
  ScaLapack parameters: grid=1x1, blocksize=None
  Wavefunction extrapolation:
    Improved wavefunction reuse through dual PAW basis 

  Fermi-Dirac: width=0.0010 eV

Eigensolver
   Davidson(niter=2, smin=None, normalize=True) 

Densities:
  Coarse grid: 60*35*27 grid
  Fine grid: 120*70*54 grid
  Total Charge: 0.000000 

Density mixing:
  Method: difference
  Backend: pulay
  Linear mixing parameter: 0.05
  Mixing with 5 old densities
  Damping of long wave oscillations: 50 

Hamiltonian:
  XC and Coulomb potentials evaluated on a 120*70*54 grid
  Using the LDA Exchange-Correlation functional
 

Memory estimate:
  Process memory now: 13731.28 MiB
  Calculator: 322.47 MiB
    Density: 9.62 MiB
      Arrays: 3.79 MiB
      Localized functions: 4.27 MiB
      Mixer: 1.56 MiB
    Hamiltonian: 2.94 MiB
      Arrays: 2.82 MiB
      XC: 0.00 MiB
      Poisson: 0.00 MiB
      vbar: 0.12 MiB
    Wavefunctions: 309.91 MiB
      Arrays psit_nG: 281.81 MiB
      Eigensolver: 18.27 MiB
      Projections: 2.71 MiB
      Projectors: 4.40 MiB
      PW-descriptor: 2.71 MiB

Total number of cores used: 64
Parallelization over k-points: 16
Domain decomposition: 2 x 2 x 1

Number of atoms: 28
Number of atomic orbitals: 148
Number of bands in calculation: 112
Number of valence electrons: 180
Bands to converge: occupied

... initialized

Initializing position-dependent things.

Density initialized from atomic densities
Creating initial wave functions:
  112 bands from LCAO basis set

                                           
                                           
                                           
                                           
                                           
               O     O  P  O               
            PO           OMn     O         
                  O          MO            
            O        Li O                  
             Mn  Mn          OP            
         O       O Li O                    
         Li     O P         O              
       Li                                  
                                           
                                           
                                           
                                           

Positions:
   0 O     -1.280122   -2.495595   -1.112331    ( 0.0000,  0.0000,  0.0000)
   1 O     -3.023238    2.918858    1.191723    ( 0.0000,  0.0000,  0.0000)
   2 O      1.997451    0.467212    1.441442    ( 0.0000,  0.0000,  0.0000)
   3 O      3.740343   -0.043905   -0.862614    ( 0.0000,  0.0000,  0.0000)
   4 O      1.997419    2.918835    1.441465    ( 0.0000,  0.0000,  0.0000)
   5 O      3.740372   -2.495531   -0.862587    ( 0.0000,  0.0000,  0.0000)
   6 O     -1.280154   -0.043891   -1.112309    ( 0.0000,  0.0000,  0.0000)
   7 O     -3.023210    0.467136    1.191750    ( 0.0000,  0.0000,  0.0000)
   8 O     -4.147405   -1.269737   -0.856207    ( 0.0000,  0.0000,  0.0000)
   9 O     -0.155894    1.692986    1.447725    ( 0.0000,  0.0000,  0.0000)
  10 O      4.864578    1.693016    1.185324    ( 0.0000,  0.0000,  0.0000)
  11 O      0.873163   -1.269706   -1.118625    ( 0.0000,  0.0000,  0.0000)
  12 Mn    -2.437108   -1.269902    0.302197    ( 0.0000,  0.0000,  1.0000)
  13 Mn    -1.866187    1.693156   -2.001927    ( 0.0000,  0.0000, -1.0000)
  14 Mn     3.154299    1.693181    0.026917    ( 0.0000,  0.0000, -1.0000)
  15 Mn     2.583444   -1.269877    2.331074    ( 0.0000,  0.0000,  1.0000)
  16 P     -0.543052   -1.269720   -1.734187    ( 0.0000,  0.0000,  0.0000)
  17 P     -3.760282    1.692974    0.569859    ( 0.0000,  0.0000,  0.0000)
  18 P      1.260300    1.693000    2.063344    ( 0.0000,  0.0000,  0.0000)
  19 P      4.477470   -1.269695   -0.240696    ( 0.0000,  0.0000,  0.0000)
  20 O     -0.544413   -1.269738    1.348523    ( 0.0000,  0.0000,  0.0000)
  21 O     -3.758895    1.692992   -0.945558    ( 0.0000,  0.0000,  0.0000)
  22 O      1.261690    1.693018   -1.019367    ( 0.0000,  0.0000,  0.0000)
  23 O      4.476045   -1.269713    1.284716    ( 0.0000,  0.0000,  0.0000)
  24 Li    -4.662027   -2.751322   -2.139440    ( 0.0000,  0.0000,  0.0000)
  25 Li     0.358703   -2.751277    0.164614    ( 0.0000,  0.0000,  0.0000)
  26 Li    -4.662011    0.211617   -2.139439    ( 0.0000,  0.0000,  0.0000)
  27 Li     0.358720    0.211628    0.164615    ( 0.0000,  0.0000,  0.0000)

Unit cell:
           periodic     x           y           z      points  spacing
  1. axis:    yes   10.041096    0.000054   -0.000022    60     0.1674
  2. axis:    yes    0.000032    5.925857    0.000001    35     0.1693
  3. axis:    yes   -0.000010    0.000001    4.608134    27     0.1707

  Lengths:  10.041096   5.925857   4.608134
  Angles:   89.999974  90.000250  89.999381

Effective grid spacing dv^(1/3) = 0.1691

                     log10-error:           total        iterations:
           time      wfs    density  force  energy       poisson  magmom
iter:   1  19:42:04                       -233.718407             +0.0000
iter:   2  19:42:24  -0.47  -0.95         -231.541386             +0.0025
iter:   3  19:42:44  -0.61  -1.00         -220.794607             +0.0026
iter:   4  19:43:03  -1.18  -1.31         -220.874947             +0.3094
iter:   5  19:43:23  -2.04  -1.40         -222.817699             +0.1627
iter:   6  19:43:43  -2.07  -1.38         -225.285155             +0.3655
iter:   7  19:44:03  -2.04  -1.45         -223.558742             +0.3784
iter:   8  19:44:23  -2.26  -1.60         -224.749580             +0.4517
iter:   9  19:44:42  -2.53  -1.89         -225.995667             +0.0935
iter:  10  19:45:02  -2.68  -1.98         -226.479562             +0.0298
iter:  11  19:45:22  -2.31  -2.01         -226.468832             -0.0009
iter:  12  19:45:41  -3.17  -2.08         -226.386506             +0.0014
iter:  13  19:46:01  -1.97  -2.12         -226.382231             +0.0007
iter:  14  19:46:21  -3.34  -2.41         -226.253034             +0.0004
iter:  15  19:46:40  -2.68  -2.49         -226.191781             -0.0000
iter:  16  19:47:00  -4.00  -2.93         -226.182000             -0.0000
iter:  17  19:47:20  -4.23  -2.95         -226.177088             -0.0000
iter:  18  19:47:40  -3.78  -2.99         -226.175855             +0.0000
iter:  19  19:47:59  -3.85  -3.07         -226.175838             +0.0000
iter:  20  19:48:19  -4.72  -3.19         -226.173994             +0.0000
iter:  21  19:48:39  -4.64  -3.44         -226.173471             +0.0000
iter:  22  19:48:58  -5.29  -3.53         -226.173166             +0.0000
iter:  23  19:49:18  -6.28  -3.61         -226.173157             +0.0000
iter:  24  19:49:38  -5.32  -3.64         -226.173231             +0.0000
iter:  25  19:49:57  -5.45  -3.96         -226.173162             +0.0000
iter:  26  19:50:17  -6.38  -4.05         -226.173109             +0.0000
iter:  27  19:50:37  -6.56  -4.17         -226.173081             -0.0000
iter:  28  19:50:56  -6.11  -4.25         -226.173088             +0.0000
iter:  29  19:51:16  -6.72  -4.33         -226.173069             -0.0000
iter:  30  19:51:40  -7.40  -4.46         -226.173065             -0.0000
iter:  31  19:52:00  -7.10  -4.52         -226.173059             -0.0000
iter:  32  19:52:20  -6.91  -4.67         -226.173062             -0.0000
iter:  33  19:52:44  -7.41  -4.69    -2.18-226.173060             -0.0000
iter:  34  19:53:08  -7.53  -4.86    -2.73-226.173059             -0.0000
iter:  35  19:53:33  -7.71  -4.99    -2.64-226.173059             -0.0000
iter:  36  19:53:57  -8.04  -5.17    -2.98-226.173059             -0.0000
iter:  37  19:54:21  -8.82  -5.29    -3.60-226.173059             -0.0000
iter:  38  19:54:46  -8.31  -5.36    -3.05-226.173059             +0.0000
iter:  39  19:55:10  -8.75  -5.61    -3.33-226.173059             -0.0000
iter:  40  19:55:34  -9.97  -5.87    -3.77-226.173059             -0.0000
iter:  41  19:55:58 -10.65  -5.94    -4.26-226.173059             -0.0000
iter:  42  19:56:23 -10.18  -5.98    -4.02-226.173059             -0.0000
iter:  43  19:56:47  -9.96  -6.15    -3.81-226.173059             -0.0000
iter:  44  19:57:11 -10.30  -6.20    -4.13-226.173059             -0.0000
iter:  45  19:57:36 -10.33  -6.46    -4.13-226.173059             -0.0000
iter:  46  19:58:00 -10.97  -6.70    -4.54-226.173059             -0.0000
iter:  47  19:58:24 -11.46  -6.86    -4.60-226.173059             -0.0000
iter:  48  19:58:49 -11.63  -7.11    -4.83-226.173059             -0.0000
iter:  49  19:59:13 -11.98  -7.19    -5.24-226.173059             +0.0000
iter:  50  19:59:37 -12.85  -7.31    -5.05-226.173059             +0.0000
iter:  51  20:00:02 -12.55  -7.44    -5.41-226.173059             +0.0000
iter:  52  20:00:26 -12.81  -7.58    -5.33-226.173059             +0.0000
iter:  53  20:00:50 -13.70  -7.70    -5.93-226.173059             +0.0000
iter:  54  20:01:15 -13.22  -7.77    -5.44-226.173059             +0.0000
iter:  55  20:01:39 -14.02  -8.08    -6.00-226.173059             +0.0000
iter:  56  20:02:03 -14.62  -8.16    -5.92-226.173059             +0.0000
iter:  57  20:02:28 -14.12  -8.27    -5.85-226.173059             +0.0000
iter:  58  20:02:52 -15.24  -8.48    -6.36-226.173059             +0.0000

Converged after 58 iterations.

Dipole moment: (18.327573, -2.307953, -4.509640) |e|*Ang

Total magnetic moment: (0.000000, 0.000000, 0.000000)
Local magnetic moments:
   0 O  ( 0.000000,  0.000000, -0.001792)
   1 O  ( 0.000000,  0.000000,  0.001734)
   2 O  ( 0.000000,  0.000000,  0.001813)
   3 O  ( 0.000000,  0.000000, -0.001793)
   4 O  ( 0.000000,  0.000000,  0.001808)
   5 O  ( 0.000000,  0.000000, -0.001788)
   6 O  ( 0.000000,  0.000000, -0.001797)
   7 O  ( 0.000000,  0.000000,  0.001740)
   8 O  ( 0.000000,  0.000000,  0.031103)
   9 O  ( 0.000000,  0.000000, -0.031240)
  10 O  ( 0.000000,  0.000000, -0.031071)
  11 O  ( 0.000000,  0.000000,  0.031091)
  12 Mn ( 0.000000,  0.000000,  4.395713)
  13 Mn ( 0.000000,  0.000000, -4.396253)
  14 Mn ( 0.000000,  0.000000, -4.395698)
  15 Mn ( 0.000000,  0.000000,  4.395784)
  16 P  ( 0.000000,  0.000000,  0.000895)
  17 P  ( 0.000000,  0.000000, -0.000775)
  18 P  ( 0.000000,  0.000000, -0.000870)
  19 P  ( 0.000000,  0.000000,  0.000868)
  20 O  ( 0.000000,  0.000000,  0.028410)
  21 O  ( 0.000000,  0.000000, -0.028185)
  22 O  ( 0.000000,  0.000000, -0.028408)
  23 O  ( 0.000000,  0.000000,  0.028422)
  24 Li ( 0.000000,  0.000000,  0.000015)
  25 Li ( 0.000000,  0.000000,  0.000000)
  26 Li ( 0.000000,  0.000000,  0.000015)
  27 Li ( 0.000000,  0.000000,  0.000000)

Energy contributions relative to reference atoms: (reference = -196157.275402)

Kinetic:       +278.374868
Potential:     -241.559986
External:        +0.000000
XC:            -264.874398
Entropy (-ST):   -0.000000
Local:           +1.886457
--------------------------
Free energy:   -226.173059
Extrapolated:  -226.173059

Spin contamination: 9.455169 electrons
Showing only first 2 kpts
                      Up                     Down
 Kpt  Band  Eigenvalues  Occupancy  Eigenvalues  Occupancy
  0    88      6.53050    0.00694      6.52217    0.00694
  0    89      6.56421    0.00694      6.55931    0.00694
  0    90      8.42534    0.00000      8.42723    0.00000
  0    91      8.44709    0.00000      8.44854    0.00000

  1    88      6.56897    0.00694      6.55940    0.00694
  1    89      6.59619    0.00694      6.59208    0.00694
  1    90      8.38149    0.00000      8.38341    0.00000
  1    91      8.40390    0.00000      8.40538    0.00000


Fermi level: 7.41548

Gap: 1.698 eV
Transition (v -> c):
  (s=0, k=94, n=89, [0.08, 0.42, 0.12]) -> (s=0, k=82, n=90, [0.08, -0.08, 0.12])
Writing to born-0.01-21z+.gpw (mode='all')

Timing:                              incl.     excl.
-----------------------------------------------------------
Hamiltonian:                         0.216     0.002   0.0% |
 Atomic:                             0.053     0.053   0.0% |
  XC Correction:                     0.000     0.000   0.0% |
 Calculate atomic Hamiltonians:      0.074     0.074   0.0% |
 Communicate:                        0.002     0.002   0.0% |
 Initialize Hamiltonian:             0.000     0.000   0.0% |
 Poisson:                            0.001     0.001   0.0% |
 XC 3D grid:                         0.084     0.084   0.0% |
LCAO initialization:                71.224     0.648   0.0% |
 LCAO eigensolver:                  19.683     0.002   0.0% |
  Calculate projections:             0.029     0.029   0.0% |
  DenseAtomicCorrection:             0.045     0.045   0.0% |
  Distribute overlap matrix:         0.031     0.031   0.0% |
  Orbital Layouts:                   0.431     0.431   0.0% |
  Potential matrix:                 19.044    19.044   0.6% |
  Sum over cells:                    0.100     0.100   0.0% |
 LCAO to grid:                      49.551    49.551   1.5% ||
 Set positions (LCAO WFS):           1.343     0.210   0.0% |
  Basic WFS set positions:           0.001     0.001   0.0% |
  Basis functions set positions:     0.000     0.000   0.0% |
  P tci:                             0.528     0.528   0.0% |
  ST tci:                            0.384     0.384   0.0% |
  mktci:                             0.218     0.218   0.0% |
PWDescriptor:                        0.024     0.024   0.0% |
SCF-cycle:                        1269.396     1.301   0.0% |
 Davidson:                        1084.208   331.703  10.2% |---|
  Apply H:                          75.348    73.169   2.3% ||
   HMM T:                            2.179     2.179   0.1% |
  Subspace diag:                   157.381     0.169   0.0% |
   calc_h_matrix:                  101.295    26.151   0.8% |
    Apply H:                        75.143    72.930   2.2% ||
     HMM T:                          2.213     2.213   0.1% |
   diagonalize:                      7.867     7.867   0.2% |
   rotate_psi:                      48.050    48.050   1.5% ||
  calc. matrices:                  324.496   177.213   5.5% |-|
   Apply H:                        147.283   143.221   4.4% |-|
    HMM T:                           4.062     4.062   0.1% |
  diagonalize:                      91.243    91.243   2.8% ||
  rotate_psi:                      104.036   104.036   3.2% ||
 Density:                           43.682     0.001   0.0% |
  Atomic density matrices:           0.884     0.884   0.0% |
  Mix:                               6.039     6.039   0.2% |
  Multipole moments:                 0.021     0.021   0.0% |
  Pseudo density:                   36.736    36.735   1.1% |
   Symmetrize density:               0.002     0.002   0.0% |
 Forces:                           125.833   125.833   3.9% |-|
 Hamiltonian:                       12.308     0.122   0.0% |
  Atomic:                            2.860     2.860   0.1% |
   XC Correction:                    0.000     0.000   0.0% |
  Calculate atomic Hamiltonians:     4.288     4.288   0.1% |
  Communicate:                       0.101     0.101   0.0% |
  Poisson:                           0.034     0.034   0.0% |
  XC 3D grid:                        4.903     4.903   0.2% |
 Orthonormalize:                     2.064     0.003   0.0% |
  calc_s_matrix:                     0.242     0.242   0.0% |
  inverse-cholesky:                  0.073     0.073   0.0% |
  projections:                       1.316     1.316   0.0% |
  rotate_psi_s:                      0.431     0.431   0.0% |
Set symmetry:                        0.000     0.000   0.0% |
Other:                            1906.061  1906.061  58.7% |----------------------|
-----------------------------------------------------------
Total:                                      3246.922 100.0%

Memory usage: 13.45 GiB
Date: Thu Mar 25 20:34:37 2021
