
  ___ ___ ___ _ _ _  
 |   |   |_  | | | | 
 | | | | | . | | | | 
 |__ |  _|___|_____|  21.1.1b1
 |___|_|             

User:   madkru@a067.nifl.fysik.dtu.dk
Date:   Wed May  5 22:00:53 2021
Arch:   x86_64
Pid:    210585
Python: 3.8.6
gpaw:   /home/niflheim2/cmr/WIP/stacking/venv/gpaw/gpaw (393e8a163a)
_gpaw:  /home/niflheim2/cmr/WIP/stacking/venv/gpaw/build/lib.linux-x86_64-skylake-3.8/
        _gpaw.cpython-38-x86_64-linux-gnu.so (393e8a163a)
ase:    /home/niflheim2/cmr/WIP/stacking/venv/ase/ase (version 3.22.0b1-5e85d35a81)
numpy:  /home/modules/software/SciPy-bundle/2020.11-intel-2020b/lib/python3.8/site-packages/numpy (version 1.19.4)
scipy:  /home/modules/software/SciPy-bundle/2020.11-intel-2020b/lib/python3.8/site-packages/scipy (version 1.5.4)
libxc:  4.3.4
units:  Angstrom and eV
cores: 40
OpenMP: False
OMP_NUM_THREADS: 1

Input parameters:
  convergence: {density: 1e-09}
  experimental: {magmoms: [[0. 0. 0.]
 [0. 0. 0.]
 [0. 0. 0.]
 ...
 [0. 0. 0.]
 [0. 0. 0.]
 [0. 0. 0.]],
                 soc: True}
  kpts: [4 4 6]
  maxiter: 5000
  mixer: {backend: pulay,
          beta: 0.05,
          method: difference,
          nmaxold: 3,
          weight: 100}
  mode: {ecut: 600.0,
         gammacentered: False,
         name: pw}
  occupations: {fixmagmom: False,
                name: fermi-dirac,
                width: 0.001}
  symmetry: off

System changes: positions, numbers, cell, pbc, initial_charges, initial_magmoms 

Initialize ...

O-setup:
  name: Oxygen
  id: 9b9d51c344dea68c822856295a461509
  Z: 8.0
  valence: 6
  core: 2
  charge: 0.0
  file: /home/modules/software/GPAW-setups/0.9.20000/O.LDA.gz
  compensation charges: gauss, rc=0.21, lmax=2
  cutoffs: 1.17(filt), 0.83(core),
  valence states:
                energy  radius
    2s(2.00)   -23.752   0.688
    2p(4.00)    -9.195   0.598
    *s           3.459   0.688
    *p          18.016   0.598
    *d           0.000   0.619

  Using partial waves for O as LCAO basis

Mn-setup:
  name: Manganese
  id: 0d715a8018be061a6e9ea6f2d364ac92
  Z: 25.0
  valence: 15
  core: 10
  charge: 0.0
  file: /home/modules/software/GPAW-setups/0.9.20000/Mn.LDA.gz
  compensation charges: gauss, rc=0.38, lmax=2
  cutoffs: 2.14(filt), 0.86(core),
  valence states:
                energy  radius
    3s(2.00)   -85.387   1.275
    4s(2.00)    -5.282   1.275
    3p(6.00)   -54.493   1.281
    4p(0.00)    -1.471   1.281
    3d(5.00)    -7.009   1.138
    *d          20.203   1.138

  Using partial waves for Mn as LCAO basis

P-setup:
  name: Phosphorus
  id: a5561c299094968922a179ab894d2e2d
  Z: 15.0
  valence: 5
  core: 10
  charge: 0.0
  file: /home/modules/software/GPAW-setups/0.9.20000/P.LDA.gz
  compensation charges: gauss, rc=0.30, lmax=2
  cutoffs: 1.69(filt), 1.81(core),
  valence states:
                energy  radius
    3s(2.00)   -14.015   0.953
    3p(3.00)    -5.596   0.953
    *s          13.197   0.953
    *p          21.615   0.953
    *d           0.000   0.953

  Using partial waves for P as LCAO basis

Li-setup:
  name: Lithium
  id: b73562207f97a71b6967473b66fe8b65
  Z: 3.0
  valence: 1
  core: 2
  charge: 0.0
  file: /home/modules/software/GPAW-setups/0.9.20000/Li.LDA.gz
  compensation charges: gauss, rc=0.33, lmax=2
  cutoffs: 1.91(filt), 2.55(core),
  valence states:
                energy  radius
    2s(1.00)    -2.874   1.058
    2p(0.00)    -1.126   1.058
    *s          24.338   1.058

  Using partial waves for Li as LCAO basis

Reference energy: -196157.275402

Non-collinear calculation.
Magnetic moment: (0.000000, 0.000000, 0.000000)

Convergence criteria:
  Maximum total energy change: 0.0005 eV / electron
  Maximum integral of absolute density change: 1e-09 electrons
  Maximum integral of absolute eigenstate change: 4e-08 eV^2
  Maximum number of iterations: 5000

Symmetries present (total): 1

  ( 1  0  0)
  ( 0  1  0)
  ( 0  0  1)

96 k-points: 4 x 4 x 6 Monkhorst-Pack grid
96 k-points in the irreducible part of the Brillouin zone
       k-points in crystal coordinates                weights
   0:    -0.37500000   -0.37500000   -0.41666667          1/96
   1:    -0.37500000   -0.37500000   -0.25000000          1/96
   2:    -0.37500000   -0.37500000   -0.08333333          1/96
   3:    -0.37500000   -0.37500000    0.08333333          1/96
   4:    -0.37500000   -0.37500000    0.25000000          1/96
   5:    -0.37500000   -0.37500000    0.41666667          1/96
   6:    -0.37500000   -0.12500000   -0.41666667          1/96
   7:    -0.37500000   -0.12500000   -0.25000000          1/96
   8:    -0.37500000   -0.12500000   -0.08333333          1/96
   9:    -0.37500000   -0.12500000    0.08333333          1/96
          ...
  95:     0.37500000    0.37500000    0.41666667          1/96

Wave functions: Plane wave expansion
  Cutoff energy: 600.000 eV
  Number of coefficients (min, max): 9124, 9168
  Pulay-stress correction: 0.000000 eV/Ang^3 (de/decut=0.000000)
  Using FFTW library
  ScaLapack parameters: grid=1x1, blocksize=None
  Wavefunction extrapolation:
    Improved wavefunction reuse through dual PAW basis 

  Fermi-Dirac: width=0.0010 eV

Eigensolver
   Davidson(niter=2) 

Densities:
  Coarse grid: 60*35*27 grid
  Fine grid: 120*70*54 grid
  Total Charge: 0.000000 

Density mixing:
  Method: difference
  Backend: pulay
  Linear mixing parameter: 0.05
  Mixing with 3 old densities
  Damping of long wave oscillations: 100 

Hamiltonian:
  XC and Coulomb potentials evaluated on a 120*70*54 grid
  Using the LDA Exchange-Correlation functional
 

Memory estimate:
  Process memory now: 221.45 MiB
  Calculator: 155.08 MiB
    Density: 36.11 MiB
      Arrays: 11.25 MiB
      Localized functions: 17.07 MiB
      Mixer: 7.79 MiB
    Hamiltonian: 7.85 MiB
      Arrays: 7.35 MiB
      XC: 0.00 MiB
      Poisson: 0.00 MiB
      vbar: 0.49 MiB
    Wavefunctions: 111.13 MiB
      Arrays psit_nG: 62.67 MiB
      Eigensolver: 39.70 MiB
      Projections: 2.41 MiB
      Projectors: 3.91 MiB
      PW-descriptor: 2.44 MiB

Total number of cores used: 40
Parallelization over k-points: 40

Number of atoms: 28
Number of atomic orbitals: 148
Number of bands in calculation: 224
Number of valence electrons: 180
Bands to converge: occupied

... initialized

Initializing position-dependent things.

Density initialized from atomic densities
Creating initial wave functions:
  148 bands from LCAO basis set
  76 bands from random numbers

                                           
                                           
                                           
                                           
                                           
               O     O  P  O               
            PO           OMn     O         
                  O          MO            
            O        Li O                  
             Mn  On          OP            
         O         Li O                    
         Li     O P         O              
       Li                                  
                                           
                                           
                                           
                                           

Positions:
   0 O      3.401460    0.251320    1.033208    ( 0.0000,  0.0000,  0.0000)
   1 O      1.658340    5.665768    3.325164    ( 0.0000,  0.0000,  0.0000)
   2 O      6.679024    3.222932    3.586971    ( 0.0000,  0.0000,  0.0000)
   3 O      8.421920    2.711813    1.270835    ( 0.0000,  0.0000,  0.0000)
   4 O      6.678990    5.665751    3.586999    ( 0.0000,  0.0000,  0.0000)
   5 O      8.421944    0.251380    1.270855    ( 0.0000,  0.0000,  0.0000)
   6 O      3.401432    2.711833    1.033224    ( 0.0000,  0.0000,  0.0000)
   7 O      1.658373    3.222856    3.325199    ( 0.0000,  0.0000,  0.0000)
   8 O      0.526402    1.481579    1.272888    ( 0.0000,  0.0000,  0.0000)
   9 O      4.517912    4.444309    3.597603    ( 0.0000,  0.0000,  0.0000)
  10 O      9.538390    4.444332    3.314412    ( 0.0000,  0.0000,  0.0000)
  11 O      5.546977    1.481616    1.031260    ( 0.0000,  0.0000,  0.0000)
  12 Mn     2.196726    1.481409    2.440358    ( 0.0000,  0.0000,  0.0000)
  13 Mn     2.767645    4.444472    0.138893    ( 5.0000,  0.0000,  0.0000)
  14 Mn     7.788134    4.444491    2.165081    (-5.0000,  0.0000,  0.0000)
  15 Mn     7.217279    1.481437    4.471890    (-5.0000,  0.0000,  0.0000)
  16 P      4.124079    1.481597    0.413149    ( 5.0000,  0.0000,  0.0000)
  17 P      0.906848    4.444285    2.701500    ( 0.0000,  0.0000,  0.0000)
  18 P      5.927421    4.444316    4.210674    ( 0.0000,  0.0000,  0.0000)
  19 P      9.144594    1.481616    1.890949    ( 0.0000,  0.0000,  0.0000)
  20 O      4.134043    1.481572    3.495603    ( 0.0000,  0.0000,  0.0000)
  21 O      0.919563    4.444299    1.176338    ( 0.0000,  0.0000,  0.0000)
  22 O      5.940133    4.444328    1.127707    ( 0.0000,  0.0000,  0.0000)
  23 O      9.154492    1.481593    3.416617    ( 0.0000,  0.0000,  0.0000)
  24 Li    -0.044781    0.002521   -0.017428    ( 0.0000,  0.0000,  0.0000)
  25 Li     4.975961    0.002579    2.321572    ( 0.0000,  0.0000,  0.0000)
  26 Li    -0.044739    2.960412   -0.017394    ( 0.0000,  0.0000,  0.0000)
  27 Li     4.975986    2.960420    2.321548    ( 0.0000,  0.0000,  0.0000)

Unit cell:
           periodic     x           y           z      points  spacing
  1. axis:    yes   10.041096    0.000054   -0.000022    60     0.1674
  2. axis:    yes    0.000032    5.925857    0.000001    35     0.1693
  3. axis:    yes   -0.000010    0.000001    4.608134    27     0.1707

  Lengths:  10.041096   5.925857   4.608134
  Angles:   89.999974  90.000250  89.999381

Effective grid spacing dv^(1/3) = 0.1691

                     log10-error:    total        iterations:
           time      wfs    density  energy       poisson
iter:   1  22:03:23                -249.271503            -1.0,+0.0,+0.0
iter:   2  22:03:52  -0.48  -0.92  -249.824587            +0.2,-0.0,-0.0
iter:   3  22:04:21  -1.05  -0.97  -245.650953            +0.0,-0.0,-0.0
iter:   4  22:04:51  -1.11  -1.00  -230.532391            -0.0,-0.0,-0.0
iter:   5  22:05:20  -0.72  -1.10  -236.630682            -0.0,+0.0,-0.0
iter:   6  22:05:49  -1.66  -1.29  -223.686854            -0.0,+0.0,-0.0
iter:   7  22:06:17  -2.09  -1.41  -222.987435            -0.0,-0.0,-0.0
iter:   8  22:06:47  -3.38  -1.39  -222.829842            -0.2,-0.0,-0.0
iter:   9  22:07:16  -2.39  -1.41  -223.714835            +0.0,+0.0,-0.1
iter:  10  22:07:45  -2.43  -1.44  -222.669378            +0.1,+0.0,-0.1
iter:  11  22:08:14  -2.03  -1.51  -223.703732            +0.1,+0.0,-0.2
iter:  12  22:08:43  -2.29  -1.68  -222.507279            +0.3,+0.0,-0.5
iter:  13  22:09:12  -3.13  -1.72  -222.384415            +0.4,+0.0,-0.6
iter:  14  22:09:41  -3.09  -1.85  -222.257021            +0.2,+0.0,-0.4
iter:  15  22:10:10  -3.24  -1.91  -222.440585            +0.5,+0.0,-1.2
iter:  16  22:10:39  -3.20  -1.93  -222.492141            +0.8,+0.0,-1.6
iter:  17  22:11:07  -3.16  -2.01  -222.645955            +0.9,+0.0,-2.2
iter:  18  22:11:36  -3.14  -2.06  -222.589067            +1.2,+0.0,-1.6
iter:  19  22:12:05  -2.55  -2.11  -223.494819            +1.6,+0.0,-2.0
iter:  20  22:12:34  -2.94  -1.98  -223.424952            +1.9,+0.0,-2.4
iter:  21  22:13:03  -3.34  -2.12  -223.971222            +2.9,+0.0,-2.7
iter:  22  22:13:32  -2.94  -2.11  -224.406794            +4.1,+0.0,-3.2
iter:  23  22:14:01  -2.84  -2.13  -224.440611            +3.9,+0.0,-3.3
iter:  24  22:14:30  -2.60  -2.22  -224.822595            +3.9,+0.0,-3.3
iter:  25  22:14:59  -2.45  -2.08  -224.432776            +3.9,+0.0,-3.2
iter:  26  22:15:28  -2.33  -2.25  -225.117299            +3.9,+0.0,-3.0
iter:  27  22:15:57  -2.66  -2.11  -224.447206            +3.9,+0.0,-3.0
iter:  28  22:16:26  -3.22  -2.28  -224.512333            +4.2,+0.0,-2.6
iter:  29  22:16:55  -3.27  -2.31  -224.314994            +3.8,+0.0,-3.4
iter:  30  22:17:24  -3.26  -2.38  -224.278624            +3.7,+0.0,-3.7
iter:  31  22:17:53  -4.06  -2.37  -224.265212            +3.8,+0.0,-3.7
iter:  32  22:18:22  -2.96  -2.38  -224.266595            +3.9,+0.0,-3.5
iter:  33  22:18:51  -3.89  -2.45  -224.229439            +3.9,+0.0,-3.7
iter:  34  22:19:20  -4.14  -2.46  -224.216171            +3.9,+0.0,-3.8
iter:  35  22:19:49  -4.57  -2.46  -224.221081            +3.8,+0.1,-3.9
iter:  36  22:20:18  -4.35  -2.46  -224.218120            +3.8,+0.1,-3.8
iter:  37  22:20:46  -3.47  -2.49  -224.224287            +3.8,+0.1,-3.9
iter:  38  22:21:15  -4.07  -2.67  -224.235597            +3.8,+0.1,-3.7
iter:  39  22:21:44  -4.29  -2.77  -224.293083            +3.9,+0.2,-3.8
iter:  40  22:22:13  -3.83  -2.72  -224.229530            +3.7,+0.1,-3.8
iter:  41  22:22:42  -4.32  -2.73  -224.309798            +3.9,+0.0,-3.8
iter:  42  22:23:11  -3.78  -2.63  -224.195721            +3.5,+0.1,-3.8
iter:  43  22:23:40  -3.69  -2.78  -224.073711            +3.1,+0.1,-3.7
iter:  44  22:24:09  -3.07  -2.83  -224.518628            +4.3,+0.1,-3.7
iter:  45  22:24:38  -2.58  -2.55  -223.909282            +2.0,+0.1,-3.7
iter:  46  22:25:07  -2.87  -2.44  -224.211755            +3.6,+0.1,-3.7
iter:  47  22:25:36  -4.35  -2.83  -224.155060            +3.3,+0.2,-3.6
iter:  48  22:26:05  -3.49  -2.86  -224.002828            +2.6,+0.2,-3.6
iter:  49  22:26:34  -3.77  -2.58  -224.138520            +3.1,+0.3,-3.5
iter:  50  22:27:02  -4.47  -2.76  -224.158659            +3.0,+0.4,-3.4
iter:  51  22:27:31  -4.05  -2.70  -224.167274            +3.0,+0.2,-3.4
iter:  52  22:28:00  -4.32  -2.67  -224.209562            +3.2,+0.1,-3.3
iter:  53  22:28:29  -3.77  -2.71  -224.344387            +3.8,+0.3,-3.2
iter:  54  22:28:58  -3.44  -2.69  -224.182303            +2.9,+0.2,-3.2
iter:  55  22:29:27  -3.50  -2.67  -224.172020            +2.2,+0.3,-3.1
iter:  56  22:29:56  -3.76  -2.55  -224.207744            +2.8,+0.3,-3.2
iter:  57  22:30:25  -4.34  -2.66  -224.260913            +2.8,+0.4,-3.0
iter:  58  22:30:54  -4.01  -2.63  -224.194883            +2.9,+0.2,-3.3
iter:  59  22:31:23  -3.90  -2.68  -224.147647            +3.0,+0.2,-3.5
iter:  60  22:31:52  -3.84  -2.79  -224.149440            +3.0,+0.4,-3.5
iter:  61  22:32:21  -3.70  -2.87  -224.168658            +3.1,+0.3,-3.4
iter:  62  22:32:49  -4.09  -3.04  -224.196313            +3.1,+0.6,-3.4
iter:  63  22:33:18  -3.98  -3.06  -224.233602            +3.4,+0.3,-3.4
iter:  64  22:33:47  -3.85  -3.02  -224.194771            +3.0,+0.7,-3.4
iter:  65  22:34:16  -3.12  -3.04  -224.644603            +4.2,+0.5,-3.3
iter:  66  22:34:44  -2.98  -2.56  -224.217110            +2.8,+0.9,-3.3
iter:  67  22:35:13  -3.64  -3.02  -224.180091            +2.3,+1.1,-3.1
iter:  68  22:35:42  -3.89  -2.95  -224.231278            +2.7,+0.9,-3.2
iter:  69  22:36:10  -3.93  -3.03  -224.339720            +3.0,+1.1,-3.1
iter:  70  22:36:39  -3.57  -2.93  -224.610779            +3.6,+1.3,-3.0
iter:  71  22:37:07  -3.34  -2.63  -224.280850            +2.7,+1.0,-3.0
iter:  72  22:37:36  -3.69  -2.93  -224.226070            +2.3,+0.9,-2.9
iter:  73  22:38:04  -3.67  -3.00  -224.365325            +2.7,+1.2,-3.0
iter:  74  22:38:33  -3.63  -3.06  -224.492867            +3.1,+1.4,-3.0
iter:  75  22:39:01  -3.51  -2.99  -224.303564            +2.6,+1.0,-2.9
iter:  76  22:39:30  -3.67  -3.09  -224.225888            +2.4,+0.6,-2.8
iter:  77  22:39:58  -3.50  -2.98  -224.396039            +2.3,+1.4,-2.9
iter:  78  22:40:27  -4.27  -3.17  -224.355978            +2.4,+1.1,-2.8
iter:  79  22:40:56  -3.88  -3.18  -224.281944            +2.4,+0.8,-2.8
iter:  80  22:41:24  -4.34  -2.96  -224.336800            +2.4,+1.0,-2.7
iter:  81  22:41:53  -3.78  -3.03  -224.275668            +2.4,+0.9,-3.1
iter:  82  22:42:21  -4.39  -2.90  -224.272861            +2.4,+0.9,-3.1
iter:  83  22:42:50  -4.05  -2.93  -224.321116            +2.4,+1.1,-3.0
iter:  84  22:43:18  -3.85  -3.17  -224.217945            +2.4,+0.6,-3.0
iter:  85  22:43:47  -4.52  -2.98  -224.243628            +2.4,+0.6,-2.9
iter:  86  22:44:15  -3.80  -2.99  -224.247568            +2.4,+0.8,-3.3
iter:  87  22:44:44  -4.35  -2.99  -224.271216            +2.5,+1.0,-3.4
iter:  88  22:45:12  -3.82  -3.11  -224.184152            +2.5,+0.6,-3.4
iter:  89  22:45:40  -3.45  -2.89  -224.414832            +2.5,+1.4,-3.4
iter:  90  22:46:09  -3.12  -3.09  -224.120576            +2.6,+0.2,-3.4
iter:  91  22:46:37  -2.83  -2.82  -224.112799            +2.6,-1.3,-3.3
iter:  92  22:47:06  -2.94  -2.58  -224.128274            +2.6,+0.1,-3.3
iter:  93  22:47:34  -4.22  -2.82  -224.167517            +2.7,+0.1,-3.2
iter:  94  22:48:03  -3.44  -2.74  -224.163096            +2.6,-0.2,-3.2
iter:  95  22:48:31  -4.00  -2.83  -224.179435            +2.7,+0.0,-3.1
iter:  96  22:49:00  -4.06  -2.95  -224.220300            +2.6,+0.0,-3.0
iter:  97  22:49:28  -3.98  -2.84  -224.217531            +2.6,-0.1,-3.1
iter:  98  22:49:56  -3.94  -2.85  -224.200043            +2.4,-0.2,-3.0
iter:  99  22:50:25  -3.66  -2.71  -224.263145            +2.7,-0.1,-2.8
iter: 100  22:50:53  -4.05  -2.84  -224.229784            +2.8,-0.1,-2.9
iter: 101  22:51:22  -3.89  -3.04  -224.400200            +3.0,-0.1,-2.4
iter: 102  22:51:50  -4.12  -2.86  -224.340731            +3.1,-0.1,-2.8
iter: 103  22:52:19  -3.90  -2.97  -224.565346            +3.5,-0.2,-2.7
iter: 104  22:52:47  -3.47  -2.78  -224.393743            +2.8,-0.2,-2.2
iter: 105  22:53:15  -3.20  -2.90  -224.086449            +1.7,-0.2,-2.3
iter: 106  22:53:44  -3.21  -2.62  -224.559719            +2.7,-0.2,-1.8
iter: 107  22:54:12  -3.94  -2.79  -224.730973            +2.6,-0.2,-1.5
iter: 108  22:54:41  -3.30  -2.60  -224.531515            +2.9,-0.3,-2.1
iter: 109  22:55:09  -3.33  -2.83  -224.221766            +3.1,-0.4,-2.6
iter: 110  22:55:38  -3.03  -2.86  -225.023237            +3.0,-0.4,-1.2
iter: 111  22:56:06  -3.08  -2.53  -224.542721            +3.5,-0.4,-2.5
iter: 112  22:56:35  -3.02  -2.68  -223.951681            +2.6,-0.6,-3.3
iter: 113  22:57:03  -3.57  -2.82  -224.266381            +2.9,-0.6,-3.1
iter: 114  22:57:32  -3.86  -2.96  -224.439745            +3.0,-0.8,-2.7
iter: 115  22:58:00  -3.99  -2.89  -224.528612            +3.2,-0.5,-2.6
iter: 116  22:58:28  -3.36  -2.79  -224.256148            +2.7,-0.1,-2.7
iter: 117  22:58:57  -3.85  -2.96  -224.288528            +2.5,-0.1,-2.4
iter: 118  22:59:25  -3.67  -3.05  -224.457019            +2.9,-0.2,-2.3
iter: 119  22:59:54  -3.33  -2.92  -224.144198            +1.9,-0.2,-2.3
iter: 120  23:00:22  -3.36  -3.20  -224.135036            +1.3,-0.2,-2.1
iter: 121  23:00:51  -4.07  -2.92  -224.131576            +1.4,-0.2,-2.3
iter: 122  23:01:19  -4.47  -3.17  -224.190762            +1.4,-0.2,-2.2
iter: 123  23:01:48  -4.03  -3.07  -224.307738            +1.3,-0.4,-1.9
iter: 124  23:02:16  -3.86  -2.91  -224.189172            +1.3,-0.1,-2.3
iter: 125  23:02:44  -4.01  -3.08  -224.143857            +1.3,-0.1,-2.6
iter: 126  23:03:13  -4.17  -3.02  -224.221096            +1.3,-0.1,-2.3
iter: 127  23:03:41  -4.52  -2.93  -224.245679            +1.3,-0.1,-2.2
iter: 128  23:04:10  -4.63  -2.94  -224.232422            +1.1,-0.1,-2.2
iter: 129  23:04:38  -4.28  -3.00  -224.270808            +1.1,-0.1,-2.1
iter: 130  23:05:07  -3.79  -2.98  -224.187407            +1.1,-0.1,-2.4
iter: 131  23:05:35  -4.07  -3.09  -224.166094            +1.0,-0.1,-2.5
iter: 132  23:06:04  -3.99  -3.20  -224.228662            +1.1,-0.1,-2.1
iter: 133  23:06:32  -4.08  -3.25  -224.178310            +1.0,-0.1,-2.5
iter: 134  23:07:00  -3.91  -3.23  -224.139390            +1.1,-0.2,-2.7
iter: 135  23:07:29  -3.36  -3.12  -224.266515            +1.0,-0.2,-2.0
iter: 136  23:07:57  -2.44  -3.14  -224.120714            +0.9,-0.2,-4.0
iter: 137  23:08:26  -2.47  -2.46  -224.259231            +0.9,-0.2,-2.1
iter: 138  23:08:54  -4.16  -3.21  -224.252789            +0.8,-0.3,-2.2
iter: 139  23:09:23  -3.90  -3.07  -224.221248            +0.9,-0.2,-2.2
iter: 140  23:09:51  -3.80  -2.88  -224.347513            +0.6,-0.4,-1.9
iter: 141  23:10:19  -4.34  -2.88  -224.346678            +0.5,-0.4,-1.9
iter: 142  23:10:48  -4.01  -2.81  -224.454887            +0.3,-0.6,-1.7
iter: 143  23:11:16  -3.65  -2.67  -224.335394            +0.5,-0.1,-2.0
iter: 144  23:11:45  -4.15  -2.86  -224.352288            +0.5,+0.0,-1.9
iter: 145  23:12:13  -3.66  -2.87  -224.284044            +0.3,+0.1,-2.0
iter: 146  23:12:42  -4.31  -2.86  -224.294961            +0.3,-0.0,-1.9
iter: 147  23:13:10  -3.96  -2.88  -224.329241            +0.1,+0.0,-1.7
iter: 148  23:13:38  -4.29  -2.89  -224.294414            +0.1,-0.0,-1.9
iter: 149  23:14:07  -3.79  -2.99  -224.350969            -0.2,-0.1,-2.0
iter: 150  23:14:35  -4.07  -3.05  -224.297224            +0.1,-0.1,-1.8
iter: 151  23:15:04  -3.91  -3.17  -224.241358            +0.4,-0.2,-1.7
iter: 152  23:15:32  -3.86  -3.23  -224.379928            -0.2,-0.1,-1.7
iter: 153  23:16:01  -4.10  -3.05  -224.346762            +0.2,-0.2,-1.5
iter: 154  23:16:29  -3.93  -3.15  -224.291733            +0.5,-0.3,-1.6
iter: 155  23:16:57  -3.71  -3.09  -224.571564            -0.1,-0.3,-1.2
iter: 156  23:17:26  -3.52  -2.73  -224.335813            +0.7,-0.5,-1.5
iter: 157  23:17:54  -3.74  -3.01  -224.318548            +1.1,-0.5,-1.5
iter: 158  23:18:23  -3.72  -2.93  -224.437826            +0.8,-0.6,-1.2
iter: 159  23:18:51  -3.19  -2.94  -224.210535            +0.8,-0.6,-2.0
iter: 160  23:19:20  -3.59  -2.96  -224.348384            +0.6,-0.7,-1.5
iter: 161  23:19:48  -3.69  -3.08  -224.478702            +0.6,-0.7,-1.1
iter: 162  23:20:17  -3.35  -2.88  -224.294441            +0.6,-0.7,-1.9
iter: 163  23:20:45  -3.51  -3.09  -224.319788            +0.4,-1.1,-2.4
iter: 164  23:21:13  -3.28  -3.02  -224.272856            +0.7,-0.4,-1.7
iter: 165  23:21:42  -3.71  -3.07  -224.215800            +0.7,-0.0,-1.7
iter: 166  23:22:10  -3.81  -3.09  -224.272957            +0.5,+0.0,-1.4
iter: 167  23:22:39  -4.50  -3.17  -224.294079            +0.4,-0.1,-1.4
iter: 168  23:23:07  -4.47  -3.28  -224.317631            +0.3,-0.1,-1.3
iter: 169  23:23:36  -4.10  -3.28  -224.366364            +0.5,-0.1,-1.1
iter: 170  23:24:04  -3.47  -3.19  -224.263719            +0.2,-0.1,-1.6
iter: 171  23:24:32  -3.88  -3.14  -224.209198            +0.3,-0.1,-1.8
iter: 172  23:25:01  -4.03  -3.04  -224.248425            -0.0,-0.1,-1.7
iter: 173  23:25:29  -3.60  -3.15  -224.203293            +0.6,-0.2,-1.5
iter: 174  23:25:58  -4.10  -2.89  -224.199575            +0.8,-0.2,-1.5
iter: 175  23:26:26  -4.58  -2.85  -224.192048            +0.6,-0.2,-1.5
iter: 176  23:26:55  -4.37  -2.88  -224.232133            +0.5,-0.2,-1.4
iter: 177  23:27:23  -3.56  -2.92  -224.319862            +0.2,-0.4,-0.8
iter: 178  23:27:51  -3.69  -2.92  -224.245115            +0.3,-0.3,-1.3
iter: 179  23:28:20  -3.83  -2.98  -224.197716            +0.3,-0.4,-1.8
iter: 180  23:28:48  -4.06  -3.08  -224.243897            +0.3,-0.4,-1.4
iter: 181  23:29:17  -4.21  -3.17  -224.226887            +0.2,-0.4,-1.7
iter: 182  23:29:45  -4.07  -3.24  -224.216082            +0.2,-0.4,-1.8
iter: 183  23:30:14  -4.18  -3.16  -224.262503            +0.1,-0.5,-1.5
iter: 184  23:30:42  -4.03  -3.09  -224.219208            -0.1,-0.3,-1.9
iter: 185  23:31:11  -4.43  -3.11  -224.180959            +0.0,-0.2,-2.0
iter: 186  23:31:39  -3.73  -3.09  -224.368612            -0.5,-0.3,-1.8
iter: 187  23:32:07  -4.32  -2.90  -224.442844            -0.8,-0.3,-1.8
iter: 188  23:32:36  -3.61  -2.76  -224.307670            -0.1,-0.6,-1.8
iter: 189  23:33:04  -3.45  -3.07  -224.120997            +0.5,-0.7,-1.7
iter: 190  23:33:33  -2.97  -3.11  -224.607145            -1.0,-0.8,-1.8
iter: 191  23:34:01  -3.17  -2.71  -224.348272            +0.0,-1.1,-1.6
iter: 192  23:34:30  -3.23  -2.96  -224.052006            +0.9,-1.0,-1.5
iter: 193  23:34:58  -3.05  -2.71  -224.618565            -0.3,-1.5,-1.5
iter: 194  23:35:26  -3.61  -2.76  -225.041343            -0.6,-2.0,-1.3
iter: 195  23:35:55  -3.49  -2.49  -224.540434            -0.4,-1.2,-1.5
iter: 196  23:36:23  -2.77  -2.83  -224.126688            -0.4,-0.1,-1.8
iter: 197  23:36:52  -2.99  -2.78  -224.689211            -0.7,-1.4,-1.3
iter: 198  23:37:20  -4.33  -2.74  -224.584346            -0.6,-1.3,-1.5
iter: 199  23:37:49  -3.82  -2.90  -224.419368            -0.5,-0.9,-1.6
iter: 200  23:38:17  -3.77  -3.12  -224.483512            -1.0,-0.5,-1.7
iter: 201  23:38:45  -3.50  -3.04  -224.783021            -1.0,-1.5,-1.6
iter: 202  23:39:14  -2.97  -2.66  -224.460378            -1.3,+0.2,-1.7
iter: 203  23:39:42  -3.37  -2.93  -224.925696            -2.1,+0.7,-1.8
iter: 204  23:40:11  -2.98  -2.55  -224.252582            -0.4,+0.4,-1.7
iter: 205  23:40:39  -3.47  -2.87  -224.120344            +0.2,+0.5,-1.7
iter: 206  23:41:08  -3.21  -2.87  -224.362263            -1.0,+0.4,-1.6
iter: 207  23:41:36  -3.48  -3.10  -224.544223            -1.4,+0.4,-1.6
iter: 208  23:42:04  -3.56  -2.78  -224.315332            -0.8,+0.3,-1.6
iter: 209  23:42:33  -3.72  -3.19  -224.183839            -0.3,+0.3,-1.5
iter: 210  23:43:01  -3.77  -3.22  -224.362871            -1.0,+0.3,-1.6
iter: 211  23:43:30  -3.75  -3.30  -224.192528            -0.3,+0.2,-1.5
iter: 212  23:43:58  -3.21  -3.23  -223.842636            +0.8,+0.2,-1.5
iter: 213  23:44:26  -3.25  -2.75  -224.225906            -0.4,+0.2,-1.4
iter: 214  23:44:55  -4.46  -3.18  -224.245574            -0.4,+0.2,-1.3
iter: 215  23:45:23  -4.00  -3.14  -224.274841            -0.8,+0.2,-1.5
iter: 216  23:45:52  -4.34  -3.02  -224.311062            -0.9,+0.1,-1.4
iter: 217  23:46:20  -3.84  -3.17  -224.398784            -1.2,+0.2,-1.4
iter: 218  23:46:48  -3.71  -3.31  -224.278443            -0.7,-0.1,-1.4
iter: 219  23:47:17  -3.29  -3.15  -224.027997            +0.2,-0.2,-1.2
iter: 220  23:47:45  -3.08  -3.13  -224.415915            -1.2,-0.2,-1.3
iter: 221  23:48:14  -4.21  -3.17  -224.448676            -1.2,-0.3,-1.2
iter: 222  23:48:42  -3.42  -3.04  -224.555002            -1.6,+0.2,-1.4
iter: 223  23:49:10  -3.19  -2.83  -224.227460            -0.9,+0.2,-1.2
iter: 224  23:49:39  -3.83  -2.97  -224.202170            -0.8,+0.1,-1.2
iter: 225  23:50:07  -3.88  -2.91  -224.365615            -1.3,+0.1,-1.0
iter: 226  23:50:36  -3.59  -2.87  -224.696104            -2.0,-0.0,-1.0
iter: 227  23:51:04  -3.01  -2.61  -224.234398            -0.6,+0.1,-0.9
iter: 228  23:51:33  -3.08  -2.96  -224.061772            +0.5,+0.0,-0.7
iter: 229  23:52:01  -3.21  -2.87  -224.321038            -0.7,+0.1,-0.7
iter: 230  23:52:29  -3.97  -3.00  -224.443602            -0.8,+0.0,-0.4
iter: 231  23:52:58  -3.68  -2.91  -224.359133            -1.1,-0.0,-1.0
iter: 232  23:53:26  -3.74  -2.97  -224.360434            -1.4,-0.1,-1.4
iter: 233  23:53:55  -3.81  -2.94  -224.215187            -0.9,+0.0,-1.6
iter: 234  23:54:23  -3.87  -2.97  -224.385087            -1.4,-0.2,-1.4
iter: 235  23:54:51  -4.11  -2.96  -224.377586            -1.5,-0.2,-1.3
iter: 236  23:55:20  -3.87  -3.00  -224.505474            -1.7,-0.5,-1.3
iter: 237  23:55:48  -3.44  -2.75  -224.313473            -1.3,+0.2,-1.1
iter: 238  23:56:17  -3.73  -3.02  -224.268889            -1.2,+0.6,-1.1
iter: 239  23:56:45  -4.23  -3.01  -224.336194            -1.3,+0.5,-0.9
iter: 240  23:57:13  -4.02  -2.94  -224.333337            -1.5,+0.4,-1.3
iter: 241  23:57:42  -4.65  -2.97  -224.339055            -1.5,+0.5,-1.3
iter: 242  23:58:10  -3.83  -2.95  -224.484747            -1.9,+0.3,-1.3
iter: 243  23:58:39  -3.73  -2.79  -224.322007            -1.4,+0.4,-1.2
iter: 244  23:59:07  -3.79  -2.85  -224.319074            -1.5,+0.5,-1.2
iter: 245  23:59:35  -3.90  -3.04  -224.424744            -1.9,+0.4,-1.1
iter: 246  00:00:04  -3.79  -3.05  -224.270156            -1.3,+0.5,-1.1
iter: 247  00:00:32  -3.69  -3.00  -224.166259            -0.7,+0.5,-1.0
iter: 248  00:01:01  -3.06  -2.97  -224.594874            -2.3,+0.5,-1.1
iter: 249  00:01:29  -2.68  -2.79  -224.099564            +0.2,+0.5,-0.9
iter: 250  00:01:58  -3.30  -2.59  -224.192663            -1.0,+0.5,-1.0
iter: 251  00:02:26  -4.23  -2.94  -224.241477            -0.8,+0.6,-0.8
iter: 252  00:02:54  -4.54  -2.84  -224.215301            -0.9,+0.6,-0.9
iter: 253  00:03:23  -4.05  -2.87  -224.178953            -0.9,+0.7,-1.2
iter: 254  00:03:51  -4.08  -2.94  -224.171611            -0.9,+0.7,-1.3
iter: 255  00:04:19  -4.05  -2.96  -224.206623            -1.2,+0.7,-1.1
iter: 256  00:04:48  -4.15  -2.98  -224.263016            -1.4,+0.7,-0.8
iter: 257  00:05:16  -4.17  -3.02  -224.326363            -1.6,+0.7,-0.6
iter: 258  00:05:45  -4.34  -2.98  -224.272008            -1.5,+0.7,-0.9
iter: 259  00:06:13  -4.58  -3.02  -224.280281            -1.5,+0.8,-1.0
iter: 260  00:06:41  -4.58  -3.04  -224.267432            -1.5,+0.7,-1.0
iter: 261  00:07:10  -4.16  -3.07  -224.323911            -1.8,+0.7,-0.9
iter: 262  00:07:38  -4.56  -3.10  -224.324015            -1.7,+0.8,-0.9
iter: 263  00:08:07  -4.32  -3.04  -224.426206            -2.0,+0.8,-0.8
iter: 264  00:08:35  -3.78  -2.86  -224.296022            -1.4,+0.9,-0.8
iter: 265  00:09:03  -3.97  -3.03  -224.271923            -1.0,+1.0,-0.7
iter: 266  00:09:32  -4.18  -2.99  -224.321715            -1.3,+1.0,-0.8
iter: 267  00:10:00  -4.30  -2.94  -224.359574            -1.5,+1.1,-0.8
iter: 268  00:10:29  -3.73  -2.87  -224.476224            -1.4,+1.3,-0.8
iter: 269  00:10:57  -3.91  -2.69  -224.470750            -1.8,+1.1,-0.8
iter: 270  00:11:25  -3.47  -2.71  -224.344528            -1.5,+1.2,-0.7
iter: 271  00:11:54  -3.83  -2.83  -224.421870            -1.5,+1.5,-0.5
iter: 272  00:12:22  -3.89  -2.85  -224.383229            -1.8,+1.2,-0.4
iter: 273  00:12:51  -3.91  -2.90  -224.292771            -1.5,+1.0,-0.4
iter: 274  00:13:19  -4.19  -2.92  -224.400795            -1.8,+1.2,-0.3
iter: 275  00:13:48  -4.15  -2.97  -224.388318            -1.5,+1.3,-0.1
iter: 276  00:14:16  -3.69  -3.00  -224.371414            -1.5,+1.5,-0.7
iter: 277  00:14:45  -4.09  -3.01  -224.367627            -1.8,+1.2,-0.5
iter: 278  00:15:13  -3.55  -3.02  -224.169081            -1.3,+0.6,-0.4
iter: 279  00:15:42  -4.01  -2.97  -224.251893            -1.4,+1.0,-0.5
iter: 280  00:16:10  -4.11  -2.98  -224.263267            -1.7,+0.9,-0.7
iter: 281  00:16:38  -3.63  -2.95  -224.219544            -1.0,+1.0,-0.5
iter: 282  00:17:07  -4.27  -2.88  -224.186873            -0.9,+1.1,-0.6
iter: 283  00:17:35  -3.65  -2.98  -224.115435            -1.1,+0.8,-0.7
iter: 284  00:18:03  -3.38  -2.80  -224.345695            -1.1,+1.6,-0.5
iter: 285  00:18:32  -3.69  -3.16  -224.556830            -1.2,+2.1,-0.4
iter: 286  00:19:00  -3.31  -2.95  -224.256087            -1.2,+1.0,-0.3
iter: 287  00:19:29  -3.16  -3.22  -224.081369            -1.3,-0.1,-0.2
iter: 288  00:19:57  -3.32  -2.84  -224.326309            -1.3,+0.9,+0.0
iter: 289  00:20:25  -3.90  -3.31  -224.475876            -1.4,+0.9,+0.4
iter: 290  00:20:54  -3.63  -3.08  -224.315908            -1.3,+1.2,-0.3
iter: 291  00:21:22  -3.81  -3.22  -224.282644            -1.5,+1.2,-0.8
iter: 292  00:21:50  -4.11  -3.12  -224.218492            -1.2,+1.2,-0.9
iter: 293  00:22:19  -3.94  -3.09  -224.352494            -1.3,+1.5,-0.5
iter: 294  00:22:47  -3.72  -3.13  -224.543969            -1.3,+1.8,-0.1
iter: 295  00:23:16  -3.65  -2.90  -224.335780            -1.4,+1.4,-0.6
iter: 296  00:23:44  -3.75  -3.10  -224.232078            -1.5,+1.0,-0.8
iter: 297  00:24:12  -3.70  -2.97  -224.378765            -1.5,+1.4,-0.3
iter: 298  00:24:41  -4.02  -3.17  -224.391499            -1.6,+1.3,+0.0
iter: 299  00:25:09  -3.61  -3.24  -224.443880            -1.4,+1.7,-0.5
iter: 300  00:25:38  -4.00  -3.15  -224.351185            -1.7,+1.3,-0.5
iter: 301  00:26:06  -3.43  -3.29  -224.146713            -1.5,+0.6,-0.4
iter: 302  00:26:34  -3.30  -3.08  -224.433992            -1.8,+1.6,-0.4
iter: 303  00:27:03  -3.91  -3.27  -224.287359            -1.8,+1.0,-0.4
iter: 304  00:27:31  -3.22  -3.26  -224.120008            -2.1,-0.1,-0.3
iter: 305  00:27:59  -3.15  -2.96  -224.354019            -1.8,+1.2,-0.3
iter: 306  00:28:28  -4.04  -3.38  -224.424452            -1.9,+1.4,-0.1
iter: 307  00:28:56  -3.49  -3.15  -224.257424            -1.7,+0.9,-0.6
iter: 308  00:29:24  -3.74  -3.07  -224.192240            -1.6,+0.7,-0.7
iter: 309  00:29:53  -3.77  -2.96  -224.313992            -2.0,+0.9,-0.5
iter: 310  00:30:21  -4.19  -3.06  -224.378969            -2.1,+1.1,-0.4
iter: 311  00:30:49  -3.92  -3.10  -224.437922            -2.1,+1.4,-0.4
iter: 312  00:31:18  -3.90  -3.23  -224.380500            -2.2,+1.1,-0.3
iter: 313  00:31:46  -4.02  -3.27  -224.539217            -2.7,+1.1,-0.1
iter: 314  00:32:15  -3.63  -2.93  -224.353628            -1.9,+1.2,-0.3
iter: 315  00:32:43  -3.96  -3.25  -224.353387            -1.5,+1.4,-0.3
iter: 316  00:33:11  -4.17  -3.26  -224.310519            -1.5,+1.1,-0.2
iter: 317  00:33:39  -3.78  -3.24  -224.246401            -1.7,+0.6,-0.1
iter: 318  00:34:08  -4.11  -3.12  -224.338564            -1.7,+0.9,+0.1
iter: 319  00:34:36  -3.89  -3.30  -224.469116            -1.8,+1.3,+0.3
iter: 320  00:35:05  -3.39  -3.21  -224.305370            -1.9,+0.4,+0.1
iter: 321  00:35:33  -3.96  -3.10  -224.473614            -2.0,+0.7,+0.6
iter: 322  00:36:01  -3.62  -3.01  -224.335726            -2.2,+0.9,-0.2
iter: 323  00:36:30  -4.01  -3.23  -224.312117            -2.3,+0.9,-0.5
iter: 324  00:36:58  -4.17  -3.27  -224.268664            -2.1,+0.9,-0.7
iter: 325  00:37:26  -3.84  -3.18  -224.444972            -2.7,+1.0,-0.5
iter: 326  00:37:55  -3.44  -3.16  -224.265498            -1.7,+1.2,-0.5
iter: 327  00:38:23  -3.94  -3.05  -224.237475            -1.3,+1.3,-0.4
iter: 328  00:38:51  -4.19  -3.08  -224.239653            -1.5,+1.0,-0.5
iter: 329  00:39:20  -3.89  -2.96  -224.248714            -1.7,+0.8,-0.5
iter: 330  00:39:48  -4.04  -2.83  -224.309900            -1.9,+1.0,-0.3
iter: 331  00:40:17  -3.64  -2.84  -224.374328            -2.1,+1.4,-0.2
iter: 332  00:40:45  -3.79  -3.02  -224.297031            -2.0,+0.9,-0.2
iter: 333  00:41:13  -3.99  -2.87  -224.297204            -2.1,+0.7,-0.2
iter: 334  00:41:42  -3.93  -2.85  -224.322151            -2.0,+1.1,-0.2
iter: 335  00:42:10  -4.75  -2.89  -224.324240            -2.1,+1.0,-0.2
iter: 336  00:42:38  -3.72  -2.92  -224.385453            -2.0,+1.5,-0.2
iter: 337  00:43:07  -3.30  -3.10  -224.301964            -2.2,+0.7,-0.1
iter: 338  00:43:35  -3.81  -2.96  -224.258020            -2.2,+0.4,-0.0
iter: 339  00:44:03  -3.77  -2.96  -224.369495            -2.4,+0.8,-0.1
iter: 340  00:44:32  -4.10  -2.91  -224.466368            -2.6,+0.8,+0.1
iter: 341  00:45:00  -3.79  -2.81  -224.339371            -2.1,+1.0,-0.1
iter: 342  00:45:29  -3.63  -2.98  -224.268286            -1.6,+1.1,-0.1
iter: 343  00:45:57  -3.76  -3.07  -224.345429            -2.2,+1.0,-0.0
iter: 344  00:46:25  -3.73  -3.05  -224.386178            -2.0,+1.2,+0.3
iter: 345  00:46:54  -3.43  -2.86  -224.400332            -2.5,+1.2,-0.1
iter: 346  00:47:22  -4.15  -3.02  -224.507384            -2.6,+1.4,+0.0
iter: 347  00:47:51  -3.44  -2.87  -224.301593            -2.4,+0.7,-0.3
iter: 348  00:48:19  -4.00  -3.10  -224.307149            -2.6,+0.6,-0.4
iter: 349  00:48:47  -3.49  -3.14  -224.178285            -2.0,+0.5,-0.5
iter: 350  00:49:16  -3.70  -3.03  -224.359241            -2.7,+0.6,-0.3
iter: 351  00:49:44  -4.42  -3.13  -224.402075            -2.7,+0.8,-0.2
iter: 352  00:50:13  -3.53  -3.01  -224.259637            -2.4,+0.6,-0.4
iter: 353  00:50:41  -4.06  -3.27  -224.384379            -2.8,+0.7,-0.3
iter: 354  00:51:10  -4.49  -3.21  -224.320695            -2.6,+0.6,-0.3
iter: 355  00:51:38  -4.13  -3.39  -224.245603            -2.3,+0.6,-0.2
iter: 356  00:52:07  -4.62  -3.28  -224.227845            -2.2,+0.6,-0.3
iter: 357  00:52:35  -4.25  -3.22  -224.313109            -2.5,+0.5,-0.1
iter: 358  00:53:04  -3.87  -3.24  -224.403079            -3.0,+0.5,-0.3
iter: 359  00:53:33  -3.48  -3.07  -224.190827            -2.0,+0.5,-0.3
iter: 360  00:54:01  -3.09  -3.15  -223.919109            -0.6,+0.5,-0.2
iter: 361  00:54:30  -3.12  -2.61  -224.237803            -2.1,+0.5,-0.2
iter: 362  00:54:58  -4.17  -3.12  -224.278132            -2.1,+0.5,+0.0
iter: 363  00:55:27  -3.67  -3.16  -224.232091            -2.3,+0.4,-0.6
iter: 364  00:55:56  -4.25  -3.06  -224.252554            -2.3,+0.4,-0.7
iter: 365  00:56:24  -4.01  -3.05  -224.334335            -2.7,+0.4,-0.7
iter: 366  00:56:53  -3.94  -3.29  -224.463367            -3.1,+0.3,-0.7
iter: 367  00:57:21  -3.54  -3.01  -224.233840            -2.3,+0.4,-0.7
iter: 368  00:57:50  -3.22  -3.26  -223.877716            -1.1,+0.3,-0.7
iter: 369  00:58:18  -3.24  -2.78  -224.251664            -2.3,+0.4,-0.7
iter: 370  00:58:47  -4.66  -3.29  -224.250509            -2.3,+0.3,-0.8
iter: 371  00:59:16  -3.74  -3.33  -224.324394            -2.8,+0.4,-0.6
iter: 372  00:59:44  -3.89  -3.25  -224.479895            -3.1,+0.3,-0.8
iter: 373  01:00:13  -3.51  -2.94  -224.246271            -2.3,+0.4,-0.5
iter: 374  01:00:41  -3.68  -3.18  -224.101903            -1.7,+0.4,-0.5
iter: 375  01:01:10  -3.04  -3.11  -224.580144            -3.4,+0.4,-0.5
iter: 376  01:01:39  -2.44  -2.72  -224.048277            -0.0,+0.3,-0.4
iter: 377  01:02:07  -2.75  -2.52  -224.242537            -2.3,+0.2,-0.4
iter: 378  01:02:36  -4.23  -3.18  -224.186262            -2.0,+0.2,-0.4
iter: 379  01:03:04  -4.55  -3.08  -224.216320            -2.2,+0.2,-0.4
iter: 380  01:03:33  -3.80  -3.14  -224.342024            -2.8,+0.3,-0.5
iter: 381  01:04:02  -3.84  -3.35  -224.213758            -2.2,+0.2,-0.5
iter: 382  01:04:30  -4.73  -3.13  -224.239232            -2.3,+0.2,-0.5
iter: 383  01:04:59  -4.15  -3.24  -224.348997            -2.8,+0.1,-0.4
iter: 384  01:05:28  -3.32  -3.30  -224.062995            -1.6,+0.1,-0.4
iter: 385  01:05:56  -2.77  -3.13  -225.049921            -4.1,-0.0,-0.4
iter: 386  01:06:25  -2.36  -2.50  -224.206406            -0.3,-0.1,-0.3
iter: 387  01:06:54  -2.95  -2.53  -224.253565            -2.3,-0.3,-0.4
iter: 388  01:07:22  -3.92  -3.34  -224.281077            -1.8,-0.5,-0.3
iter: 389  01:07:51  -4.15  -3.04  -224.228351            -1.8,-0.4,-0.3
iter: 390  01:08:20  -3.94  -3.29  -224.439445            -1.9,-0.8,-0.2
iter: 391  01:08:49  -4.13  -3.03  -224.455517            -2.3,-0.7,-0.1
iter: 392  01:09:17  -4.21  -3.00  -224.474531            -2.0,-0.8,+0.0
iter: 393  01:09:46  -3.89  -2.87  -224.704098            -2.3,-1.2,-0.1
iter: 394  01:10:15  -3.59  -2.74  -224.474067            -2.3,-0.6,+0.1
iter: 395  01:10:44  -3.20  -2.81  -224.199328            -2.6,+0.4,+0.2
iter: 396  01:11:12  -3.11  -2.87  -224.663652            -2.5,-0.9,+0.3
iter: 397  01:11:41  -3.94  -2.74  -224.780151            -2.9,-0.8,+0.5
iter: 398  01:12:10  -3.26  -2.64  -224.817906            -1.9,-1.5,+0.2
iter: 399  01:12:38  -3.06  -2.65  -224.323997            -1.8,-0.2,+0.5
iter: 400  01:13:07  -3.27  -2.97  -224.158754            -1.9,+0.7,+0.5
iter: 401  01:13:36  -3.44  -2.89  -224.455733            -2.0,-0.2,+0.8
iter: 402  01:14:05  -3.67  -2.95  -224.755740            -2.1,-0.4,+1.4
iter: 403  01:14:34  -3.62  -2.77  -224.508281            -2.0,-0.6,+0.7
iter: 404  01:15:02  -3.72  -2.94  -224.441140            -2.1,-0.7,+0.2
iter: 405  01:15:31  -3.84  -3.01  -224.406815            -2.0,-0.4,+0.5
iter: 406  01:16:00  -3.54  -3.05  -224.218476            -1.9,+0.2,+0.3
iter: 407  01:16:29  -3.49  -3.19  -224.543513            -1.9,-0.3,+1.0
iter: 408  01:16:57  -3.91  -2.91  -224.708042            -1.9,-0.6,+1.3
iter: 409  01:17:26  -3.70  -2.85  -224.786516            -1.9,-0.1,+1.7
iter: 410  01:17:55  -3.79  -2.66  -224.651499            -1.9,-0.4,+1.3
iter: 411  01:18:23  -3.87  -2.85  -224.584330            -1.9,-0.6,+1.0
iter: 412  01:18:52  -3.54  -2.88  -224.938524            -2.0,-0.4,+1.8
iter: 413  01:19:21  -2.99  -2.63  -224.292831            -1.9,-0.7,+0.3
iter: 414  01:19:49  -2.74  -2.89  -223.284374            -2.0,-0.5,-1.5
iter: 415  01:20:18  -2.61  -2.70  -224.882048            -2.0,-1.5,+0.9
iter: 416  01:20:46  -3.28  -2.70  -225.423593            -2.0,-1.9,+1.5
iter: 417  01:21:15  -3.35  -2.51  -224.848786            -2.0,-1.6,+0.6
iter: 418  01:21:44  -3.10  -2.76  -224.950954            -2.1,-2.1,-0.2
iter: 419  01:22:12  -2.96  -2.76  -225.142159            -2.1,-1.5,+1.3
iter: 420  01:22:41  -3.11  -2.75  -225.766904            -2.1,-2.9,+0.7
iter: 421  01:23:10  -2.56  -2.59  -225.293391            -2.2,-6.1,+0.7
iter: 422  01:23:39  -3.01  -2.50  -226.242281            -2.2,-3.9,+0.6
iter: 423  01:24:07  -3.84  -2.60  -226.205349            -2.2,-4.0,+0.7
iter: 424  01:24:36  -3.15  -2.66  -226.123336            -2.2,-4.0,+0.7
iter: 425  01:25:05  -4.04  -2.85  -226.112943            -2.2,-3.9,+0.7
iter: 426  01:25:33  -4.80  -3.03  -226.113463            -2.2,-3.9,+0.7
iter: 427  01:26:02  -4.62  -3.08  -226.114378            -2.2,-3.9,+0.7
iter: 428  01:26:31  -5.16  -3.19  -226.114783            -2.2,-3.8,+0.7
iter: 429  01:26:59  -4.31  -3.24  -226.113258            -2.2,-3.6,+0.7
iter: 430  01:27:28  -4.81  -3.58  -226.113883            -2.2,-3.5,+0.7
iter: 431  01:27:57  -4.93  -3.62  -226.115396            -2.2,-3.4,+0.7
iter: 432  01:28:26  -4.70  -3.66  -226.110738            -2.3,-3.3,+0.7
iter: 433  01:28:54  -4.07  -3.74  -226.121478            -2.0,-3.3,+0.7
iter: 434  01:29:23  -4.84  -3.79  -226.123608            -1.9,-3.3,+0.7
iter: 435  01:29:52  -4.68  -3.79  -226.122736            -1.9,-3.5,+0.7
iter: 436  01:30:20  -4.27  -3.94  -226.126249            -1.9,-3.1,+0.7
iter: 437  01:30:49  -5.09  -4.08  -226.127453            -1.9,-3.0,+0.7
iter: 438  01:31:18  -4.76  -4.11  -226.124722            -2.0,-3.0,+0.7
iter: 439  01:31:46  -3.43  -4.19  -226.136246            -1.5,-3.0,+0.7
iter: 440  01:32:15  -4.20  -3.98  -226.137044            -1.4,-3.0,+0.7
iter: 441  01:32:44  -5.29  -3.90  -226.136237            -1.4,-3.0,+0.7
iter: 442  01:33:12  -3.90  -3.92  -226.140409            -1.4,-2.2,+0.8
iter: 443  01:33:41  -5.28  -4.17  -226.142629            -1.4,-2.3,+0.8
iter: 444  01:34:10  -5.11  -4.30  -226.145427            -1.4,-2.4,+0.8
iter: 445  01:34:38  -5.37  -4.28  -226.147115            -1.4,-2.4,+0.8
iter: 446  01:35:07  -5.03  -4.20  -226.148541            -1.3,-2.4,+0.8
iter: 447  01:35:36  -6.04  -4.10  -226.148695            -1.3,-2.4,+0.8
iter: 448  01:36:04  -5.15  -4.14  -226.150288            -1.3,-2.3,+0.8
iter: 449  01:36:33  -6.01  -4.16  -226.150397            -1.3,-2.3,+0.8
iter: 450  01:37:02  -5.76  -4.13  -226.150967            -1.3,-2.2,+0.8
iter: 451  01:37:30  -6.00  -4.13  -226.151341            -1.3,-2.3,+0.8
iter: 452  01:37:59  -5.65  -4.18  -226.152105            -1.3,-2.2,+0.8
iter: 453  01:38:28  -5.99  -4.37  -226.151955            -1.3,-2.2,+0.8
iter: 454  01:38:56  -5.89  -4.36  -226.152651            -1.3,-2.2,+0.8
iter: 455  01:39:25  -4.47  -4.37  -226.152445            -1.3,-1.9,+0.8
iter: 456  01:39:53  -4.90  -4.19  -226.153430            -1.3,-2.1,+0.8
iter: 457  01:40:22  -5.94  -4.41  -226.153807            -1.3,-2.1,+0.7
iter: 458  01:40:51  -4.64  -4.59  -226.151595            -1.3,-2.1,+0.9
iter: 459  01:41:19  -4.18  -4.75  -226.144595            -1.2,-2.1,+0.7
iter: 460  01:41:48  -4.27  -4.06  -226.152117            -1.2,-2.1,+0.8
iter: 461  01:42:16  -5.13  -4.77  -226.153332            -1.2,-2.1,+0.8
iter: 462  01:42:45  -4.57  -4.93  -226.154591            -1.1,-2.1,+0.8
iter: 463  01:43:13  -5.71  -4.42  -226.155048            -1.1,-2.1,+0.8
iter: 464  01:43:42  -5.14  -4.52  -226.156391            -1.1,-2.0,+0.7
iter: 465  01:44:10  -4.70  -4.66  -226.158025            -1.1,-1.9,+0.5
iter: 466  01:44:39  -5.62  -4.72  -226.158180            -1.1,-1.9,+0.5
iter: 467  01:45:07  -5.89  -4.68  -226.157962            -1.1,-1.9,+0.5
iter: 468  01:45:36  -5.75  -4.63  -226.158024            -1.1,-1.9,+0.5
iter: 469  01:46:05  -6.21  -4.56  -226.158123            -1.1,-1.9,+0.5
iter: 470  01:46:33  -6.32  -4.45  -226.158489            -1.1,-1.9,+0.5
iter: 471  01:47:02  -5.23  -4.51  -226.159694            -1.1,-1.9,+0.5
iter: 472  01:47:31  -5.16  -4.60  -226.160145            -1.0,-1.9,+0.4
iter: 473  01:47:59  -6.41  -4.44  -226.160248            -1.0,-1.9,+0.4
iter: 474  01:48:28  -5.75  -4.55  -226.161350            -1.0,-1.8,+0.4
iter: 475  01:48:57  -5.58  -4.88  -226.161927            -1.0,-1.7,+0.4
iter: 476  01:49:25  -6.59  -4.62  -226.162075            -1.0,-1.7,+0.4
iter: 477  01:49:54  -5.15  -4.65  -226.163249            -1.0,-1.7,+0.4
iter: 478  01:50:23  -5.50  -4.69  -226.163467            -1.0,-1.7,+0.4
iter: 479  01:50:52  -6.53  -4.60  -226.163603            -1.0,-1.7,+0.4
iter: 480  01:51:20  -4.87  -4.69  -226.158801            -1.0,-1.9,+0.4
iter: 481  01:51:49  -4.54  -4.32  -226.164829            -1.0,-1.6,+0.4
iter: 482  01:52:18  -5.89  -4.58  -226.164968            -1.0,-1.6,+0.4
iter: 483  01:52:46  -6.03  -4.57  -226.165423            -1.0,-1.6,+0.4
iter: 484  01:53:15  -5.75  -4.59  -226.165863            -1.0,-1.6,+0.4
iter: 485  01:53:43  -6.34  -4.60  -226.165919            -1.0,-1.6,+0.4
iter: 486  01:54:12  -5.89  -4.68  -226.166445            -1.0,-1.6,+0.4
iter: 487  01:54:40  -5.90  -4.73  -226.166518            -1.0,-1.5,+0.4
iter: 488  01:55:09  -6.10  -4.53  -226.166933            -1.0,-1.5,+0.4
iter: 489  01:55:38  -5.31  -4.61  -226.167654            -0.9,-1.5,+0.4
iter: 490  01:56:06  -5.67  -4.83  -226.167500            -0.9,-1.5,+0.4
iter: 491  01:56:35  -6.21  -4.78  -226.168056            -0.9,-1.5,+0.3
iter: 492  01:57:03  -5.53  -4.97  -226.168945            -0.9,-1.5,+0.3
iter: 493  01:57:32  -5.67  -4.74  -226.169063            -0.9,-1.4,+0.3
iter: 494  01:58:00  -6.19  -4.49  -226.169421            -0.9,-1.4,+0.3
iter: 495  01:58:29  -5.43  -4.64  -226.170048            -0.9,-1.4,+0.3
iter: 496  01:58:58  -5.80  -4.78  -226.169901            -0.9,-1.4,+0.3
iter: 497  01:59:26  -6.17  -4.89  -226.170409            -0.9,-1.4,+0.3
iter: 498  01:59:55  -5.50  -4.85  -226.171165            -0.9,-1.4,+0.2
iter: 499  02:00:23  -5.72  -4.59  -226.171225            -0.9,-1.3,+0.2
iter: 500  02:00:52  -6.23  -4.44  -226.171553            -0.9,-1.3,+0.2
iter: 501  02:01:21  -5.55  -4.63  -226.172071            -0.8,-1.3,+0.2
iter: 502  02:01:49  -5.92  -4.66  -226.171939            -0.8,-1.3,+0.2
iter: 503  02:02:18  -6.14  -4.82  -226.172386            -0.8,-1.3,+0.2
iter: 504  02:02:47  -5.48  -4.76  -226.173022            -0.8,-1.3,+0.1
iter: 505  02:03:15  -5.74  -4.57  -226.173054            -0.8,-1.2,+0.1
iter: 506  02:03:44  -6.25  -4.42  -226.173358            -0.8,-1.2,+0.1
iter: 507  02:04:12  -5.64  -4.43  -226.173791            -0.8,-1.2,+0.1
iter: 508  02:04:41  -5.96  -4.39  -226.173675            -0.8,-1.2,+0.1
iter: 509  02:05:10  -6.04  -4.42  -226.174080            -0.8,-1.2,+0.1
iter: 510  02:05:38  -5.46  -4.85  -226.174604            -0.8,-1.2,+0.0
iter: 511  02:06:07  -5.79  -4.58  -226.174593            -0.8,-1.2,-0.0
iter: 512  02:06:36  -6.24  -4.58  -226.174890            -0.8,-1.2,-0.0
iter: 513  02:07:04  -5.80  -4.89  -226.175238            -0.7,-1.2,-0.0
iter: 514  02:07:33  -6.14  -4.79  -226.175120            -0.7,-1.2,-0.0
iter: 515  02:08:02  -5.94  -4.51  -226.175495            -0.7,-1.2,-0.0
iter: 516  02:08:30  -5.52  -4.64  -226.175931            -0.7,-1.1,-0.1
iter: 517  02:08:59  -5.74  -4.42  -226.175906            -0.7,-1.1,-0.1
iter: 518  02:09:28  -6.22  -4.59  -226.176187            -0.7,-1.1,-0.1
iter: 519  02:09:56  -5.79  -4.32  -226.176481            -0.7,-1.1,-0.1
iter: 520  02:10:25  -6.21  -4.61  -226.176383            -0.7,-1.1,-0.1
iter: 521  02:10:54  -5.91  -5.28  -226.176715            -0.7,-1.1,-0.1
iter: 522  02:11:22  -5.50  -4.77  -226.177065            -0.7,-1.1,-0.2
iter: 523  02:11:51  -6.04  -4.88  -226.177062            -0.7,-1.1,-0.2
iter: 524  02:12:20  -6.34  -4.44  -226.177279            -0.7,-1.1,-0.2
iter: 525  02:12:48  -5.90  -4.72  -226.177511            -0.7,-1.1,-0.2
iter: 526  02:13:17  -6.51  -5.53  -226.177426            -0.6,-1.1,-0.2
iter: 527  02:13:46  -5.93  -5.13  -226.177741            -0.6,-1.0,-0.2
iter: 528  02:14:14  -5.49  -5.35  -226.178058            -0.6,-1.0,-0.2
iter: 529  02:14:43  -6.11  -4.87  -226.178043            -0.6,-1.0,-0.2
iter: 530  02:15:12  -6.33  -4.73  -226.178258            -0.6,-1.0,-0.2
iter: 531  02:15:41  -6.01  -4.93  -226.178450            -0.6,-1.0,-0.2
iter: 532  02:16:09  -6.57  -5.24  -226.178369            -0.6,-1.0,-0.2
iter: 533  02:16:38  -5.87  -5.31  -226.178667            -0.6,-1.0,-0.2
iter: 534  02:17:07  -5.51  -5.17  -226.178945            -0.6,-1.0,-0.2
iter: 535  02:17:35  -6.18  -4.79  -226.178931            -0.6,-1.0,-0.2
iter: 536  02:18:04  -6.33  -4.68  -226.179132            -0.6,-1.0,-0.2
iter: 537  02:18:33  -6.12  -4.90  -226.179288            -0.6,-1.0,-0.2
iter: 538  02:19:01  -6.64  -5.09  -226.179208            -0.6,-1.0,-0.2
iter: 539  02:19:30  -5.80  -5.23  -226.179502            -0.6,-0.9,-0.2
iter: 540  02:19:59  -5.50  -5.14  -226.179756            -0.6,-0.9,-0.2
iter: 541  02:20:28  -6.20  -4.83  -226.179745            -0.6,-0.9,-0.2
iter: 542  02:20:56  -6.32  -4.72  -226.179930            -0.6,-0.9,-0.2
iter: 543  02:21:25  -6.19  -4.90  -226.180061            -0.6,-0.9,-0.2
iter: 544  02:21:54  -6.68  -5.15  -226.179983            -0.6,-0.9,-0.2
iter: 545  02:22:22  -5.66  -5.22  -226.180286            -0.6,-0.9,-0.2
iter: 546  02:22:51  -5.49  -4.93  -226.180522            -0.6,-0.9,-0.2
iter: 547  02:23:20  -6.19  -4.73  -226.180518            -0.6,-0.9,-0.2
iter: 548  02:23:49  -6.36  -4.63  -226.180677            -0.5,-0.9,-0.2
iter: 549  02:24:17  -6.24  -4.98  -226.180795            -0.5,-0.9,-0.2
iter: 550  02:24:46  -6.65  -5.48  -226.180718            -0.5,-0.9,-0.2
iter: 551  02:25:15  -5.53  -5.34  -226.181024            -0.5,-0.8,-0.2
iter: 552  02:25:43  -5.33  -5.21  -226.181278            -0.5,-0.8,-0.2
iter: 553  02:26:12  -6.07  -4.92  -226.181287            -0.5,-0.8,-0.2
iter: 554  02:26:41  -6.35  -4.81  -226.181421            -0.5,-0.8,-0.2
iter: 555  02:27:09  -6.28  -4.97  -226.181530            -0.5,-0.8,-0.2
iter: 556  02:27:38  -6.55  -5.29  -226.181456            -0.5,-0.8,-0.2
iter: 557  02:28:07  -5.35  -5.33  -226.181769            -0.5,-0.8,-0.2
iter: 558  02:28:36  -5.06  -5.42  -226.182080            -0.5,-0.8,-0.1
iter: 559  02:29:04  -5.79  -4.98  -226.182120            -0.5,-0.7,-0.1
iter: 560  02:29:33  -6.33  -4.83  -226.182214            -0.5,-0.8,-0.1
iter: 561  02:30:01  -6.26  -5.06  -226.182328            -0.5,-0.8,-0.1
iter: 562  02:30:30  -6.38  -5.47  -226.182269            -0.5,-0.8,-0.1
iter: 563  02:30:59  -5.12  -5.33  -226.182550            -0.5,-0.7,-0.1
iter: 564  02:31:28  -4.73  -5.37  -226.182882            -0.5,-0.7,-0.0
iter: 565  02:31:56  -5.76  -4.91  -226.182628            -0.5,-0.7,-0.0
iter: 566  02:32:25  -5.14  -4.68  -226.183129            -0.5,-0.7,-0.0
iter: 567  02:32:54  -6.56  -4.95  -226.183156            -0.5,-0.7,-0.0
iter: 568  02:33:22  -6.00  -4.99  -226.183248            -0.4,-0.7,-0.0
iter: 569  02:33:51  -6.62  -4.91  -226.183245            -0.4,-0.7,-0.0
iter: 570  02:34:20  -6.92  -5.12  -226.183286            -0.4,-0.7,-0.0
iter: 571  02:34:48  -6.44  -5.17  -226.183373            -0.4,-0.6,+0.0
iter: 572  02:35:17  -7.00  -5.04  -226.183350            -0.4,-0.6,+0.0
iter: 573  02:35:46  -6.98  -4.95  -226.183437            -0.4,-0.6,+0.0
iter: 574  02:36:14  -6.66  -5.01  -226.183508            -0.4,-0.6,+0.0
iter: 575  02:36:43  -7.04  -5.12  -226.183487            -0.4,-0.6,+0.0
iter: 576  02:37:12  -7.04  -4.96  -226.183574            -0.4,-0.6,+0.0
iter: 577  02:37:40  -6.63  -5.28  -226.183655            -0.4,-0.6,+0.0
iter: 578  02:38:09  -6.90  -5.05  -226.183646            -0.4,-0.6,+0.0
iter: 579  02:38:38  -7.00  -5.26  -226.183722            -0.4,-0.6,+0.0
iter: 580  02:39:06  -6.62  -5.53  -226.183791            -0.4,-0.6,+0.0
iter: 581  02:39:35  -7.18  -5.23  -226.183767            -0.4,-0.6,+0.0
iter: 582  02:40:04  -6.92  -4.98  -226.183854            -0.4,-0.6,+0.0
iter: 583  02:40:32  -6.43  -5.26  -226.183944            -0.4,-0.6,+0.0
iter: 584  02:41:01  -6.86  -5.52  -226.183942            -0.4,-0.6,+0.0
iter: 585  02:41:30  -6.98  -5.31  -226.184011            -0.4,-0.6,+0.0
iter: 586  02:41:58  -6.64  -5.66  -226.184073            -0.4,-0.6,+0.0
iter: 587  02:42:27  -7.22  -5.18  -226.184046            -0.4,-0.6,+0.0
iter: 588  02:42:56  -6.67  -5.02  -226.184141            -0.4,-0.5,+0.0
iter: 589  02:43:24  -6.24  -5.30  -226.184237            -0.4,-0.5,+0.0
iter: 590  02:43:53  -6.72  -5.67  -226.184242            -0.4,-0.5,+0.0
iter: 591  02:44:22  -6.96  -5.41  -226.184302            -0.4,-0.5,+0.0
iter: 592  02:44:51  -6.67  -5.77  -226.184358            -0.4,-0.5,+0.0
iter: 593  02:45:19  -7.22  -5.20  -226.184330            -0.4,-0.5,+0.0
iter: 594  02:45:48  -6.41  -5.02  -226.184432            -0.4,-0.5,+0.1
iter: 595  02:46:17  -6.05  -5.31  -226.184536            -0.4,-0.5,+0.1
iter: 596  02:46:45  -6.56  -5.95  -226.184547            -0.4,-0.5,+0.1
iter: 597  02:47:14  -6.94  -5.47  -226.184599            -0.4,-0.5,+0.1
iter: 598  02:47:43  -6.70  -5.70  -226.184649            -0.3,-0.5,+0.1
iter: 599  02:48:11  -7.15  -5.20  -226.184619            -0.3,-0.5,+0.1
iter: 600  02:48:40  -6.17  -5.03  -226.184732            -0.3,-0.5,+0.1
iter: 601  02:49:09  -5.85  -5.35  -226.184845            -0.3,-0.4,+0.1
iter: 602  02:49:37  -6.40  -5.78  -226.184863            -0.3,-0.4,+0.1
iter: 603  02:50:06  -6.90  -5.44  -226.184908            -0.3,-0.4,+0.1
iter: 604  02:50:35  -6.73  -5.64  -226.184954            -0.3,-0.4,+0.1
iter: 605  02:51:03  -7.01  -5.21  -226.184920            -0.3,-0.4,+0.1
iter: 606  02:51:32  -5.93  -5.05  -226.185047            -0.3,-0.4,+0.1
iter: 607  02:52:01  -5.69  -5.37  -226.185166            -0.3,-0.4,+0.1
iter: 608  02:52:30  -6.28  -5.61  -226.185188            -0.3,-0.4,+0.1
iter: 609  02:52:58  -6.83  -5.38  -226.185224            -0.3,-0.4,+0.1
iter: 610  02:53:27  -6.72  -5.54  -226.185271            -0.3,-0.4,+0.1
iter: 611  02:53:56  -6.85  -5.21  -226.185236            -0.3,-0.4,+0.1
iter: 612  02:54:25  -5.60  -5.09  -226.185389            -0.3,-0.4,+0.1
iter: 613  02:54:53  -5.25  -5.32  -226.185567            -0.3,-0.4,+0.1
iter: 614  02:55:22  -5.89  -5.43  -226.185614            -0.3,-0.4,+0.1
iter: 615  02:55:51  -6.64  -5.38  -226.185613            -0.3,-0.4,+0.1
iter: 616  02:56:19  -6.59  -5.29  -226.185675            -0.3,-0.4,+0.1
iter: 617  02:56:48  -7.32  -5.31  -226.185690            -0.3,-0.4,+0.1
iter: 618  02:57:17  -6.86  -5.26  -226.185699            -0.3,-0.3,+0.1
iter: 619  02:57:45  -7.20  -5.37  -226.185733            -0.3,-0.3,+0.1
iter: 620  02:58:14  -7.19  -5.47  -226.185761            -0.3,-0.3,+0.1
iter: 621  02:58:43  -6.96  -5.37  -226.185710            -0.3,-0.3,+0.1
iter: 622  02:59:12  -6.92  -4.96  -226.185792            -0.3,-0.3,+0.1
iter: 623  02:59:40  -7.04  -5.39  -226.185827            -0.3,-0.3,+0.1
iter: 624  03:00:09  -6.72  -5.47  -226.185804            -0.3,-0.3,+0.1
iter: 625  03:00:38  -6.88  -5.18  -226.185862            -0.3,-0.3,+0.1
iter: 626  03:01:06  -7.04  -5.55  -226.185893            -0.3,-0.3,+0.1
iter: 627  03:01:35  -6.85  -5.42  -226.185838            -0.3,-0.3,+0.1
iter: 628  03:02:04  -6.51  -5.02  -226.185932            -0.3,-0.3,+0.1
iter: 629  03:02:33  -6.61  -5.48  -226.185978            -0.3,-0.3,+0.1
iter: 630  03:03:01  -6.47  -5.70  -226.185972            -0.3,-0.3,+0.1
iter: 631  03:03:30  -6.74  -5.21  -226.186016            -0.3,-0.3,+0.1
iter: 632  03:03:59  -6.99  -5.69  -226.186049            -0.3,-0.3,+0.1
iter: 633  03:04:28  -6.66  -5.47  -226.185988            -0.3,-0.3,+0.1
iter: 634  03:04:56  -6.17  -5.06  -226.186096            -0.3,-0.3,+0.1
iter: 635  03:05:25  -6.34  -5.52  -226.186149            -0.3,-0.3,+0.1
iter: 636  03:05:54  -6.28  -5.81  -226.186157            -0.3,-0.3,+0.1
iter: 637  03:06:23  -6.60  -5.25  -226.186189            -0.2,-0.3,+0.1
iter: 638  03:06:51  -6.93  -5.85  -226.186222            -0.2,-0.3,+0.1
iter: 639  03:07:20  -6.46  -5.51  -226.186155            -0.2,-0.3,+0.1
iter: 640  03:07:49  -5.93  -5.08  -226.186276            -0.2,-0.3,+0.1
iter: 641  03:08:18  -6.16  -5.65  -226.186334            -0.2,-0.3,+0.1
iter: 642  03:08:47  -6.22  -5.95  -226.186345            -0.2,-0.3,+0.1
iter: 643  03:09:16  -6.53  -5.26  -226.186371            -0.2,-0.3,+0.1
iter: 644  03:09:45  -6.92  -5.81  -226.186403            -0.2,-0.3,+0.1
iter: 645  03:10:13  -6.43  -5.49  -226.186341            -0.2,-0.3,+0.1
iter: 646  03:10:42  -5.85  -5.11  -226.186459            -0.2,-0.3,+0.1
iter: 647  03:11:11  -6.15  -5.65  -226.186512            -0.2,-0.3,+0.1
iter: 648  03:11:40  -6.46  -5.76  -226.186507            -0.2,-0.3,+0.1
iter: 649  03:12:09  -6.67  -5.26  -226.186540            -0.2,-0.3,+0.1
iter: 650  03:12:38  -7.00  -5.72  -226.186568            -0.2,-0.3,+0.1
iter: 651  03:13:07  -6.79  -5.48  -226.186530            -0.2,-0.3,+0.1
iter: 652  03:13:36  -6.19  -5.14  -226.186607            -0.2,-0.3,+0.1
iter: 653  03:14:04  -6.57  -5.61  -226.186634            -0.2,-0.3,+0.1
iter: 654  03:14:33  -7.19  -5.55  -226.186604            -0.2,-0.3,+0.1
iter: 655  03:15:02  -6.79  -5.20  -226.186668            -0.2,-0.2,+0.1
iter: 656  03:15:31  -7.13  -5.74  -226.186690            -0.2,-0.2,+0.1
iter: 657  03:16:00  -7.03  -5.52  -226.186678            -0.2,-0.2,+0.1
iter: 658  03:16:29  -6.61  -5.15  -226.186717            -0.2,-0.2,+0.0
iter: 659  03:16:58  -6.91  -5.70  -226.186738            -0.2,-0.2,+0.0
iter: 660  03:17:26  -7.12  -5.67  -226.186711            -0.2,-0.2,+0.0
iter: 661  03:17:55  -6.67  -5.32  -226.186769            -0.2,-0.2,+0.0
iter: 662  03:18:24  -7.27  -5.62  -226.186783            -0.2,-0.2,+0.0
iter: 663  03:18:53  -7.17  -5.45  -226.186761            -0.2,-0.2,+0.0
iter: 664  03:19:22  -6.35  -5.26  -226.186815            -0.2,-0.2,+0.0
iter: 665  03:19:51  -7.23  -5.65  -226.186825            -0.2,-0.2,+0.0
iter: 666  03:20:19  -7.44  -5.65  -226.186816            -0.2,-0.2,+0.0
iter: 667  03:20:48  -6.94  -5.40  -226.186854            -0.2,-0.2,+0.0
iter: 668  03:21:17  -7.68  -5.49  -226.186862            -0.2,-0.2,+0.0
iter: 669  03:21:46  -6.81  -5.47  -226.186796            -0.2,-0.2,+0.0
iter: 670  03:22:15  -6.34  -5.15  -226.186891            -0.2,-0.2,+0.0
iter: 671  03:22:44  -6.98  -5.46  -226.186909            -0.2,-0.2,+0.0
iter: 672  03:23:12  -6.62  -5.58  -226.186887            -0.2,-0.2,+0.0
iter: 673  03:23:41  -6.73  -5.18  -226.186925            -0.2,-0.2,+0.0
iter: 674  03:24:10  -7.19  -5.69  -226.186943            -0.2,-0.2,+0.0
iter: 675  03:24:39  -7.11  -5.51  -226.186917            -0.2,-0.2,+0.0
iter: 676  03:25:08  -6.58  -5.19  -226.186965            -0.2,-0.2,+0.0
iter: 677  03:25:37  -6.94  -5.57  -226.186983            -0.2,-0.2,+0.0
iter: 678  03:26:06  -7.21  -5.74  -226.186963            -0.2,-0.2,+0.0
iter: 679  03:26:35  -7.00  -5.23  -226.187003            -0.2,-0.2,+0.0
iter: 680  03:27:03  -7.15  -6.07  -226.187024            -0.2,-0.2,+0.0
iter: 681  03:27:32  -6.76  -5.73  -226.187025            -0.2,-0.2,+0.0
iter: 682  03:28:01  -6.96  -5.12  -226.187044            -0.2,-0.2,+0.0
iter: 683  03:28:30  -7.09  -5.55  -226.187064            -0.2,-0.2,+0.0
iter: 684  03:28:59  -7.22  -5.76  -226.187068            -0.2,-0.2,+0.0
iter: 685  03:29:28  -7.41  -5.60  -226.187084            -0.2,-0.2,+0.0
iter: 686  03:29:57  -7.39  -5.70  -226.187097            -0.1,-0.2,+0.0
iter: 687  03:30:26  -7.45  -5.56  -226.187090            -0.1,-0.2,+0.0
iter: 688  03:30:55  -7.01  -5.30  -226.187116            -0.1,-0.2,+0.0
iter: 689  03:31:24  -6.87  -5.57  -226.187137            -0.1,-0.2,+0.0
iter: 690  03:31:53  -7.48  -5.73  -226.187128            -0.1,-0.2,+0.0
iter: 691  03:32:22  -7.18  -5.43  -226.187154            -0.1,-0.2,+0.0
iter: 692  03:32:51  -7.03  -5.78  -226.187175            -0.1,-0.2,+0.0
iter: 693  03:33:20  -7.10  -5.47  -226.187176            -0.1,-0.2,+0.0
iter: 694  03:33:49  -7.21  -5.16  -226.187191            -0.1,-0.2,+0.0
iter: 695  03:34:18  -6.91  -5.47  -226.187209            -0.1,-0.2,+0.0
iter: 696  03:34:47  -7.47  -5.69  -226.187204            -0.1,-0.2,+0.0
iter: 697  03:35:16  -6.91  -5.58  -226.187230            -0.1,-0.2,+0.0
iter: 698  03:35:44  -6.63  -5.78  -226.187256            -0.1,-0.1,+0.0
iter: 699  03:36:13  -7.55  -5.28  -226.187255            -0.1,-0.1,+0.0
iter: 700  03:36:42  -7.22  -5.18  -226.187275            -0.1,-0.1,+0.0
iter: 701  03:37:11  -7.11  -5.43  -226.187288            -0.1,-0.1,+0.0
iter: 702  03:37:40  -7.79  -5.47  -226.187284            -0.1,-0.1,+0.0
iter: 703  03:38:09  -7.54  -5.64  -226.187302            -0.1,-0.1,+0.0
iter: 704  03:38:38  -7.06  -5.78  -226.187320            -0.1,-0.1,+0.0
iter: 705  03:39:07  -7.50  -5.39  -226.187323            -0.1,-0.1,+0.0
iter: 706  03:39:36  -7.57  -5.23  -226.187333            -0.1,-0.1,+0.0
iter: 707  03:40:05  -6.90  -5.30  -226.187346            -0.1,-0.1,+0.0
iter: 708  03:40:34  -8.08  -5.52  -226.187350            -0.1,-0.1,+0.0
iter: 709  03:41:02  -7.10  -5.78  -226.187364            -0.1,-0.1,+0.0
iter: 710  03:41:31  -7.73  -5.42  -226.187367            -0.1,-0.1,+0.0
iter: 711  03:42:00  -7.07  -5.35  -226.187373            -0.1,-0.1,+0.0
iter: 712  03:42:29  -7.69  -5.28  -226.187374            -0.1,-0.1,+0.0
iter: 713  03:42:58  -7.72  -5.16  -226.187380            -0.1,-0.1,+0.0
iter: 714  03:43:27  -7.53  -5.32  -226.187390            -0.1,-0.1,+0.0
iter: 715  03:43:55  -7.46  -5.58  -226.187385            -0.1,-0.1,+0.0
iter: 716  03:44:24  -7.12  -5.40  -226.187398            -0.1,-0.1,+0.0
iter: 717  03:44:53  -7.40  -5.69  -226.187407            -0.1,-0.1,+0.0
iter: 718  03:45:22  -6.98  -5.67  -226.187398            -0.1,-0.1,+0.0
iter: 719  03:45:51  -7.17  -5.23  -226.187421            -0.1,-0.1,+0.0
iter: 720  03:46:19  -7.12  -5.53  -226.187439            -0.1,-0.1,+0.0
iter: 721  03:46:48  -6.95  -5.71  -226.187439            -0.1,-0.1,+0.0
iter: 722  03:47:17  -7.07  -5.34  -226.187451            -0.1,-0.1,+0.0
iter: 723  03:47:46  -6.93  -5.79  -226.187468            -0.1,-0.1,+0.0
iter: 724  03:48:14  -6.86  -5.55  -226.187464            -0.1,-0.1,+0.0
iter: 725  03:48:43  -7.32  -5.10  -226.187482            -0.1,-0.1,+0.0
iter: 726  03:49:12  -7.10  -5.43  -226.187499            -0.1,-0.1,+0.0
iter: 727  03:49:40  -7.17  -5.73  -226.187493            -0.1,-0.1,+0.0
iter: 728  03:50:09  -7.10  -5.35  -226.187511            -0.1,-0.1,+0.0
iter: 729  03:50:38  -6.76  -5.82  -226.187530            -0.1,-0.1,+0.0
iter: 730  03:51:07  -6.91  -5.46  -226.187526            -0.1,-0.1,+0.0
iter: 731  03:51:35  -7.29  -5.12  -226.187543            -0.1,-0.1,+0.0
iter: 732  03:52:04  -7.07  -5.43  -226.187560            -0.1,-0.1,+0.0
iter: 733  03:52:33  -7.18  -6.10  -226.187554            -0.1,-0.1,+0.0
iter: 734  03:53:01  -7.10  -5.43  -226.187573            -0.1,-0.1,+0.0
iter: 735  03:53:30  -6.78  -6.32  -226.187590            -0.1,-0.1,+0.0
iter: 736  03:53:59  -6.96  -5.49  -226.187585            -0.1,-0.1,+0.0
iter: 737  03:54:28  -7.31  -5.13  -226.187603            -0.1,-0.1,+0.0
iter: 738  03:54:56  -7.08  -5.45  -226.187619            -0.1,-0.1,+0.0
iter: 739  03:55:25  -7.25  -6.16  -226.187612            -0.1,-0.1,+0.0
iter: 740  03:55:54  -7.09  -5.45  -226.187631            -0.1,-0.1,+0.0
iter: 741  03:56:22  -6.80  -6.37  -226.187647            -0.1,-0.1,+0.0
iter: 742  03:56:51  -7.05  -5.48  -226.187642            -0.1,-0.1,+0.0
iter: 743  03:57:20  -7.32  -5.15  -226.187659            -0.1,-0.1,+0.0
iter: 744  03:57:49  -7.10  -5.48  -226.187674            -0.1,-0.1,+0.0
iter: 745  03:58:17  -7.32  -6.32  -226.187667            -0.1,-0.1,+0.0
iter: 746  03:58:46  -7.09  -5.47  -226.187685            -0.1,-0.1,+0.0
iter: 747  03:59:15  -6.82  -6.28  -226.187701            -0.1,-0.1,+0.0
iter: 748  03:59:43  -7.14  -5.46  -226.187695            -0.1,-0.1,+0.0
iter: 749  04:00:12  -7.33  -5.16  -226.187712            -0.1,-0.1,+0.0
iter: 750  04:00:41  -7.12  -5.50  -226.187726            -0.1,-0.1,+0.0
iter: 751  04:01:10  -7.39  -6.43  -226.187719            -0.1,-0.1,-0.0
iter: 752  04:01:38  -7.09  -5.49  -226.187737            -0.1,-0.1,+0.0
iter: 753  04:02:07  -6.85  -6.19  -226.187751            -0.1,-0.1,-0.0
iter: 754  04:02:36  -7.22  -5.45  -226.187746            -0.1,-0.1,+0.0
iter: 755  04:03:04  -7.33  -5.17  -226.187762            -0.1,-0.1,-0.0
iter: 756  04:03:33  -7.14  -5.52  -226.187775            -0.1,-0.1,-0.0
iter: 757  04:04:02  -7.46  -6.40  -226.187769            -0.1,-0.1,-0.0
iter: 758  04:04:31  -7.09  -5.50  -226.187786            -0.1,-0.1,-0.0
iter: 759  04:04:59  -6.87  -6.07  -226.187799            -0.0,-0.1,-0.0
iter: 760  04:05:28  -7.30  -5.44  -226.187794            -0.0,-0.1,-0.0
iter: 761  04:05:57  -7.33  -5.18  -226.187810            -0.0,-0.1,-0.0
iter: 762  04:06:25  -7.17  -5.54  -226.187822            -0.0,-0.1,-0.0
iter: 763  04:06:54  -7.51  -6.21  -226.187816            -0.0,-0.1,-0.0
iter: 764  04:07:23  -7.09  -5.53  -226.187833            -0.0,-0.1,-0.0
iter: 765  04:07:51  -6.89  -5.97  -226.187845            -0.0,-0.1,-0.0
iter: 766  04:08:20  -7.36  -5.42  -226.187839            -0.0,-0.1,-0.0
iter: 767  04:08:49  -7.34  -5.18  -226.187855            -0.0,-0.1,-0.0
iter: 768  04:09:17  -7.19  -5.55  -226.187866            -0.0,-0.1,-0.0
iter: 769  04:09:46  -7.55  -6.09  -226.187860            -0.0,-0.1,-0.0
iter: 770  04:10:15  -7.09  -5.54  -226.187877            -0.0,-0.1,-0.0
iter: 771  04:10:43  -6.92  -5.92  -226.187888            -0.0,-0.1,-0.0
iter: 772  04:11:12  -7.42  -5.41  -226.187883            -0.0,-0.1,-0.0
iter: 773  04:11:41  -7.35  -5.19  -226.187899            -0.0,-0.1,-0.0
iter: 774  04:12:10  -7.22  -5.56  -226.187909            -0.0,-0.1,-0.0
iter: 775  04:12:38  -7.62  -6.10  -226.187903            -0.0,-0.1,-0.0
iter: 776  04:13:07  -7.09  -5.54  -226.187919            -0.0,-0.1,-0.0
iter: 777  04:13:36  -6.95  -5.88  -226.187930            -0.0,-0.1,-0.0
iter: 778  04:14:04  -7.49  -5.41  -226.187925            -0.0,-0.1,-0.0
iter: 779  04:14:33  -7.35  -5.20  -226.187940            -0.0,-0.1,-0.0
iter: 780  04:15:02  -7.25  -5.58  -226.187949            -0.0,-0.1,-0.0
iter: 781  04:15:30  -7.65  -6.02  -226.187944            -0.0,-0.1,-0.0
iter: 782  04:15:59  -7.10  -5.56  -226.187960            -0.0,-0.1,-0.0
iter: 783  04:16:28  -6.97  -5.84  -226.187969            -0.0,-0.1,-0.0
iter: 784  04:16:57  -7.53  -5.40  -226.187964            -0.0,-0.1,-0.0
iter: 785  04:17:25  -7.36  -5.21  -226.187979            -0.0,-0.1,-0.0
iter: 786  04:17:54  -7.24  -5.59  -226.187988            -0.0,-0.1,-0.0
iter: 787  04:18:23  -7.73  -6.01  -226.187983            -0.0,-0.1,-0.0
iter: 788  04:18:52  -7.10  -5.56  -226.187999            -0.0,-0.1,-0.0
iter: 789  04:19:21  -7.01  -5.84  -226.188007            -0.0,-0.0,-0.0
iter: 790  04:19:49  -7.64  -5.43  -226.188003            -0.0,-0.0,-0.0
iter: 791  04:20:18  -7.36  -5.23  -226.188017            -0.0,-0.0,-0.0
iter: 792  04:20:47  -7.32  -5.63  -226.188025            -0.0,-0.0,-0.0
iter: 793  04:21:16  -7.81  -5.95  -226.188020            -0.0,-0.0,-0.0
iter: 794  04:21:44  -7.11  -5.60  -226.188035            -0.0,-0.0,-0.0
iter: 795  04:22:13  -7.03  -5.85  -226.188043            -0.0,-0.0,-0.0
iter: 796  04:22:42  -7.71  -5.40  -226.188039            -0.0,-0.0,-0.0
iter: 797  04:23:11  -7.36  -5.24  -226.188053            -0.0,-0.0,-0.0
iter: 798  04:23:39  -7.32  -5.65  -226.188060            -0.0,-0.0,-0.0
iter: 799  04:24:08  -7.89  -6.16  -226.188056            -0.0,-0.0,-0.0
iter: 800  04:24:37  -7.11  -5.62  -226.188071            -0.0,-0.0,-0.0
iter: 801  04:25:06  -7.07  -5.89  -226.188078            -0.0,-0.0,-0.0
iter: 802  04:25:35  -7.76  -5.43  -226.188074            -0.0,-0.0,-0.0
iter: 803  04:26:03  -7.37  -5.26  -226.188088            -0.0,-0.0,-0.0
iter: 804  04:26:32  -7.34  -5.71  -226.188094            -0.0,-0.0,-0.0
iter: 805  04:27:01  -7.93  -6.12  -226.188090            -0.0,-0.0,-0.0
iter: 806  04:27:30  -7.12  -5.62  -226.188104            -0.0,-0.0,-0.0
iter: 807  04:27:59  -7.09  -5.90  -226.188111            -0.0,-0.0,-0.0
iter: 808  04:28:27  -7.82  -5.43  -226.188108            -0.0,-0.0,-0.0
iter: 809  04:28:56  -7.37  -5.27  -226.188121            -0.0,-0.0,-0.0
iter: 810  04:29:25  -7.37  -5.73  -226.188127            -0.0,-0.0,-0.0
iter: 811  04:29:54  -7.99  -6.15  -226.188123            -0.0,-0.0,-0.0
iter: 812  04:30:22  -7.13  -5.64  -226.188137            -0.0,-0.0,-0.0
iter: 813  04:30:51  -7.12  -5.90  -226.188143            -0.0,-0.0,-0.0
iter: 814  04:31:20  -7.87  -5.44  -226.188140            -0.0,-0.0,-0.0
iter: 815  04:31:49  -7.39  -5.28  -226.188153            -0.0,-0.0,-0.0
iter: 816  04:32:18  -7.39  -5.76  -226.188159            -0.0,-0.0,-0.0
iter: 817  04:32:46  -8.04  -6.10  -226.188155            -0.0,-0.0,-0.0
iter: 818  04:33:15  -7.14  -5.64  -226.188168            -0.0,-0.0,-0.0
iter: 819  04:33:44  -7.14  -5.88  -226.188174            -0.0,-0.0,-0.0
iter: 820  04:34:12  -7.92  -5.43  -226.188171            -0.0,-0.0,-0.0
iter: 821  04:34:41  -7.39  -5.29  -226.188184            -0.0,-0.0,-0.0
iter: 822  04:35:10  -7.41  -5.77  -226.188189            -0.0,-0.0,-0.0
iter: 823  04:35:38  -8.09  -6.13  -226.188186            -0.0,-0.0,-0.0
iter: 824  04:36:07  -7.16  -5.67  -226.188199            -0.0,-0.0,-0.0
iter: 825  04:36:36  -7.18  -5.88  -226.188204            -0.0,-0.0,-0.0
iter: 826  04:37:04  -7.96  -5.44  -226.188201            -0.0,-0.0,-0.0
iter: 827  04:37:33  -7.41  -5.30  -226.188213            -0.0,-0.0,-0.0
iter: 828  04:38:01  -7.43  -5.78  -226.188218            -0.0,-0.0,-0.0
iter: 829  04:38:30  -8.13  -6.09  -226.188215            -0.0,-0.0,-0.0
iter: 830  04:38:59  -7.17  -5.67  -226.188228            -0.0,-0.0,-0.0
iter: 831  04:39:28  -7.19  -5.88  -226.188233            -0.0,-0.0,-0.0
iter: 832  04:39:56  -8.01  -5.44  -226.188230            -0.0,-0.0,-0.0
iter: 833  04:40:25  -7.42  -5.31  -226.188242            -0.0,-0.0,-0.0
iter: 834  04:40:54  -7.46  -5.80  -226.188247            -0.0,-0.0,-0.0
iter: 835  04:41:22  -8.17  -6.13  -226.188244            -0.0,-0.0,-0.0
iter: 836  04:41:51  -7.19  -5.70  -226.188256            -0.0,-0.0,-0.0
iter: 837  04:42:19  -7.22  -5.87  -226.188261            -0.0,-0.0,-0.0
iter: 838  04:42:48  -8.05  -5.44  -226.188258            -0.0,-0.0,-0.0
iter: 839  04:43:17  -7.44  -5.31  -226.188269            -0.0,-0.0,-0.0
iter: 840  04:43:45  -7.47  -5.80  -226.188274            -0.0,-0.0,-0.0
iter: 841  04:44:14  -8.21  -6.10  -226.188271            -0.0,-0.0,-0.0
iter: 842  04:44:43  -7.20  -5.71  -226.188283            -0.0,-0.0,-0.0
iter: 843  04:45:11  -7.24  -5.87  -226.188287            -0.0,-0.0,-0.0
iter: 844  04:45:40  -8.09  -5.44  -226.188285            -0.0,-0.0,-0.0
iter: 845  04:46:09  -7.45  -5.32  -226.188296            -0.0,-0.0,-0.0
iter: 846  04:46:37  -7.49  -5.81  -226.188300            -0.0,-0.0,-0.0
iter: 847  04:47:06  -8.26  -6.12  -226.188298            -0.0,-0.0,-0.0
iter: 848  04:47:35  -7.22  -5.73  -226.188309            -0.0,-0.0,-0.0
iter: 849  04:48:03  -7.26  -5.87  -226.188313            -0.0,-0.0,-0.0
iter: 850  04:48:32  -8.12  -5.44  -226.188311            -0.0,-0.0,-0.0
iter: 851  04:49:01  -7.47  -5.33  -226.188321            -0.0,-0.0,-0.0
iter: 852  04:49:29  -7.50  -5.81  -226.188326            -0.0,-0.0,-0.0
iter: 853  04:49:58  -8.29  -6.11  -226.188323            -0.0,-0.0,-0.0
iter: 854  04:50:27  -7.25  -5.74  -226.188334            -0.0,-0.0,-0.0
iter: 855  04:50:55  -7.28  -5.86  -226.188338            -0.0,-0.0,-0.0
iter: 856  04:51:24  -8.16  -5.45  -226.188336            -0.0,-0.0,-0.0
iter: 857  04:51:53  -7.49  -5.34  -226.188346            -0.0,-0.0,-0.0
iter: 858  04:52:21  -7.52  -5.80  -226.188350            -0.0,-0.0,-0.0
iter: 859  04:52:50  -8.33  -6.11  -226.188348            -0.0,-0.0,-0.0
iter: 860  04:53:18  -7.28  -5.76  -226.188358            -0.0,-0.0,-0.0
iter: 861  04:53:47  -7.29  -5.86  -226.188362            -0.0,-0.0,-0.0
iter: 862  04:54:16  -8.19  -5.45  -226.188360            -0.0,-0.0,-0.0
iter: 863  04:54:44  -7.52  -5.34  -226.188370            -0.0,-0.0,-0.0
iter: 864  04:55:13  -7.53  -5.80  -226.188374            -0.0,-0.0,-0.0
iter: 865  04:55:42  -8.36  -6.11  -226.188372            -0.0,-0.0,-0.0
iter: 866  04:56:10  -7.30  -5.77  -226.188382            -0.0,-0.0,-0.0
iter: 867  04:56:39  -7.30  -5.87  -226.188386            -0.0,-0.0,-0.0
iter: 868  04:57:07  -8.22  -5.45  -226.188384            -0.0,-0.0,-0.0
iter: 869  04:57:36  -7.55  -5.35  -226.188393            -0.0,-0.0,-0.0
iter: 870  04:58:05  -7.54  -5.79  -226.188397            -0.0,-0.0,-0.0
iter: 871  04:58:33  -8.40  -6.11  -226.188395            -0.0,-0.0,-0.0
iter: 872  04:59:02  -7.34  -5.78  -226.188405            -0.0,-0.0,-0.0
iter: 873  04:59:30  -7.32  -5.89  -226.188409            -0.0,-0.0,-0.0
iter: 874  04:59:59  -8.24  -5.46  -226.188407            -0.0,-0.0,-0.0
iter: 875  05:00:28  -7.58  -5.36  -226.188416            -0.0,-0.0,-0.0
iter: 876  05:00:56  -7.54  -5.78  -226.188420            -0.0,-0.0,-0.0
iter: 877  05:01:25  -8.43  -6.14  -226.188418            -0.0,-0.0,-0.0
iter: 878  05:01:54  -7.37  -5.81  -226.188427            -0.0,-0.0,-0.0
iter: 879  05:02:22  -7.33  -5.90  -226.188431            -0.0,-0.0,-0.0
iter: 880  05:02:51  -8.26  -5.46  -226.188429            -0.0,-0.0,-0.0
iter: 881  05:03:20  -7.63  -5.37  -226.188437            -0.0,-0.0,-0.0
iter: 882  05:03:48  -7.54  -5.78  -226.188441            -0.0,-0.0,-0.0
iter: 883  05:04:17  -8.46  -6.13  -226.188440            -0.0,-0.0,-0.0
iter: 884  05:04:46  -7.42  -5.82  -226.188448            -0.0,-0.0,-0.0
iter: 885  05:05:15  -7.34  -5.93  -226.188452            -0.0,-0.0,-0.0
iter: 886  05:05:43  -8.29  -5.47  -226.188450            -0.0,-0.0,-0.0
iter: 887  05:06:12  -7.68  -5.38  -226.188458            -0.0,-0.0,-0.0
iter: 888  05:06:41  -7.54  -5.76  -226.188462            -0.0,-0.0,-0.0
iter: 889  05:07:10  -8.48  -6.16  -226.188461            -0.0,-0.0,-0.0
iter: 890  05:07:38  -7.48  -5.84  -226.188468            -0.0,-0.0,-0.0
iter: 891  05:08:07  -7.33  -5.97  -226.188472            -0.0,-0.0,-0.0
iter: 892  05:08:36  -8.29  -5.47  -226.188471            -0.0,-0.0,-0.0
iter: 893  05:09:04  -7.75  -5.39  -226.188478            -0.0,-0.0,-0.0
iter: 894  05:09:33  -7.54  -5.73  -226.188482            -0.0,-0.0,-0.0
iter: 895  05:10:02  -8.50  -6.19  -226.188481            -0.0,-0.0,-0.0
iter: 896  05:10:31  -7.56  -5.87  -226.188488            -0.0,-0.0,-0.0
iter: 897  05:10:59  -7.32  -6.03  -226.188492            -0.0,-0.0,-0.0
iter: 898  05:11:28  -8.30  -5.48  -226.188491            -0.0,-0.0,-0.0
iter: 899  05:11:57  -7.82  -5.40  -226.188498            -0.0,-0.0,-0.0
iter: 900  05:12:26  -7.53  -5.71  -226.188502            -0.0,-0.0,-0.0
iter: 901  05:12:54  -8.51  -6.29  -226.188501            -0.0,-0.0,-0.0
iter: 902  05:13:23  -7.66  -5.92  -226.188507            -0.0,-0.0,-0.0
iter: 903  05:13:52  -7.31  -6.10  -226.188512            -0.0,-0.0,-0.0
iter: 904  05:14:21  -8.29  -5.48  -226.188511            -0.0,-0.0,-0.0
iter: 905  05:14:49  -7.94  -5.40  -226.188517            -0.0,-0.0,-0.0
iter: 906  05:15:18  -7.50  -5.67  -226.188521            -0.0,-0.0,-0.0
iter: 907  05:15:47  -8.51  -6.29  -226.188520            -0.0,-0.0,-0.0
iter: 908  05:16:16  -7.78  -5.94  -226.188526            -0.0,-0.0,-0.0
iter: 909  05:16:44  -7.30  -6.21  -226.188530            -0.0,-0.0,-0.0
iter: 910  05:17:13  -8.29  -5.50  -226.188530            -0.0,-0.0,-0.0
iter: 911  05:17:42  -8.07  -5.42  -226.188535            -0.0,-0.0,-0.0
iter: 912  05:18:10  -7.48  -5.63  -226.188539            -0.0,-0.0,-0.0
iter: 913  05:18:39  -8.52  -6.33  -226.188539            -0.0,-0.0,-0.0
iter: 914  05:19:08  -7.95  -5.99  -226.188543            -0.0,-0.0,-0.0
iter: 915  05:19:37  -7.28  -6.42  -226.188548            -0.0,-0.0,-0.0
iter: 916  05:20:05  -8.28  -5.51  -226.188548            -0.0,-0.0,-0.0
iter: 917  05:20:34  -8.30  -5.43  -226.188552            -0.0,-0.0,-0.0
iter: 918  05:21:03  -7.44  -5.58  -226.188557            -0.0,-0.0,-0.0
iter: 919  05:21:32  -8.54  -6.34  -226.188557            -0.0,-0.0,-0.0
iter: 920  05:22:00  -8.28  -6.07  -226.188560            -0.0,-0.0,-0.0
iter: 921  05:22:29  -7.27  -6.76  -226.188565            -0.0,-0.0,-0.0
iter: 922  05:22:58  -8.30  -5.53  -226.188566            -0.0,-0.0,-0.0
iter: 923  05:23:27  -8.72  -5.47  -226.188567            -0.0,-0.0,-0.0
iter: 924  05:23:55  -7.91  -5.48  -226.188571            -0.0,-0.0,-0.0
iter: 925  05:24:24  -8.32  -5.89  -226.188573            -0.0,-0.0,-0.0
iter: 926  05:24:53  -8.14  -6.00  -226.188571            -0.0,-0.0,-0.0
iter: 927  05:25:22  -7.85  -5.73  -226.188577            -0.0,-0.0,-0.0
iter: 928  05:25:50  -7.57  -6.09  -226.188581            -0.0,-0.0,-0.0
iter: 929  05:26:19  -7.91  -5.60  -226.188579            -0.0,-0.0,-0.0
iter: 930  05:26:48  -7.90  -5.36  -226.188585            -0.0,-0.0,-0.0
iter: 931  05:27:17  -7.62  -5.67  -226.188590            -0.0,-0.0,-0.0
iter: 932  05:27:45  -8.03  -6.40  -226.188588            -0.0,-0.0,-0.0
iter: 933  05:28:14  -7.77  -5.76  -226.188593            -0.0,-0.0,-0.0
iter: 934  05:28:43  -7.43  -6.21  -226.188598            -0.0,-0.0,-0.0
iter: 935  05:29:11  -7.89  -5.60  -226.188596            -0.0,-0.0,-0.0
iter: 936  05:29:40  -7.92  -5.37  -226.188602            -0.0,-0.0,-0.0
iter: 937  05:30:09  -7.62  -5.66  -226.188606            -0.0,-0.0,-0.0
iter: 938  05:30:38  -8.09  -6.51  -226.188605            -0.0,-0.0,-0.0
iter: 939  05:31:06  -7.75  -5.81  -226.188610            -0.0,-0.0,-0.0
iter: 940  05:31:35  -7.43  -6.21  -226.188615            -0.0,-0.0,-0.0
iter: 941  05:32:04  -7.95  -5.60  -226.188613            -0.0,-0.0,-0.0
iter: 942  05:32:32  -7.94  -5.38  -226.188618            -0.0,-0.0,-0.0
iter: 943  05:33:01  -7.63  -5.69  -226.188623            -0.0,-0.0,-0.0
iter: 944  05:33:30  -8.14  -6.61  -226.188621            -0.0,-0.0,-0.0
iter: 945  05:33:59  -7.75  -5.83  -226.188627            -0.0,-0.0,-0.0
iter: 946  05:34:27  -7.43  -6.18  -226.188631            -0.0,-0.0,-0.0
iter: 947  05:34:56  -8.01  -5.59  -226.188629            -0.0,-0.0,-0.0
iter: 948  05:35:25  -7.94  -5.39  -226.188635            -0.0,-0.0,-0.0
iter: 949  05:35:54  -7.64  -5.69  -226.188639            -0.0,-0.0,-0.0
iter: 950  05:36:22  -8.21  -6.62  -226.188637            -0.0,-0.0,-0.0
iter: 951  05:36:51  -7.75  -5.85  -226.188642            -0.0,-0.0,-0.0
iter: 952  05:37:20  -7.44  -6.16  -226.188646            -0.0,-0.0,-0.0
iter: 953  05:37:49  -8.07  -5.58  -226.188645            -0.0,-0.0,-0.0
iter: 954  05:38:18  -7.94  -5.40  -226.188650            -0.0,-0.0,-0.0
iter: 955  05:38:46  -7.66  -5.69  -226.188654            -0.0,-0.0,-0.0
iter: 956  05:39:15  -8.24  -6.57  -226.188652            -0.0,-0.0,-0.0
iter: 957  05:39:44  -7.77  -5.86  -226.188658            -0.0,-0.0,-0.0
iter: 958  05:40:12  -7.45  -6.13  -226.188662            -0.0,-0.0,-0.0
iter: 959  05:40:41  -8.10  -5.57  -226.188660            -0.0,-0.0,-0.0
iter: 960  05:41:10  -7.95  -5.40  -226.188665            -0.0,-0.0,-0.0
iter: 961  05:41:38  -7.67  -5.70  -226.188669            -0.0,-0.0,-0.0
[...]
iter: 4731  11:42:23 -10.68  -7.20  -226.189525            -0.0,-0.0,-0.0
iter: 4732  11:42:52 -10.93  -6.87  -226.189525            -0.0,-0.0,-0.0
iter: 4733  11:43:21 -10.93  -7.25  -226.189525            -0.0,-0.0,-0.0
iter: 4734  11:43:49 -11.01  -7.84  -226.189525            -0.0,-0.0,-0.0
iter: 4735  11:44:18 -10.54  -7.26  -226.189525            -0.0,-0.0,-0.0
iter: 4736  11:44:47 -10.49  -7.61  -226.189525            -0.0,-0.0,-0.0
iter: 4737  11:45:15 -10.74  -7.18  -226.189525            -0.0,-0.0,-0.0
iter: 4738  11:45:44 -10.94  -6.88  -226.189525            -0.0,-0.0,-0.0
iter: 4739  11:46:12 -10.93  -7.26  -226.189525            -0.0,-0.0,-0.0
iter: 4740  11:46:41 -11.05  -7.91  -226.189525            -0.0,-0.0,-0.0
iter: 4741  11:47:09 -10.53  -7.28  -226.189525            -0.0,-0.0,-0.0
iter: 4742  11:47:38 -10.48  -7.58  -226.189525            -0.0,-0.0,-0.0
iter: 4743  11:48:07 -10.80  -7.17  -226.189525            -0.0,-0.0,-0.0
iter: 4744  11:48:35 -10.95  -6.89  -226.189525            -0.0,-0.0,-0.0
iter: 4745  11:49:04 -10.93  -7.28  -226.189525            -0.0,-0.0,-0.0
iter: 4746  11:49:32 -11.10  -7.99  -226.189525            -0.0,-0.0,-0.0
iter: 4747  11:50:01 -10.52  -7.30  -226.189525            -0.0,-0.0,-0.0
iter: 4748  11:50:29 -10.48  -7.56  -226.189525            -0.0,-0.0,-0.0
iter: 4749  11:50:58 -10.85  -7.15  -226.189525            -0.0,-0.0,-0.0
iter: 4750  11:51:27 -10.95  -6.89  -226.189525            -0.0,-0.0,-0.0
iter: 4751  11:51:55 -10.94  -7.29  -226.189525            -0.0,-0.0,-0.0
iter: 4752  11:52:24 -11.14  -8.08  -226.189525            -0.0,-0.0,-0.0
iter: 4753  11:52:52 -10.51  -7.32  -226.189525            -0.0,-0.0,-0.0
iter: 4754  11:53:21 -10.48  -7.54  -226.189525            -0.0,-0.0,-0.0
iter: 4755  11:53:50 -10.90  -7.14  -226.189525            -0.0,-0.0,-0.0
iter: 4756  11:54:18 -10.96  -6.90  -226.189525            -0.0,-0.0,-0.0
iter: 4757  11:54:47 -10.94  -7.30  -226.189525            -0.0,-0.0,-0.0
iter: 4758  11:55:16 -11.19  -8.18  -226.189525            -0.0,-0.0,-0.0
iter: 4759  11:55:44 -10.50  -7.33  -226.189525            -0.0,-0.0,-0.0
iter: 4760  11:56:13 -10.48  -7.52  -226.189525            -0.0,-0.0,-0.0
iter: 4761  11:56:42 -10.95  -7.13  -226.189525            -0.0,-0.0,-0.0
iter: 4762  11:57:10 -10.96  -6.90  -226.189525            -0.0,-0.0,-0.0
iter: 4763  11:57:39 -10.95  -7.31  -226.189525            -0.0,-0.0,-0.0
iter: 4764  11:58:07 -11.23  -8.29  -226.189525            -0.0,-0.0,-0.0
iter: 4765  11:58:36 -10.49  -7.35  -226.189525            -0.0,-0.0,-0.0
iter: 4766  11:59:04 -10.48  -7.50  -226.189525            -0.0,-0.0,-0.0
iter: 4767  11:59:33 -11.00  -7.12  -226.189525            -0.0,-0.0,-0.0
iter: 4768  12:00:02 -10.96  -6.91  -226.189525            -0.0,-0.0,-0.0
iter: 4769  12:00:30 -10.96  -7.32  -226.189525            -0.0,-0.0,-0.0
iter: 4770  12:00:59 -11.28  -8.41  -226.189525            -0.0,-0.0,-0.0
iter: 4771  12:01:27 -10.48  -7.37  -226.189525            -0.0,-0.0,-0.0
iter: 4772  12:01:56 -10.48  -7.49  -226.189525            -0.0,-0.0,-0.0
iter: 4773  12:02:25 -11.04  -7.11  -226.189525            -0.0,-0.0,-0.0
iter: 4774  12:02:53 -10.96  -6.91  -226.189525            -0.0,-0.0,-0.0
iter: 4775  12:03:22 -10.96  -7.32  -226.189525            -0.0,-0.0,-0.0
iter: 4776  12:03:50 -11.32  -8.51  -226.189525            -0.0,-0.0,-0.0
iter: 4777  12:04:19 -10.47  -7.38  -226.189525            -0.0,-0.0,-0.0
iter: 4778  12:04:48 -10.48  -7.48  -226.189525            -0.0,-0.0,-0.0
iter: 4779  12:05:16 -11.08  -7.10  -226.189525            -0.0,-0.0,-0.0
iter: 4780  12:05:45 -10.97  -6.92  -226.189525            -0.0,-0.0,-0.0
iter: 4781  12:06:13 -10.97  -7.33  -226.189525            -0.0,-0.0,-0.0
iter: 4782  12:06:42 -11.36  -8.58  -226.189525            -0.0,-0.0,-0.0
iter: 4783  12:07:11 -10.47  -7.40  -226.189525            -0.0,-0.0,-0.0
iter: 4784  12:07:39 -10.48  -7.47  -226.189525            -0.0,-0.0,-0.0
iter: 4785  12:08:08 -11.12  -7.10  -226.189525            -0.0,-0.0,-0.0
iter: 4786  12:08:37 -10.97  -6.92  -226.189525            -0.0,-0.0,-0.0
iter: 4787  12:09:05 -10.97  -7.34  -226.189525            -0.0,-0.0,-0.0
iter: 4788  12:09:34 -11.41  -8.58  -226.189525            -0.0,-0.0,-0.0
iter: 4789  12:10:03 -10.47  -7.41  -226.189525            -0.0,-0.0,-0.0
iter: 4790  12:10:31 -10.48  -7.46  -226.189525            -0.0,-0.0,-0.0
iter: 4791  12:11:00 -11.16  -7.09  -226.189525            -0.0,-0.0,-0.0
iter: 4792  12:11:28 -10.98  -6.93  -226.189525            -0.0,-0.0,-0.0
iter: 4793  12:11:57 -10.98  -7.34  -226.189525            -0.0,-0.0,-0.0
iter: 4794  12:12:26 -11.45  -8.54  -226.189525            -0.0,-0.0,-0.0
iter: 4795  12:12:54 -10.48  -7.43  -226.189525            -0.0,-0.0,-0.0
iter: 4796  12:13:23 -10.48  -7.46  -226.189525            -0.0,-0.0,-0.0
iter: 4797  12:13:52 -11.19  -7.09  -226.189525            -0.0,-0.0,-0.0
iter: 4798  12:14:20 -10.99  -6.93  -226.189525            -0.0,-0.0,-0.0
iter: 4799  12:14:49 -10.98  -7.34  -226.189525            -0.0,-0.0,-0.0
iter: 4800  12:15:17 -11.49  -8.49  -226.189525            -0.0,-0.0,-0.0
iter: 4801  12:15:46 -10.48  -7.44  -226.189525            -0.0,-0.0,-0.0
iter: 4802  12:16:15 -10.48  -7.46  -226.189525            -0.0,-0.0,-0.0
iter: 4803  12:16:43 -11.22  -7.08  -226.189525            -0.0,-0.0,-0.0
iter: 4804  12:17:12 -11.00  -6.94  -226.189525            -0.0,-0.0,-0.0
iter: 4805  12:17:40 -10.98  -7.34  -226.189525            -0.0,-0.0,-0.0
iter: 4806  12:18:09 -11.53  -8.43  -226.189525            -0.0,-0.0,-0.0
iter: 4807  12:18:38 -10.49  -7.46  -226.189525            -0.0,-0.0,-0.0
iter: 4808  12:19:06 -10.48  -7.46  -226.189525            -0.0,-0.0,-0.0
iter: 4809  12:19:35 -11.24  -7.08  -226.189525            -0.0,-0.0,-0.0
iter: 4810  12:20:03 -11.02  -6.94  -226.189525            -0.0,-0.0,-0.0
iter: 4811  12:20:32 -10.98  -7.33  -226.189525            -0.0,-0.0,-0.0
iter: 4812  12:21:01 -11.57  -8.38  -226.189525            -0.0,-0.0,-0.0
iter: 4813  12:21:29 -10.51  -7.47  -226.189525            -0.0,-0.0,-0.0
iter: 4814  12:21:58 -10.47  -7.46  -226.189525            -0.0,-0.0,-0.0
iter: 4815  12:22:27 -11.26  -7.08  -226.189525            -0.0,-0.0,-0.0
iter: 4816  12:22:55 -11.04  -6.94  -226.189525            -0.0,-0.0,-0.0
iter: 4817  12:23:24 -10.97  -7.32  -226.189525            -0.0,-0.0,-0.0
iter: 4818  12:23:53 -11.61  -8.34  -226.189525            -0.0,-0.0,-0.0
iter: 4819  12:24:21 -10.53  -7.49  -226.189525            -0.0,-0.0,-0.0
iter: 4820  12:24:50 -10.46  -7.48  -226.189525            -0.0,-0.0,-0.0
iter: 4821  12:25:18 -11.27  -7.08  -226.189525            -0.0,-0.0,-0.0
iter: 4822  12:25:47 -11.07  -6.95  -226.189525            -0.0,-0.0,-0.0
iter: 4823  12:26:16 -10.96  -7.31  -226.189525            -0.0,-0.0,-0.0
iter: 4824  12:26:45 -11.65  -8.32  -226.189525            -0.0,-0.0,-0.0
iter: 4825  12:27:13 -10.56  -7.50  -226.189525            -0.0,-0.0,-0.0
iter: 4826  12:27:42 -10.45  -7.49  -226.189525            -0.0,-0.0,-0.0
iter: 4827  12:28:10 -11.27  -7.07  -226.189525            -0.0,-0.0,-0.0
iter: 4828  12:28:39 -11.10  -6.95  -226.189525            -0.0,-0.0,-0.0
iter: 4829  12:29:08 -10.95  -7.30  -226.189525            -0.0,-0.0,-0.0
iter: 4830  12:29:36 -11.68  -8.31  -226.189525            -0.0,-0.0,-0.0
iter: 4831  12:30:05 -10.60  -7.52  -226.189525            -0.0,-0.0,-0.0
iter: 4832  12:30:33 -10.44  -7.52  -226.189525            -0.0,-0.0,-0.0
iter: 4833  12:31:02 -11.27  -7.07  -226.189525            -0.0,-0.0,-0.0
iter: 4834  12:31:31 -11.14  -6.96  -226.189525            -0.0,-0.0,-0.0
iter: 4835  12:31:59 -10.94  -7.28  -226.189525            -0.0,-0.0,-0.0
iter: 4836  12:32:28 -11.71  -8.30  -226.189525            -0.0,-0.0,-0.0
iter: 4837  12:32:57 -10.64  -7.54  -226.189525            -0.0,-0.0,-0.0
iter: 4838  12:33:25 -10.43  -7.55  -226.189525            -0.0,-0.0,-0.0
iter: 4839  12:33:54 -11.26  -7.08  -226.189525            -0.0,-0.0,-0.0
iter: 4840  12:34:23 -11.20  -6.96  -226.189525            -0.0,-0.0,-0.0
iter: 4841  12:34:51 -10.92  -7.26  -226.189525            -0.0,-0.0,-0.0
iter: 4842  12:35:20 -11.73  -8.31  -226.189525            -0.0,-0.0,-0.0
iter: 4843  12:35:48 -10.70  -7.56  -226.189525            -0.0,-0.0,-0.0
iter: 4844  12:36:17 -10.41  -7.60  -226.189525            -0.0,-0.0,-0.0
iter: 4845  12:36:46 -11.25  -7.08  -226.189525            -0.0,-0.0,-0.0
iter: 4846  12:37:14 -11.27  -6.97  -226.189525            -0.0,-0.0,-0.0
iter: 4847  12:37:43 -10.89  -7.23  -226.189525            -0.0,-0.0,-0.0
iter: 4848  12:38:11 -11.75  -8.32  -226.189525            -0.0,-0.0,-0.0
iter: 4849  12:38:40 -10.78  -7.58  -226.189525            -0.0,-0.0,-0.0
iter: 4850  12:39:09 -10.39  -7.66  -226.189525            -0.0,-0.0,-0.0
iter: 4851  12:39:37 -11.23  -7.08  -226.189525            -0.0,-0.0,-0.0
iter: 4852  12:40:06 -11.36  -6.97  -226.189525            -0.0,-0.0,-0.0
iter: 4853  12:40:34 -10.86  -7.20  -226.189525            -0.0,-0.0,-0.0
iter: 4854  12:41:03 -11.77  -8.32  -226.189525            -0.0,-0.0,-0.0
iter: 4855  12:41:32 -10.89  -7.60  -226.189525            -0.0,-0.0,-0.0
iter: 4856  12:42:00 -10.37  -7.75  -226.189525            -0.0,-0.0,-0.0
iter: 4857  12:42:29 -11.20  -7.09  -226.189525            -0.0,-0.0,-0.0
iter: 4858  12:42:58 -11.48  -6.98  -226.189525            -0.0,-0.0,-0.0
iter: 4859  12:43:26 -10.81  -7.16  -226.189525            -0.0,-0.0,-0.0
iter: 4860  12:43:55 -11.79  -8.26  -226.189525            -0.0,-0.0,-0.0
iter: 4861  12:44:23 -11.03  -7.64  -226.189525            -0.0,-0.0,-0.0
iter: 4862  12:44:52 -10.38  -7.88  -226.189525            -0.0,-0.0,-0.0
iter: 4863  12:45:20 -11.15  -7.11  -226.189525            -0.0,-0.0,-0.0
iter: 4864  12:45:49 -11.64  -7.00  -226.189525            -0.0,-0.0,-0.0
iter: 4865  12:46:18 -10.66  -7.11  -226.189525            -0.0,-0.0,-0.0
iter: 4866  12:46:46 -11.92  -7.93  -226.189525            -0.0,-0.0,-0.0
iter: 4867  12:47:15 -11.16  -7.69  -226.189525            -0.0,-0.0,-0.0
iter: 4868  12:47:44 -10.89  -7.73  -226.189525            -0.0,-0.0,-0.0
iter: 4869  12:48:12 -11.14  -7.23  -226.189525            -0.0,-0.0,-0.0
iter: 4870  12:48:41 -11.28  -7.07  -226.189525            -0.0,-0.0,-0.0
iter: 4871  12:49:10 -10.74  -7.01  -226.189525            -0.0,-0.0,-0.0
iter: 4872  12:49:38  -9.77  -6.87  -226.189525            -0.0,-0.0,-0.0
iter: 4873  12:50:07 -10.99  -7.35  -226.189525            -0.0,-0.0,-0.0
iter: 4874  12:50:36 -10.61  -7.39  -226.189525            -0.0,-0.0,-0.0
iter: 4875  12:51:05 -11.20  -7.52  -226.189525            -0.0,-0.0,-0.0
iter: 4876  12:51:33 -11.62  -7.67  -226.189525            -0.0,-0.0,-0.0
iter: 4877  12:52:02 -10.22  -8.15  -226.189525            -0.0,-0.0,-0.0
iter: 4878  12:52:30 -11.39  -7.03  -226.189525            -0.0,-0.0,-0.0
iter: 4879  12:52:59 -11.28  -7.05  -226.189525            -0.0,-0.0,-0.0
iter: 4880  12:53:28 -11.55  -7.55  -226.189525            -0.0,-0.0,-0.0
iter: 4881  12:53:56 -11.64  -8.25  -226.189525            -0.0,-0.0,-0.0
iter: 4882  12:54:25 -11.12  -7.64  -226.189525            -0.0,-0.0,-0.0
iter: 4883  12:54:53 -10.59  -7.69  -226.189525            -0.0,-0.0,-0.0
iter: 4884  12:55:22 -10.82  -7.58  -226.189525            -0.0,-0.0,-0.0
iter: 4885  12:55:51  -9.05  -7.54  -226.189525            -0.0,-0.0,-0.0
iter: 4886  12:56:19  -9.39  -6.53  -226.189525            -0.0,-0.0,-0.0
iter: 4887  12:56:48 -10.53  -6.92  -226.189525            -0.0,-0.0,-0.0
iter: 4888  12:57:17  -9.78  -6.92  -226.189525            -0.0,-0.0,-0.0
iter: 4889  12:57:45 -10.06  -6.68  -226.189525            -0.0,-0.0,-0.0
iter: 4890  12:58:14 -11.33  -7.63  -226.189525            -0.0,-0.0,-0.0
iter: 4891  12:58:43 -10.61  -7.52  -226.189525            -0.0,-0.0,-0.0
iter: 4892  12:59:11 -10.57  -6.82  -226.189525            -0.0,-0.0,-0.0
iter: 4893  12:59:40 -11.15  -7.68  -226.189525            -0.0,-0.0,-0.0
iter: 4894  13:00:09 -10.87  -7.98  -226.189525            -0.0,-0.0,-0.0
iter: 4895  13:00:37 -10.12  -7.16  -226.189525            -0.0,-0.0,-0.0
iter: 4896  13:01:06 -10.69  -7.33  -226.189525            -0.0,-0.0,-0.0
iter: 4897  13:01:35 -11.02  -7.15  -226.189525            -0.0,-0.0,-0.0
iter: 4898  13:02:03 -10.58  -6.87  -226.189525            -0.0,-0.0,-0.0
iter: 4899  13:02:32 -11.07  -7.44  -226.189525            -0.0,-0.0,-0.0
iter: 4900  13:03:01 -11.02  -7.50  -226.189525            -0.0,-0.0,-0.0
iter: 4901  13:03:30 -10.13  -7.24  -226.189525            -0.0,-0.0,-0.0
iter: 4902  13:03:58 -10.63  -7.25  -226.189525            -0.0,-0.0,-0.0
iter: 4903  13:04:27 -11.11  -7.06  -226.189525            -0.0,-0.0,-0.0
iter: 4904  13:04:56 -10.63  -6.87  -226.189525            -0.0,-0.0,-0.0
iter: 4905  13:05:24 -11.07  -7.51  -226.189525            -0.0,-0.0,-0.0
iter: 4906  13:05:53 -11.07  -8.17  -226.189525            -0.0,-0.0,-0.0
iter: 4907  13:06:22 -10.13  -7.32  -226.189525            -0.0,-0.0,-0.0
iter: 4908  13:06:50 -10.62  -7.23  -226.189525            -0.0,-0.0,-0.0
iter: 4909  13:07:19 -11.19  -7.05  -226.189525            -0.0,-0.0,-0.0
iter: 4910  13:07:48 -10.63  -6.86  -226.189525            -0.0,-0.0,-0.0
iter: 4911  13:08:17 -11.12  -7.54  -226.189525            -0.0,-0.0,-0.0
iter: 4912  13:08:45 -11.11  -8.22  -226.189525            -0.0,-0.0,-0.0
iter: 4913  13:09:14 -10.11  -7.32  -226.189525            -0.0,-0.0,-0.0
iter: 4914  13:09:43 -10.63  -7.21  -226.189525            -0.0,-0.0,-0.0
iter: 4915  13:10:11 -11.26  -7.04  -226.189525            -0.0,-0.0,-0.0
iter: 4916  13:10:40 -10.62  -6.87  -226.189525            -0.0,-0.0,-0.0
iter: 4917  13:11:09 -11.16  -7.58  -226.189525            -0.0,-0.0,-0.0
iter: 4918  13:11:37 -11.16  -8.37  -226.189525            -0.0,-0.0,-0.0
iter: 4919  13:12:06 -10.08  -7.35  -226.189526            -0.0,-0.0,-0.0
iter: 4920  13:12:35 -10.65  -7.19  -226.189526            -0.0,-0.0,-0.0
iter: 4921  13:13:03 -11.33  -7.03  -226.189525            -0.0,-0.0,-0.0
iter: 4922  13:13:32 -10.60  -6.88  -226.189526            -0.0,-0.0,-0.0
iter: 4923  13:14:01 -11.20  -7.65  -226.189526            -0.0,-0.0,-0.0
iter: 4924  13:14:29 -11.21  -8.25  -226.189526            -0.0,-0.0,-0.0
iter: 4925  13:14:58 -10.05  -7.37  -226.189526            -0.0,-0.0,-0.0
iter: 4926  13:15:27 -10.69  -7.16  -226.189526            -0.0,-0.0,-0.0
iter: 4927  13:15:55 -11.41  -7.02  -226.189526            -0.0,-0.0,-0.0
iter: 4928  13:16:24 -10.55  -6.88  -226.189526            -0.0,-0.0,-0.0
iter: 4929  13:16:53 -11.27  -7.76  -226.189526            -0.0,-0.0,-0.0
iter: 4930  13:17:21 -11.25  -8.12  -226.189526            -0.0,-0.0,-0.0
iter: 4931  13:17:50  -9.99  -7.40  -226.189526            -0.0,-0.0,-0.0
iter: 4932  13:18:18 -10.76  -7.12  -226.189526            -0.0,-0.0,-0.0
iter: 4933  13:18:47 -11.50  -7.00  -226.189526            -0.0,-0.0,-0.0
iter: 4934  13:19:16 -10.46  -6.89  -226.189526            -0.0,-0.0,-0.0
iter: 4935  13:19:44 -11.41  -8.14  -226.189526            -0.0,-0.0,-0.0
iter: 4936  13:20:13 -11.28  -7.96  -226.189526            -0.0,-0.0,-0.0
iter: 4937  13:20:42  -9.78  -7.44  -226.189526            -0.0,-0.0,-0.0
iter: 4938  13:21:10 -11.00  -7.00  -226.189526            -0.0,-0.0,-0.0
iter: 4939  13:21:39 -10.97  -6.96  -226.189526            -0.0,-0.0,-0.0
iter: 4940  13:22:07  -9.29  -6.91  -226.189526            -0.0,-0.0,-0.0
iter: 4941  13:22:36  -9.74  -6.71  -226.189526            -0.0,-0.0,-0.0
iter: 4942  13:23:05 -10.43  -7.37  -226.189526            -0.0,-0.0,-0.0
iter: 4943  13:23:33  -9.55  -7.26  -226.189526            -0.0,-0.0,-0.0
iter: 4944  13:24:02 -10.09  -6.89  -226.189526            -0.0,-0.0,-0.0
iter: 4945  13:24:31  -9.54  -7.05  -226.189526            -0.0,-0.0,-0.0
iter: 4946  13:24:59  -9.03  -6.76  -226.189526            -0.0,-0.0,-0.0
iter: 4947  13:25:28  -9.95  -6.99  -226.189526            -0.0,-0.0,-0.0
iter: 4948  13:25:57  -8.95  -7.13  -226.189526            -0.0,-0.0,-0.0
iter: 4949  13:26:25  -8.66  -6.55  -226.189526            -0.0,-0.0,-0.0
iter: 4950  13:26:54 -10.28  -7.05  -226.189526            -0.0,-0.0,-0.0
iter: 4951  13:27:23  -8.13  -7.01  -226.189525            -0.0,-0.0,-0.0
iter: 4952  13:27:51  -8.20  -5.97  -226.189526            -0.0,-0.0,-0.0
iter: 4953  13:28:20  -9.54  -7.33  -226.189526            -0.0,-0.0,-0.0
iter: 4954  13:28:49 -10.34  -7.42  -226.189526            -0.0,-0.0,-0.0
iter: 4955  13:29:17 -11.13  -7.07  -226.189526            -0.0,-0.0,-0.0
iter: 4956  13:29:46 -12.00  -7.41  -226.189526            -0.0,-0.0,-0.0
iter: 4957  13:30:15 -11.43  -7.52  -226.189526            -0.0,-0.0,-0.0
iter: 4958  13:30:43 -11.59  -7.64  -226.189526            -0.0,-0.0,-0.0
iter: 4959  13:31:12 -10.76  -7.94  -226.189526            -0.0,-0.0,-0.0
iter: 4960  13:31:41 -11.10  -7.18  -226.189526            -0.0,-0.0,-0.0
iter: 4961  13:32:09 -11.23  -7.66  -226.189526            -0.0,-0.0,-0.0
iter: 4962  13:32:38 -11.58  -7.63  -226.189526            -0.0,-0.0,-0.0
iter: 4963  13:33:06 -11.83  -7.60  -226.189526            -0.0,-0.0,-0.0
iter: 4964  13:33:35 -11.45  -7.48  -226.189526            -0.0,-0.0,-0.0
iter: 4965  13:34:04 -12.07  -7.15  -226.189526            -0.0,-0.0,-0.0
iter: 4966  13:34:32 -11.61  -7.31  -226.189526            -0.0,-0.0,-0.0
iter: 4967  13:35:01 -11.48  -7.43  -226.189526            -0.0,-0.0,-0.0
iter: 4968  13:35:29 -11.49  -7.34  -226.189526            -0.0,-0.0,-0.0
iter: 4969  13:35:58  -9.94  -7.76  -226.189526            -0.0,-0.0,-0.0
iter: 4970  13:36:27 -10.85  -6.82  -226.189526            -0.0,-0.0,-0.0
iter: 4971  13:36:55 -11.43  -7.04  -226.189526            -0.0,-0.0,-0.0
iter: 4972  13:37:24 -10.65  -7.20  -226.189526            -0.0,-0.0,-0.0
iter: 4973  13:37:53 -11.22  -7.29  -226.189526            -0.0,-0.0,-0.0
iter: 4974  13:38:21 -10.82  -8.08  -226.189526            -0.0,-0.0,-0.0
iter: 4975  13:38:50 -10.24  -7.40  -226.189526            -0.0,-0.0,-0.0
iter: 4976  13:39:19 -11.19  -6.86  -226.189526            -0.0,-0.0,-0.0
iter: 4977  13:39:47 -11.08  -7.05  -226.189526            -0.0,-0.0,-0.0
iter: 4978  13:40:16 -10.85  -7.30  -226.189526            -0.0,-0.0,-0.0
iter: 4979  13:40:44 -11.14  -7.41  -226.189526            -0.0,-0.0,-0.0
iter: 4980  13:41:13 -10.59  -7.92  -226.189526            -0.0,-0.0,-0.0
iter: 4981  13:41:42 -10.37  -7.28  -226.189526            -0.0,-0.0,-0.0
iter: 4982  13:42:10 -11.24  -6.86  -226.189526            -0.0,-0.0,-0.0
iter: 4983  13:42:39 -11.02  -7.06  -226.189526            -0.0,-0.0,-0.0
iter: 4984  13:43:08 -10.91  -7.35  -226.189526            -0.0,-0.0,-0.0
iter: 4985  13:43:36 -11.12  -7.44  -226.189526            -0.0,-0.0,-0.0
iter: 4986  13:44:05 -10.55  -7.89  -226.189526            -0.0,-0.0,-0.0
iter: 4987  13:44:33 -10.43  -7.25  -226.189526            -0.0,-0.0,-0.0
iter: 4988  13:45:02 -11.28  -6.87  -226.189526            -0.0,-0.0,-0.0
iter: 4989  13:45:31 -11.00  -7.06  -226.189526            -0.0,-0.0,-0.0
iter: 4990  13:45:59 -10.96  -7.38  -226.189526            -0.0,-0.0,-0.0
iter: 4991  13:46:28 -11.11  -7.46  -226.189526            -0.0,-0.0,-0.0
iter: 4992  13:46:57 -10.52  -7.86  -226.189526            -0.0,-0.0,-0.0
iter: 4993  13:47:25 -10.48  -7.23  -226.189526            -0.0,-0.0,-0.0
iter: 4994  13:47:54 -11.32  -6.88  -226.189526            -0.0,-0.0,-0.0
iter: 4995  13:48:23 -10.98  -7.06  -226.189526            -0.0,-0.0,-0.0
iter: 4996  13:48:51 -11.02  -7.41  -226.189526            -0.0,-0.0,-0.0
iter: 4997  13:49:20 -11.09  -7.49  -226.189526            -0.0,-0.0,-0.0
iter: 4998  13:49:49 -10.49  -7.83  -226.189526            -0.0,-0.0,-0.0
iter: 4999  13:50:17 -10.54  -7.21  -226.189526            -0.0,-0.0,-0.0
iter: 5000  13:50:46 -11.34  -6.88  -226.189526            -0.0,-0.0,-0.0
