
  ___ ___ ___ _ _ _  
 |   |   |_  | | | | 
 | | | | | . | | | | 
 |__ |  _|___|_____|  21.6.1b1
 |___|_|             

User:   madkru@x006.nifl.fysik.dtu.dk
Date:   Wed Dec 15 12:50:21 2021
Arch:   x86_64
Pid:    30248
Python: 3.8.6
gpaw:   /home/niflheim/madkru/new_venv/gpaw/gpaw (1f0dfc9eae)
_gpaw:  /home/niflheim/madkru/new_venv/gpaw/build/lib.linux-x86_64-broadwell-3.8/
        _gpaw.cpython-38-x86_64-linux-gnu.so (c1e45bfab3)
ase:    /home/niflheim/madkru/new_venv/ase/ase (version 3.23.0b1-b9c64c726b)
numpy:  /home/modules/software/SciPy-bundle/2020.11-foss-2020b/lib/python3.8/site-packages/numpy (version 1.19.4)
scipy:  /home/modules/software/SciPy-bundle/2020.11-foss-2020b/lib/python3.8/site-packages/scipy (version 1.5.4)
libxc:  4.3.4
units:  Angstrom and eV
cores: 96
OpenMP: False
OMP_NUM_THREADS: 1

Input parameters:
  convergence: {density: 1e-08}
  experimental: {magmoms: [[0. 0. 0.]
 [0. 0. 0.]
 [0. 0. 0.]
 ...
 [0. 0. 0.]
 [0. 0. 0.]
 [0. 0. 0.]],
                 soc: True}
  external: {field: (5.0, 0.0, 0.0),
             name: BField}
  kpts: [4 4 6]
  maxiter: 5000
  mixer: {backend: pulay,
          beta: 0.05,
          beta_m: 0.05,
          method: difference,
          nmaxold: 3,
          nmaxold_m: 3,
          weight: 20,
          weight_m: 20}
  mode: {ecut: 600.0,
         gammacentered: False,
         name: pw}
  occupations: {fixmagmom: False,
                name: fermi-dirac,
                width: 0.001}
  symmetry: off

System changes: positions, numbers, cell, pbc, initial_charges, initial_magmoms 

Initialize ...

O-setup:
  name: Oxygen
  id: 9b9d51c344dea68c822856295a461509
  Z: 8.0
  valence: 6
  core: 2
  charge: 0.0
  file: /home/modules/software/GPAW-setups/0.9.20000/O.LDA.gz
  compensation charges: gauss, rc=0.21, lmax=2
  cutoffs: 1.17(filt), 0.83(core),
  valence states:
                energy  radius
    2s(2.00)   -23.752   0.688
    2p(4.00)    -9.195   0.598
    *s           3.459   0.688
    *p          18.016   0.598
    *d           0.000   0.619

  Using partial waves for O as LCAO basis

Mn-setup:
  name: Manganese
  id: 0d715a8018be061a6e9ea6f2d364ac92
  Z: 25.0
  valence: 15
  core: 10
  charge: 0.0
  file: /home/modules/software/GPAW-setups/0.9.20000/Mn.LDA.gz
  compensation charges: gauss, rc=0.38, lmax=2
  cutoffs: 2.14(filt), 0.86(core),
  valence states:
                energy  radius
    3s(2.00)   -85.387   1.275
    4s(2.00)    -5.282   1.275
    3p(6.00)   -54.493   1.281
    4p(0.00)    -1.471   1.281
    3d(5.00)    -7.009   1.138
    *d          20.203   1.138

  Using partial waves for Mn as LCAO basis

P-setup:
  name: Phosphorus
  id: a5561c299094968922a179ab894d2e2d
  Z: 15.0
  valence: 5
  core: 10
  charge: 0.0
  file: /home/modules/software/GPAW-setups/0.9.20000/P.LDA.gz
  compensation charges: gauss, rc=0.30, lmax=2
  cutoffs: 1.69(filt), 1.81(core),
  valence states:
                energy  radius
    3s(2.00)   -14.015   0.953
    3p(3.00)    -5.596   0.953
    *s          13.197   0.953
    *p          21.615   0.953
    *d           0.000   0.953

  Using partial waves for P as LCAO basis

Li-setup:
  name: Lithium
  id: b73562207f97a71b6967473b66fe8b65
  Z: 3.0
  valence: 1
  core: 2
  charge: 0.0
  file: /home/modules/software/GPAW-setups/0.9.20000/Li.LDA.gz
  compensation charges: gauss, rc=0.33, lmax=2
  cutoffs: 1.91(filt), 2.55(core),
  valence states:
                energy  radius
    2s(1.00)    -2.874   1.058
    2p(0.00)    -1.126   1.058
    *s          24.338   1.058

  Using partial waves for Li as LCAO basis

Reference energy: -196157.275402

Non-collinear calculation.
Magnetic moment: (0.000000, 0.000000, 0.000000)

Convergence criteria:
  Maximum total energy change: 0.0005 eV / electron
  Maximum integral of absolute density change: 1e-08 electrons
  Maximum integral of absolute eigenstate change: 4e-08 eV^2
  Maximum number of iterations: 5000

Symmetries present (total): 1

  ( 1  0  0)
  ( 0  1  0)
  ( 0  0  1)

96 k-points: 4 x 4 x 6 Monkhorst-Pack grid
96 k-points in the irreducible part of the Brillouin zone
       k-points in crystal coordinates                weights
   0:    -0.37500000   -0.37500000   -0.41666667          1/96
   1:    -0.37500000   -0.37500000   -0.25000000          1/96
   2:    -0.37500000   -0.37500000   -0.08333333          1/96
   3:    -0.37500000   -0.37500000    0.08333333          1/96
   4:    -0.37500000   -0.37500000    0.25000000          1/96
   5:    -0.37500000   -0.37500000    0.41666667          1/96
   6:    -0.37500000   -0.12500000   -0.41666667          1/96
   7:    -0.37500000   -0.12500000   -0.25000000          1/96
   8:    -0.37500000   -0.12500000   -0.08333333          1/96
   9:    -0.37500000   -0.12500000    0.08333333          1/96
          ...
  95:     0.37500000    0.37500000    0.41666667          1/96

Wave functions: Plane wave expansion
  Cutoff energy: 600.000 eV
  Number of coefficients (min, max): 9124, 9168
  Pulay-stress correction: 0.000000 eV/Ang^3 (de/decut=0.000000)
  Using FFTW library
  ScaLapack parameters: grid=1x1, blocksize=None
  Wavefunction extrapolation:
    Improved wavefunction reuse through dual PAW basis 

Occupation numbers: Fermi-Dirac: width=0.0010 eV
 

Eigensolver
   Davidson(niter=2) 

Densities:
  Coarse grid: 60*35*27 grid
  Fine grid: 120*70*54 grid
  Total Charge: 0.000000 

Density mixing:
  Method: difference
  Backend: pulay
  Linear mixing parameter: 0.05
  Mixing with 3 old densities
  Damping of long wave oscillations: 20 

Hamiltonian:
  XC and Coulomb potentials evaluated on a 120*70*54 grid
  Using the LDA Exchange-Correlation functional
  External potential:
    <gpaw.bfield.BField object at 0x2b8a31b1f490>
 

Memory estimate:
  Process memory now: 211.12 MiB
  Calculator: 123.04 MiB
    Density: 38.70 MiB
      Arrays: 11.25 MiB
      Localized functions: 17.07 MiB
      Mixer: 10.38 MiB
    Hamiltonian: 7.85 MiB
      Arrays: 7.35 MiB
      XC: 0.00 MiB
      Poisson: 0.00 MiB
      vbar: 0.49 MiB
    Wavefunctions: 76.50 MiB
      Arrays psit_nG: 31.34 MiB
      Eigensolver: 39.70 MiB
      Projections: 1.20 MiB
      Projectors: 1.96 MiB
      PW-descriptor: 2.30 MiB

Total number of cores used: 96
Parallelization over k-points: 96

Number of atoms: 28
Number of atomic orbitals: 148
Number of bands in calculation: 224
Number of valence electrons: 180
Bands to converge: occupied

... initialized

Initializing position-dependent things.

Density initialized from atomic densities
Creating initial wave functions:
  148 bands from LCAO basis set
  76 bands from random numbers

                                           
                                           
                                           
                                           
                                           
               O     O  P  O               
            PO           OMn     O         
                  O          MO            
            O        Li O                  
             Mn  On          OP            
         O         Li O                    
         Li     O P         O              
       Li                                  
                                           
                                           
                                           
                                           

Positions:
   0 O      3.401665    0.251401    1.033407    ( 0.0000,  0.0000,  0.0000)
   1 O      1.658497    5.665786    3.325090    ( 0.0000,  0.0000,  0.0000)
   2 O      6.679153    3.223092    3.587114    ( 0.0000,  0.0000,  0.0000)
   3 O      8.422212    2.711929    1.270591    ( 0.0000,  0.0000,  0.0000)
   4 O      6.679162    5.665814    3.587153    ( 0.0000,  0.0000,  0.0000)
   5 O      8.422068    0.251414    1.270653    ( 0.0000,  0.0000,  0.0000)
   6 O      3.401691    2.712016    1.033430    ( 0.0000,  0.0000,  0.0000)
   7 O      1.658489    3.222930    3.325109    ( 0.0000,  0.0000,  0.0000)
   8 O      0.526570    1.481501    1.272692    ( 0.0000,  0.0000,  0.0000)
   9 O      4.517972    4.444439    3.597768    ( 0.0000,  0.0000,  0.0000)
  10 O      9.538475    4.444406    3.314351    ( 0.0000,  0.0000,  0.0000)
  11 O      5.547102    1.481695    1.031389    ( 0.0000,  0.0000,  0.0000)
  12 Mn     2.196741    1.481479    2.440406    ( 0.0000,  0.0000,  0.0000)
  13 Mn     2.767600    4.444583    0.138938    ( 0.0000,  0.0000,  5.0000)
  14 Mn     7.788079    4.444504    2.165037    ( 0.0000,  0.0000, -5.0000)
  15 Mn     7.217262    1.481597    4.471831    ( 0.0000,  0.0000, -5.0000)
  16 P      4.124241    1.481711    0.413317    ( 0.0000,  0.0000,  5.0000)
  17 P      0.906980    4.444349    2.701433    ( 0.0000,  0.0000,  0.0000)
  18 P      5.927528    4.444447    4.210816    ( 0.0000,  0.0000,  0.0000)
  19 P      9.144805    1.481644    1.890740    ( 0.0000,  0.0000,  0.0000)
  20 O      4.134067    1.481675    3.495771    ( 0.0000,  0.0000,  0.0000)
  21 O      0.919641    4.444319    1.176282    ( 0.0000,  0.0000,  0.0000)
  22 O      5.940127    4.444395    1.127847    ( 0.0000,  0.0000,  0.0000)
  23 O      9.154582    1.481644    3.416405    ( 0.0000,  0.0000,  0.0000)
  24 Li    -0.045699    0.001798   -0.017483    ( 0.0000,  0.0000,  0.0000)
  25 Li     4.975424    0.002049    2.321511    ( 0.0000,  0.0000,  0.0000)
  26 Li    -0.045207    2.960591   -0.017624    ( 0.0000,  0.0000,  0.0000)
  27 Li     4.975318    2.960701    2.321871    ( 0.0000,  0.0000,  0.0000)

Unit cell:
           periodic     x           y           z      points  spacing
  1. axis:    yes   10.041096    0.000054   -0.000022    60     0.1674
  2. axis:    yes    0.000032    5.925857    0.000001    35     0.1693
  3. axis:    yes   -0.000010    0.000001    4.608134    27     0.1707

  Lengths:  10.041096   5.925857   4.608134
  Angles:   89.999974  90.000250  89.999381

Effective grid spacing dv^(1/3) = 0.1691

                     log10-error:    total        iterations:
           time      wfs    density  energy       poisson
iter:   1  12:51:36                -344.339498            +0.0,+0.0,-1.0
iter:   2  12:51:52  -0.35  -0.92  -321.452294            +1.7,-0.0,-1.0
iter:   3  12:52:08  -0.95  -1.00  -320.066931            +3.2,-0.0,-1.1
iter:   4  12:52:24  -0.91  -1.08  -324.428324            +6.2,-0.0,-1.2
iter:   5  12:52:40  -1.64  -1.19  -325.338660            +8.0,-0.0,-1.1
iter:   6  12:52:56  -1.50  -1.27  -327.293349            +11.3,-0.0,-1.1
iter:   7  12:53:12  -1.50  -1.38  -327.463222            +12.1,-0.0,-0.3
iter:   8  12:53:28  -2.38  -1.55  -325.099653            +9.7,-0.0,-0.3
iter:   9  12:53:44  -2.02  -1.61  -333.621940            +20.7,-0.0,-0.0
iter:  10  12:54:00  -1.64  -1.66  -336.391782            +37.7,-0.0,-0.1
iter:  11  12:54:16  -2.96  -1.62  -337.097774            +34.4,-0.0,-0.1
iter:  12  12:54:32  -2.47  -1.61  -337.910655            +39.6,+0.0,-0.1
iter:  13  12:54:48  -2.47  -1.58  -337.833952            +39.6,+0.0,-0.1
iter:  14  12:55:04  -2.82  -1.60  -337.702808            +39.3,+0.0,-0.1
iter:  15  12:55:20  -2.57  -1.61  -337.526993            +38.8,+0.0,-0.1
iter:  16  12:55:36  -2.90  -1.63  -337.386213            +38.7,+0.0,-0.0
iter:  17  12:55:52  -2.86  -1.71  -337.322016            +38.9,+0.0,-0.0
iter:  18  12:56:09  -3.08  -1.83  -337.319549            +38.6,+0.0,-0.0
iter:  19  12:56:25  -3.11  -1.96  -337.340485            +38.7,+0.0,-0.0
iter:  20  12:56:41  -3.39  -2.12  -337.358856            +38.6,+0.0,-0.0
iter:  21  12:56:57  -3.48  -2.21  -337.343940            +38.4,+0.0,-0.0
iter:  22  12:57:13  -3.59  -2.28  -337.324655            +38.6,+0.0,-0.0
iter:  23  12:57:29  -3.87  -2.41  -337.317362            +38.7,+0.0,-0.0
iter:  24  12:57:45  -4.09  -2.50  -337.311037            +38.8,+0.0,-0.0
iter:  25  12:58:01  -4.29  -2.59  -337.307471            +38.8,+0.0,-0.0
iter:  26  12:58:17  -4.09  -2.66  -337.300359            +38.8,+0.0,-0.0
iter:  27  12:58:34  -4.10  -2.70  -337.287119            +38.9,+0.0,-0.0
iter:  28  12:58:50  -4.40  -2.67  -337.300735            +38.7,+0.0,-0.0
iter:  29  12:59:06  -4.09  -2.74  -337.296487            +39.2,+0.0,-0.0
iter:  30  12:59:22  -4.47  -2.77  -337.298213            +38.7,+0.0,-0.0
iter:  31  12:59:38  -5.27  -2.77  -337.302027            +38.7,+0.0,-0.0
iter:  32  12:59:54  -4.48  -2.84  -337.307963            +38.7,+0.0,-0.0
iter:  33  13:00:10  -5.28  -2.85  -337.308875            +38.6,+0.0,-0.0
iter:  34  13:00:27  -4.28  -2.86  -337.327401            +38.2,-0.0,+0.0
iter:  35  13:00:43  -4.20  -2.72  -337.332557            +37.9,-0.0,+0.0
iter:  36  13:00:59  -4.60  -2.63  -337.335270            +37.8,+0.0,-0.0
iter:  37  13:01:15  -4.44  -2.56  -337.325043            +38.0,-0.0,+0.0
iter:  38  13:01:31  -4.14  -2.81  -337.330770            +37.9,-0.0,+0.0
iter:  39  13:01:47  -4.71  -2.65  -337.329308            +37.9,-0.0,+0.0
iter:  40  13:02:03  -5.48  -2.68  -337.329332            +37.9,-0.0,+0.0
iter:  41  13:02:19  -3.94  -2.72  -337.327111            +38.2,-0.0,+0.0
iter:  42  13:02:35  -4.85  -2.89  -337.326024            +38.1,-0.0,+0.0
iter:  43  13:02:51  -4.80  -2.92  -337.325508            +38.1,-0.0,+0.0
iter:  44  13:03:08  -5.68  -2.99  -337.325413            +38.2,-0.0,+0.0
iter:  45  13:03:24  -5.12  -3.03  -337.325409            +38.1,-0.0,+0.0
iter:  46  13:03:40  -5.48  -3.24  -337.325514            +38.1,-0.0,+0.0
iter:  47  13:03:56  -5.89  -3.37  -337.325145            +38.2,+0.0,+0.0
iter:  48  13:04:12  -6.40  -3.51  -337.325274            +38.2,+0.0,+0.0
iter:  49  13:04:28  -6.20  -3.68  -337.325369            +38.2,+0.0,-0.0
iter:  50  13:04:45  -5.34  -3.74  -337.325117            +38.2,+0.0,+0.0
iter:  51  13:05:01  -5.76  -3.43  -337.325273            +38.2,+0.0,-0.0
iter:  52  13:05:17  -5.15  -3.33  -337.324527            +38.2,+0.0,-0.0
iter:  53  13:05:33  -6.03  -3.77  -337.324946            +38.2,+0.0,+0.0
iter:  54  13:05:49  -5.19  -3.65  -337.325420            +38.2,+0.0,+0.0
iter:  55  13:06:05  -5.17  -3.25  -337.325967            +38.2,+0.0,-0.0
iter:  56  13:06:21  -5.65  -3.07  -337.327004            +38.1,+0.0,-0.0
iter:  57  13:06:38  -5.22  -3.02  -337.327901            +38.0,+0.0,+0.0
iter:  58  13:06:54  -5.70  -2.94  -337.326953            +37.9,+0.0,-0.0
iter:  59  13:07:10  -5.70  -3.02  -337.326368            +38.0,+0.0,-0.0
iter:  60  13:07:26  -4.89  -3.10  -337.325377            +38.0,-0.0,-0.0
iter:  61  13:07:42  -5.41  -3.23  -337.325021            +38.0,-0.0,-0.0
iter:  62  13:07:58  -5.64  -3.39  -337.324906            +38.0,-0.0,-0.0
iter:  63  13:08:14  -5.70  -3.56  -337.325121            +38.1,-0.0,-0.0
iter:  64  13:08:30  -6.17  -3.64  -337.325130            +38.1,-0.0,-0.0
iter:  65  13:08:46  -5.66  -3.61  -337.325609            +38.2,-0.0,-0.0
iter:  66  13:09:02  -5.47  -3.30  -337.323883            +38.3,-0.0,-0.0
iter:  67  13:09:18  -4.62  -3.40  -337.327016            +38.1,-0.0,-0.0
iter:  68  13:09:35  -5.35  -3.06  -337.326445            +38.1,-0.0,-0.0
iter:  69  13:09:51  -5.42  -3.16  -337.326087            +38.0,-0.0,-0.0
iter:  70  13:10:07  -5.22  -3.36  -337.326170            +38.0,-0.0,-0.0
iter:  71  13:10:23  -6.05  -3.22  -337.326458            +38.1,-0.0,-0.0
iter:  72  13:10:39  -5.09  -3.19  -337.325871            +38.2,-0.0,-0.0
iter:  73  13:10:55  -5.57  -3.56  -337.326140            +38.0,-0.0,-0.0
iter:  74  13:11:11  -6.00  -3.35  -337.325966            +38.1,-0.0,-0.0
iter:  75  13:11:27  -6.29  -3.69  -337.325991            +38.1,+0.0,-0.0
iter:  76  13:11:43  -5.65  -3.62  -337.325925            +38.0,-0.0,-0.0
iter:  77  13:11:59  -6.13  -3.53  -337.325978            +38.1,-0.0,-0.0
iter:  78  13:12:15  -6.32  -3.89  -337.325916            +38.0,-0.0,-0.0
iter:  79  13:12:31  -6.31  -3.69  -337.325984            +38.1,-0.0,-0.0
iter:  80  13:12:48  -6.76  -3.85  -337.325949            +38.0,-0.0,+0.0
iter:  81  13:13:04  -6.18  -3.95  -337.326069            +38.1,-0.0,+0.0
iter:  82  13:13:20  -5.76  -3.64  -337.326101            +38.1,+0.0,+0.0
iter:  83  13:13:36  -6.13  -3.64  -337.326104            +38.1,+0.0,+0.0
iter:  84  13:13:52  -5.93  -3.61  -337.326167            +38.1,+0.0,+0.0
iter:  85  13:14:08  -6.54  -3.54  -337.326099            +38.1,+0.0,-0.0
iter:  86  13:14:24  -6.95  -3.83  -337.326086            +38.1,+0.0,-0.0
iter:  87  13:14:40  -6.90  -3.88  -337.326075            +38.1,+0.0,-0.0
iter:  88  13:14:57  -6.87  -4.16  -337.326078            +38.1,+0.0,-0.0
iter:  89  13:15:13  -7.44  -4.35  -337.326079            +38.1,+0.0,-0.0
iter:  90  13:15:29  -8.24  -4.36  -337.326078            +38.1,+0.0,+0.0
iter:  91  13:15:45  -7.05  -4.34  -337.326079            +38.1,+0.0,+0.0
iter:  92  13:16:01  -7.25  -4.20  -337.326075            +38.1,+0.0,+0.0
iter:  93  13:16:17  -7.08  -4.16  -337.326082            +38.1,+0.0,+0.0
iter:  94  13:16:33  -6.76  -4.10  -337.326082            +38.1,+0.0,+0.0
iter:  95  13:16:49  -7.58  -3.98  -337.326082            +38.1,+0.0,+0.0
iter:  96  13:17:06  -7.99  -4.04  -337.326080            +38.1,+0.0,+0.0
iter:  97  13:17:22  -7.46  -4.09  -337.326075            +38.1,+0.0,+0.0
iter:  98  13:17:38  -7.98  -4.33  -337.326075            +38.1,+0.0,+0.0
iter:  99  13:17:54  -7.88  -4.47  -337.326077            +38.1,-0.0,+0.0
iter: 100  13:18:10  -8.03  -4.64  -337.326078            +38.1,+0.0,+0.0
iter: 101  13:18:26  -7.32  -4.74  -337.326083            +38.1,+0.0,+0.0
iter: 102  13:18:42  -8.01  -4.43  -337.326082            +38.1,+0.0,+0.0
iter: 103  13:18:58  -5.61  -4.41  -337.326025            +38.1,+0.0,+0.0
iter: 104  13:19:14  -6.27  -3.76  -337.326090            +38.1,+0.0,+0.0
iter: 105  13:19:30  -7.06  -4.17  -337.326059            +38.1,+0.0,+0.0
iter: 106  13:19:47  -6.63  -3.94  -337.326066            +38.1,+0.0,+0.0
iter: 107  13:20:03  -7.40  -4.13  -337.326068            +38.1,+0.0,+0.0
iter: 108  13:20:19  -7.84  -4.03  -337.326070            +38.1,+0.0,+0.0
iter: 109  13:20:35  -7.47  -4.03  -337.326080            +38.1,+0.0,+0.0
iter: 110  13:20:51  -6.33  -3.97  -337.326136            +38.1,-0.0,+0.0
iter: 111  13:21:07  -6.41  -3.74  -337.326069            +38.1,-0.0,+0.0
iter: 112  13:21:23  -7.24  -4.39  -337.326069            +38.1,-0.0,+0.0
iter: 113  13:21:39  -6.33  -4.55  -337.326064            +38.1,-0.0,+0.0
iter: 114  13:21:56  -6.34  -3.95  -337.326066            +38.1,-0.0,+0.0
iter: 115  13:22:12  -7.17  -4.44  -337.326067            +38.1,-0.0,+0.0
iter: 116  13:22:28  -7.08  -4.46  -337.326082            +38.1,-0.0,+0.0
iter: 117  13:22:44  -7.75  -4.55  -337.326087            +38.1,-0.0,+0.0
iter: 118  13:23:00  -7.70  -4.57  -337.326091            +38.1,-0.0,+0.0
iter: 119  13:23:16  -6.64  -4.54  -337.326081            +38.1,-0.0,+0.0
iter: 120  13:23:33  -7.17  -4.12  -337.326072            +38.1,-0.0,+0.0
iter: 121  13:23:49  -8.00  -4.29  -337.326076            +38.1,-0.0,+0.0
iter: 122  13:24:05  -8.35  -4.39  -337.326075            +38.1,-0.0,+0.0
iter: 123  13:24:21  -7.10  -4.28  -337.326101            +38.1,-0.0,+0.0
iter: 124  13:24:37  -6.95  -4.26  -337.326085            +38.1,-0.0,+0.0
iter: 125  13:24:53  -6.35  -4.10  -337.326091            +38.1,-0.0,+0.0
iter: 126  13:25:09  -6.88  -4.45  -337.326093            +38.1,-0.0,+0.0
iter: 127  13:25:25  -6.99  -4.16  -337.326089            +38.1,-0.0,+0.0
iter: 128  13:25:41  -8.13  -5.01  -337.326091            +38.1,-0.0,+0.0
iter: 129  13:25:58  -8.23  -4.92  -337.326084            +38.1,-0.0,+0.0
iter: 130  13:26:14  -7.71  -4.49  -337.326089            +38.1,-0.0,+0.0
iter: 131  13:26:30  -7.83  -4.97  -337.326079            +38.1,-0.0,+0.0
iter: 132  13:26:46  -7.25  -4.26  -337.326078            +38.1,-0.0,+0.0
iter: 133  13:27:02  -7.95  -4.04  -337.326079            +38.1,-0.0,+0.0
iter: 134  13:27:18  -7.65  -4.06  -337.326082            +38.1,-0.0,-0.0
iter: 135  13:27:34  -7.39  -4.08  -337.326086            +38.1,-0.0,-0.0
iter: 136  13:27:50  -6.67  -3.97  -337.326080            +38.1,-0.0,+0.0
iter: 137  13:28:06  -7.64  -4.40  -337.326075            +38.1,+0.0,+0.0
iter: 138  13:28:22  -7.83  -4.63  -337.326078            +38.1,-0.0,+0.0
iter: 139  13:28:38  -7.53  -4.83  -337.326063            +38.1,-0.0,+0.0
iter: 140  13:28:54  -7.61  -4.62  -337.326081            +38.1,-0.0,+0.0
iter: 141  13:29:10  -6.70  -4.82  -337.326083            +38.1,-0.0,+0.0
iter: 142  13:29:27  -6.49  -4.05  -337.326084            +38.1,-0.0,+0.0
iter: 143  13:29:43  -7.22  -3.78  -337.326082            +38.1,-0.0,+0.0
iter: 144  13:29:59  -7.52  -3.81  -337.326089            +38.1,-0.0,+0.0
iter: 145  13:30:15  -6.79  -3.75  -337.326054            +38.1,-0.0,+0.0
iter: 146  13:30:31  -7.62  -3.99  -337.326054            +38.1,-0.0,+0.0
iter: 147  13:30:47  -7.36  -3.98  -337.326050            +38.1,-0.0,+0.0
iter: 148  13:31:03  -7.10  -4.08  -337.326042            +38.1,-0.0,+0.0
iter: 149  13:31:19  -8.07  -4.23  -337.326043            +38.1,-0.0,+0.0
iter: 150  13:31:35  -7.30  -4.26  -337.326053            +38.1,+0.0,+0.0
iter: 151  13:31:51  -7.47  -4.40  -337.326043            +38.1,+0.0,+0.0
iter: 152  13:32:07  -7.49  -4.36  -337.326037            +38.1,+0.0,+0.0
iter: 153  13:32:24  -7.41  -4.39  -337.326019            +38.1,+0.0,+0.0
iter: 154  13:32:40  -6.40  -4.21  -337.326055            +38.1,+0.0,-0.0
iter: 155  13:32:56  -7.00  -4.09  -337.326059            +38.1,+0.0,-0.0
iter: 156  13:33:12  -7.52  -4.12  -337.326064            +38.1,+0.0,+0.0
iter: 157  13:33:28  -6.99  -4.17  -337.326064            +38.1,+0.0,+0.0
iter: 158  13:33:44  -6.00  -3.98  -337.326059            +38.1,+0.0,+0.0
iter: 159  13:34:00  -6.87  -4.19  -337.326097            +38.1,+0.0,-0.0
iter: 160  13:34:16  -6.32  -4.01  -337.326023            +38.1,+0.0,+0.0
iter: 161  13:34:32  -6.80  -4.07  -337.326024            +38.1,+0.0,+0.0
iter: 162  13:34:48  -6.26  -4.13  -337.326046            +38.1,+0.0,+0.0
iter: 163  13:35:04  -7.45  -4.06  -337.326038            +38.1,+0.0,-0.0
iter: 164  13:35:20  -6.91  -4.02  -337.326063            +38.1,+0.0,+0.0
iter: 165  13:35:36  -6.74  -4.26  -337.326072            +38.1,+0.0,+0.0
iter: 166  13:35:52  -6.36  -4.00  -337.326068            +38.1,+0.0,+0.0
iter: 167  13:36:08  -7.17  -3.92  -337.326055            +38.1,+0.0,+0.0
iter: 168  13:36:24  -7.12  -4.59  -337.326048            +38.1,+0.0,+0.0
iter: 169  13:36:40  -7.73  -4.46  -337.326045            +38.1,+0.0,+0.0
iter: 170  13:36:57  -6.99  -4.29  -337.326022            +38.1,+0.0,+0.0
iter: 171  13:37:13  -7.06  -3.82  -337.326026            +38.1,+0.0,+0.0
iter: 172  13:37:29  -6.67  -4.00  -337.325996            +38.1,+0.0,+0.0
iter: 173  13:37:45  -6.00  -3.76  -337.326103            +38.1,+0.0,+0.0
iter: 174  13:38:01  -6.55  -3.45  -337.326137            +38.1,+0.0,-0.0
iter: 175  13:38:17  -6.05  -3.40  -337.325908            +38.1,+0.0,+0.0
iter: 176  13:38:33  -6.29  -3.96  -337.325869            +38.1,+0.0,+0.0
iter: 177  13:38:49  -6.67  -4.44  -337.325905            +38.1,+0.0,+0.0
iter: 178  13:39:05  -7.05  -4.16  -337.325941            +38.1,+0.0,-0.0
iter: 179  13:39:21  -7.03  -4.54  -337.325983            +38.1,+0.0,+0.0
iter: 180  13:39:37  -5.95  -4.64  -337.326152            +38.1,+0.0,+0.0
iter: 181  13:39:53  -6.78  -3.61  -337.326070            +38.1,+0.0,+0.0
iter: 182  13:40:09  -6.67  -3.84  -337.325999            +38.1,+0.0,+0.0
iter: 183  13:40:26  -7.54  -4.18  -337.326041            +38.1,+0.0,+0.0
iter: 184  13:40:42  -6.34  -3.95  -337.326063            +38.1,+0.0,+0.0
iter: 185  13:40:58  -6.29  -3.94  -337.326104            +38.1,+0.0,+0.0
iter: 186  13:41:14  -5.51  -3.69  -337.325933            +38.1,+0.0,+0.0
iter: 187  13:41:30  -6.21  -3.81  -337.325953            +38.1,+0.0,+0.0
iter: 188  13:41:46  -6.10  -3.91  -337.326006            +38.1,+0.0,+0.0
iter: 189  13:42:02  -6.82  -4.37  -337.326018            +38.1,+0.0,+0.0
iter: 190  13:42:18  -7.30  -4.29  -337.325987            +38.1,+0.0,+0.0
iter: 191  13:42:34  -5.73  -4.27  -337.325918            +38.1,+0.0,+0.0
iter: 192  13:42:50  -5.88  -3.75  -337.326020            +38.1,+0.0,+0.0
iter: 193  13:43:06  -6.99  -4.21  -337.326014            +38.1,+0.0,-0.0
iter: 194  13:43:22  -6.79  -4.26  -337.326065            +38.1,+0.0,+0.0
iter: 195  13:43:38  -6.58  -4.00  -337.326055            +38.1,+0.0,+0.0
iter: 196  13:43:54  -6.75  -3.93  -337.326018            +38.1,+0.0,+0.0
iter: 197  13:44:11  -7.52  -4.34  -337.326038            +38.1,+0.0,+0.0
iter: 198  13:44:27  -7.14  -4.10  -337.326021            +38.1,+0.0,+0.0
iter: 199  13:44:43  -7.21  -4.45  -337.326004            +38.1,+0.0,+0.0
iter: 200  13:44:59  -7.17  -4.77  -337.326036            +38.1,+0.0,+0.0
iter: 201  13:45:15  -6.14  -4.17  -337.325944            +38.2,+0.0,+0.0
iter: 202  13:45:31  -6.85  -3.79  -337.325995            +38.2,+0.0,+0.0
iter: 203  13:45:47  -6.18  -4.03  -337.326029            +38.2,+0.0,+0.0
iter: 204  13:46:03  -6.90  -3.80  -337.326030            +38.2,+0.0,-0.0
iter: 205  13:46:19  -7.27  -3.91  -337.326008            +38.2,+0.0,-0.0
iter: 206  13:46:35  -6.33  -3.86  -337.325975            +38.2,+0.0,+0.0
iter: 207  13:46:51  -7.39  -3.99  -337.325973            +38.2,+0.0,+0.0
iter: 208  13:47:07  -6.94  -3.99  -337.325962            +38.2,+0.0,-0.0
iter: 209  13:47:23  -6.78  -3.90  -337.325981            +38.2,-0.0,+0.0
iter: 210  13:47:39  -7.01  -4.13  -337.325965            +38.2,+0.0,+0.0
iter: 211  13:47:55  -6.67  -4.01  -337.325928            +38.2,-0.0,+0.0
iter: 212  13:48:11  -6.69  -3.74  -337.325951            +38.2,+0.0,+0.0
iter: 213  13:48:28  -6.61  -3.83  -337.325933            +38.2,+0.0,+0.0
iter: 214  13:48:44  -5.93  -3.74  -337.326086            +38.1,-0.0,+0.0
iter: 215  13:49:00  -6.08  -3.67  -337.325944            +38.2,-0.0,+0.0
iter: 216  13:49:16  -6.51  -3.71  -337.325930            +38.2,-0.0,+0.0
iter: 217  13:49:32  -6.36  -3.62  -337.325954            +38.2,-0.0,+0.0
iter: 218  13:49:48  -6.77  -3.91  -337.325948            +38.2,-0.0,+0.0
iter: 219  13:50:04  -5.50  -3.82  -337.325980            +38.1,-0.0,+0.0
iter: 220  13:50:21  -6.35  -3.52  -337.325954            +38.2,-0.0,+0.0
iter: 221  13:50:37  -5.55  -4.10  -337.325939            +38.2,+0.0,+0.0
iter: 222  13:50:53  -6.53  -3.63  -337.325936            +38.2,-0.0,+0.0
iter: 223  13:51:09  -6.43  -3.65  -337.325963            +38.2,+0.0,+0.0
iter: 224  13:51:25  -6.27  -4.05  -337.325983            +38.2,+0.0,+0.0
iter: 225  13:51:41  -6.09  -4.14  -337.325934            +38.2,+0.0,+0.0
iter: 226  13:51:57  -6.32  -3.72  -337.325900            +38.2,-0.0,+0.0
iter: 227  13:52:13  -6.89  -3.64  -337.325945            +38.2,+0.0,+0.0
iter: 228  13:52:29  -5.54  -3.81  -337.326020            +38.1,+0.0,+0.0
iter: 229  13:52:45  -6.62  -3.72  -337.326000            +38.2,+0.0,+0.0
iter: 230  13:53:01  -5.26  -4.04  -337.325896            +38.2,+0.0,+0.0
iter: 231  13:53:17  -6.21  -3.50  -337.325958            +38.2,+0.0,+0.0
iter: 232  13:53:33  -6.85  -3.80  -337.325942            +38.2,+0.0,+0.0
iter: 233  13:53:49  -5.77  -3.66  -337.325993            +38.2,+0.0,+0.0
iter: 234  13:54:05  -6.83  -4.30  -337.325978            +38.2,+0.0,+0.0
iter: 235  13:54:21  -5.59  -4.53  -337.325940            +38.2,+0.0,+0.0
iter: 236  13:54:37  -6.85  -3.57  -337.325970            +38.2,+0.0,+0.0
iter: 237  13:54:53  -6.77  -3.71  -337.325962            +38.2,+0.0,+0.0
iter: 238  13:55:09  -6.38  -3.62  -337.326000            +38.2,+0.0,+0.0
iter: 239  13:55:26  -5.85  -3.96  -337.325847            +38.2,-0.0,+0.0
iter: 240  13:55:42  -6.04  -3.60  -337.325944            +38.2,+0.0,+0.0
iter: 241  13:55:58  -5.79  -3.67  -337.326128            +38.1,+0.0,+0.0
iter: 242  13:56:14  -5.19  -3.49  -337.325551            +38.3,+0.0,+0.0
iter: 243  13:56:30  -5.84  -3.53  -337.325928            +38.2,+0.0,+0.0
iter: 244  13:56:46  -5.50  -3.64  -337.326141            +38.1,+0.0,+0.0
iter: 245  13:57:02  -5.53  -3.46  -337.325787            +38.2,+0.0,+0.0
iter: 246  13:57:18  -5.84  -3.60  -337.325964            +38.1,+0.0,+0.0
iter: 247  13:57:34  -5.54  -3.71  -337.325725            +38.2,+0.0,+0.0
iter: 248  13:57:50  -5.88  -3.62  -337.325887            +38.1,+0.0,+0.0
iter: 249  13:58:06  -5.17  -4.08  -337.326226            +38.0,+0.0,+0.0
iter: 250  13:58:22  -5.99  -3.38  -337.325897            +38.1,+0.0,+0.0
iter: 251  13:58:38  -5.25  -3.46  -337.325994            +38.2,+0.0,+0.0
iter: 252  13:58:54  -5.92  -3.74  -337.326079            +38.1,+0.0,+0.0
iter: 253  13:59:10  -5.69  -3.76  -337.325942            +38.2,+0.0,+0.0
iter: 254  13:59:26  -4.82  -3.55  -337.326334            +37.9,+0.0,+0.0
iter: 255  13:59:42  -5.87  -3.36  -337.326396            +38.0,+0.0,+0.0
iter: 256  13:59:58  -6.05  -3.37  -337.326398            +38.0,+0.0,+0.0
iter: 257  14:00:14  -6.42  -3.41  -337.326335            +38.0,-0.0,+0.0
iter: 258  14:00:30  -5.97  -3.44  -337.326232            +38.0,-0.0,+0.0
iter: 259  14:00:46  -6.07  -3.51  -337.326171            +38.0,-0.0,-0.0
iter: 260  14:01:02  -5.76  -3.59  -337.326110            +38.0,+0.0,-0.0
iter: 261  14:01:18  -6.57  -3.83  -337.326100            +38.0,-0.0,-0.0
iter: 262  14:01:34  -7.09  -3.93  -337.326096            +38.0,-0.0,-0.0
iter: 263  14:01:50  -7.26  -4.04  -337.326097            +38.0,-0.0,-0.0
iter: 264  14:02:06  -7.14  -4.16  -337.326106            +38.0,-0.0,-0.0
iter: 265  14:02:22  -5.77  -4.07  -337.325929            +37.9,-0.0,-0.0
iter: 266  14:02:38  -5.55  -3.86  -337.326236            +38.1,-0.0,-0.0
iter: 267  14:02:55  -6.90  -3.43  -337.326126            +38.0,-0.0,-0.0
iter: 268  14:03:11  -7.56  -3.78  -337.326112            +38.0,-0.0,-0.0
iter: 269  14:03:27  -6.40  -3.98  -337.326084            +38.0,-0.0,-0.0
iter: 270  14:03:43  -5.62  -4.06  -337.325829            +37.9,+0.0,-0.0
iter: 271  14:03:59  -6.48  -3.82  -337.325866            +37.9,+0.0,-0.0
iter: 272  14:04:15  -5.71  -3.83  -337.326106            +38.0,+0.0,-0.0
iter: 273  14:04:31  -5.97  -4.24  -337.326143            +38.0,+0.0,-0.0
iter: 274  14:04:47  -7.03  -3.69  -337.326108            +38.0,+0.0,-0.0
iter: 275  14:05:03  -6.48  -4.23  -337.326077            +38.0,+0.0,-0.0
iter: 276  14:05:19  -6.57  -4.02  -337.326113            +38.0,+0.0,-0.0
iter: 277  14:05:35  -6.66  -4.08  -337.326122            +38.0,+0.0,-0.0
iter: 278  14:05:51  -5.81  -3.88  -337.326328            +38.1,+0.0,-0.0
iter: 279  14:06:08  -5.44  -3.35  -337.326042            +38.0,+0.0,-0.0
iter: 280  14:06:24  -5.98  -3.96  -337.326184            +38.1,+0.0,-0.0
iter: 281  14:06:40  -4.71  -3.52  -337.324750            +37.8,+0.0,-0.0
iter: 282  14:06:56  -5.33  -3.62  -337.326101            +38.0,+0.0,-0.0
iter: 283  14:07:12  -5.52  -4.31  -337.326182            +38.1,+0.0,-0.0
iter: 284  14:07:28  -5.99  -3.52  -337.326069            +38.0,+0.0,-0.0
iter: 285  14:07:44  -7.24  -4.02  -337.326101            +38.0,+0.0,-0.0
iter: 286  14:08:00  -6.67  -4.21  -337.326109            +38.0,+0.0,-0.0
iter: 287  14:08:16  -5.88  -4.43  -337.326238            +38.1,+0.0,-0.0
iter: 288  14:08:32  -6.98  -3.43  -337.326180            +38.1,+0.0,-0.0
iter: 289  14:08:48  -5.79  -3.53  -337.326088            +38.0,+0.0,-0.0
iter: 290  14:09:04  -5.32  -4.08  -337.325701            +37.9,+0.0,-0.0
iter: 291  14:09:20  -5.84  -3.80  -337.326105            +38.0,+0.0,-0.0
iter: 292  14:09:36  -6.36  -4.33  -337.326110            +38.0,+0.0,-0.0
iter: 293  14:09:52  -6.17  -4.61  -337.326144            +38.0,+0.0,-0.0
iter: 294  14:10:08  -7.14  -3.67  -337.326111            +38.0,+0.0,-0.0
iter: 295  14:10:24  -6.95  -4.39  -337.326108            +38.0,+0.0,-0.0
iter: 296  14:10:40  -5.74  -4.42  -337.325963            +37.9,+0.0,-0.0
iter: 297  14:10:56  -6.85  -3.90  -337.326024            +37.9,+0.0,-0.0
iter: 298  14:11:12  -6.19  -3.94  -337.326111            +38.0,+0.0,-0.0
iter: 299  14:11:28  -6.17  -4.35  -337.326122            +38.0,+0.0,-0.0
iter: 300  14:11:44  -6.27  -3.90  -337.326173            +38.1,+0.0,-0.0
iter: 301  14:12:00  -6.25  -3.55  -337.326109            +38.0,+0.0,-0.0
iter: 302  14:12:16  -6.62  -4.31  -337.326100            +38.0,+0.0,-0.0
iter: 303  14:12:32  -7.21  -4.13  -337.326112            +38.0,+0.0,-0.0
iter: 304  14:12:48  -6.17  -4.72  -337.326157            +38.1,+0.0,-0.0
iter: 305  14:13:04  -7.31  -3.61  -337.326131            +38.0,+0.0,-0.0
iter: 306  14:13:20  -6.19  -3.77  -337.326106            +38.0,+0.0,-0.0
iter: 307  14:13:36  -6.15  -4.20  -337.326177            +38.1,+0.0,-0.0
iter: 308  14:13:52  -7.27  -3.54  -337.326118            +38.0,+0.0,-0.0
iter: 309  14:14:08  -8.08  -4.02  -337.326117            +38.0,+0.0,-0.0
iter: 310  14:14:24  -6.64  -4.08  -337.326111            +38.0,+0.0,-0.0
iter: 311  14:14:40  -5.71  -4.42  -337.325982            +37.9,+0.0,-0.0
iter: 312  14:14:57  -6.06  -3.91  -337.326113            +38.0,+0.0,-0.0
iter: 313  14:15:13  -6.60  -4.59  -337.326116            +38.0,+0.0,-0.0
iter: 314  14:15:29  -6.75  -4.13  -337.326126            +38.0,+0.0,-0.0
iter: 315  14:15:45  -6.53  -3.83  -337.326111            +38.0,+0.0,-0.0
iter: 316  14:16:01  -7.91  -4.37  -337.326113            +38.0,+0.0,-0.0
iter: 317  14:16:17  -7.85  -5.04  -337.326112            +38.0,+0.0,-0.0
iter: 318  14:16:33  -7.61  -4.55  -337.326112            +38.0,+0.0,-0.0
iter: 319  14:16:49  -4.70  -4.40  -337.326141            +38.3,+0.0,-0.0
iter: 320  14:17:05  -5.38  -3.25  -337.326137            +38.0,+0.0,-0.0
iter: 321  14:17:21  -6.48  -3.70  -337.326160            +38.1,+0.0,-0.0
iter: 322  14:17:37  -6.25  -3.59  -337.326350            +38.1,+0.0,-0.0
iter: 323  14:17:53  -5.11  -3.34  -337.325927            +37.9,+0.0,-0.0
iter: 324  14:18:09  -4.41  -3.88  -337.325187            +38.4,+0.0,-0.0
iter: 325  14:18:25  -5.10  -3.20  -337.326165            +38.1,+0.0,-0.0
iter: 326  14:18:41  -6.26  -3.57  -337.326223            +38.1,+0.0,-0.0
iter: 327  14:18:57  -6.25  -3.45  -337.326403            +38.1,+0.0,-0.0
iter: 328  14:19:14  -6.82  -3.32  -337.326415            +38.1,+0.0,-0.0
iter: 329  14:19:29  -7.26  -3.31  -337.326412            +38.1,-0.0,-0.0
iter: 330  14:19:45  -5.89  -3.32  -337.326439            +38.2,+0.0,-0.0
iter: 331  14:20:02  -6.14  -3.30  -337.326406            +38.2,-0.0,-0.0
iter: 332  14:20:18  -6.02  -3.30  -337.326364            +38.2,+0.0,-0.0
iter: 333  14:20:34  -5.95  -3.30  -337.326266            +38.2,+0.0,+0.0
iter: 334  14:20:50  -5.48  -3.32  -337.326051            +38.2,+0.0,-0.0
iter: 335  14:21:06  -5.78  -3.48  -337.326015            +38.2,+0.0,-0.0
iter: 336  14:21:22  -5.87  -3.61  -337.325988            +38.2,+0.0,+0.0
iter: 337  14:21:38  -6.03  -3.66  -337.325931            +38.2,+0.0,-0.0
iter: 338  14:21:54  -5.70  -3.62  -337.326041            +38.1,+0.0,-0.0
iter: 339  14:22:10  -5.64  -3.75  -337.326182            +38.2,+0.0,-0.0
iter: 340  14:22:26  -5.90  -3.44  -337.326176            +38.2,+0.0,-0.0
iter: 341  14:22:42  -5.76  -3.41  -337.325970            +38.2,+0.0,-0.0
iter: 342  14:22:58  -5.78  -3.63  -337.325998            +38.2,-0.0,-0.0
iter: 343  14:23:14  -5.99  -3.68  -337.325967            +38.2,+0.0,-0.0
iter: 344  14:23:30  -6.05  -3.62  -337.325888            +38.2,+0.0,-0.0
iter: 345  14:23:46  -5.93  -3.75  -337.325920            +38.2,-0.0,-0.0
iter: 346  14:24:03  -6.64  -4.09  -337.325920            +38.2,+0.0,-0.0
iter: 347  14:24:19  -6.79  -4.31  -337.325864            +38.2,-0.0,-0.0
iter: 348  14:24:35  -7.81  -3.97  -337.325859            +38.2,+0.0,-0.0
iter: 349  14:24:51  -5.69  -3.98  -337.325558            +38.2,+0.0,-0.0
iter: 350  14:25:07  -5.23  -3.71  -337.326101            +38.1,-0.0,-0.0
iter: 351  14:25:23  -6.55  -3.50  -337.325937            +38.2,+0.0,-0.0
iter: 352  14:25:39  -7.05  -4.15  -337.325980            +38.2,-0.0,-0.0
iter: 353  14:25:55  -5.34  -3.84  -337.325510            +38.3,+0.0,-0.0
iter: 354  14:26:11  -6.34  -3.67  -337.325839            +38.2,+0.0,-0.0
iter: 355  14:26:27  -6.57  -3.96  -337.325882            +38.2,+0.0,-0.0
iter: 356  14:26:43  -6.39  -4.25  -337.325909            +38.2,+0.0,-0.0
iter: 357  14:26:59  -5.56  -4.21  -337.326302            +38.1,+0.0,-0.0
iter: 358  14:27:15  -5.03  -3.38  -337.325342            +38.3,+0.0,-0.0
iter: 359  14:27:31  -6.31  -3.63  -337.325738            +38.2,-0.0,-0.0
iter: 360  14:27:47  -6.64  -3.78  -337.325842            +38.2,+0.0,-0.0
iter: 361  14:28:03  -5.68  -3.91  -337.326071            +38.1,-0.0,+0.0
iter: 362  14:28:19  -6.68  -3.58  -337.325911            +38.2,+0.0,-0.0
iter: 363  14:28:35  -7.53  -4.36  -337.325939            +38.2,-0.0,-0.0
iter: 364  14:28:51  -6.61  -4.48  -337.325899            +38.2,-0.0,+0.0
iter: 365  14:29:07  -5.14  -4.10  -337.324946            +38.4,-0.0,+0.0
iter: 366  14:29:23  -5.24  -3.62  -337.326021            +38.2,-0.0,+0.0
iter: 367  14:29:39  -6.43  -3.68  -337.325882            +38.2,-0.0,+0.0
iter: 368  14:29:55  -6.37  -4.04  -337.325965            +38.2,-0.0,+0.0
iter: 369  14:30:11  -5.05  -4.06  -337.324893            +38.4,-0.0,+0.0
iter: 370  14:30:27  -5.85  -3.59  -337.325779            +38.2,-0.0,+0.0
iter: 371  14:30:43  -5.57  -3.86  -337.325982            +38.2,-0.0,+0.0
iter: 372  14:30:59  -6.07  -3.82  -337.325755            +38.2,-0.0,-0.0
iter: 373  14:31:15  -6.11  -3.85  -337.325921            +38.2,-0.0,+0.0
iter: 374  14:31:31  -6.29  -4.15  -337.325890            +38.2,-0.0,-0.0
iter: 375  14:31:47  -5.53  -3.83  -337.326281            +38.1,-0.0,+0.0
iter: 376  14:32:03  -5.08  -3.36  -337.325539            +38.3,-0.0,+0.0
iter: 377  14:32:19  -5.15  -3.70  -337.326169            +38.1,-0.0,-0.0
iter: 378  14:32:35  -4.82  -3.33  -337.326275            +37.9,-0.0,-0.0
iter: 379  14:32:51  -5.41  -3.20  -337.326316            +38.1,-0.0,-0.0
iter: 380  14:33:07  -5.82  -3.35  -337.326505            +38.0,-0.0,-0.0
iter: 381  14:33:23  -5.56  -3.26  -337.326446            +38.0,-0.0,-0.0
iter: 382  14:33:39  -5.83  -3.26  -337.326279            +38.0,-0.0,-0.0
iter: 383  14:33:55  -5.82  -3.36  -337.326052            +38.0,-0.0,-0.0
iter: 384  14:34:11  -6.15  -3.51  -337.325980            +38.0,+0.0,-0.0
iter: 385  14:34:27  -5.94  -3.59  -337.325936            +38.0,-0.0,-0.0
iter: 386  14:34:43  -6.67  -3.74  -337.325882            +38.0,+0.0,-0.0
iter: 387  14:34:59  -6.30  -3.76  -337.325875            +38.0,+0.0,-0.0
iter: 388  14:35:15  -6.60  -4.00  -337.325821            +38.0,-0.0,-0.0
iter: 389  14:35:31  -6.03  -4.18  -337.325627            +38.0,-0.0,-0.0
iter: 390  14:35:47  -4.91  -3.93  -337.326239            +38.0,-0.0,-0.0
iter: 391  14:36:03  -5.79  -3.34  -337.326243            +38.0,-0.0,-0.0
iter: 392  14:36:19  -5.92  -3.33  -337.326050            +38.0,-0.0,-0.0
iter: 393  14:36:35  -6.27  -3.70  -337.325998            +38.0,-0.0,-0.0
iter: 394  14:36:51  -6.27  -4.02  -337.326010            +38.0,-0.0,-0.0
iter: 395  14:37:07  -6.18  -4.25  -337.325892            +38.0,-0.0,-0.0
iter: 396  14:37:23  -4.93  -4.07  -337.326346            +38.0,-0.0,-0.0
iter: 397  14:37:39  -6.25  -3.31  -337.326268            +38.0,+0.0,-0.0
iter: 398  14:37:55  -6.02  -3.45  -337.326370            +38.1,+0.0,-0.0
iter: 399  14:38:11  -6.11  -3.29  -337.326199            +38.0,-0.0,+0.0
iter: 400  14:38:28  -6.22  -3.57  -337.326175            +38.0,+0.0,+0.0
iter: 401  14:38:44  -5.88  -3.53  -337.326463            +38.1,+0.0,+0.0
iter: 402  14:39:00  -5.78  -3.22  -337.326232            +38.1,+0.0,+0.0
iter: 403  14:39:16  -5.66  -3.40  -337.326067            +38.0,+0.0,+0.0
iter: 404  14:39:32  -6.08  -3.96  -337.326054            +38.0,+0.0,+0.0
iter: 405  14:39:48  -6.53  -3.99  -337.326062            +38.0,+0.0,+0.0
iter: 406  14:40:04  -6.29  -3.92  -337.326042            +38.0,-0.0,+0.0
iter: 407  14:40:20  -7.37  -3.78  -337.326032            +38.0,-0.0,+0.0
iter: 408  14:40:36  -5.87  -3.86  -337.326184            +38.0,-0.0,+0.0
iter: 409  14:40:52  -5.44  -3.58  -337.326073            +38.0,-0.0,+0.0
iter: 410  14:41:08  -4.80  -3.78  -337.325744            +38.2,-0.0,+0.0
iter: 411  14:41:24  -5.49  -3.21  -337.325967            +38.0,-0.0,+0.0
iter: 412  14:41:40  -6.21  -3.93  -337.326097            +38.1,-0.0,+0.0
iter: 413  14:41:56  -5.10  -3.53  -337.326121            +38.0,-0.0,+0.0
iter: 414  14:42:12  -6.06  -3.59  -337.326116            +38.0,-0.0,+0.0
iter: 415  14:42:28  -6.34  -3.62  -337.326232            +38.0,-0.0,+0.0
iter: 416  14:42:44  -5.49  -3.57  -337.326660            +38.0,-0.0,+0.0
iter: 417  14:43:00  -5.18  -3.27  -337.326037            +38.0,-0.0,+0.0
iter: 418  14:43:16  -6.46  -4.05  -337.326082            +38.0,-0.0,+0.0
iter: 419  14:43:32  -6.77  -4.03  -337.326105            +38.0,-0.0,+0.0
iter: 420  14:43:48  -6.19  -3.87  -337.326060            +38.0,-0.0,+0.0
iter: 421  14:44:04  -6.41  -4.33  -337.326126            +38.0,+0.0,+0.0
iter: 422  14:44:20  -6.18  -3.91  -337.326164            +38.0,+0.0,+0.0
iter: 423  14:44:36  -6.69  -3.73  -337.326174            +38.0,+0.0,+0.0
iter: 424  14:44:52  -7.46  -3.66  -337.326153            +38.0,+0.0,+0.0
iter: 425  14:45:08  -6.86  -3.74  -337.326119            +38.0,+0.0,+0.0
iter: 426  14:45:24  -6.52  -3.99  -337.326080            +38.0,+0.0,+0.0
iter: 427  14:45:40  -6.29  -3.90  -337.326106            +38.0,+0.0,+0.0
iter: 428  14:45:56  -6.96  -4.33  -337.326105            +38.0,+0.0,+0.0
iter: 429  14:46:12  -6.74  -4.49  -337.326108            +38.0,+0.0,+0.0
iter: 430  14:46:28  -6.05  -4.25  -337.326075            +38.0,+0.0,+0.0
iter: 431  14:46:44  -6.72  -3.88  -337.326101            +38.0,+0.0,+0.0
iter: 432  14:47:00  -6.30  -4.41  -337.326112            +38.0,+0.0,-0.0
iter: 433  14:47:16  -7.40  -3.99  -337.326110            +38.0,+0.0,+0.0
iter: 434  14:47:33  -7.50  -4.11  -337.326114            +38.0,+0.0,+0.0
iter: 435  14:47:48  -6.10  -4.04  -337.326129            +38.0,+0.0,+0.0
iter: 436  14:48:05  -6.14  -3.86  -337.326087            +38.0,+0.0,+0.0
iter: 437  14:48:21  -6.08  -3.85  -337.326116            +38.0,+0.0,+0.0
iter: 438  14:48:37  -6.32  -3.87  -337.326081            +38.0,+0.0,+0.0
iter: 439  14:48:52  -5.80  -3.90  -337.326138            +38.1,-0.0,+0.0
iter: 440  14:49:09  -6.27  -3.55  -337.326087            +38.0,+0.0,-0.0
iter: 441  14:49:25  -5.60  -4.14  -337.325883            +37.9,+0.0,-0.0
iter: 442  14:49:41  -6.47  -3.82  -337.326067            +38.0,+0.0,-0.0
iter: 443  14:49:57  -6.37  -4.04  -337.326014            +37.9,+0.0,-0.0
iter: 444  14:50:13  -5.62  -3.87  -337.326145            +38.0,+0.0,-0.0
iter: 445  14:50:29  -6.21  -3.83  -337.326130            +38.0,+0.0,-0.0
iter: 446  14:50:45  -6.80  -3.82  -337.326125            +38.0,+0.0,-0.0
iter: 447  14:51:01  -6.17  -3.90  -337.326099            +38.0,+0.0,-0.0
iter: 448  14:51:17  -6.84  -3.96  -337.326080            +38.0,+0.0,-0.0
iter: 449  14:51:33  -6.63  -4.23  -337.326066            +38.0,+0.0,-0.0
iter: 450  14:51:49  -6.14  -3.99  -337.326076            +38.0,+0.0,-0.0
iter: 451  14:52:05  -5.79  -3.97  -337.325960            +37.9,+0.0,-0.0
iter: 452  14:52:21  -5.67  -3.79  -337.325692            +37.9,+0.0,-0.0
iter: 453  14:52:37  -5.47  -3.67  -337.326078            +38.0,+0.0,-0.0
iter: 454  14:52:53  -6.18  -4.32  -337.325983            +37.9,+0.0,-0.0
iter: 455  14:53:09  -6.06  -3.80  -337.326119            +38.0,+0.0,-0.0
iter: 456  14:53:25  -6.31  -3.84  -337.326120            +38.0,+0.0,-0.0
iter: 457  14:53:41  -6.26  -4.02  -337.326110            +38.0,+0.0,-0.0
iter: 458  14:53:57  -5.31  -3.88  -337.326368            +38.1,+0.0,-0.0
iter: 459  14:54:13  -6.33  -3.30  -337.326276            +38.1,+0.0,-0.0
iter: 460  14:54:29  -6.95  -3.36  -337.326254            +38.1,+0.0,-0.0
iter: 461  14:54:45  -5.61  -3.37  -337.326090            +38.2,+0.0,-0.0
iter: 462  14:55:01  -6.32  -3.40  -337.326039            +38.2,+0.0,+0.0
iter: 463  14:55:17  -5.26  -3.48  -337.325901            +38.2,-0.0,+0.0
iter: 464  14:55:33  -6.39  -3.78  -337.325839            +38.2,-0.0,+0.0
iter: 465  14:55:49  -5.72  -3.69  -337.326212            +38.1,-0.0,+0.0
iter: 466  14:56:05  -6.14  -3.48  -337.326269            +38.1,-0.0,+0.0
iter: 467  14:56:21  -5.79  -3.46  -337.325899            +38.2,-0.0,+0.0
iter: 468  14:56:38  -5.92  -3.63  -337.325789            +38.2,-0.0,+0.0
iter: 469  14:56:54  -5.39  -3.52  -337.326162            +38.1,-0.0,+0.0
iter: 470  14:57:09  -6.42  -3.59  -337.326099            +38.1,-0.0,+0.0
iter: 471  14:57:26  -6.65  -3.69  -337.326134            +38.1,-0.0,+0.0
iter: 472  14:57:41  -5.68  -3.60  -337.325989            +38.2,+0.0,+0.0
iter: 473  14:57:58  -6.28  -3.58  -337.325951            +38.2,-0.0,+0.0
iter: 474  14:58:14  -7.00  -3.57  -337.325951            +38.2,+0.0,+0.0
iter: 475  14:58:29  -6.33  -3.64  -337.325985            +38.1,+0.0,+0.0
iter: 476  14:58:46  -7.11  -3.76  -337.325973            +38.2,+0.0,+0.0
iter: 477  14:59:02  -6.15  -3.80  -337.325955            +38.1,+0.0,+0.0
iter: 478  14:59:18  -6.49  -3.96  -337.326003            +38.1,+0.0,+0.0
iter: 479  14:59:34  -6.13  -3.85  -337.325892            +38.2,+0.0,+0.0
iter: 480  14:59:50  -6.00  -3.77  -337.325788            +38.2,+0.0,+0.0
iter: 481  15:00:06  -6.39  -3.63  -337.325909            +38.2,+0.0,+0.0
iter: 482  15:00:22  -6.35  -3.90  -337.325872            +38.2,+0.0,+0.0
iter: 483  15:00:38  -5.97  -3.70  -337.325984            +38.1,+0.0,+0.0
iter: 484  15:00:54  -4.91  -3.91  -337.324624            +38.4,+0.0,+0.0
iter: 485  15:01:10  -5.89  -3.51  -337.324903            +38.4,+0.0,+0.0
iter: 486  15:01:26  -4.78  -3.51  -337.326236            +38.1,+0.0,+0.0
iter: 487  15:01:42  -5.10  -3.46  -337.326346            +38.0,+0.0,+0.0
iter: 488  15:01:58  -5.39  -3.39  -337.325887            +38.2,+0.0,+0.0
iter: 489  15:02:14  -6.08  -3.84  -337.326167            +38.1,+0.0,+0.0
iter: 490  15:02:30  -5.93  -3.49  -337.325886            +38.2,+0.0,+0.0
iter: 491  15:02:46  -5.63  -3.96  -337.325660            +38.2,+0.0,+0.0
iter: 492  15:03:02  -5.17  -3.60  -337.326336            +38.0,+0.0,+0.0
iter: 493  15:03:18  -5.79  -3.42  -337.326373            +38.0,+0.0,+0.0
iter: 494  15:03:34  -6.09  -3.40  -337.326130            +38.1,+0.0,+0.0
iter: 495  15:03:50  -5.62  -3.57  -337.326415            +38.0,+0.0,+0.0
iter: 496  15:04:06  -5.72  -3.36  -337.326465            +38.0,+0.0,+0.0
iter: 497  15:04:22  -6.06  -3.31  -337.326641            +38.0,+0.0,+0.0
iter: 498  15:04:38  -6.25  -3.26  -337.326458            +38.0,+0.0,+0.0
iter: 499  15:04:54  -5.30  -3.33  -337.326183            +38.0,+0.0,+0.0
iter: 500  15:05:10  -5.94  -3.45  -337.326108            +38.0,+0.0,+0.0
iter: 501  15:05:26  -5.65  -3.53  -337.326044            +38.0,+0.0,+0.0
iter: 502  15:05:43  -6.59  -3.69  -337.326037            +38.0,-0.0,+0.0
iter: 503  15:05:59  -6.31  -3.75  -337.326029            +38.0,-0.0,+0.0
iter: 504  15:06:15  -6.68  -3.98  -337.326022            +38.0,-0.0,+0.0
iter: 505  15:06:31  -5.93  -4.08  -337.325977            +38.0,-0.0,+0.0
iter: 506  15:06:47  -6.79  -3.77  -337.325981            +38.0,-0.0,+0.0
iter: 507  15:07:03  -5.61  -3.74  -337.326026            +38.0,+0.0,+0.0
iter: 508  15:07:19  -6.63  -4.03  -337.326032            +38.0,-0.0,+0.0
iter: 509  15:07:35  -5.95  -4.08  -337.326080            +38.0,-0.0,+0.0
iter: 510  15:07:51  -6.11  -3.69  -337.326171            +38.0,-0.0,+0.0
iter: 511  15:08:07  -6.68  -3.51  -337.326083            +38.0,-0.0,+0.0
iter: 512  15:08:23  -5.96  -3.72  -337.325904            +38.0,-0.0,+0.0
iter: 513  15:08:39  -5.78  -3.63  -337.326192            +38.0,-0.0,+0.0
iter: 514  15:08:55  -5.81  -3.59  -337.326016            +38.0,+0.0,+0.0
iter: 515  15:09:11  -5.48  -3.95  -337.326179            +38.0,+0.0,+0.0
iter: 516  15:09:27  -6.61  -3.63  -337.326173            +38.0,+0.0,+0.0
iter: 517  15:09:43  -6.60  -3.67  -337.326112            +38.0,+0.0,+0.0
iter: 518  15:09:59  -6.68  -3.88  -337.326108            +38.0,+0.0,+0.0
iter: 519  15:10:15  -5.95  -3.85  -337.326224            +38.0,+0.0,+0.0
iter: 520  15:10:31  -7.36  -3.53  -337.326195            +38.0,+0.0,+0.0
iter: 521  15:10:47  -5.33  -3.60  -337.325978            +38.0,+0.0,+0.0
iter: 522  15:11:03  -6.07  -3.79  -337.326076            +38.0,+0.0,+0.0
iter: 523  15:11:19  -5.88  -3.96  -337.326133            +38.0,+0.0,+0.0
iter: 524  15:11:35  -6.84  -3.74  -337.326140            +38.0,+0.0,+0.0
iter: 525  15:11:51  -5.98  -3.75  -337.326223            +38.1,+0.0,+0.0
iter: 526  15:12:07  -6.26  -3.47  -337.326144            +38.1,+0.0,+0.0
iter: 527  15:12:23  -6.63  -3.74  -337.326119            +38.0,+0.0,+0.0
iter: 528  15:12:40  -6.05  -3.89  -337.326075            +38.0,+0.0,+0.0
iter: 529  15:12:56  -5.55  -3.77  -337.326192            +38.1,+0.0,+0.0
iter: 530  15:13:12  -6.08  -3.52  -337.326095            +38.0,+0.0,+0.0
iter: 531  15:13:28  -7.04  -4.15  -337.326094            +38.0,+0.0,+0.0
iter: 532  15:13:44  -7.48  -4.17  -337.326089            +38.0,+0.0,+0.0
iter: 533  15:14:00  -6.77  -4.32  -337.326075            +38.0,+0.0,+0.0
iter: 534  15:14:16  -7.09  -4.39  -337.326092            +38.0,+0.0,+0.0
iter: 535  15:14:32  -6.62  -4.34  -337.326107            +38.0,-0.0,+0.0
iter: 536  15:14:48  -7.09  -4.05  -337.326111            +38.0,+0.0,-0.0
iter: 537  15:15:04  -6.91  -3.97  -337.326138            +38.0,-0.0,-0.0
iter: 538  15:15:20  -6.01  -3.83  -337.326215            +38.0,-0.0,+0.0
iter: 539  15:15:36  -6.96  -3.53  -337.326153            +38.0,+0.0,-0.0
iter: 540  15:15:52  -7.55  -3.62  -337.326144            +38.0,+0.0,-0.0
iter: 541  15:16:08  -6.24  -3.66  -337.326226            +38.0,+0.0,-0.0
iter: 542  15:16:25  -5.65  -3.57  -337.326105            +38.0,+0.0,-0.0
iter: 543  15:16:41  -6.78  -4.13  -337.326109            +38.0,+0.0,-0.0
iter: 544  15:16:57  -6.85  -4.17  -337.326114            +38.0,+0.0,-0.0
iter: 545  15:17:13  -6.50  -4.28  -337.326120            +38.0,+0.0,-0.0
iter: 546  15:17:29  -7.67  -3.92  -337.326125            +38.0,+0.0,+0.0
iter: 547  15:17:45  -7.66  -3.97  -337.326125            +38.0,+0.0,+0.0
iter: 548  15:18:01  -6.48  -3.91  -337.326114            +38.0,+0.0,+0.0
iter: 549  15:18:17  -6.60  -4.38  -337.326142            +38.0,+0.0,+0.0
iter: 550  15:18:33  -7.34  -3.81  -337.326134            +38.0,+0.0,+0.0
iter: 551  15:18:49  -5.81  -4.00  -337.326084            +38.1,+0.0,-0.0
iter: 552  15:19:05  -5.53  -3.91  -337.326170            +38.0,+0.0,-0.0
iter: 553  15:19:21  -6.60  -3.62  -337.326167            +38.0,+0.0,+0.0
iter: 554  15:19:37  -7.29  -3.65  -337.326160            +38.0,+0.0,-0.0
iter: 555  15:19:53  -6.29  -3.66  -337.326275            +38.0,+0.0,-0.0
iter: 556  15:20:09  -5.72  -3.50  -337.326074            +38.0,+0.0,+0.0
iter: 557  15:20:25  -6.35  -3.99  -337.326072            +38.0,+0.0,+0.0
iter: 558  15:20:41  -7.00  -4.20  -337.326056            +38.0,-0.0,+0.0
iter: 559  15:20:57  -6.93  -4.10  -337.326060            +38.1,-0.0,+0.0
iter: 560  15:21:13  -7.03  -4.16  -337.326051            +38.0,-0.0,+0.0
iter: 561  15:21:29  -5.65  -4.14  -337.326255            +38.1,-0.0,+0.0
iter: 562  15:21:45  -6.22  -3.38  -337.326135            +38.1,-0.0,+0.0
iter: 563  15:22:01  -5.47  -3.79  -337.326232            +38.0,-0.0,+0.0
iter: 564  15:22:17  -5.83  -3.52  -337.326141            +37.9,-0.0,+0.0
iter: 565  15:22:33  -6.21  -3.50  -337.326207            +38.0,-0.0,+0.0
iter: 566  15:22:49  -5.64  -3.58  -337.326157            +38.0,-0.0,+0.0
iter: 567  15:23:05  -6.78  -3.63  -337.326147            +38.0,-0.0,+0.0
iter: 568  15:23:21  -6.07  -3.66  -337.326098            +38.0,-0.0,+0.0
iter: 569  15:23:37  -6.41  -3.89  -337.326077            +38.0,-0.0,+0.0
iter: 570  15:23:53  -6.23  -4.16  -337.326077            +38.0,-0.0,+0.0
iter: 571  15:24:09  -7.28  -3.81  -337.326077            +38.0,-0.0,+0.0
iter: 572  15:24:25  -6.99  -3.96  -337.326066            +38.0,-0.0,+0.0
iter: 573  15:24:41  -6.24  -4.11  -337.326103            +38.0,-0.0,+0.0
iter: 574  15:24:57  -6.05  -3.79  -337.326162            +38.1,-0.0,+0.0
iter: 575  15:25:13  -5.21  -3.46  -337.325928            +37.9,-0.0,+0.0
iter: 576  15:25:29  -5.45  -3.73  -337.325424            +37.8,-0.0,+0.0
iter: 577  15:25:45  -5.53  -3.74  -337.325626            +37.8,+0.0,+0.0
iter: 578  15:26:01  -5.15  -3.49  -337.326095            +38.0,+0.0,+0.0
iter: 579  15:26:17  -5.67  -3.91  -337.326133            +38.0,+0.0,+0.0
iter: 580  15:26:33  -4.82  -3.65  -337.326325            +38.2,+0.0,+0.0
iter: 581  15:26:49  -5.71  -3.22  -337.326367            +38.2,+0.0,+0.0
iter: 582  15:27:05  -5.96  -3.24  -337.326467            +38.1,-0.0,+0.0
iter: 583  15:27:21  -4.77  -3.28  -337.326499            +38.2,-0.0,+0.0
iter: 584  15:27:37  -5.85  -3.26  -337.326112            +38.2,-0.0,+0.0
iter: 585  15:27:53  -5.45  -3.50  -337.326019            +38.2,-0.0,+0.0
iter: 586  15:28:09  -6.23  -3.57  -337.325974            +38.2,-0.0,+0.0
iter: 587  15:28:25  -7.11  -4.00  -337.325965            +38.2,-0.0,+0.0
iter: 588  15:28:41  -6.95  -4.06  -337.325954            +38.2,+0.0,+0.0
iter: 589  15:28:58  -7.45  -4.15  -337.325949            +38.2,-0.0,-0.0
iter: 590  15:29:14  -6.46  -4.17  -337.326008            +38.2,-0.0,+0.0
iter: 591  15:29:30  -6.30  -3.99  -337.326011            +38.1,-0.0,-0.0
iter: 592  15:29:46  -5.22  -3.85  -337.325557            +38.3,-0.0,-0.0
iter: 593  15:30:02  -5.38  -3.57  -337.326156            +38.1,-0.0,+0.0
iter: 594  15:30:18  -5.36  -3.52  -337.326374            +38.0,-0.0,-0.0
iter: 595  15:30:34  -6.28  -3.40  -337.326424            +38.0,-0.0,+0.0
iter: 596  15:30:50  -5.21  -3.37  -337.326094            +38.0,-0.0,+0.0
iter: 597  15:31:06  -6.26  -3.77  -337.326103            +38.0,-0.0,+0.0
iter: 598  15:31:22  -5.96  -3.78  -337.326099            +38.0,-0.0,+0.0
iter: 599  15:31:38  -6.99  -3.74  -337.326101            +38.0,-0.0,+0.0
iter: 600  15:31:54  -6.87  -3.71  -337.326124            +38.0,-0.0,+0.0
iter: 601  15:32:10  -6.01  -3.74  -337.326108            +38.0,-0.0,+0.0
iter: 602  15:32:26  -6.02  -3.75  -337.326066            +38.0,-0.0,+0.0
iter: 603  15:32:42  -6.41  -3.73  -337.326036            +38.0,-0.0,+0.0
iter: 604  15:32:58  -6.18  -3.89  -337.326049            +38.0,-0.0,+0.0
iter: 605  15:33:14  -6.59  -3.79  -337.326001            +38.0,-0.0,+0.0
iter: 606  15:33:30  -6.81  -4.13  -337.325956            +38.0,-0.0,+0.0
iter: 607  15:33:46  -5.36  -4.18  -337.326307            +38.0,-0.0,+0.0
iter: 608  15:34:02  -6.60  -3.47  -337.326215            +38.0,-0.0,+0.0
iter: 609  15:34:18  -5.82  -3.60  -337.326233            +38.0,-0.0,+0.0
iter: 610  15:34:34  -5.88  -3.46  -337.326074            +38.0,-0.0,+0.0
iter: 611  15:34:50  -5.32  -3.75  -337.326547            +38.0,-0.0,+0.0
iter: 612  15:35:06  -5.64  -3.24  -337.326070            +38.0,+0.0,+0.0
iter: 613  15:35:22  -6.27  -3.71  -337.326074            +38.0,-0.0,+0.0
iter: 614  15:35:38  -5.38  -3.90  -337.326104            +38.0,+0.0,+0.0
iter: 615  15:35:54  -6.11  -3.83  -337.326087            +38.0,+0.0,+0.0
iter: 616  15:36:10  -6.66  -3.78  -337.326079            +38.0,+0.0,+0.0
iter: 617  15:36:26  -6.00  -3.78  -337.326219            +38.0,+0.0,+0.0
iter: 618  15:36:42  -5.05  -3.63  -337.326292            +38.0,-0.0,+0.0
iter: 619  15:36:58  -5.99  -3.43  -337.326022            +38.0,-0.0,+0.0
iter: 620  15:37:14  -6.96  -4.30  -337.326028            +38.0,-0.0,+0.0
iter: 621  15:37:30  -6.53  -4.38  -337.325976            +38.0,+0.0,+0.0
iter: 622  15:37:46  -5.22  -4.12  -337.326178            +38.0,+0.0,+0.0
iter: 623  15:38:02  -5.85  -3.60  -337.326225            +38.0,+0.0,+0.0
iter: 624  15:38:18  -6.46  -3.51  -337.326259            +38.0,+0.0,+0.0
iter: 625  15:38:34  -6.56  -3.44  -337.326135            +38.0,-0.0,+0.0
iter: 626  15:38:50  -6.11  -3.60  -337.326089            +38.0,+0.0,+0.0
iter: 627  15:39:06  -6.22  -3.96  -337.326120            +38.0,-0.0,+0.0
iter: 628  15:39:22  -6.79  -4.04  -337.326099            +38.0,+0.0,+0.0
iter: 629  15:39:39  -6.37  -4.12  -337.326038            +38.0,+0.0,+0.0
iter: 630  15:39:55  -5.48  -3.93  -337.326161            +38.0,-0.0,+0.0
iter: 631  15:40:11  -6.17  -3.79  -337.326182            +38.0,-0.0,+0.0
iter: 632  15:40:27  -6.94  -3.71  -337.326170            +38.0,-0.0,+0.0
iter: 633  15:40:43  -7.33  -3.82  -337.326147            +38.0,-0.0,+0.0
iter: 634  15:40:59  -6.74  -3.94  -337.326166            +38.0,-0.0,+0.0
iter: 635  15:41:15  -7.61  -3.77  -337.326148            +38.0,-0.0,+0.0
iter: 636  15:41:31  -5.88  -3.86  -337.326116            +38.0,-0.0,+0.0
iter: 637  15:41:47  -6.97  -4.23  -337.326134            +38.0,-0.0,-0.0
iter: 638  15:42:03  -7.34  -4.09  -337.326111            +38.0,-0.0,-0.0
iter: 639  15:42:19  -6.95  -4.11  -337.326129            +38.0,-0.0,+0.0
iter: 640  15:42:35  -6.95  -3.98  -337.326192            +38.0,-0.0,-0.0
iter: 641  15:42:51  -5.88  -3.87  -337.326130            +38.0,-0.0,+0.0
iter: 642  15:43:07  -5.79  -3.56  -337.325957            +38.0,-0.0,-0.0
iter: 643  15:43:23  -6.90  -4.31  -337.326082            +38.0,-0.0,-0.0
iter: 644  15:43:39  -7.37  -4.02  -337.326071            +38.0,-0.0,-0.0
iter: 645  15:43:55  -6.07  -4.18  -337.326113            +38.0,-0.0,-0.0
iter: 646  15:44:11  -6.27  -3.71  -337.326147            +38.1,-0.0,-0.0
iter: 647  15:44:27  -6.11  -3.60  -337.326178            +38.1,-0.0,-0.0
iter: 648  15:44:43  -7.02  -3.46  -337.326117            +38.1,-0.0,-0.0
iter: 649  15:44:59  -5.55  -3.57  -337.326127            +38.0,-0.0,+0.0
iter: 650  15:45:15  -6.42  -4.38  -337.326112            +38.0,-0.0,+0.0
iter: 651  15:45:31  -7.48  -3.81  -337.326159            +38.0,-0.0,+0.0
iter: 652  15:45:47  -7.15  -3.76  -337.326131            +38.0,-0.0,+0.0
iter: 653  15:46:03  -6.72  -3.93  -337.326136            +38.0,-0.0,-0.0
iter: 654  15:46:19  -6.60  -4.27  -337.326139            +38.0,-0.0,-0.0
iter: 655  15:46:35  -7.70  -4.84  -337.326133            +38.0,-0.0,-0.0
iter: 656  15:46:51  -6.49  -4.93  -337.326132            +38.0,-0.0,-0.0
iter: 657  15:47:07  -7.53  -4.05  -337.326123            +38.0,+0.0,+0.0
iter: 658  15:47:23  -7.36  -4.26  -337.326135            +38.0,-0.0,-0.0
iter: 659  15:47:39  -7.34  -4.55  -337.326181            +38.0,-0.0,+0.0
iter: 660  15:47:55  -7.37  -4.42  -337.326112            +38.0,-0.0,-0.0
iter: 661  15:48:11  -7.81  -4.33  -337.326126            +38.0,-0.0,-0.0
iter: 662  15:48:27  -7.70  -4.71  -337.326118            +38.0,+0.0,-0.0
iter: 663  15:48:43  -8.61  -4.95  -337.326111            +38.0,-0.0,+0.0
iter: 664  15:48:59  -8.90  -5.08  -337.326115            +38.0,+0.0,+0.0
iter: 665  15:49:15  -7.68  -5.04  -337.326107            +38.0,-0.0,+0.0
iter: 666  15:49:31  -8.37  -4.62  -337.326112            +38.0,-0.0,+0.0
iter: 667  15:49:47  -6.52  -4.95  -337.326116            +38.0,-0.0,+0.0
iter: 668  15:50:03  -7.79  -4.12  -337.326119            +38.0,-0.0,+0.0
iter: 669  15:50:19  -8.68  -4.28  -337.326120            +38.0,-0.0,+0.0
iter: 670  15:50:35  -7.85  -4.25  -337.326133            +38.0,-0.0,+0.0
iter: 671  15:50:51  -7.02  -4.17  -337.326098            +38.0,-0.0,+0.0
iter: 672  15:51:07  -7.36  -4.33  -337.326094            +38.0,+0.0,+0.0
iter: 673  15:51:23  -7.44  -4.42  -337.326130            +38.0,+0.0,+0.0
iter: 674  15:51:39  -8.51  -4.49  -337.326136            +38.0,+0.0,+0.0
iter: 675  15:51:55  -7.61  -4.54  -337.326176            +38.0,-0.0,+0.0
iter: 676  15:52:11  -7.66  -4.40  -337.326023            +38.0,-0.0,+0.0
iter: 677  15:52:27  -7.62  -4.26  -337.326279            +38.0,-0.0,+0.0
iter: 678  15:52:43  -8.14  -4.56  -337.326344            +38.0,-0.0,-0.0
iter: 679  15:52:59  -8.34  -4.62  -337.326280            +38.0,-0.0,-0.0
iter: 680  15:53:15  -8.23  -4.71  -337.326099            +38.0,+0.0,+0.0
iter: 681  15:53:31  -8.93  -4.80  -337.326018            +38.0,+0.0,-0.0
iter: 682  15:53:47  -8.29  -4.83  -337.325668            +38.0,-0.0,+0.0
iter: 683  15:54:03  -8.33  -4.93  -337.325662            +38.0,-0.0,+0.0
iter: 684  15:54:19  -8.84  -4.82  -337.326112            +38.0,+0.0,+0.0
iter: 685  15:54:35  -8.98  -5.00  -337.326351            +38.0,+0.0,+0.0
iter: 686  15:54:51  -7.76  -4.90  -337.325444            +38.0,+0.0,-0.0
iter: 687  15:55:07  -7.87  -4.54  -337.325503            +38.0,+0.0,-0.0
iter: 688  15:55:23  -7.94  -4.43  -337.325801            +38.0,+0.0,+0.0
iter: 689  15:55:39  -6.83  -4.32  -337.325111            +38.0,-0.0,-0.0
iter: 690  15:55:55  -8.15  -4.80  -337.325946            +38.0,-0.0,-0.0
iter: 691  15:56:11  -7.71  -4.97  -337.325031            +38.0,+0.0,-0.0
iter: 692  15:56:27  -8.56  -4.67  -337.325229            +38.0,+0.0,-0.0
iter: 693  15:56:43  -8.06  -4.62  -337.324855            +38.0,+0.0,-0.0
iter: 694  15:56:59  -8.12  -4.61  -337.324027            +38.0,-0.0,-0.0
iter: 695  15:57:15  -7.49  -4.59  -337.326587            +38.0,+0.0,-0.0
iter: 696  15:57:31  -8.57  -4.57  -337.326677            +38.0,+0.0,-0.0
iter: 697  15:57:47  -7.55  -4.58  -337.324996            +38.0,+0.0,-0.0
iter: 698  15:58:03  -8.57  -4.78  -337.324854            +38.0,+0.0,-0.0
iter: 699  15:58:19  -8.90  -4.79  -337.325594            +38.0,+0.0,-0.0
iter: 700  15:58:35  -8.62  -5.09  -337.325745            +38.0,+0.0,-0.0
iter: 701  15:58:51  -7.66  -5.16  -337.326025            +38.0,+0.0,-0.0
iter: 702  15:59:07  -7.76  -4.66  -337.325984            +38.0,+0.0,-0.0
iter: 703  15:59:22  -7.74  -4.82  -337.325756            +38.0,+0.0,-0.0
iter: 704  15:59:38  -8.48  -4.63  -337.325705            +38.0,+0.0,-0.0
iter: 705  15:59:54  -7.88  -4.73  -337.325872            +38.0,+0.0,-0.0
iter: 706  16:00:10  -9.11  -5.13  -337.325838            +38.0,+0.0,-0.0
iter: 707  16:00:26  -9.66  -5.48  -337.325906            +38.0,+0.0,-0.0
iter: 708  16:00:43  -9.72  -5.50  -337.325952            +38.0,+0.0,-0.0
iter: 709  16:00:59  -8.68  -5.65  -337.326019            +38.0,+0.0,-0.0
iter: 710  16:01:15  -8.89  -5.04  -337.326000            +38.0,+0.0,-0.0
iter: 711  16:01:31  -8.35  -5.03  -337.325970            +38.0,+0.0,-0.0
iter: 712  16:01:47  -8.92  -4.80  -337.326050            +38.0,+0.0,-0.0
iter: 713  16:02:02  -9.64  -4.73  -337.325867            +38.0,+0.0,-0.0
iter: 714  16:02:18  -9.06  -4.79  -337.325953            +38.0,+0.0,-0.0
iter: 715  16:02:34  -8.63  -4.72  -337.324949            +38.0,+0.0,-0.0
iter: 716  16:02:50  -7.77  -4.81  -337.324347            +38.0,+0.0,-0.0
iter: 717  16:03:07  -8.53  -5.03  -337.325140            +38.0,+0.0,-0.0
iter: 718  16:03:23  -8.76  -5.18  -337.325837            +38.0,-0.0,-0.0
iter: 719  16:03:39  -9.20  -5.18  -337.325693            +38.0,-0.0,-0.0
iter: 720  16:03:55  -8.51  -5.65  -337.325886            +38.0,-0.0,-0.0
iter: 721  16:04:11  -8.37  -5.10  -337.325607            +38.0,-0.0,-0.0
iter: 722  16:04:26  -9.52  -5.20  -337.325774            +38.0,-0.0,-0.0
iter: 723  16:04:42  -9.18  -5.42  -337.325970            +38.0,-0.0,-0.0
iter: 724  16:04:58  -8.61  -5.58  -337.325917            +38.0,-0.0,-0.0
iter: 725  16:05:14  -9.35  -4.96  -337.326002            +38.0,-0.0,-0.0
iter: 726  16:05:30  -8.34  -5.10  -337.326009            +38.0,-0.0,-0.0
iter: 727  16:05:46  -8.99  -5.18  -337.326172            +38.0,-0.0,-0.0
iter: 728  16:06:02  -7.22  -5.03  -337.325758            +38.0,-0.0,-0.0
iter: 729  16:06:18  -7.80  -4.46  -337.326240            +38.0,-0.0,-0.0
iter: 730  16:06:34  -8.50  -5.19  -337.325850            +38.0,-0.0,-0.0
iter: 731  16:06:50  -9.03  -5.42  -337.325529            +38.0,-0.0,-0.0
iter: 732  16:07:06  -7.94  -5.54  -337.325495            +38.0,-0.0,-0.0
iter: 733  16:07:22  -8.38  -4.69  -337.326038            +38.0,-0.0,-0.0
iter: 734  16:07:38  -7.80  -5.20  -337.325913            +38.0,-0.0,-0.0
iter: 735  16:07:54  -8.40  -4.62  -337.326687            +38.0,+0.0,-0.0
iter: 736  16:08:10  -7.96  -4.63  -337.325891            +38.0,-0.0,-0.0
iter: 737  16:08:26  -8.60  -4.95  -337.326466            +38.0,-0.0,-0.0
iter: 738  16:08:42  -7.87  -4.85  -337.324928            +38.0,-0.0,-0.0
iter: 739  16:08:58  -8.40  -5.17  -337.324521            +38.0,-0.0,-0.0
iter: 740  16:09:14  -8.53  -4.80  -337.324602            +38.0,-0.0,-0.0
iter: 741  16:09:30  -8.09  -4.66  -337.324397            +38.0,-0.0,-0.0
iter: 742  16:09:46  -8.71  -4.50  -337.324228            +38.0,-0.0,-0.0
iter: 743  16:10:02  -8.04  -4.48  -337.324126            +38.0,-0.0,-0.0
iter: 744  16:10:18  -7.11  -4.57  -337.333218            +38.0,+0.0,-0.0
iter: 745  16:10:34  -8.12  -4.49  -337.332775            +38.0,-0.0,-0.0
iter: 746  16:10:49  -8.14  -4.66  -337.335138            +38.0,-0.0,-0.0
iter: 747  16:11:05  -8.39  -4.82  -337.333702            +38.0,-0.0,-0.0
iter: 748  16:11:21  -8.43  -4.98  -337.331106            +38.0,-0.0,-0.0
iter: 749  16:11:38  -8.21  -5.09  -337.329853            +38.0,-0.0,-0.0
iter: 750  16:11:53  -7.90  -4.97  -337.329764            +38.0,-0.0,-0.0
iter: 751  16:12:09  -8.10  -4.58  -337.329701            +38.0,-0.0,-0.0
iter: 752  16:12:25  -8.03  -5.16  -337.329484            +38.0,+0.0,-0.0
iter: 753  16:12:41  -8.37  -4.99  -337.329202            +38.0,+0.0,-0.0
iter: 754  16:12:57  -8.16  -5.06  -337.328637            +38.0,+0.0,-0.0
iter: 755  16:13:13  -8.00  -4.71  -337.329362            +38.0,+0.0,-0.0
iter: 756  16:13:29  -9.10  -5.61  -337.329444            +38.0,+0.0,-0.0
iter: 757  16:13:45  -9.16  -5.33  -337.329931            +38.0,+0.0,-0.0
iter: 758  16:14:01  -9.00  -5.22  -337.329992            +38.0,+0.0,-0.0
iter: 759  16:14:18  -9.44  -5.04  -337.329360            +38.0,+0.0,-0.0
iter: 760  16:14:34  -8.84  -5.15  -337.329851            +38.0,+0.0,-0.0
iter: 761  16:14:49  -8.37  -5.47  -337.329354            +38.0,+0.0,-0.0
iter: 762  16:15:06  -9.07  -4.99  -337.329563            +38.0,+0.0,-0.0
iter: 763  16:15:21  -8.60  -4.93  -337.330424            +38.0,+0.0,-0.0
iter: 764  16:15:37  -8.49  -5.10  -337.328359            +38.0,+0.0,-0.0
iter: 765  16:15:53  -8.48  -5.32  -337.328429            +38.0,+0.0,-0.0
iter: 766  16:16:09  -8.82  -5.05  -337.327384            +38.0,+0.0,-0.0
iter: 767  16:16:25  -8.96  -5.10  -337.327314            +38.0,+0.0,-0.0
iter: 768  16:16:41  -8.84  -5.23  -337.326730            +38.0,+0.0,-0.0
iter: 769  16:16:57  -8.50  -5.29  -337.326689            +38.0,+0.0,-0.0
iter: 770  16:17:13  -9.21  -5.22  -337.326957            +38.0,+0.0,-0.0
iter: 771  16:17:29  -8.81  -5.28  -337.327526            +38.0,+0.0,+0.0
iter: 772  16:17:45  -9.31  -5.53  -337.327652            +38.0,+0.0,-0.0
iter: 773  16:18:01  -9.38  -5.60  -337.327529            +38.0,+0.0,-0.0
iter: 774  16:18:17  -9.05  -5.43  -337.327516            +38.0,+0.0,-0.0
iter: 775  16:18:33  -9.17  -5.72  -337.327418            +38.0,+0.0,-0.0
iter: 776  16:18:49 -10.03  -5.36  -337.327358            +38.0,+0.0,-0.0
iter: 777  16:19:05  -9.37  -5.54  -337.327342            +38.0,+0.0,-0.0
iter: 778  16:19:21  -8.54  -5.41  -337.327179            +38.0,+0.0,+0.0
iter: 779  16:19:37  -9.06  -4.98  -337.327261            +38.0,+0.0,+0.0
iter: 780  16:19:53  -9.72  -4.89  -337.327276            +38.0,+0.0,+0.0
iter: 781  16:20:09  -9.05  -4.93  -337.326778            +38.0,+0.0,+0.0
iter: 782  16:20:25  -8.64  -4.95  -337.326002            +38.0,+0.0,+0.0
iter: 783  16:20:41  -9.22  -5.11  -337.325903            +38.0,+0.0,-0.0
iter: 784  16:20:57  -8.77  -5.16  -337.325180            +38.0,+0.0,+0.0
iter: 785  16:21:13  -9.46  -5.44  -337.325160            +38.0,+0.0,+0.0
iter: 786  16:21:29  -9.97  -5.47  -337.325201            +38.0,+0.0,-0.0
iter: 787  16:21:45  -9.12  -5.49  -337.325274            +38.0,+0.0,-0.0
iter: 788  16:22:01  -9.06  -5.19  -337.325190            +38.0,+0.0,-0.0
iter: 789  16:22:17  -9.09  -4.94  -337.325262            +38.0,+0.0,-0.0
iter: 790  16:22:33  -8.89  -5.24  -337.325444            +38.0,+0.0,-0.0
iter: 791  16:22:49  -8.98  -5.00  -337.325431            +38.0,+0.0,-0.0
iter: 792  16:23:05  -9.08  -5.27  -337.325447            +38.0,+0.0,-0.0
iter: 793  16:23:21  -8.89  -5.19  -337.325506            +38.0,+0.0,-0.0
iter: 794  16:23:37  -9.63  -4.89  -337.325473            +38.0,+0.0,-0.0
iter: 795  16:23:53  -8.81  -5.06  -337.325441            +38.0,+0.0,+0.0
iter: 796  16:24:09  -8.77  -5.22  -337.325268            +38.0,-0.0,-0.0
iter: 797  16:24:25  -9.35  -5.36  -337.325267            +38.0,-0.0,-0.0
iter: 798  16:24:41  -9.28  -5.48  -337.325267            +38.0,+0.0,-0.0
iter: 799  16:24:57  -9.08  -5.32  -337.325274            +38.0,-0.0,-0.0
iter: 800  16:25:13  -9.17  -5.26  -337.325345            +38.0,-0.0,-0.0
iter: 801  16:25:29  -9.95  -4.95  -337.325294            +38.0,-0.0,-0.0
iter: 802  16:25:45  -9.25  -4.96  -337.325076            +38.0,-0.0,-0.0
iter: 803  16:26:01  -8.64  -5.05  -337.324544            +38.0,-0.0,-0.0
iter: 804  16:26:17  -8.83  -4.90  -337.324938            +38.0,-0.0,-0.0
iter: 805  16:26:33  -8.91  -5.14  -337.325161            +38.0,-0.0,-0.0
iter: 806  16:26:49  -9.77  -5.36  -337.325216            +38.0,-0.0,-0.0
iter: 807  16:27:04  -9.11  -5.28  -337.325565            +38.0,-0.0,-0.0
iter: 808  16:27:20  -8.56  -5.23  -337.325354            +38.0,-0.0,-0.0
iter: 809  16:27:36  -9.03  -4.83  -337.325718            +38.0,-0.0,-0.0
iter: 810  16:27:52  -9.02  -5.19  -337.325826            +38.0,-0.0,-0.0
iter: 811  16:28:08  -8.95  -4.88  -337.325939            +38.0,+0.0,-0.0
iter: 812  16:28:24  -8.87  -5.39  -337.325619            +38.0,-0.0,-0.0
iter: 813  16:28:40  -9.53  -5.53  -337.325710            +38.0,+0.0,-0.0
iter: 814  16:28:56  -9.03  -5.19  -337.325760            +38.0,-0.0,-0.0
iter: 815  16:29:12  -9.09  -4.92  -337.325603            +38.0,-0.0,-0.0
iter: 816  16:29:28  -9.95  -5.10  -337.325617            +38.0,-0.0,-0.0
iter: 817  16:29:44  -8.67  -5.13  -337.325154            +38.0,+0.0,-0.0
iter: 818  16:30:00  -7.85  -5.19  -337.327171            +38.0,+0.0,-0.0
iter: 819  16:30:16  -8.64  -4.83  -337.326031            +38.0,-0.0,-0.0
iter: 820  16:30:32  -9.17  -5.38  -337.325857            +38.0,+0.0,-0.0
iter: 821  16:30:48  -8.82  -5.19  -337.326270            +38.0,-0.0,-0.0
iter: 822  16:31:04  -8.84  -4.93  -337.325910            +38.0,-0.0,-0.0
iter: 823  16:31:20  -8.25  -5.33  -337.324966            +38.0,-0.0,-0.0
iter: 824  16:31:36  -8.83  -5.23  -337.324711            +38.0,-0.0,-0.0
iter: 825  16:31:52  -8.39  -5.11  -337.325963            +38.0,+0.0,-0.0
iter: 826  16:32:08  -8.82  -5.06  -337.326318            +38.0,+0.0,-0.0
iter: 827  16:32:24  -7.83  -5.16  -337.328004            +38.0,-0.0,-0.0
iter: 828  16:32:40  -8.23  -4.91  -337.326809            +38.0,-0.0,-0.0
iter: 829  16:32:56  -8.20  -4.94  -337.326911            +38.0,-0.0,-0.0
iter: 830  16:33:12  -8.23  -4.78  -337.327426            +38.0,-0.0,-0.0
iter: 831  16:33:28  -7.80  -4.68  -337.326019            +38.0,-0.0,-0.0
iter: 832  16:33:44  -8.75  -5.56  -337.325960            +38.0,-0.0,-0.0
iter: 833  16:34:00  -8.78  -5.78  -337.325513            +38.0,-0.0,-0.0
iter: 834  16:34:16  -9.02  -5.03  -337.325866            +38.0,-0.0,-0.0
iter: 835  16:34:32  -9.32  -5.42  -337.325858            +38.0,-0.0,-0.0
iter: 836  16:34:48  -9.66  -5.19  -337.325785            +38.0,-0.0,-0.0
iter: 837  16:35:04  -8.35  -5.10  -337.325947            +38.0,-0.0,-0.0
iter: 838  16:35:20  -8.51  -5.04  -337.326051            +38.0,-0.0,-0.0
iter: 839  16:35:36  -8.52  -5.03  -337.326384            +38.0,-0.0,-0.0
iter: 840  16:35:52  -8.21  -4.91  -337.325879            +38.0,-0.0,-0.0
iter: 841  16:36:08  -9.14  -5.07  -337.326041            +38.0,-0.0,-0.0
iter: 842  16:36:24  -8.42  -5.03  -337.324503            +38.0,-0.0,-0.0
iter: 843  16:36:40  -7.77  -5.28  -337.328018            +38.0,-0.0,-0.0
iter: 844  16:36:56  -8.72  -4.78  -337.326539            +38.0,-0.0,-0.0
iter: 845  16:37:12  -8.59  -5.27  -337.325720            +38.0,-0.0,-0.0
iter: 846  16:37:28  -8.80  -5.48  -337.325973            +38.0,-0.0,-0.0
iter: 847  16:37:44  -8.31  -5.15  -337.326701            +38.0,-0.0,-0.0
iter: 848  16:38:00  -8.04  -4.78  -337.325224            +38.0,-0.0,-0.0
iter: 849  16:38:16  -9.04  -5.02  -337.325354            +38.0,-0.0,-0.0
iter: 850  16:38:32  -9.30  -4.95  -337.325191            +38.0,-0.0,-0.0
iter: 851  16:38:48  -8.57  -4.85  -337.325452            +38.0,-0.0,-0.0
iter: 852  16:39:04  -8.49  -5.06  -337.325929            +38.0,-0.0,-0.0
iter: 853  16:39:20  -8.13  -4.88  -337.325886            +38.0,-0.0,-0.0
iter: 854  16:39:36  -8.07  -5.02  -337.326413            +38.0,-0.0,-0.0
iter: 855  16:39:52  -8.08  -4.88  -337.326070            +38.0,-0.0,-0.0
iter: 856  16:40:08  -8.87  -4.80  -337.326049            +38.0,-0.0,-0.0
iter: 857  16:40:23  -8.51  -4.77  -337.326321            +38.0,-0.0,-0.0
iter: 858  16:40:39  -7.70  -4.67  -337.325074            +38.0,-0.0,-0.0
iter: 859  16:40:55  -8.67  -5.29  -337.324965            +38.0,-0.0,-0.0
iter: 860  16:41:12  -7.80  -5.22  -337.325081            +38.0,-0.0,-0.0
iter: 861  16:41:27  -8.36  -4.72  -337.324992            +38.0,-0.0,-0.0
iter: 862  16:41:44  -8.78  -4.69  -337.324910            +38.0,-0.0,-0.0
iter: 863  16:41:59  -8.97  -4.77  -337.324699            +38.0,-0.0,-0.0
iter: 864  16:42:15  -7.63  -4.81  -337.323807            +38.0,-0.0,-0.0
iter: 865  16:42:31  -8.24  -5.02  -337.323704            +38.0,-0.0,-0.0
iter: 866  16:42:48  -8.99  -5.24  -337.323808            +38.0,-0.0,-0.0
iter: 867  16:43:03  -9.41  -5.20  -337.323889            +38.0,-0.0,-0.0
iter: 868  16:43:19  -8.17  -5.24  -337.323925            +38.0,-0.0,+0.0
iter: 869  16:43:35  -8.92  -4.99  -337.324031            +38.0,-0.0,+0.0
iter: 870  16:43:51  -9.10  -4.99  -337.324097            +38.0,-0.0,+0.0
iter: 871  16:44:07  -8.10  -4.87  -337.323535            +38.0,-0.0,+0.0
iter: 872  16:44:23  -8.23  -4.64  -337.323487            +38.0,-0.0,+0.0
iter: 873  16:44:39  -8.10  -4.58  -337.324218            +38.0,-0.0,+0.0
iter: 874  16:44:55  -7.90  -4.53  -337.324169            +38.0,-0.0,+0.0
iter: 875  16:45:11  -7.93  -4.40  -337.324881            +38.0,-0.0,+0.0
iter: 876  16:45:27  -7.81  -4.73  -337.325805            +38.0,-0.0,+0.0
iter: 877  16:45:43  -7.60  -4.83  -337.325646            +38.0,-0.0,+0.0
iter: 878  16:45:59  -7.63  -4.61  -337.326115            +38.0,-0.0,+0.0
iter: 879  16:46:15  -6.96  -4.92  -337.326073            +38.0,-0.0,+0.0
iter: 880  16:46:31  -7.54  -4.40  -337.326226            +38.0,-0.0,+0.0
iter: 881  16:46:47  -6.35  -4.33  -337.326103            +38.0,-0.0,+0.0
iter: 882  16:47:03  -7.38  -4.42  -337.326083            +38.0,-0.0,+0.0
iter: 883  16:47:19  -7.75  -4.41  -337.326155            +38.0,-0.0,+0.0
iter: 884  16:47:35  -7.30  -4.43  -337.326415            +38.0,-0.0,+0.0
iter: 885  16:47:51  -6.60  -4.18  -337.325953            +38.0,-0.0,+0.0
iter: 886  16:48:07  -7.64  -4.27  -337.325957            +38.0,-0.0,+0.0
iter: 887  16:48:23  -7.67  -4.32  -337.325909            +38.0,-0.0,+0.0
iter: 888  16:48:39  -7.20  -4.45  -337.325962            +38.0,-0.0,+0.0
iter: 889  16:48:55  -7.65  -4.31  -337.326036            +38.0,-0.0,+0.0
iter: 890  16:49:11  -7.86  -4.62  -337.325945            +38.0,+0.0,+0.0
iter: 891  16:49:27  -6.27  -4.73  -337.325927            +38.0,+0.0,+0.0
iter: 892  16:49:43  -6.11  -4.05  -337.325949            +38.0,+0.0,+0.0
iter: 893  16:49:59  -7.21  -4.24  -337.325952            +38.0,-0.0,+0.0
iter: 894  16:50:15  -7.46  -4.29  -337.325977            +38.0,+0.0,+0.0
iter: 895  16:50:31  -7.89  -4.18  -337.325902            +38.0,+0.0,+0.0
iter: 896  16:50:47  -7.71  -4.13  -337.325246            +38.0,-0.0,+0.0
iter: 897  16:51:03  -6.81  -4.31  -337.326489            +38.0,-0.0,+0.0
iter: 898  16:51:19  -7.67  -4.04  -337.325151            +38.0,-0.0,+0.0
iter: 899  16:51:35  -7.42  -4.07  -337.327133            +38.0,-0.0,+0.0
iter: 900  16:51:51  -7.17  -4.30  -337.327502            +38.0,-0.0,+0.0
iter: 901  16:52:07  -6.98  -4.01  -337.332434            +38.0,-0.0,+0.0
iter: 902  16:52:23  -7.02  -3.92  -337.327943            +38.0,-0.0,+0.0
iter: 903  16:52:39  -5.89  -3.99  -337.299396            +38.0,+0.0,+0.0
iter: 904  16:52:55  -5.79  -3.82  -337.349253            +38.0,-0.0,+0.0
iter: 905  16:53:11  -7.01  -4.23  -337.345712            +38.0,-0.0,+0.0
iter: 906  16:53:27  -7.32  -4.29  -337.347033            +38.0,+0.0,+0.0
iter: 907  16:53:43  -7.02  -4.30  -337.347608            +38.0,+0.0,+0.0
iter: 908  16:53:59  -5.88  -4.08  -337.347407            +38.0,+0.0,+0.0
iter: 909  16:54:15  -7.00  -3.70  -337.343714            +38.0,-0.0,+0.0
iter: 910  16:54:31  -7.15  -3.80  -337.345041            +38.0,+0.0,+0.0
iter: 911  16:54:47  -7.24  -3.91  -337.343760            +38.0,+0.0,+0.0
iter: 912  16:55:03  -6.70  -3.94  -337.352734            +38.0,+0.0,+0.0
iter: 913  16:55:19  -5.97  -3.94  -337.336130            +38.0,+0.0,+0.0
iter: 914  16:55:35  -6.50  -3.95  -337.333836            +38.0,+0.0,+0.0
iter: 915  16:55:51  -6.82  -4.03  -337.335597            +38.0,+0.0,+0.0
iter: 916  16:56:07  -6.60  -3.94  -337.334941            +38.0,+0.0,+0.0
iter: 917  16:56:23  -5.45  -3.82  -337.330774            +38.0,+0.0,+0.0
iter: 918  16:56:39  -6.17  -3.81  -337.327116            +38.0,+0.0,+0.0
iter: 919  16:56:55  -6.68  -3.72  -337.331088            +38.0,+0.0,+0.0
iter: 920  16:57:11  -6.31  -3.79  -337.331986            +38.0,+0.0,+0.0
iter: 921  16:57:27  -6.09  -4.00  -337.331011            +38.0,+0.0,+0.0
iter: 922  16:57:42  -5.92  -3.87  -337.331880            +38.0,+0.0,+0.0
iter: 923  16:57:58  -5.76  -3.80  -337.331941            +38.1,+0.0,+0.0
iter: 924  16:58:14  -6.09  -3.37  -337.332333            +38.0,+0.0,+0.0
iter: 925  16:58:30  -5.79  -4.23  -337.333224            +38.0,+0.0,+0.0
iter: 926  16:58:46  -5.88  -3.85  -337.333111            +38.0,+0.0,+0.0
iter: 927  16:59:02  -6.33  -3.70  -337.333693            +38.1,+0.0,+0.0
iter: 928  16:59:18  -6.71  -3.52  -337.333196            +38.0,+0.0,+0.0
iter: 929  16:59:34  -6.12  -4.10  -337.333171            +38.0,+0.0,+0.0
iter: 930  16:59:50  -5.46  -4.01  -337.333389            +37.9,+0.0,+0.0
iter: 931  17:00:06  -6.43  -3.70  -337.333797            +37.9,+0.0,+0.0
iter: 932  17:00:22  -5.72  -3.75  -337.332214            +38.0,+0.0,+0.0
iter: 933  17:00:38  -6.18  -3.90  -337.330483            +38.0,+0.0,+0.0
iter: 934  17:00:54  -6.15  -3.75  -337.332131            +38.0,+0.0,+0.0
iter: 935  17:01:10  -6.49  -3.60  -337.333905            +38.0,+0.0,+0.0
iter: 936  17:01:26  -6.26  -4.12  -337.335249            +38.0,+0.0,+0.0
iter: 937  17:01:42  -6.83  -3.96  -337.334905            +38.0,+0.0,+0.0
iter: 938  17:01:58  -5.88  -3.97  -337.333418            +38.0,+0.0,+0.0
iter: 939  17:02:14  -5.50  -3.71  -337.334194            +37.9,+0.0,+0.0
iter: 940  17:02:30  -6.31  -3.78  -337.334889            +38.0,+0.0,+0.0
iter: 941  17:02:46  -6.75  -4.09  -337.334672            +38.0,+0.0,+0.0
iter: 942  17:03:02  -6.07  -3.94  -337.334729            +38.0,+0.0,+0.0
iter: 943  17:03:18  -6.11  -3.92  -337.334736            +38.0,+0.0,+0.0
iter: 944  17:03:34  -6.70  -3.69  -337.335258            +38.0,+0.0,+0.0
iter: 945  17:03:50  -6.11  -3.96  -337.335767            +38.0,+0.0,+0.0
[...]
iter: 4735  09:52:18  -6.72  -3.57  -337.271713            +38.0,-0.0,-0.0
iter: 4736  09:52:34  -6.03  -3.54  -337.236921            +38.0,-0.0,-0.0
iter: 4737  09:52:50  -5.67  -3.62  -337.168373            +38.0,-0.0,-0.0
iter: 4738  09:53:06  -4.92  -3.49  -337.364395            +38.0,-0.0,-0.0
iter: 4739  09:53:22  -6.22  -3.91  -337.320963            +38.0,-0.0,-0.0
iter: 4740  09:53:38  -6.71  -4.23  -337.330413            +38.0,-0.0,-0.0
iter: 4741  09:53:54  -6.90  -4.25  -337.317670            +38.0,-0.0,-0.0
iter: 4742  09:54:10  -7.41  -4.49  -337.320054            +38.0,-0.0,-0.0
iter: 4743  09:54:26  -6.82  -4.59  -337.327204            +38.0,-0.0,-0.0
iter: 4744  09:54:42  -7.11  -4.22  -337.325030            +38.0,-0.0,-0.0
iter: 4745  09:54:58  -7.17  -4.07  -337.321771            +38.0,-0.0,-0.0
iter: 4746  09:55:14  -6.35  -3.96  -337.329773            +38.0,-0.0,-0.0
iter: 4747  09:55:30  -6.53  -3.76  -337.324373            +38.0,-0.0,-0.0
iter: 4748  09:55:46  -7.00  -3.96  -337.317603            +38.0,-0.0,-0.0
iter: 4749  09:56:02  -6.42  -4.06  -337.302174            +38.0,-0.0,-0.0
iter: 4750  09:56:18  -6.61  -4.30  -337.302854            +38.0,-0.0,-0.0
iter: 4751  09:56:34  -6.72  -4.33  -337.308839            +38.0,-0.0,-0.0
iter: 4752  09:56:50  -6.97  -3.96  -337.303371            +38.0,-0.0,-0.0
iter: 4753  09:57:06  -7.31  -3.96  -337.301708            +38.0,-0.0,-0.0
iter: 4754  09:57:22  -6.08  -3.94  -337.323054            +38.0,-0.0,-0.0
iter: 4755  09:57:38  -6.23  -3.88  -337.284014            +38.0,-0.0,-0.0
iter: 4756  09:57:54  -6.49  -3.79  -337.289403            +38.0,-0.0,-0.0
iter: 4757  09:58:09  -7.16  -4.02  -337.291951            +38.0,-0.0,-0.0
iter: 4758  09:58:26  -6.89  -3.99  -337.299609            +38.0,-0.0,-0.0
iter: 4759  09:58:42  -6.97  -4.14  -337.301851            +38.0,-0.0,-0.0
iter: 4760  09:58:57  -7.29  -4.37  -337.306583            +38.0,-0.0,-0.0
iter: 4761  09:59:13  -6.58  -4.55  -337.311414            +38.0,-0.0,-0.0
iter: 4762  09:59:29  -5.93  -4.11  -337.307560            +38.0,-0.0,-0.0
iter: 4763  09:59:45  -6.67  -3.84  -337.307867            +38.0,-0.0,-0.0
iter: 4764  10:00:01  -7.04  -3.92  -337.311664            +38.0,-0.0,+0.0
iter: 4765  10:00:17  -6.77  -4.01  -337.320536            +38.0,-0.0,+0.0
iter: 4766  10:00:33  -6.88  -3.96  -337.329902            +38.0,-0.0,+0.0
iter: 4767  10:00:49  -7.03  -4.20  -337.335686            +38.0,-0.0,+0.0
iter: 4768  10:01:05  -6.14  -4.42  -337.337770            +38.1,-0.0,+0.0
iter: 4769  10:01:21  -6.34  -3.58  -337.332388            +38.0,-0.0,+0.0
iter: 4770  10:01:37  -7.05  -4.21  -337.332761            +38.0,-0.0,-0.0
iter: 4771  10:01:53  -6.92  -4.19  -337.331981            +38.0,-0.0,+0.0
iter: 4772  10:02:09  -7.37  -3.83  -337.333361            +38.0,-0.0,+0.0
iter: 4773  10:02:25  -6.30  -3.83  -337.331612            +38.0,-0.0,-0.0
iter: 4774  10:02:41  -6.27  -4.20  -337.332188            +38.0,-0.0,-0.0
iter: 4775  10:02:57  -6.26  -3.95  -337.330583            +38.0,-0.0,+0.0
iter: 4776  10:03:13  -6.45  -4.03  -337.327615            +38.0,-0.0,+0.0
iter: 4777  10:03:29  -7.36  -3.67  -337.326628            +38.0,-0.0,-0.0
iter: 4778  10:03:45  -6.30  -3.72  -337.315071            +38.0,-0.0,-0.0
iter: 4779  10:04:01  -6.76  -4.30  -337.317244            +38.0,-0.0,+0.0
iter: 4780  10:04:17  -6.30  -4.16  -337.316468            +38.0,-0.0,+0.0
iter: 4781  10:04:33  -7.28  -4.11  -337.316410            +38.0,-0.0,+0.0
iter: 4782  10:04:49  -6.50  -4.35  -337.317211            +38.0,-0.0,+0.0
iter: 4783  10:05:05  -6.57  -3.92  -337.316100            +38.1,-0.0,+0.0
iter: 4784  10:05:21  -6.30  -3.61  -337.315620            +38.0,-0.0,+0.0
iter: 4785  10:05:37  -7.00  -4.09  -337.308117            +38.0,-0.0,+0.0
iter: 4786  10:05:53  -6.46  -4.15  -337.307683            +38.0,-0.0,+0.0
iter: 4787  10:06:09  -5.75  -4.08  -337.305047            +38.1,-0.0,+0.0
iter: 4788  10:06:25  -7.07  -3.42  -337.307947            +38.0,-0.0,+0.0
iter: 4789  10:06:41  -6.71  -3.67  -337.310108            +38.1,-0.0,+0.0
iter: 4790  10:06:57  -5.96  -3.44  -337.306467            +38.0,-0.0,+0.0
iter: 4791  10:07:13  -6.57  -4.25  -337.305657            +38.0,-0.0,+0.0
iter: 4792  10:07:29  -6.56  -4.44  -337.306361            +38.0,-0.0,+0.0
iter: 4793  10:07:45  -5.84  -4.12  -337.306598            +38.1,-0.0,+0.0
iter: 4794  10:08:01  -7.09  -3.49  -337.306848            +38.0,-0.0,+0.0
iter: 4795  10:08:17  -6.64  -3.68  -337.306946            +38.0,-0.0,+0.0
iter: 4796  10:08:33  -6.32  -3.77  -337.307829            +38.0,-0.0,+0.0
iter: 4797  10:08:49  -6.22  -4.12  -337.308505            +38.0,-0.0,+0.0
iter: 4798  10:09:05  -6.79  -4.01  -337.308713            +38.0,-0.0,+0.0
iter: 4799  10:09:21  -6.15  -3.94  -337.307789            +38.0,-0.0,+0.0
iter: 4800  10:09:37  -5.99  -4.06  -337.308288            +38.1,-0.0,+0.0
iter: 4801  10:09:53  -6.12  -3.46  -337.306766            +38.0,-0.0,+0.0
iter: 4802  10:10:09  -6.57  -4.17  -337.308164            +38.0,-0.0,+0.0
iter: 4803  10:10:25  -6.17  -3.77  -337.307663            +38.0,-0.0,+0.0
iter: 4804  10:10:41  -7.06  -4.19  -337.308124            +38.0,-0.0,+0.0
iter: 4805  10:10:57  -6.42  -4.17  -337.307727            +38.0,-0.0,+0.0
iter: 4806  10:11:13  -6.18  -3.95  -337.309168            +38.0,-0.0,+0.0
iter: 4807  10:11:29  -6.44  -4.38  -337.309481            +38.0,-0.0,+0.0
iter: 4808  10:11:45  -6.45  -3.92  -337.309106            +38.0,-0.0,+0.0
iter: 4809  10:12:01  -7.10  -4.13  -337.309803            +38.0,-0.0,+0.0
iter: 4810  10:12:16  -6.55  -4.10  -337.310145            +38.0,-0.0,+0.0
iter: 4811  10:12:32  -5.94  -4.41  -337.311122            +38.1,-0.0,+0.0
iter: 4812  10:12:48  -7.08  -3.49  -337.310082            +38.1,-0.0,+0.0
iter: 4813  10:13:04  -6.07  -3.59  -337.308862            +38.0,-0.0,+0.0
iter: 4814  10:13:20  -7.03  -4.33  -337.310045            +38.0,-0.0,+0.0
iter: 4815  10:13:36  -6.36  -4.34  -337.310225            +38.0,-0.0,+0.0
iter: 4816  10:13:52  -6.25  -4.01  -337.308963            +38.0,-0.0,+0.0
iter: 4817  10:14:09  -6.24  -4.15  -337.309929            +38.1,-0.0,+0.0
iter: 4818  10:14:24  -7.02  -3.60  -337.309416            +38.0,-0.0,+0.0
iter: 4819  10:14:40  -6.71  -4.28  -337.309167            +38.0,-0.0,+0.0
iter: 4820  10:14:56  -6.71  -4.42  -337.309445            +38.0,-0.0,+0.0
iter: 4821  10:15:12  -6.75  -4.15  -337.309831            +38.0,-0.0,+0.0
iter: 4822  10:15:28  -6.27  -4.03  -337.308909            +38.0,-0.0,+0.0
iter: 4823  10:15:44  -6.54  -4.33  -337.309076            +38.0,-0.0,+0.0
iter: 4824  10:16:00  -6.78  -3.91  -337.309629            +38.0,-0.0,+0.0
iter: 4825  10:16:16  -6.45  -3.74  -337.308590            +38.0,-0.0,+0.0
iter: 4826  10:16:32  -7.59  -4.60  -337.309059            +38.0,-0.0,+0.0
iter: 4827  10:16:48  -8.06  -4.30  -337.308653            +38.0,-0.0,+0.0
iter: 4828  10:17:04  -7.43  -4.16  -337.309894            +38.0,-0.0,+0.0
iter: 4829  10:17:20  -6.50  -4.72  -337.310590            +38.0,-0.0,+0.0
iter: 4830  10:17:36  -5.88  -4.15  -337.310137            +38.1,-0.0,+0.0
iter: 4831  10:17:52  -6.83  -3.52  -337.309916            +38.1,-0.0,+0.0
iter: 4832  10:18:08  -5.41  -3.56  -337.308977            +37.9,-0.0,+0.0
iter: 4833  10:18:24  -5.34  -3.88  -337.307901            +38.1,-0.0,+0.0
iter: 4834  10:18:40  -6.33  -3.32  -337.314636            +38.1,-0.0,+0.0
iter: 4835  10:18:56  -5.80  -3.38  -337.310265            +38.1,-0.0,+0.0
iter: 4836  10:19:12  -5.81  -3.27  -337.335968            +38.2,-0.0,-0.0
iter: 4837  10:19:28  -6.00  -3.24  -337.355928            +38.2,-0.0,-0.0
iter: 4838  10:19:44  -5.54  -3.24  -337.298038            +38.2,-0.0,-0.0
iter: 4839  10:20:00  -5.79  -3.31  -337.321131            +38.2,-0.0,-0.0
iter: 4840  10:20:16  -5.28  -3.42  -337.375752            +38.2,-0.0,-0.0
iter: 4841  10:20:32  -6.32  -3.82  -337.369120            +38.1,-0.0,-0.0
iter: 4842  10:20:47  -6.37  -3.93  -337.370581            +38.1,-0.0,-0.0
iter: 4843  10:21:03  -6.77  -3.92  -337.370500            +38.1,-0.0,-0.0
iter: 4844  10:21:19  -6.81  -4.05  -337.371432            +38.1,-0.0,-0.0
iter: 4845  10:21:35  -7.62  -4.05  -337.368757            +38.1,-0.0,-0.0
iter: 4846  10:21:51  -6.79  -4.13  -337.365407            +38.1,+0.0,-0.0
iter: 4847  10:22:07  -6.02  -3.99  -337.364376            +38.1,+0.0,-0.0
iter: 4848  10:22:23  -5.80  -3.79  -337.360239            +38.1,+0.0,-0.0
iter: 4849  10:22:39  -6.78  -3.78  -337.358910            +38.1,+0.0,+0.0
iter: 4850  10:22:55  -6.49  -3.77  -337.360618            +38.2,+0.0,-0.0
iter: 4851  10:23:11  -6.56  -3.68  -337.357402            +38.2,+0.0,-0.0
iter: 4852  10:23:27  -6.31  -3.69  -337.350984            +38.2,+0.0,-0.0
iter: 4853  10:23:43  -6.62  -3.64  -337.355891            +38.2,+0.0,-0.0
iter: 4854  10:23:59  -6.56  -3.77  -337.349216            +38.2,+0.0,+0.0
iter: 4855  10:24:15  -6.62  -3.89  -337.345063            +38.2,+0.0,+0.0
iter: 4856  10:24:31  -7.22  -4.08  -337.342458            +38.2,+0.0,+0.0
iter: 4857  10:24:47  -7.22  -4.30  -337.342227            +38.2,-0.0,-0.0
iter: 4858  10:25:03  -6.35  -4.05  -337.341057            +38.2,-0.0,-0.0
iter: 4859  10:25:19  -6.25  -3.82  -337.341517            +38.2,-0.0,-0.0
iter: 4860  10:25:35  -5.98  -3.80  -337.342506            +38.1,-0.0,-0.0
iter: 4861  10:25:51  -5.72  -3.71  -337.341116            +38.2,-0.0,-0.0
iter: 4862  10:26:07  -6.18  -3.64  -337.341427            +38.2,-0.0,-0.0
iter: 4863  10:26:23  -6.30  -4.25  -337.341043            +38.1,-0.0,-0.0
iter: 4864  10:26:39  -5.63  -3.96  -337.341032            +38.1,-0.0,-0.0
iter: 4865  10:26:55  -5.63  -3.46  -337.340889            +38.2,-0.0,-0.0
iter: 4866  10:27:11  -5.89  -3.70  -337.340188            +38.2,-0.0,-0.0
iter: 4867  10:27:27  -6.08  -3.59  -337.339952            +38.3,-0.0,-0.0
iter: 4868  10:27:43  -5.61  -3.61  -337.341952            +38.1,-0.0,-0.0
iter: 4869  10:27:59  -5.84  -3.88  -337.340692            +38.1,-0.0,-0.0
iter: 4870  10:28:15  -5.65  -3.63  -337.340463            +38.1,-0.0,-0.0
iter: 4871  10:28:31  -5.81  -3.55  -337.341750            +38.2,-0.0,-0.0
iter: 4872  10:28:47  -5.77  -3.80  -337.340406            +38.3,-0.0,-0.0
iter: 4873  10:29:03  -5.70  -3.59  -337.341186            +38.1,-0.0,-0.0
iter: 4874  10:29:19  -7.04  -3.79  -337.341377            +38.2,-0.0,-0.0
iter: 4875  10:29:35  -7.49  -4.26  -337.340883            +38.2,-0.0,-0.0
iter: 4876  10:29:51  -6.57  -4.11  -337.340619            +38.2,-0.0,-0.0
iter: 4877  10:30:07  -6.75  -3.79  -337.340744            +38.2,-0.0,-0.0
iter: 4878  10:30:23  -6.35  -3.79  -337.340318            +38.2,-0.0,-0.0
iter: 4879  10:30:39  -5.55  -4.13  -337.339487            +38.3,-0.0,-0.0
iter: 4880  10:30:55  -5.77  -3.54  -337.340390            +38.2,-0.0,-0.0
iter: 4881  10:31:11  -5.43  -4.31  -337.340019            +38.1,-0.0,-0.0
iter: 4882  10:31:27  -5.92  -3.40  -337.339974            +38.2,-0.0,-0.0
iter: 4883  10:31:43  -5.56  -4.09  -337.339246            +38.2,-0.0,-0.0
iter: 4884  10:31:59  -5.93  -3.58  -337.339562            +38.2,-0.0,-0.0
iter: 4885  10:32:15  -6.22  -4.25  -337.339515            +38.1,-0.0,-0.0
iter: 4886  10:32:30  -6.52  -3.78  -337.339187            +38.2,-0.0,-0.0
iter: 4887  10:32:46  -6.07  -4.20  -337.339265            +38.2,-0.0,-0.0
iter: 4888  10:33:02  -6.26  -3.70  -337.338786            +38.2,-0.0,-0.0
iter: 4889  10:33:18  -6.13  -3.67  -337.338833            +38.1,-0.0,-0.0
iter: 4890  10:33:34  -5.48  -3.96  -337.338505            +38.3,-0.0,-0.0
iter: 4891  10:33:50  -5.31  -3.50  -337.338477            +38.1,-0.0,-0.0
iter: 4892  10:34:06  -6.15  -3.47  -337.338922            +38.1,-0.0,-0.0
iter: 4893  10:34:22  -6.05  -3.66  -337.338770            +38.1,-0.0,-0.0
iter: 4894  10:34:38  -5.58  -3.48  -337.338869            +38.2,-0.0,-0.0
iter: 4895  10:34:54  -5.17  -3.71  -337.337794            +38.3,-0.0,-0.0
iter: 4896  10:35:10  -5.66  -3.41  -337.338493            +38.2,-0.0,-0.0
iter: 4897  10:35:26  -5.85  -3.80  -337.338231            +38.2,-0.0,-0.0
iter: 4898  10:35:41  -6.26  -4.07  -337.337744            +38.2,-0.0,-0.0
iter: 4899  10:35:57  -6.66  -3.72  -337.337841            +38.2,-0.0,-0.0
iter: 4900  10:36:13  -5.87  -3.67  -337.338344            +38.3,-0.0,-0.0
iter: 4901  10:36:29  -5.66  -3.55  -337.335605            +38.2,-0.0,-0.0
iter: 4902  10:36:45  -6.55  -3.62  -337.335345            +38.2,-0.0,-0.0
iter: 4903  10:37:01  -5.92  -3.75  -337.329748            +38.2,-0.0,-0.0
iter: 4904  10:37:17  -5.58  -3.58  -337.341497            +38.2,-0.0,-0.0
iter: 4905  10:37:33  -5.77  -4.12  -337.340569            +38.1,-0.0,-0.0
iter: 4906  10:37:49  -5.59  -3.57  -337.339444            +38.2,-0.0,-0.0
iter: 4907  10:38:05  -6.69  -3.81  -337.338853            +38.2,-0.0,-0.0
iter: 4908  10:38:21  -6.87  -3.86  -337.338359            +38.2,-0.0,-0.0
iter: 4909  10:38:37  -6.16  -4.24  -337.337590            +38.1,-0.0,-0.0
iter: 4910  10:38:53  -7.15  -3.85  -337.337645            +38.1,-0.0,-0.0
iter: 4911  10:39:09  -5.77  -3.90  -337.337698            +38.2,-0.0,-0.0
iter: 4912  10:39:25  -6.00  -3.77  -337.336971            +38.2,-0.0,-0.0
iter: 4913  10:39:41  -6.20  -3.69  -337.337420            +38.2,-0.0,-0.0
iter: 4914  10:39:57  -6.66  -3.57  -337.335837            +38.2,+0.0,-0.0
iter: 4915  10:40:13  -6.35  -3.78  -337.336578            +38.2,-0.0,-0.0
iter: 4916  10:40:29  -5.61  -3.72  -337.333767            +38.2,+0.0,-0.0
iter: 4917  10:40:45  -5.71  -3.44  -337.337492            +38.2,-0.0,-0.0
iter: 4918  10:41:01  -6.93  -3.89  -337.338465            +38.2,-0.0,-0.0
iter: 4919  10:41:17  -6.07  -3.80  -337.345135            +38.2,-0.0,-0.0
iter: 4920  10:41:33  -6.06  -3.53  -337.329011            +38.2,-0.0,-0.0
iter: 4921  10:41:49  -6.18  -3.96  -337.322225            +38.2,-0.0,-0.0
iter: 4922  10:42:05  -6.87  -3.88  -337.322086            +38.2,-0.0,-0.0
iter: 4923  10:42:21  -6.49  -4.05  -337.322986            +38.2,-0.0,-0.0
iter: 4924  10:42:37  -5.63  -3.94  -337.322794            +38.1,-0.0,-0.0
iter: 4925  10:42:53  -5.30  -3.44  -337.322817            +38.2,-0.0,-0.0
iter: 4926  10:43:08  -6.15  -3.47  -337.323107            +38.2,+0.0,-0.0
iter: 4927  10:43:24  -5.49  -3.50  -337.323725            +38.1,+0.0,-0.0
iter: 4928  10:43:40  -5.67  -3.28  -337.310051            +38.1,+0.0,-0.0
iter: 4929  10:43:56  -5.25  -3.50  -337.309383            +38.2,+0.0,-0.0
iter: 4930  10:44:12  -5.82  -3.82  -337.308610            +38.2,+0.0,-0.0
iter: 4931  10:44:28  -6.03  -3.76  -337.310008            +38.2,+0.0,+0.0
iter: 4932  10:44:44  -6.61  -3.76  -337.309496            +38.2,+0.0,+0.0
iter: 4933  10:45:00  -6.65  -3.82  -337.308807            +38.2,+0.0,+0.0
iter: 4934  10:45:16  -5.90  -3.72  -337.309708            +38.2,+0.0,+0.0
iter: 4935  10:45:32  -6.07  -3.97  -337.309583            +38.1,+0.0,+0.0
iter: 4936  10:45:48  -5.92  -3.97  -337.309824            +38.1,+0.0,+0.0
iter: 4937  10:46:04  -6.31  -3.85  -337.309877            +38.2,+0.0,+0.0
iter: 4938  10:46:20  -5.99  -3.87  -337.308782            +38.2,+0.0,+0.0
iter: 4939  10:46:36  -5.70  -3.73  -337.310551            +38.2,+0.0,+0.0
iter: 4940  10:46:52  -5.69  -3.66  -337.310802            +38.1,+0.0,+0.0
iter: 4941  10:47:08  -6.65  -3.74  -337.310212            +38.1,+0.0,+0.0
iter: 4942  10:47:24  -6.37  -4.01  -337.311379            +38.1,+0.0,+0.0
iter: 4943  10:47:40  -5.81  -3.71  -337.313658            +38.1,+0.0,+0.0
iter: 4944  10:47:56  -6.10  -3.68  -337.310735            +38.1,+0.0,+0.0
iter: 4945  10:48:12  -6.84  -3.91  -337.312884            +38.2,+0.0,+0.0
iter: 4946  10:48:28  -6.25  -3.86  -337.319066            +38.1,+0.0,+0.0
iter: 4947  10:48:44  -5.63  -3.74  -337.299408            +38.1,+0.0,+0.0
iter: 4948  10:49:00  -6.26  -3.75  -337.299022            +38.1,+0.0,+0.0
iter: 4949  10:49:16  -6.34  -3.81  -337.311405            +38.1,+0.0,+0.0
iter: 4950  10:49:32  -6.80  -4.31  -337.316011            +38.1,+0.0,+0.0
iter: 4951  10:49:48  -7.24  -4.46  -337.316077            +38.1,+0.0,+0.0
iter: 4952  10:50:04  -6.71  -4.20  -337.314224            +38.2,+0.0,+0.0
iter: 4953  10:50:20  -6.24  -4.16  -337.315223            +38.2,+0.0,+0.0
iter: 4954  10:50:36  -6.91  -3.74  -337.310735            +38.2,+0.0,+0.0
iter: 4955  10:50:52  -5.89  -4.04  -337.315740            +38.1,+0.0,+0.0
iter: 4956  10:51:08  -6.65  -3.72  -337.308978            +38.1,+0.0,+0.0
iter: 4957  10:51:24  -6.25  -3.83  -337.309062            +38.2,+0.0,+0.0
iter: 4958  10:51:40  -5.74  -3.65  -337.301304            +38.1,+0.0,+0.0
iter: 4959  10:51:56  -5.45  -3.46  -337.310307            +38.2,+0.0,+0.0
iter: 4960  10:52:12  -6.11  -3.64  -337.299167            +38.2,+0.0,+0.0
iter: 4961  10:52:28  -5.19  -3.51  -337.324129            +38.1,+0.0,+0.0
iter: 4962  10:52:44  -5.84  -3.44  -337.318510            +38.2,+0.0,+0.0
iter: 4963  10:53:00  -6.01  -3.81  -337.315499            +38.2,+0.0,+0.0
iter: 4964  10:53:16  -5.29  -3.62  -337.321662            +38.2,+0.0,+0.0
iter: 4965  10:53:32  -5.75  -3.66  -337.329847            +38.1,+0.0,+0.0
iter: 4966  10:53:48  -5.53  -3.46  -337.321755            +38.2,+0.0,+0.0
iter: 4967  10:54:04  -5.54  -3.58  -337.330429            +38.1,+0.0,+0.0
iter: 4968  10:54:20  -6.16  -3.49  -337.323242            +38.1,+0.0,+0.0
iter: 4969  10:54:36  -5.68  -3.47  -337.343779            +38.1,+0.0,+0.0
iter: 4970  10:54:52  -4.87  -3.37  -337.406220            +38.2,+0.0,+0.0
iter: 4971  10:55:08  -6.13  -3.41  -337.358918            +38.2,+0.0,+0.0
iter: 4972  10:55:24  -5.96  -3.57  -337.318821            +38.1,+0.0,+0.0
iter: 4973  10:55:40  -6.37  -3.85  -337.303558            +38.1,+0.0,+0.0
iter: 4974  10:55:56  -7.03  -3.97  -337.303247            +38.1,+0.0,+0.0
iter: 4975  10:56:12  -6.21  -3.95  -337.301081            +38.2,-0.0,-0.0
iter: 4976  10:56:28  -5.04  -3.59  -337.305948            +38.0,+0.0,-0.0
iter: 4977  10:56:44  -5.45  -3.37  -337.302715            +38.0,+0.0,-0.0
iter: 4978  10:56:59  -4.82  -3.31  -337.302822            +37.9,-0.0,-0.0
iter: 4979  10:57:15  -5.67  -3.12  -337.316217            +38.0,-0.0,+0.0
iter: 4980  10:57:31  -5.54  -3.22  -337.348346            +38.0,-0.0,+0.0
iter: 4981  10:57:47  -5.10  -3.22  -337.371627            +38.0,-0.0,+0.0
iter: 4982  10:58:03  -5.14  -3.03  -337.324282            +38.0,-0.0,+0.0
iter: 4983  10:58:19  -5.37  -3.31  -337.300977            +38.0,-0.0,+0.0
iter: 4984  10:58:35  -5.35  -3.44  -337.270890            +38.0,+0.0,+0.0
iter: 4985  10:58:51  -6.23  -3.58  -337.275167            +38.0,+0.0,+0.0
iter: 4986  10:59:07  -5.82  -3.63  -337.263648            +38.0,+0.0,+0.0
iter: 4987  10:59:23  -6.39  -3.83  -337.263156            +38.0,+0.0,+0.0
iter: 4988  10:59:39  -6.57  -3.85  -337.260175            +38.0,+0.0,+0.0
iter: 4989  10:59:55  -6.49  -3.92  -337.261242            +38.0,+0.0,+0.0
iter: 4990  11:00:11  -7.12  -3.82  -337.253820            +38.0,+0.0,+0.0
iter: 4991  11:00:26  -6.39  -3.82  -337.238615            +38.0,+0.0,+0.0
iter: 4992  11:00:42  -6.15  -3.84  -337.252608            +38.0,+0.0,-0.0
iter: 4993  11:00:58  -6.01  -3.68  -337.224430            +38.0,+0.0,-0.0
iter: 4994  11:01:14  -6.30  -3.54  -337.241123            +38.0,+0.0,+0.0
iter: 4995  11:01:30  -6.01  -3.47  -337.246562            +38.0,+0.0,+0.0
iter: 4996  11:01:46  -6.99  -3.76  -337.250954            +38.0,+0.0,+0.0
iter: 4997  11:02:02  -6.52  -3.63  -337.262946            +38.0,+0.0,-0.0
iter: 4998  11:02:18  -5.81  -3.64  -337.238416            +38.0,+0.0,-0.0
iter: 4999  11:02:34  -6.63  -3.88  -337.243375            +38.0,+0.0,+0.0
iter: 5000  11:02:50  -6.50  -3.91  -337.282020            +38.0,+0.0,+0.0
