
  ___ ___ ___ _ _ _  
 |   |   |_  | | | | 
 | | | | | . | | | | 
 |__ |  _|___|_____|  21.6.1b1
 |___|_|             

User:   madkru@c097.nifl.fysik.dtu.dk
Date:   Mon Jul  4 21:39:04 2022
Arch:   x86_64
Pid:    261120
Python: 3.8.6
gpaw:   /home/niflheim/madkru/new_venv/gpaw/gpaw (1f0dfc9eae)
_gpaw:  /home/niflheim/madkru/new_venv/gpaw/build/lib.linux-x86_64-skylake-3.8/
        _gpaw.cpython-38-x86_64-linux-gnu.so (c1e45bfab3)
ase:    /home/niflheim/madkru/new_venv/ase/ase (version 3.23.0b1-ca38c75a67)
numpy:  /home/modules/software/SciPy-bundle/2020.11-foss-2020b/lib/python3.8/site-packages/numpy (version 1.19.4)
scipy:  /home/modules/software/SciPy-bundle/2020.11-foss-2020b/lib/python3.8/site-packages/scipy (version 1.5.4)
libxc:  4.3.4
units:  Angstrom and eV
cores: 40
OpenMP: False
OMP_NUM_THREADS: 1

Input parameters:
  convergence: {bands: occupied,
                density: 0.0001,
                eigenstates: 4e-08,
                energy: 0.0005,
                forces: 0.0001}
  kpts: {gamma: True,
         size: [12, 12, 12]}
  mode: {ecut: 600.0,
         gammacentered: False,
         name: pw}
  occupations: {fixmagmom: False,
                name: fermi-dirac,
                width: 0.001}
  symmetry: {point_group: False,
             time_reversal: False}

System changes: positions, numbers, cell, pbc, initial_charges, initial_magmoms 

Initialize ...

O-setup:
  name: Oxygen
  id: 9b9d51c344dea68c822856295a461509
  Z: 8.0
  valence: 6
  core: 2
  charge: 0.0
  file: /home/modules/software/GPAW-setups/0.9.20000/O.LDA.gz
  compensation charges: gauss, rc=0.21, lmax=2
  cutoffs: 1.17(filt), 0.83(core),
  valence states:
                energy  radius
    2s(2.00)   -23.752   0.688
    2p(4.00)    -9.195   0.598
    *s           3.459   0.688
    *p          18.016   0.598
    *d           0.000   0.619

  Using partial waves for O as LCAO basis

Cr-setup:
  name: Chromium
  id: 444e8044bc0f91048286c984738d87f5
  Z: 24.0
  valence: 6
  core: 18
  charge: 0.0
  file: /home/modules/software/GPAW-setups/0.9.20000/Cr.LDA.gz
  compensation charges: gauss, rc=0.35, lmax=2
  cutoffs: 2.14(filt), 3.04(core),
  valence states:
                energy  radius
    4s(1.00)    -4.191   1.164
    4p(0.00)    -1.079   1.217
    3d(5.00)    -3.128   1.111
    *s          23.021   1.164
    *p          26.132   1.217
    *d          24.083   1.111

  Using partial waves for Cr as LCAO basis

Reference energy: -126274.181857

Spin-polarized calculation.
Magnetic moment: 0.000000

Convergence criteria:
  Maximum total energy change: 0.0005 eV / electron
  Maximum integral of absolute density change: 0.0001 electrons
  Maximum integral of absolute eigenstate change: 4e-08 eV^2
  Maximum change in atomic force: 0.0001 eV / Ang
  Maximum number of iterations: 333

Symmetries present (total): 1

  ( 1  0  0)
  ( 0  1  0)
  ( 0  0  1)

1728 k-points: 12 x 12 x 12 Monkhorst-Pack grid + [1/24,1/24,1/24]
1728 k-points in the irreducible part of the Brillouin zone
       k-points in crystal coordinates                weights
   0:    -0.41666667   -0.41666667   -0.41666667          1/1728
   1:    -0.41666667   -0.41666667   -0.33333333          1/1728
   2:    -0.41666667   -0.41666667   -0.25000000          1/1728
   3:    -0.41666667   -0.41666667   -0.16666667          1/1728
   4:    -0.41666667   -0.41666667   -0.08333333          1/1728
   5:    -0.41666667   -0.41666667   -0.00000000          1/1728
   6:    -0.41666667   -0.41666667    0.08333333          1/1728
   7:    -0.41666667   -0.41666667    0.16666667          1/1728
   8:    -0.41666667   -0.41666667    0.25000000          1/1728
   9:    -0.41666667   -0.41666667    0.33333333          1/1728
          ...
1727:     0.50000000    0.50000000    0.50000000          1/1728

Wave functions: Plane wave expansion
  Cutoff energy: 600.000 eV
  Number of coefficients (min, max): 2896, 2946
  Pulay-stress correction: 0.000000 eV/Ang^3 (de/decut=0.000000)
  Using FFTW library
  ScaLapack parameters: grid=1x1, blocksize=None
  Wavefunction extrapolation:
    Improved wavefunction reuse through dual PAW basis 

Occupation numbers: Fermi-Dirac: width=0.0010 eV
 

Eigensolver
   Davidson(niter=2) 

Densities:
  Coarse grid: 32*32*32 grid
  Fine grid: 64*64*64 grid
  Total Charge: 0.000000 

Density mixing:
  Method: difference
  Backend: pulay
  Linear mixing parameter: 0.05
  Mixing with 5 old densities
  Damping of long wave oscillations: 50 

Hamiltonian:
  XC and Coulomb potentials evaluated on a 64*64*64 grid
  Using the LDA Exchange-Correlation functional
  External potential:
    <gpaw.external.NoExternalPotential object at 0x2b30645c1160>
 

Memory estimate:
  Process memory now: 28268.38 MiB
  Calculator: 209.79 MiB
    Density: 16.11 MiB
      Arrays: 8.75 MiB
      Localized functions: 3.86 MiB
      Mixer: 3.50 MiB
    Hamiltonian: 6.59 MiB
      Arrays: 6.50 MiB
      XC: 0.00 MiB
      Poisson: 0.00 MiB
      vbar: 0.09 MiB
    Wavefunctions: 187.08 MiB
      Arrays psit_nG: 154.64 MiB
      Eigensolver: 2.27 MiB
      Projections: 7.87 MiB
      Projectors: 19.12 MiB
      PW-descriptor: 3.18 MiB

Total number of cores used: 40
Parallelization over k-points: 40

Number of atoms: 10
Number of atomic orbitals: 60
Number of bands in calculation: 40
Number of valence electrons: 60
Bands to converge: occupied

... initialized

Initializing position-dependent things.

Density initialized from atomic densities
Creating initial wave functions:
  40 bands from LCAO basis set

                          
                          
                          
                          
            Cr            
                          
                          
            Cr            
           O              
         O      O         
                          
        O      O          
             O            
            Cr            
                          
                          
            Cr            
                          
                          
                          
                          

Positions:
   0 O     -0.760209   -1.389250    1.148641    ( 0.0000,  0.0000,  0.0000)
   1 O     -1.582607   -0.036807   -1.147820    ( 0.0000,  0.0000,  0.0000)
   2 O     -0.823830    1.352257    1.148121    ( 0.0000,  0.0000,  0.0000)
   3 O      0.823830   -1.352257   -1.148121    ( 0.0000,  0.0000,  0.0000)
   4 Cr    -0.000004    0.000260   -4.703226    ( 0.0000,  0.0000,  2.0000)
   5 Cr    -0.000004    0.000111   -2.195940    ( 0.0000,  0.0000, -2.0000)
   6 Cr     0.000004   -0.000260    4.693226    ( 0.0000,  0.0000, -2.0000)
   7 Cr     0.000004   -0.000111    2.195940    ( 0.0000,  0.0000,  2.0000)
   8 O      1.582607    0.036807    1.147820    ( 0.0000,  0.0000,  0.0000)
   9 O      0.760209    1.389250   -1.148641    ( 0.0000,  0.0000,  0.0000)

Unit cell:
           periodic     x           y           z      points  spacing
  1. axis:    yes    2.342815    1.352071    4.592704    32     0.1216
  2. axis:    yes   -2.342815    1.352071    4.592704    32     0.1216
  3. axis:    yes    0.000000   -2.704886    4.592923    32     0.1216

  Lengths:   5.330085   5.330085   5.330230
  Angles:   52.139511  52.139510  52.149782

Effective grid spacing dv^(1/3) = 0.1386

                     log10-error:           total        iterations:
           time      wfs    density  force  energy       poisson  magmom
iter:   1  21:46:33                       -100.565338             +0.0000
iter:   2  21:46:47  -0.70  -1.01          -99.835817             +0.0000
iter:   3  21:47:01  -0.13  -1.05          -97.280799             -0.0000
iter:   4  21:47:15  -1.17  -1.41          -97.358097             -0.0000
iter:   5  21:47:29  -1.15  -1.36          -97.361358             -0.0000
iter:   6  21:47:44  -0.77  -1.51          -96.976920             -0.0000
iter:   7  21:47:58  -1.60  -1.87          -96.872093             +0.0000
iter:   8  21:48:12  -1.74  -2.01          -96.846156             -0.0000
iter:   9  21:48:26  -1.91  -2.32          -96.842882             -0.0000
iter:  10  21:48:40  -2.74  -2.50          -96.838003             -0.0000
iter:  11  21:48:54  -2.77  -2.79          -96.844587             -0.0000
iter:  12  21:49:08  -3.15  -2.66          -96.846313             -0.0000
iter:  13  21:49:23  -3.43  -2.61          -96.844935             -0.0000
iter:  14  21:49:37  -3.15  -2.66          -96.839224             -0.0000
iter:  15  21:49:51  -3.64  -2.84          -96.840766             -0.0000
iter:  16  21:50:05  -3.40  -2.79          -96.840310             -0.0000
iter:  17  21:50:19  -3.27  -2.72          -96.839149             -0.0000
iter:  18  21:50:33  -3.47  -2.92          -96.841269             +0.0000
iter:  19  21:50:48  -4.03  -2.94          -96.839996             +0.0000
iter:  20  21:51:02  -3.85  -3.09          -96.839322             +0.0000
iter:  21  21:51:16  -4.23  -3.22          -96.839629             +0.0000
iter:  22  21:51:30  -4.65  -3.25          -96.839530             +0.0000
iter:  23  21:51:44  -4.53  -3.29          -96.839302             +0.0000
iter:  24  21:51:58  -4.75  -3.41          -96.839326             +0.0000
iter:  25  21:52:12  -4.89  -3.38          -96.839337             -0.0000
iter:  26  21:52:26  -5.03  -3.39          -96.839367             +0.0000
iter:  27  21:52:41  -4.83  -3.32          -96.839338             +0.0000
iter:  28  21:52:55  -5.08  -3.42          -96.839330             +0.0000
iter:  29  21:53:09  -5.30  -3.47          -96.839319             +0.0000
iter:  30  21:53:23  -4.89  -3.51          -96.839322             +0.0000
iter:  31  21:53:37  -4.85  -3.61          -96.839316             +0.0000
iter:  32  21:53:51  -5.11  -3.78          -96.839310             +0.0000
iter:  33  21:54:05  -5.34  -3.84          -96.839295             +0.0000
iter:  34  21:54:19  -5.56  -4.08          -96.839300             +0.0000
iter:  35  21:54:33  -5.82  -4.15          -96.839301             -0.0000
iter:  36  21:54:47  -6.03  -4.19          -96.839301             -0.0000
iter:  37  21:55:02  -5.88  -4.27          -96.839300             +0.0000
iter:  38  21:55:16  -6.19  -4.46          -96.839301             +0.0000
iter:  39  21:55:30  -6.36  -4.50          -96.839301             +0.0000
iter:  40  21:55:44  -6.54  -4.56          -96.839301             +0.0000
iter:  41  21:55:58  -6.56  -4.70          -96.839302             +0.0000
iter:  42  21:56:12  -6.61  -4.92          -96.839302             +0.0000
iter:  43  21:56:26  -6.71  -5.05          -96.839302             +0.0000
iter:  44  21:56:40  -6.81  -5.14          -96.839302             +0.0000
iter:  45  21:56:54  -6.97  -5.25          -96.839302             +0.0000
iter:  46  21:57:09  -6.99  -5.26          -96.839303             +0.0000
iter:  47  21:57:23  -7.16  -5.18          -96.839303             +0.0000
iter:  48  21:57:37  -7.28  -5.24          -96.839303             +0.0000
iter:  49  21:57:51  -7.35  -5.23          -96.839303             +0.0000
iter:  50  21:58:08  -7.52  -5.23          -96.839303             +0.0000
iter:  51  21:58:24  -7.47  -5.22    -3.41 -96.839303             -0.0000
iter:  52  21:58:41  -7.57  -5.24    -3.83 -96.839303             -0.0000
iter:  53  21:58:57  -7.57  -5.26    -3.76 -96.839303             -0.0000
iter:  54  21:59:14  -7.63  -5.33    -3.06 -96.839303             +0.0000
iter:  55  21:59:31  -7.80  -5.37    -3.40 -96.839303             +0.0000
iter:  56  21:59:47  -7.86  -5.54    -3.76 -96.839303             +0.0000
iter:  57  22:00:04  -7.87  -5.58    -3.39 -96.839303             +0.0000
iter:  58  22:00:20  -8.00  -5.69    -3.53 -96.839303             +0.0000
iter:  59  22:00:37  -8.06  -5.90    -4.86 -96.839303             +0.0000

Converged after 59 iterations.

Dipole moment: (-0.000001, 0.000003, -0.018484) |e|*Ang

Total magnetic moment: (0.000000, 0.000000, 0.000000)
Local magnetic moments:
   0 O  ( 0.000000,  0.000000, -0.000509)
   1 O  ( 0.000000,  0.000000,  0.000132)
   2 O  ( 0.000000,  0.000000, -0.000352)
   3 O  ( 0.000000,  0.000000,  0.000292)
   4 Cr ( 0.000000,  0.000000,  2.214303)
   5 Cr ( 0.000000,  0.000000, -2.213751)
   6 Cr ( 0.000000,  0.000000, -2.209566)
   7 Cr ( 0.000000,  0.000000,  2.209298)
   8 O  ( 0.000000,  0.000000, -0.000189)
   9 O  ( 0.000000,  0.000000,  0.000452)

Energy contributions relative to reference atoms: (reference = -126274.181857)

Kinetic:        +34.358182
Potential:      -53.961939
External:        +0.000000
XC:             -78.967952
Entropy (-ST):   -0.000000
Local:           +1.732406
--------------------------
Free energy:    -96.839303
Extrapolated:   -96.839303

Spin contamination: 4.768250 electrons
Showing only first 2 kpts
                      Up                     Down
 Kpt  Band  Eigenvalues  Occupancy  Eigenvalues  Occupancy
  0    28      8.50918    1.00000      8.50674    1.00000
  0    29      8.77446    1.00000      8.77427    1.00000
  0    30     10.01334    0.00000     10.01717    0.00000
  0    31     10.02367    0.00000     10.02433    0.00000

  1    28      8.53616    1.00000      8.53590    1.00000
  1    29      8.81956    1.00000      8.81963    1.00000
  1    30      9.95476    0.00000      9.95510    0.00000
  1    31     10.00872    0.00000     10.01334    0.00000


Fermi level: 9.31387

Gap: 0.822 eV
Transition (v -> c):
  (s=1, k=785, n=29, [-0.00, -0.00, -0.00]) -> (s=0, k=1099, n=30, [0.17, 0.17, 0.17])
Writing to born-0.01-4z-.gpw (mode='all')

Timing:                              incl.     excl.
-----------------------------------------------------------
Hamiltonian:                         0.255     0.001   0.0% |
 Atomic:                             0.077     0.077   0.0% |
  XC Correction:                     0.000     0.000   0.0% |
 Calculate atomic Hamiltonians:      0.024     0.024   0.0% |
 Communicate:                        0.000     0.000   0.0% |
 Initialize Hamiltonian:             0.001     0.001   0.0% |
 Poisson:                            0.001     0.001   0.0% |
 XC 3D grid:                         0.151     0.151   0.0% |
LCAO initialization:               424.675     0.143   0.0% |
 LCAO eigensolver:                 251.147     0.009   0.0% |
  Calculate projections:             0.018     0.018   0.0% |
  DenseAtomicCorrection:             0.045     0.045   0.0% |
  Distribute overlap matrix:         0.005     0.005   0.0% |
  Orbital Layouts:                   0.127     0.127   0.0% |
  Potential matrix:                250.658   250.658   7.8% |--|
  Sum over cells:                    0.285     0.285   0.0% |
 LCAO to grid:                     171.194   171.194   5.3% |-|
 Set positions (LCAO WFS):           2.192     0.384   0.0% |
  Basic WFS set positions:           0.000     0.000   0.0% |
  Basis functions set positions:     0.000     0.000   0.0% |
  P tci:                             0.941     0.941   0.0% |
  ST tci:                            0.779     0.779   0.0% |
  mktci:                             0.089     0.089   0.0% |
PWDescriptor:                        0.062     0.062   0.0% |
SCF-cycle:                         867.056    41.546   1.3% ||
 Davidson:                         732.546   159.675   5.0% |-|
  Apply H:                         106.700   102.501   3.2% ||
   HMM T:                            4.199     4.199   0.1% |
  Subspace diag:                   136.838     0.739   0.0% |
   calc_h_matrix:                  118.455    11.671   0.4% |
    Apply H:                       106.784   102.435   3.2% ||
     HMM T:                          4.349     4.349   0.1% |
   diagonalize:                      3.232     3.232   0.1% |
   rotate_psi:                      14.413    14.413   0.4% |
  calc. matrices:                  278.809    65.437   2.0% ||
   Apply H:                        213.372   205.139   6.4% |--|
    HMM T:                           8.233     8.233   0.3% |
  diagonalize:                      23.686    23.686   0.7% |
  rotate_psi:                       26.838    26.838   0.8% |
 Density:                           52.953     0.002   0.0% |
  Atomic density matrices:           1.542     1.542   0.0% |
  Mix:                               3.125     3.125   0.1% |
  Multipole moments:                 0.020     0.020   0.0% |
  Pseudo density:                   48.264    48.262   1.5% ||
   Symmetrize density:               0.002     0.002   0.0% |
 Forces:                            24.954    24.954   0.8% |
 Hamiltonian:                       14.359     0.089   0.0% |
  Atomic:                            3.120     3.119   0.1% |
   XC Correction:                    0.000     0.000   0.0% |
  Calculate atomic Hamiltonians:     1.734     1.734   0.1% |
  Communicate:                       0.007     0.007   0.0% |
  Poisson:                           0.056     0.056   0.0% |
  XC 3D grid:                        9.354     9.354   0.3% |
 Orthonormalize:                     0.697     0.011   0.0% |
  calc_s_matrix:                     0.108     0.108   0.0% |
  inverse-cholesky:                  0.017     0.017   0.0% |
  projections:                       0.445     0.445   0.0% |
  rotate_psi_s:                      0.117     0.117   0.0% |
Set symmetry:                        0.000     0.000   0.0% |
Other:                            1923.066  1923.066  59.8% |-----------------------|
-----------------------------------------------------------
Total:                                      3215.114 100.0%

Memory usage: 27.65 GiB
Date: Mon Jul  4 22:32:39 2022
