
  ___ ___ ___ _ _ _  
 |   |   |_  | | | | 
 | | | | | . | | | | 
 |__ |  _|___|_____|  21.6.1b1
 |___|_|             

User:   madkru@c097.nifl.fysik.dtu.dk
Date:   Tue Jul  5 03:31:31 2022
Arch:   x86_64
Pid:    261120
Python: 3.8.6
gpaw:   /home/niflheim/madkru/new_venv/gpaw/gpaw (1f0dfc9eae)
_gpaw:  /home/niflheim/madkru/new_venv/gpaw/build/lib.linux-x86_64-skylake-3.8/
        _gpaw.cpython-38-x86_64-linux-gnu.so (c1e45bfab3)
ase:    /home/niflheim/madkru/new_venv/ase/ase (version 3.23.0b1-ca38c75a67)
numpy:  /home/modules/software/SciPy-bundle/2020.11-foss-2020b/lib/python3.8/site-packages/numpy (version 1.19.4)
scipy:  /home/modules/software/SciPy-bundle/2020.11-foss-2020b/lib/python3.8/site-packages/scipy (version 1.5.4)
libxc:  4.3.4
units:  Angstrom and eV
cores: 40
OpenMP: False
OMP_NUM_THREADS: 1

Input parameters:
  convergence: {bands: occupied,
                density: 0.0001,
                eigenstates: 4e-08,
                energy: 0.0005,
                forces: 0.0001}
  kpts: {gamma: True,
         size: [12, 12, 12]}
  mode: {ecut: 600.0,
         gammacentered: False,
         name: pw}
  occupations: {fixmagmom: False,
                name: fermi-dirac,
                width: 0.001}
  symmetry: {point_group: False,
             time_reversal: False}

System changes: positions, numbers, cell, pbc, initial_charges, initial_magmoms 

Initialize ...

O-setup:
  name: Oxygen
  id: 9b9d51c344dea68c822856295a461509
  Z: 8.0
  valence: 6
  core: 2
  charge: 0.0
  file: /home/modules/software/GPAW-setups/0.9.20000/O.LDA.gz
  compensation charges: gauss, rc=0.21, lmax=2
  cutoffs: 1.17(filt), 0.83(core),
  valence states:
                energy  radius
    2s(2.00)   -23.752   0.688
    2p(4.00)    -9.195   0.598
    *s           3.459   0.688
    *p          18.016   0.598
    *d           0.000   0.619

  Using partial waves for O as LCAO basis

Cr-setup:
  name: Chromium
  id: 444e8044bc0f91048286c984738d87f5
  Z: 24.0
  valence: 6
  core: 18
  charge: 0.0
  file: /home/modules/software/GPAW-setups/0.9.20000/Cr.LDA.gz
  compensation charges: gauss, rc=0.35, lmax=2
  cutoffs: 2.14(filt), 3.04(core),
  valence states:
                energy  radius
    4s(1.00)    -4.191   1.164
    4p(0.00)    -1.079   1.217
    3d(5.00)    -3.128   1.111
    *s          23.021   1.164
    *p          26.132   1.217
    *d          24.083   1.111

  Using partial waves for Cr as LCAO basis

Reference energy: -126274.181857

Spin-polarized calculation.
Magnetic moment: 0.000000

Convergence criteria:
  Maximum total energy change: 0.0005 eV / electron
  Maximum integral of absolute density change: 0.0001 electrons
  Maximum integral of absolute eigenstate change: 4e-08 eV^2
  Maximum change in atomic force: 0.0001 eV / Ang
  Maximum number of iterations: 333

Symmetries present (total): 1

  ( 1  0  0)
  ( 0  1  0)
  ( 0  0  1)

1728 k-points: 12 x 12 x 12 Monkhorst-Pack grid + [1/24,1/24,1/24]
1728 k-points in the irreducible part of the Brillouin zone
       k-points in crystal coordinates                weights
   0:    -0.41666667   -0.41666667   -0.41666667          1/1728
   1:    -0.41666667   -0.41666667   -0.33333333          1/1728
   2:    -0.41666667   -0.41666667   -0.25000000          1/1728
   3:    -0.41666667   -0.41666667   -0.16666667          1/1728
   4:    -0.41666667   -0.41666667   -0.08333333          1/1728
   5:    -0.41666667   -0.41666667   -0.00000000          1/1728
   6:    -0.41666667   -0.41666667    0.08333333          1/1728
   7:    -0.41666667   -0.41666667    0.16666667          1/1728
   8:    -0.41666667   -0.41666667    0.25000000          1/1728
   9:    -0.41666667   -0.41666667    0.33333333          1/1728
          ...
1727:     0.50000000    0.50000000    0.50000000          1/1728

Wave functions: Plane wave expansion
  Cutoff energy: 600.000 eV
  Number of coefficients (min, max): 2896, 2946
  Pulay-stress correction: 0.000000 eV/Ang^3 (de/decut=0.000000)
  Using FFTW library
  ScaLapack parameters: grid=1x1, blocksize=None
  Wavefunction extrapolation:
    Improved wavefunction reuse through dual PAW basis 

Occupation numbers: Fermi-Dirac: width=0.0010 eV
 

Eigensolver
   Davidson(niter=2) 

Densities:
  Coarse grid: 32*32*32 grid
  Fine grid: 64*64*64 grid
  Total Charge: 0.000000 

Density mixing:
  Method: difference
  Backend: pulay
  Linear mixing parameter: 0.05
  Mixing with 5 old densities
  Damping of long wave oscillations: 50 

Hamiltonian:
  XC and Coulomb potentials evaluated on a 64*64*64 grid
  Using the LDA Exchange-Correlation functional
  External potential:
    <gpaw.external.NoExternalPotential object at 0x2b3074b86250>
 

Memory estimate:
  Process memory now: 28797.96 MiB
  Calculator: 209.79 MiB
    Density: 16.11 MiB
      Arrays: 8.75 MiB
      Localized functions: 3.86 MiB
      Mixer: 3.50 MiB
    Hamiltonian: 6.59 MiB
      Arrays: 6.50 MiB
      XC: 0.00 MiB
      Poisson: 0.00 MiB
      vbar: 0.09 MiB
    Wavefunctions: 187.08 MiB
      Arrays psit_nG: 154.64 MiB
      Eigensolver: 2.27 MiB
      Projections: 7.87 MiB
      Projectors: 19.12 MiB
      PW-descriptor: 3.18 MiB

Total number of cores used: 40
Parallelization over k-points: 40

Number of atoms: 10
Number of atomic orbitals: 60
Number of bands in calculation: 40
Number of valence electrons: 60
Bands to converge: occupied

... initialized

Initializing position-dependent things.

Density initialized from atomic densities
Creating initial wave functions:
  40 bands from LCAO basis set

                          
                          
                          
                          
            Cr            
                          
                          
            Cr            
           O              
         O      O         
                          
        O      O          
             O            
            Cr            
                          
                          
            Cr            
                          
                          
                          
                          

Positions:
   0 O     -0.760209   -1.389250    1.148641    ( 0.0000,  0.0000,  0.0000)
   1 O     -1.582607   -0.036807   -1.147820    ( 0.0000,  0.0000,  0.0000)
   2 O     -0.823830    1.352257    1.148121    ( 0.0000,  0.0000,  0.0000)
   3 O      0.823830   -1.352257   -1.148121    ( 0.0000,  0.0000,  0.0000)
   4 Cr    -0.000004    0.000260   -4.693226    ( 0.0000,  0.0000,  2.0000)
   5 Cr    -0.000004    0.000111   -2.195940    ( 0.0000,  0.0000, -2.0000)
   6 Cr     0.000004   -0.000260    4.703226    ( 0.0000,  0.0000, -2.0000)
   7 Cr     0.000004   -0.000111    2.195940    ( 0.0000,  0.0000,  2.0000)
   8 O      1.582607    0.036807    1.147820    ( 0.0000,  0.0000,  0.0000)
   9 O      0.760209    1.389250   -1.148641    ( 0.0000,  0.0000,  0.0000)

Unit cell:
           periodic     x           y           z      points  spacing
  1. axis:    yes    2.342815    1.352071    4.592704    32     0.1216
  2. axis:    yes   -2.342815    1.352071    4.592704    32     0.1216
  3. axis:    yes    0.000000   -2.704886    4.592923    32     0.1216

  Lengths:   5.330085   5.330085   5.330230
  Angles:   52.139511  52.139510  52.149782

Effective grid spacing dv^(1/3) = 0.1386

                     log10-error:           total        iterations:
           time      wfs    density  force  energy       poisson  magmom
iter:   1  03:39:01                       -100.565338             -0.0000
iter:   2  03:39:15  -0.70  -1.01          -99.835817             -0.0000
iter:   3  03:39:29  -0.13  -1.05          -97.280799             +0.0000
iter:   4  03:39:44  -1.17  -1.41          -97.358097             +0.0000
iter:   5  03:39:58  -1.15  -1.36          -97.361358             +0.0000
iter:   6  03:40:12  -0.77  -1.51          -96.976920             +0.0000
iter:   7  03:40:26  -1.60  -1.87          -96.872093             -0.0000
iter:   8  03:40:40  -1.74  -2.01          -96.846156             +0.0000
iter:   9  03:40:55  -1.91  -2.32          -96.842882             +0.0000
iter:  10  03:41:09  -2.74  -2.50          -96.838003             +0.0000
iter:  11  03:41:23  -2.77  -2.79          -96.844587             +0.0000
iter:  12  03:41:37  -3.15  -2.66          -96.846313             +0.0000
iter:  13  03:41:51  -3.43  -2.61          -96.844935             +0.0000
iter:  14  03:42:05  -3.15  -2.66          -96.839224             +0.0000
iter:  15  03:42:20  -3.64  -2.84          -96.840766             +0.0000
iter:  16  03:42:34  -3.40  -2.79          -96.840310             +0.0000
iter:  17  03:42:48  -3.27  -2.72          -96.839149             +0.0000
iter:  18  03:43:02  -3.47  -2.92          -96.841269             +0.0000
iter:  19  03:43:16  -4.03  -2.94          -96.839996             +0.0000
iter:  20  03:43:30  -3.85  -3.09          -96.839322             +0.0000
iter:  21  03:43:44  -4.23  -3.22          -96.839629             +0.0000
iter:  22  03:43:58  -4.65  -3.25          -96.839530             +0.0000
iter:  23  03:44:13  -4.53  -3.29          -96.839302             +0.0000
iter:  24  03:44:27  -4.75  -3.41          -96.839326             +0.0000
iter:  25  03:44:41  -4.89  -3.38          -96.839337             +0.0000
iter:  26  03:44:55  -5.03  -3.39          -96.839367             +0.0000
iter:  27  03:45:09  -4.83  -3.32          -96.839338             +0.0000
iter:  28  03:45:24  -5.08  -3.42          -96.839330             +0.0000
iter:  29  03:45:38  -5.30  -3.47          -96.839319             +0.0000
iter:  30  03:45:52  -4.89  -3.51          -96.839322             +0.0000
iter:  31  03:46:06  -4.85  -3.61          -96.839316             +0.0000
iter:  32  03:46:20  -5.11  -3.78          -96.839310             +0.0000
iter:  33  03:46:34  -5.34  -3.84          -96.839295             +0.0000
iter:  34  03:46:49  -5.56  -4.08          -96.839300             +0.0000
iter:  35  03:47:03  -5.82  -4.15          -96.839301             +0.0000
iter:  36  03:47:17  -6.03  -4.19          -96.839301             +0.0000
iter:  37  03:47:31  -5.88  -4.27          -96.839300             +0.0000
iter:  38  03:47:45  -6.19  -4.46          -96.839301             +0.0000
iter:  39  03:47:59  -6.36  -4.50          -96.839301             +0.0000
iter:  40  03:48:13  -6.54  -4.56          -96.839301             +0.0000
iter:  41  03:48:27  -6.56  -4.70          -96.839302             +0.0000
iter:  42  03:48:42  -6.61  -4.92          -96.839302             +0.0000
iter:  43  03:48:56  -6.71  -5.05          -96.839302             +0.0000
iter:  44  03:49:10  -6.81  -5.14          -96.839302             +0.0000
iter:  45  03:49:24  -6.97  -5.25          -96.839302             +0.0000
iter:  46  03:49:38  -6.99  -5.26          -96.839303             +0.0000
iter:  47  03:49:52  -7.16  -5.18          -96.839303             +0.0000
iter:  48  03:50:06  -7.28  -5.24          -96.839303             +0.0000
iter:  49  03:50:20  -7.35  -5.23          -96.839303             +0.0000
iter:  50  03:50:37  -7.52  -5.23          -96.839303             +0.0000
iter:  51  03:50:54  -7.47  -5.22    -3.41 -96.839303             +0.0000
iter:  52  03:51:11  -7.57  -5.24    -3.83 -96.839303             +0.0000
iter:  53  03:51:27  -7.57  -5.26    -3.76 -96.839303             +0.0000
iter:  54  03:51:44  -7.63  -5.33    -3.06 -96.839303             +0.0000
iter:  55  03:52:01  -7.80  -5.37    -3.40 -96.839303             +0.0000
iter:  56  03:52:17  -7.86  -5.54    -3.76 -96.839303             +0.0000
iter:  57  03:52:34  -7.87  -5.58    -3.39 -96.839303             +0.0000
iter:  58  03:52:51  -8.00  -5.69    -3.53 -96.839303             +0.0000
iter:  59  03:53:07  -8.06  -5.90    -4.86 -96.839303             +0.0000

Converged after 59 iterations.

Dipole moment: (0.000001, -0.000003, 0.018484) |e|*Ang

Total magnetic moment: (0.000000, 0.000000, 0.000000)
Local magnetic moments:
   0 O  ( 0.000000,  0.000000, -0.000452)
   1 O  ( 0.000000,  0.000000,  0.000189)
   2 O  ( 0.000000,  0.000000, -0.000292)
   3 O  ( 0.000000,  0.000000,  0.000352)
   4 Cr ( 0.000000,  0.000000,  2.209566)
   5 Cr ( 0.000000,  0.000000, -2.209298)
   6 Cr ( 0.000000,  0.000000, -2.214303)
   7 Cr ( 0.000000,  0.000000,  2.213751)
   8 O  ( 0.000000,  0.000000, -0.000132)
   9 O  ( 0.000000,  0.000000,  0.000509)

Energy contributions relative to reference atoms: (reference = -126274.181857)

Kinetic:        +34.358182
Potential:      -53.961939
External:        +0.000000
XC:             -78.967952
Entropy (-ST):   -0.000000
Local:           +1.732406
--------------------------
Free energy:    -96.839303
Extrapolated:   -96.839303

Spin contamination: 4.768250 electrons
Showing only first 2 kpts
                      Up                     Down
 Kpt  Band  Eigenvalues  Occupancy  Eigenvalues  Occupancy
  0    28      8.50674    1.00000      8.50918    1.00000
  0    29      8.77427    1.00000      8.77446    1.00000
  0    30     10.01717    0.00000     10.01334    0.00000
  0    31     10.02433    0.00000     10.02367    0.00000

  1    28      8.53590    1.00000      8.53616    1.00000
  1    29      8.81963    1.00000      8.81956    1.00000
  1    30      9.95510    0.00000      9.95476    0.00000
  1    31     10.01334    0.00000     10.00872    0.00000


Fermi level: 9.31387

Gap: 0.822 eV
Transition (v -> c):
  (s=0, k=785, n=29, [-0.00, -0.00, -0.00]) -> (s=1, k=1099, n=30, [0.17, 0.17, 0.17])
Writing to born-0.01-6z+.gpw (mode='all')

Timing:                              incl.     excl.
-----------------------------------------------------------
Hamiltonian:                         0.254     0.001   0.0% |
 Atomic:                             0.068     0.068   0.0% |
  XC Correction:                     0.000     0.000   0.0% |
 Calculate atomic Hamiltonians:      0.027     0.027   0.0% |
 Communicate:                        0.000     0.000   0.0% |
 Initialize Hamiltonian:             0.000     0.000   0.0% |
 Poisson:                            0.001     0.001   0.0% |
 XC 3D grid:                         0.157     0.157   0.0% |
LCAO initialization:               423.811     0.143   0.0% |
 LCAO eigensolver:                 250.954     0.009   0.0% |
  Calculate projections:             0.017     0.017   0.0% |
  DenseAtomicCorrection:             0.045     0.045   0.0% |
  Distribute overlap matrix:         0.005     0.005   0.0% |
  Orbital Layouts:                   0.126     0.126   0.0% |
  Potential matrix:                250.471   250.471   8.3% |--|
  Sum over cells:                    0.282     0.282   0.0% |
 LCAO to grid:                     170.492   170.492   5.7% |-|
 Set positions (LCAO WFS):           2.222     0.381   0.0% |
  Basic WFS set positions:           0.000     0.000   0.0% |
  Basis functions set positions:     0.000     0.000   0.0% |
  P tci:                             0.974     0.974   0.0% |
  ST tci:                            0.777     0.777   0.0% |
  mktci:                             0.090     0.090   0.0% |
PWDescriptor:                        0.062     0.062   0.0% |
SCF-cycle:                         870.819    41.022   1.4% ||
 Davidson:                         736.475   160.036   5.3% |-|
  Apply H:                         107.789   103.578   3.4% ||
   HMM T:                            4.211     4.211   0.1% |
  Subspace diag:                   137.686     0.749   0.0% |
   calc_h_matrix:                  119.306    11.635   0.4% |
    Apply H:                       107.671   103.367   3.4% ||
     HMM T:                          4.304     4.304   0.1% |
   diagonalize:                      3.226     3.226   0.1% |
   rotate_psi:                      14.405    14.405   0.5% |
  calc. matrices:                  280.516    64.898   2.2% ||
   Apply H:                        215.617   207.057   6.9% |--|
    HMM T:                           8.561     8.561   0.3% |
  diagonalize:                      23.694    23.694   0.8% |
  rotate_psi:                       26.754    26.754   0.9% |
 Density:                           52.944     0.002   0.0% |
  Atomic density matrices:           1.547     1.547   0.1% |
  Mix:                               3.094     3.094   0.1% |
  Multipole moments:                 0.021     0.021   0.0% |
  Pseudo density:                   48.281    48.279   1.6% ||
   Symmetrize density:               0.002     0.002   0.0% |
 Forces:                            25.282    25.282   0.8% |
 Hamiltonian:                       14.399     0.087   0.0% |
  Atomic:                            3.159     3.159   0.1% |
   XC Correction:                    0.000     0.000   0.0% |
  Calculate atomic Hamiltonians:     1.725     1.725   0.1% |
  Communicate:                       0.007     0.007   0.0% |
  Poisson:                           0.053     0.053   0.0% |
  XC 3D grid:                        9.369     9.369   0.3% |
 Orthonormalize:                     0.696     0.010   0.0% |
  calc_s_matrix:                     0.108     0.108   0.0% |
  inverse-cholesky:                  0.016     0.016   0.0% |
  projections:                       0.447     0.447   0.0% |
  rotate_psi_s:                      0.115     0.115   0.0% |
Set symmetry:                        0.000     0.000   0.0% |
Other:                            1712.922  1712.922  56.9% |----------------------|
-----------------------------------------------------------
Total:                                      3007.869 100.0%

Memory usage: 28.17 GiB
Date: Tue Jul  5 04:21:39 2022
