
  ___ ___ ___ _ _ _  
 |   |   |_  | | | | 
 | | | | | . | | | | 
 |__ |  _|___|_____|  21.6.1b1
 |___|_|             

User:   madkru@c097.nifl.fysik.dtu.dk
Date:   Mon Jul  4 13:07:55 2022
Arch:   x86_64
Pid:    261120
Python: 3.8.6
gpaw:   /home/niflheim/madkru/new_venv/gpaw/gpaw (1f0dfc9eae)
_gpaw:  /home/niflheim/madkru/new_venv/gpaw/build/lib.linux-x86_64-skylake-3.8/
        _gpaw.cpython-38-x86_64-linux-gnu.so (c1e45bfab3)
ase:    /home/niflheim/madkru/new_venv/ase/ase (version 3.23.0b1-ca38c75a67)
numpy:  /home/modules/software/SciPy-bundle/2020.11-foss-2020b/lib/python3.8/site-packages/numpy (version 1.19.4)
scipy:  /home/modules/software/SciPy-bundle/2020.11-foss-2020b/lib/python3.8/site-packages/scipy (version 1.5.4)
libxc:  4.3.4
units:  Angstrom and eV
cores: 40
OpenMP: False
OMP_NUM_THREADS: 1

Input parameters:
  convergence: {bands: occupied,
                density: 0.0001,
                eigenstates: 4e-08,
                energy: 0.0005,
                forces: 0.0001}
  kpts: {gamma: True,
         size: [12, 12, 12]}
  mode: {ecut: 600.0,
         gammacentered: False,
         name: pw}
  occupations: {fixmagmom: False,
                name: fermi-dirac,
                width: 0.001}
  symmetry: {point_group: False,
             time_reversal: False}

System changes: positions, numbers, cell, pbc, initial_charges, initial_magmoms 

Initialize ...

O-setup:
  name: Oxygen
  id: 9b9d51c344dea68c822856295a461509
  Z: 8.0
  valence: 6
  core: 2
  charge: 0.0
  file: /home/modules/software/GPAW-setups/0.9.20000/O.LDA.gz
  compensation charges: gauss, rc=0.21, lmax=2
  cutoffs: 1.17(filt), 0.83(core),
  valence states:
                energy  radius
    2s(2.00)   -23.752   0.688
    2p(4.00)    -9.195   0.598
    *s           3.459   0.688
    *p          18.016   0.598
    *d           0.000   0.619

  Using partial waves for O as LCAO basis

Cr-setup:
  name: Chromium
  id: 444e8044bc0f91048286c984738d87f5
  Z: 24.0
  valence: 6
  core: 18
  charge: 0.0
  file: /home/modules/software/GPAW-setups/0.9.20000/Cr.LDA.gz
  compensation charges: gauss, rc=0.35, lmax=2
  cutoffs: 2.14(filt), 3.04(core),
  valence states:
                energy  radius
    4s(1.00)    -4.191   1.164
    4p(0.00)    -1.079   1.217
    3d(5.00)    -3.128   1.111
    *s          23.021   1.164
    *p          26.132   1.217
    *d          24.083   1.111

  Using partial waves for Cr as LCAO basis

Reference energy: -126274.181857

Spin-polarized calculation.
Magnetic moment: 0.000000

Convergence criteria:
  Maximum total energy change: 0.0005 eV / electron
  Maximum integral of absolute density change: 0.0001 electrons
  Maximum integral of absolute eigenstate change: 4e-08 eV^2
  Maximum change in atomic force: 0.0001 eV / Ang
  Maximum number of iterations: 333

Symmetries present (total): 1

  ( 1  0  0)
  ( 0  1  0)
  ( 0  0  1)

1728 k-points: 12 x 12 x 12 Monkhorst-Pack grid + [1/24,1/24,1/24]
1728 k-points in the irreducible part of the Brillouin zone
       k-points in crystal coordinates                weights
   0:    -0.41666667   -0.41666667   -0.41666667          1/1728
   1:    -0.41666667   -0.41666667   -0.33333333          1/1728
   2:    -0.41666667   -0.41666667   -0.25000000          1/1728
   3:    -0.41666667   -0.41666667   -0.16666667          1/1728
   4:    -0.41666667   -0.41666667   -0.08333333          1/1728
   5:    -0.41666667   -0.41666667   -0.00000000          1/1728
   6:    -0.41666667   -0.41666667    0.08333333          1/1728
   7:    -0.41666667   -0.41666667    0.16666667          1/1728
   8:    -0.41666667   -0.41666667    0.25000000          1/1728
   9:    -0.41666667   -0.41666667    0.33333333          1/1728
          ...
1727:     0.50000000    0.50000000    0.50000000          1/1728

Wave functions: Plane wave expansion
  Cutoff energy: 600.000 eV
  Number of coefficients (min, max): 2896, 2946
  Pulay-stress correction: 0.000000 eV/Ang^3 (de/decut=0.000000)
  Using FFTW library
  ScaLapack parameters: grid=1x1, blocksize=None
  Wavefunction extrapolation:
    Improved wavefunction reuse through dual PAW basis 

Occupation numbers: Fermi-Dirac: width=0.0010 eV
 

Eigensolver
   Davidson(niter=2) 

Densities:
  Coarse grid: 32*32*32 grid
  Fine grid: 64*64*64 grid
  Total Charge: 0.000000 

Density mixing:
  Method: difference
  Backend: pulay
  Linear mixing parameter: 0.05
  Mixing with 5 old densities
  Damping of long wave oscillations: 50 

Hamiltonian:
  XC and Coulomb potentials evaluated on a 64*64*64 grid
  Using the LDA Exchange-Correlation functional
  External potential:
    <gpaw.external.NoExternalPotential object at 0x2b3030f75070>
 

Memory estimate:
  Process memory now: 27507.34 MiB
  Calculator: 209.79 MiB
    Density: 16.11 MiB
      Arrays: 8.75 MiB
      Localized functions: 3.86 MiB
      Mixer: 3.50 MiB
    Hamiltonian: 6.59 MiB
      Arrays: 6.50 MiB
      XC: 0.00 MiB
      Poisson: 0.00 MiB
      vbar: 0.09 MiB
    Wavefunctions: 187.08 MiB
      Arrays psit_nG: 154.64 MiB
      Eigensolver: 2.27 MiB
      Projections: 7.87 MiB
      Projectors: 19.12 MiB
      PW-descriptor: 3.18 MiB

Total number of cores used: 40
Parallelization over k-points: 40

Number of atoms: 10
Number of atomic orbitals: 60
Number of bands in calculation: 40
Number of valence electrons: 60
Bands to converge: occupied

... initialized

Initializing position-dependent things.

Density initialized from atomic densities
Creating initial wave functions:
  40 bands from LCAO basis set

                          
                          
                          
                          
            Cr            
                          
                          
            Cr            
           O              
         O      O         
                          
        O      O          
             O            
            Cr            
                          
                          
            Cr            
                          
                          
                          
                          

Positions:
   0 O     -0.760209   -1.389250    1.148641    ( 0.0000,  0.0000,  0.0000)
   1 O     -1.582607   -0.026807   -1.147820    ( 0.0000,  0.0000,  0.0000)
   2 O     -0.823830    1.352257    1.148121    ( 0.0000,  0.0000,  0.0000)
   3 O      0.823830   -1.352257   -1.148121    ( 0.0000,  0.0000,  0.0000)
   4 Cr    -0.000004    0.000260   -4.693226    ( 0.0000,  0.0000,  2.0000)
   5 Cr    -0.000004    0.000111   -2.195940    ( 0.0000,  0.0000, -2.0000)
   6 Cr     0.000004   -0.000260    4.693226    ( 0.0000,  0.0000, -2.0000)
   7 Cr     0.000004   -0.000111    2.195940    ( 0.0000,  0.0000,  2.0000)
   8 O      1.582607    0.036807    1.147820    ( 0.0000,  0.0000,  0.0000)
   9 O      0.760209    1.389250   -1.148641    ( 0.0000,  0.0000,  0.0000)

Unit cell:
           periodic     x           y           z      points  spacing
  1. axis:    yes    2.342815    1.352071    4.592704    32     0.1216
  2. axis:    yes   -2.342815    1.352071    4.592704    32     0.1216
  3. axis:    yes    0.000000   -2.704886    4.592923    32     0.1216

  Lengths:   5.330085   5.330085   5.330230
  Angles:   52.139511  52.139510  52.149782

Effective grid spacing dv^(1/3) = 0.1386

                     log10-error:           total        iterations:
           time      wfs    density  force  energy       poisson  magmom
iter:   1  13:15:24                       -100.565331             -0.0000
iter:   2  13:15:39  -0.70  -1.01          -99.833399             +0.0000
iter:   3  13:15:53  -0.13  -1.05          -97.280328             +0.0000
iter:   4  13:16:07  -1.17  -1.41          -97.357886             -0.0000
iter:   5  13:16:22  -1.16  -1.36          -97.353828             -0.0000
iter:   6  13:16:36  -0.77  -1.51          -96.976865             -0.0000
iter:   7  13:16:50  -1.59  -1.87          -96.868193             -0.0000
iter:   8  13:17:05  -1.78  -2.02          -96.843804             -0.0000
iter:   9  13:17:19  -1.94  -2.37          -96.843222             -0.0000
iter:  10  13:17:33  -2.74  -2.50          -96.839818             -0.0000
iter:  11  13:17:48  -2.85  -2.71          -96.841699             +0.0000
iter:  12  13:18:02  -3.17  -2.75          -96.840852             +0.0000
iter:  13  13:18:16  -3.12  -2.83          -96.838353             -0.0000
iter:  14  13:18:30  -3.51  -3.13          -96.838666             +0.0000
iter:  15  13:18:45  -3.86  -3.15          -96.838923             -0.0000
iter:  16  13:18:59  -4.05  -3.17          -96.839101             -0.0000
iter:  17  13:19:13  -4.05  -3.14          -96.839302             -0.0000
iter:  18  13:19:28  -4.29  -3.31          -96.839440             -0.0000
iter:  19  13:19:42  -4.30  -3.29          -96.839480             -0.0000
iter:  20  13:19:56  -4.49  -3.23          -96.839548             -0.0000
iter:  21  13:20:11  -4.52  -3.26          -96.839542             -0.0000
iter:  22  13:20:25  -4.68  -3.26          -96.839595             -0.0000
iter:  23  13:20:39  -4.61  -3.22          -96.839511             -0.0000
iter:  24  13:20:53  -4.93  -3.33          -96.839536             -0.0000
iter:  25  13:21:07  -4.79  -3.32          -96.839554             -0.0000
iter:  26  13:21:21  -4.97  -3.40          -96.839537             -0.0000
iter:  27  13:21:36  -5.17  -3.44          -96.839548             -0.0000
iter:  28  13:21:50  -5.35  -3.46          -96.839556             -0.0000
iter:  29  13:22:04  -5.03  -3.46          -96.839591             -0.0000
iter:  30  13:22:18  -5.57  -3.52          -96.839591             -0.0000
iter:  31  13:22:33  -4.51  -3.52          -96.839647             -0.0000
iter:  32  13:22:47  -5.04  -3.59          -96.839582             -0.0000
iter:  33  13:23:01  -5.49  -4.04          -96.839581             -0.0000
iter:  34  13:23:15  -5.84  -4.19          -96.839578             -0.0000
iter:  35  13:23:30  -6.02  -4.37          -96.839578             -0.0000
iter:  36  13:23:44  -6.17  -4.40          -96.839579             +0.0000
iter:  37  13:23:58  -6.27  -4.67          -96.839579             +0.0000
iter:  38  13:24:12  -6.29  -4.82          -96.839580             -0.0000
iter:  39  13:24:26  -6.43  -4.88          -96.839580             -0.0000
iter:  40  13:24:41  -6.55  -4.97          -96.839580             -0.0000
iter:  41  13:24:55  -6.59  -5.05          -96.839581             -0.0000
iter:  42  13:25:09  -6.73  -5.18          -96.839581             -0.0000
iter:  43  13:25:23  -6.89  -5.22          -96.839581             +0.0000
iter:  44  13:25:37  -7.00  -5.25          -96.839581             -0.0000
iter:  45  13:25:52  -7.06  -5.31          -96.839582             -0.0000
iter:  46  13:26:06  -7.18  -5.47          -96.839582             -0.0000
iter:  47  13:26:20  -7.30  -5.45          -96.839582             +0.0000
iter:  48  13:26:34  -7.29  -5.41          -96.839582             -0.0000
iter:  49  13:26:48  -7.34  -5.52          -96.839582             -0.0000
iter:  50  13:27:05  -7.47  -5.43          -96.839582             -0.0000
iter:  51  13:27:21  -7.55  -5.53    -4.34 -96.839582             +0.0000

Converged after 51 iterations.

Dipole moment: (-0.004102, 0.061447, -0.095664) |e|*Ang

Total magnetic moment: (0.000000, 0.000000, 0.000000)
Local magnetic moments:
   0 O  ( 0.000000,  0.000000,  0.000028)
   1 O  ( 0.000000,  0.000000,  0.000621)
   2 O  ( 0.000000,  0.000000, -0.000138)
   3 O  ( 0.000000,  0.000000, -0.000077)
   4 Cr ( 0.000000,  0.000000,  2.205816)
   5 Cr ( 0.000000,  0.000000, -2.206414)
   6 Cr ( 0.000000,  0.000000, -2.209687)
   7 Cr ( 0.000000,  0.000000,  2.209421)
   8 O  ( 0.000000,  0.000000,  0.000213)
   9 O  ( 0.000000,  0.000000,  0.000119)

Energy contributions relative to reference atoms: (reference = -126274.181857)

Kinetic:        +34.022218
Potential:      -53.684691
External:        +0.000000
XC:             -78.909594
Entropy (-ST):   -0.000000
Local:           +1.732485
--------------------------
Free energy:    -96.839582
Extrapolated:   -96.839582

Spin contamination: 4.759475 electrons
Showing only first 2 kpts
                      Up                     Down
 Kpt  Band  Eigenvalues  Occupancy  Eigenvalues  Occupancy
  0    28      8.50575    1.00000      8.50416    1.00000
  0    29      8.76946    1.00000      8.76701    1.00000
  0    30     10.01607    0.00000     10.01459    0.00000
  0    31     10.02047    0.00000     10.02055    0.00000

  1    28      8.53582    1.00000      8.53216    1.00000
  1    29      8.81422    1.00000      8.81235    1.00000
  1    30      9.95301    0.00000      9.95448    0.00000
  1    31     10.01038    0.00000     10.00719    0.00000


Fermi level: 9.55998

Gap: 0.825 eV
Transition (v -> c):
  (s=0, k=785, n=29, [-0.00, -0.00, -0.00]) -> (s=1, k=1099, n=30, [0.17, 0.17, 0.17])
Writing to born-0.01-1y+.gpw (mode='all')

Timing:                              incl.     excl.
-----------------------------------------------------------
Hamiltonian:                         0.280     0.001   0.0% |
 Atomic:                             0.110     0.110   0.0% |
  XC Correction:                     0.000     0.000   0.0% |
 Calculate atomic Hamiltonians:      0.017     0.017   0.0% |
 Communicate:                        0.000     0.000   0.0% |
 Initialize Hamiltonian:             0.000     0.000   0.0% |
 Poisson:                            0.001     0.001   0.0% |
 XC 3D grid:                         0.151     0.151   0.0% |
LCAO initialization:               420.360     0.143   0.0% |
 LCAO eigensolver:                 251.435     0.009   0.0% |
  Calculate projections:             0.018     0.018   0.0% |
  DenseAtomicCorrection:             0.046     0.046   0.0% |
  Distribute overlap matrix:         0.005     0.005   0.0% |
  Orbital Layouts:                   0.129     0.129   0.0% |
  Potential matrix:                250.940   250.940   8.6% |--|
  Sum over cells:                    0.288     0.288   0.0% |
 LCAO to grid:                     166.534   166.534   5.7% |-|
 Set positions (LCAO WFS):           2.248     0.384   0.0% |
  Basic WFS set positions:           0.000     0.000   0.0% |
  Basis functions set positions:     0.000     0.000   0.0% |
  P tci:                             0.964     0.964   0.0% |
  ST tci:                            0.811     0.811   0.0% |
  mktci:                             0.089     0.089   0.0% |
PWDescriptor:                        0.062     0.062   0.0% |
SCF-cycle:                         744.125    40.416   1.4% ||
 Davidson:                         639.696   137.972   4.7% |-|
  Apply H:                          93.401    89.741   3.1% ||
   HMM T:                            3.660     3.660   0.1% |
  Subspace diag:                   120.312     0.646   0.0% |
   calc_h_matrix:                  104.255    10.096   0.3% |
    Apply H:                        94.159    90.336   3.1% ||
     HMM T:                          3.823     3.823   0.1% |
   diagonalize:                      2.805     2.805   0.1% |
   rotate_psi:                      12.606    12.606   0.4% |
  calc. matrices:                  244.044    56.295   1.9% ||
   Apply H:                        187.750   180.311   6.2% |-|
    HMM T:                           7.438     7.438   0.3% |
  diagonalize:                      20.502    20.502   0.7% |
  rotate_psi:                       23.466    23.466   0.8% |
 Density:                           45.896     0.001   0.0% |
  Atomic density matrices:           1.353     1.353   0.0% |
  Mix:                               2.656     2.656   0.1% |
  Multipole moments:                 0.018     0.018   0.0% |
  Pseudo density:                   41.867    41.866   1.4% ||
   Symmetrize density:               0.002     0.002   0.0% |
 Forces:                             4.957     4.957   0.2% |
 Hamiltonian:                       12.435     0.079   0.0% |
  Atomic:                            2.779     2.779   0.1% |
   XC Correction:                    0.000     0.000   0.0% |
  Calculate atomic Hamiltonians:     1.477     1.477   0.1% |
  Communicate:                       0.006     0.006   0.0% |
  Poisson:                           0.047     0.047   0.0% |
  XC 3D grid:                        8.047     8.047   0.3% |
 Orthonormalize:                     0.725     0.012   0.0% |
  calc_s_matrix:                     0.111     0.111   0.0% |
  inverse-cholesky:                  0.021     0.021   0.0% |
  projections:                       0.456     0.456   0.0% |
  rotate_psi_s:                      0.124     0.124   0.0% |
Set symmetry:                        0.000     0.000   0.0% |
Other:                            1755.219  1755.219  60.1% |-----------------------|
-----------------------------------------------------------
Total:                                      2920.047 100.0%

Memory usage: 26.90 GiB
Date: Mon Jul  4 13:56:35 2022
