
  ___ ___ ___ _ _ _  
 |   |   |_  | | | | 
 | | | | | . | | | | 
 |__ |  _|___|_____|  21.6.1b1
 |___|_|             

User:   madkru@c097.nifl.fysik.dtu.dk
Date:   Tue Jul  5 07:09:01 2022
Arch:   x86_64
Pid:    261120
Python: 3.8.6
gpaw:   /home/niflheim/madkru/new_venv/gpaw/gpaw (1f0dfc9eae)
_gpaw:  /home/niflheim/madkru/new_venv/gpaw/build/lib.linux-x86_64-skylake-3.8/
        _gpaw.cpython-38-x86_64-linux-gnu.so (c1e45bfab3)
ase:    /home/niflheim/madkru/new_venv/ase/ase (version 3.23.0b1-ca38c75a67)
numpy:  /home/modules/software/SciPy-bundle/2020.11-foss-2020b/lib/python3.8/site-packages/numpy (version 1.19.4)
scipy:  /home/modules/software/SciPy-bundle/2020.11-foss-2020b/lib/python3.8/site-packages/scipy (version 1.5.4)
libxc:  4.3.4
units:  Angstrom and eV
cores: 40
OpenMP: False
OMP_NUM_THREADS: 1

Input parameters:
  convergence: {bands: occupied,
                density: 0.0001,
                eigenstates: 4e-08,
                energy: 0.0005,
                forces: 0.0001}
  kpts: {gamma: True,
         size: [12, 12, 12]}
  mode: {ecut: 600.0,
         gammacentered: False,
         name: pw}
  occupations: {fixmagmom: False,
                name: fermi-dirac,
                width: 0.001}
  symmetry: {point_group: False,
             time_reversal: False}

System changes: positions, numbers, cell, pbc, initial_charges, initial_magmoms 

Initialize ...

O-setup:
  name: Oxygen
  id: 9b9d51c344dea68c822856295a461509
  Z: 8.0
  valence: 6
  core: 2
  charge: 0.0
  file: /home/modules/software/GPAW-setups/0.9.20000/O.LDA.gz
  compensation charges: gauss, rc=0.21, lmax=2
  cutoffs: 1.17(filt), 0.83(core),
  valence states:
                energy  radius
    2s(2.00)   -23.752   0.688
    2p(4.00)    -9.195   0.598
    *s           3.459   0.688
    *p          18.016   0.598
    *d           0.000   0.619

  Using partial waves for O as LCAO basis

Cr-setup:
  name: Chromium
  id: 444e8044bc0f91048286c984738d87f5
  Z: 24.0
  valence: 6
  core: 18
  charge: 0.0
  file: /home/modules/software/GPAW-setups/0.9.20000/Cr.LDA.gz
  compensation charges: gauss, rc=0.35, lmax=2
  cutoffs: 2.14(filt), 3.04(core),
  valence states:
                energy  radius
    4s(1.00)    -4.191   1.164
    4p(0.00)    -1.079   1.217
    3d(5.00)    -3.128   1.111
    *s          23.021   1.164
    *p          26.132   1.217
    *d          24.083   1.111

  Using partial waves for Cr as LCAO basis

Reference energy: -126274.181857

Spin-polarized calculation.
Magnetic moment: 0.000000

Convergence criteria:
  Maximum total energy change: 0.0005 eV / electron
  Maximum integral of absolute density change: 0.0001 electrons
  Maximum integral of absolute eigenstate change: 4e-08 eV^2
  Maximum change in atomic force: 0.0001 eV / Ang
  Maximum number of iterations: 333

Symmetries present (total): 1

  ( 1  0  0)
  ( 0  1  0)
  ( 0  0  1)

1728 k-points: 12 x 12 x 12 Monkhorst-Pack grid + [1/24,1/24,1/24]
1728 k-points in the irreducible part of the Brillouin zone
       k-points in crystal coordinates                weights
   0:    -0.41666667   -0.41666667   -0.41666667          1/1728
   1:    -0.41666667   -0.41666667   -0.33333333          1/1728
   2:    -0.41666667   -0.41666667   -0.25000000          1/1728
   3:    -0.41666667   -0.41666667   -0.16666667          1/1728
   4:    -0.41666667   -0.41666667   -0.08333333          1/1728
   5:    -0.41666667   -0.41666667   -0.00000000          1/1728
   6:    -0.41666667   -0.41666667    0.08333333          1/1728
   7:    -0.41666667   -0.41666667    0.16666667          1/1728
   8:    -0.41666667   -0.41666667    0.25000000          1/1728
   9:    -0.41666667   -0.41666667    0.33333333          1/1728
          ...
1727:     0.50000000    0.50000000    0.50000000          1/1728

Wave functions: Plane wave expansion
  Cutoff energy: 600.000 eV
  Number of coefficients (min, max): 2896, 2946
  Pulay-stress correction: 0.000000 eV/Ang^3 (de/decut=0.000000)
  Using FFTW library
  ScaLapack parameters: grid=1x1, blocksize=None
  Wavefunction extrapolation:
    Improved wavefunction reuse through dual PAW basis 

Occupation numbers: Fermi-Dirac: width=0.0010 eV
 

Eigensolver
   Davidson(niter=2) 

Densities:
  Coarse grid: 32*32*32 grid
  Fine grid: 64*64*64 grid
  Total Charge: 0.000000 

Density mixing:
  Method: difference
  Backend: pulay
  Linear mixing parameter: 0.05
  Mixing with 5 old densities
  Damping of long wave oscillations: 50 

Hamiltonian:
  XC and Coulomb potentials evaluated on a 64*64*64 grid
  Using the LDA Exchange-Correlation functional
  External potential:
    <gpaw.external.NoExternalPotential object at 0x2b302f91a1c0>
 

Memory estimate:
  Process memory now: 29125.94 MiB
  Calculator: 209.79 MiB
    Density: 16.11 MiB
      Arrays: 8.75 MiB
      Localized functions: 3.86 MiB
      Mixer: 3.50 MiB
    Hamiltonian: 6.59 MiB
      Arrays: 6.50 MiB
      XC: 0.00 MiB
      Poisson: 0.00 MiB
      vbar: 0.09 MiB
    Wavefunctions: 187.08 MiB
      Arrays psit_nG: 154.64 MiB
      Eigensolver: 2.27 MiB
      Projections: 7.87 MiB
      Projectors: 19.12 MiB
      PW-descriptor: 3.18 MiB

Total number of cores used: 40
Parallelization over k-points: 40

Number of atoms: 10
Number of atomic orbitals: 60
Number of bands in calculation: 40
Number of valence electrons: 60
Bands to converge: occupied

... initialized

Initializing position-dependent things.

Density initialized from atomic densities
Creating initial wave functions:
  40 bands from LCAO basis set

                          
                          
                          
                          
            Cr            
                          
                          
            Cr            
           O              
         O      O         
                          
        O      O          
             O            
            Cr            
                          
                          
            Cr            
                          
                          
                          
                          

Positions:
   0 O     -0.760209   -1.389250    1.148641    ( 0.0000,  0.0000,  0.0000)
   1 O     -1.582607   -0.036807   -1.147820    ( 0.0000,  0.0000,  0.0000)
   2 O     -0.823830    1.352257    1.148121    ( 0.0000,  0.0000,  0.0000)
   3 O      0.823830   -1.352257   -1.148121    ( 0.0000,  0.0000,  0.0000)
   4 Cr    -0.000004    0.000260   -4.693226    ( 0.0000,  0.0000,  2.0000)
   5 Cr    -0.000004    0.000111   -2.195940    ( 0.0000,  0.0000, -2.0000)
   6 Cr     0.000004   -0.000260    4.693226    ( 0.0000,  0.0000, -2.0000)
   7 Cr     0.000004   -0.000111    2.195940    ( 0.0000,  0.0000,  2.0000)
   8 O      1.592607    0.036807    1.147820    ( 0.0000,  0.0000,  0.0000)
   9 O      0.760209    1.389250   -1.148641    ( 0.0000,  0.0000,  0.0000)

Unit cell:
           periodic     x           y           z      points  spacing
  1. axis:    yes    2.342815    1.352071    4.592704    32     0.1216
  2. axis:    yes   -2.342815    1.352071    4.592704    32     0.1216
  3. axis:    yes    0.000000   -2.704886    4.592923    32     0.1216

  Lengths:   5.330085   5.330085   5.330230
  Angles:   52.139511  52.139510  52.149782

Effective grid spacing dv^(1/3) = 0.1386

                     log10-error:           total        iterations:
           time      wfs    density  force  energy       poisson  magmom
iter:   1  07:16:31                       -100.567958             -0.0000
iter:   2  07:16:45  -0.70  -1.01          -99.838513             -0.0000
iter:   3  07:16:59  -0.13  -1.05          -97.281429             +0.0000
iter:   4  07:17:13  -1.16  -1.41          -97.358480             +0.0000
iter:   5  07:17:27  -1.15  -1.36          -97.359376             +0.0000
iter:   6  07:17:41  -0.76  -1.51          -96.977687             +0.0000
iter:   7  07:17:55  -1.59  -1.87          -96.869592             +0.0000
iter:   8  07:18:09  -1.76  -2.02          -96.844988             +0.0000
iter:   9  07:18:23  -1.93  -2.35          -96.843128             +0.0000
iter:  10  07:18:37  -2.74  -2.50          -96.839255             +0.0000
iter:  11  07:18:51  -2.85  -2.74          -96.842504             +0.0000
iter:  12  07:19:05  -3.17  -2.72          -96.842536             +0.0000
iter:  13  07:19:19  -3.07  -2.74          -96.838602             -0.0000
iter:  14  07:19:33  -3.19  -2.92          -96.838769             +0.0000
iter:  15  07:19:47  -3.59  -2.96          -96.838980             +0.0000
iter:  16  07:20:01  -3.84  -3.13          -96.839076             +0.0000
iter:  17  07:20:15  -3.78  -3.28          -96.839220             +0.0000
iter:  18  07:20:29  -3.88  -3.29          -96.839299             +0.0000
iter:  19  07:20:43  -4.15  -3.55          -96.839331             -0.0000
iter:  20  07:20:57  -4.18  -3.67          -96.839386             -0.0000
iter:  21  07:21:11  -4.41  -3.54          -96.839401             +0.0000
iter:  22  07:21:25  -4.57  -3.79          -96.839450             -0.0000
iter:  23  07:21:39  -4.78  -3.64          -96.839469             -0.0000
iter:  24  07:21:53  -4.70  -3.73          -96.839478             -0.0000
iter:  25  07:22:07  -4.95  -4.35          -96.839493             -0.0000
iter:  26  07:22:21  -5.14  -4.37          -96.839507             -0.0000
iter:  27  07:22:35  -5.24  -4.35          -96.839517             -0.0000
iter:  28  07:22:49  -5.33  -4.28          -96.839524             -0.0000
iter:  29  07:23:03  -5.48  -4.27          -96.839531             -0.0000
iter:  30  07:23:17  -5.55  -4.27          -96.839535             -0.0000
iter:  31  07:23:31  -5.72  -4.29          -96.839538             +0.0000
iter:  32  07:23:45  -5.68  -4.30          -96.839541             -0.0000
iter:  33  07:23:59  -5.83  -4.23          -96.839543             -0.0000
iter:  34  07:24:13  -5.98  -4.22          -96.839544             -0.0000
iter:  35  07:24:27  -6.09  -4.25          -96.839545             -0.0000
iter:  36  07:24:41  -5.68  -4.27          -96.839544             -0.0000
iter:  37  07:24:55  -6.01  -4.54          -96.839545             -0.0000
iter:  38  07:25:09  -6.12  -4.61          -96.839546             -0.0000
iter:  39  07:25:23  -6.26  -4.70          -96.839546             -0.0000
iter:  40  07:25:37  -6.40  -5.02          -96.839547             -0.0000
iter:  41  07:25:51  -6.55  -5.23          -96.839547             -0.0000
iter:  42  07:26:05  -6.70  -5.29          -96.839547             +0.0000
iter:  43  07:26:19  -6.83  -5.37          -96.839548             -0.0000
iter:  44  07:26:33  -6.93  -5.40          -96.839548             -0.0000
iter:  45  07:26:47  -7.00  -5.38          -96.839548             -0.0000
iter:  46  07:27:01  -7.07  -5.32          -96.839548             -0.0000
iter:  47  07:27:15  -7.18  -5.40          -96.839548             -0.0000
iter:  48  07:27:29  -7.29  -5.38          -96.839548             -0.0000
iter:  49  07:27:43  -7.33  -5.30          -96.839548             -0.0000
iter:  50  07:28:00  -7.45  -5.36          -96.839548             -0.0000
iter:  51  07:28:16  -7.51  -5.34    -4.08 -96.839548             -0.0000

Converged after 51 iterations.

Dipole moment: (0.004189, -0.002558, -0.009808) |e|*Ang

Total magnetic moment: (0.000000, 0.000000, -0.000000)
Local magnetic moments:
   0 O  ( 0.000000,  0.000000, -0.000046)
   1 O  ( 0.000000,  0.000000, -0.000251)
   2 O  ( 0.000000,  0.000000,  0.000093)
   3 O  ( 0.000000,  0.000000, -0.000138)
   4 Cr ( 0.000000,  0.000000,  2.210072)
   5 Cr ( 0.000000,  0.000000, -2.209526)
   6 Cr ( 0.000000,  0.000000, -2.211281)
   7 Cr ( 0.000000,  0.000000,  2.212194)
   8 O  ( 0.000000,  0.000000, -0.001188)
   9 O  ( 0.000000,  0.000000,  0.000219)

Energy contributions relative to reference atoms: (reference = -126274.181857)

Kinetic:        +34.371252
Potential:      -53.966503
External:        +0.000000
XC:             -78.976912
Entropy (-ST):   -0.000000
Local:           +1.732614
--------------------------
Free energy:    -96.839548
Extrapolated:   -96.839548

Spin contamination: 4.765925 electrons
Showing only first 2 kpts
                      Up                     Down
 Kpt  Band  Eigenvalues  Occupancy  Eigenvalues  Occupancy
  0    28      8.50298    1.00000      8.51011    1.00000
  0    29      8.76748    1.00000      8.77149    1.00000
  0    30     10.01747    0.00000     10.01743    0.00000
  0    31     10.02078    0.00000     10.02341    0.00000

  1    28      8.53218    1.00000      8.53679    1.00000
  1    29      8.81222    1.00000      8.81681    1.00000
  1    30      9.95563    0.00000      9.95752    0.00000
  1    31     10.00954    0.00000     10.01038    0.00000


Fermi level: 9.53502

Gap: 0.822 eV
Transition (v -> c):
  (s=1, k=785, n=29, [-0.00, -0.00, -0.00]) -> (s=0, k=471, n=30, [-0.17, -0.17, -0.17])
Writing to born-0.01-8x+.gpw (mode='all')

Timing:                              incl.     excl.
-----------------------------------------------------------
Hamiltonian:                         0.275     0.001   0.0% |
 Atomic:                             0.095     0.095   0.0% |
  XC Correction:                     0.000     0.000   0.0% |
 Calculate atomic Hamiltonians:      0.024     0.024   0.0% |
 Communicate:                        0.000     0.000   0.0% |
 Initialize Hamiltonian:             0.000     0.000   0.0% |
 Poisson:                            0.001     0.001   0.0% |
 XC 3D grid:                         0.153     0.153   0.0% |
LCAO initialization:               422.773     0.143   0.0% |
 LCAO eigensolver:                 251.246     0.009   0.0% |
  Calculate projections:             0.017     0.017   0.0% |
  DenseAtomicCorrection:             0.045     0.045   0.0% |
  Distribute overlap matrix:         0.005     0.005   0.0% |
  Orbital Layouts:                   0.127     0.127   0.0% |
  Potential matrix:                250.758   250.758   8.7% |--|
  Sum over cells:                    0.285     0.285   0.0% |
 LCAO to grid:                     169.044   169.044   5.9% |-|
 Set positions (LCAO WFS):           2.340     0.381   0.0% |
  Basic WFS set positions:           0.000     0.000   0.0% |
  Basis functions set positions:     0.000     0.000   0.0% |
  P tci:                             1.090     1.090   0.0% |
  ST tci:                            0.781     0.781   0.0% |
  mktci:                             0.089     0.089   0.0% |
PWDescriptor:                        0.060     0.060   0.0% |
SCF-cycle:                         731.157    29.977   1.0% |
 Davidson:                         637.369   137.626   4.8% |-|
  Apply H:                          93.453    89.824   3.1% ||
   HMM T:                            3.629     3.629   0.1% |
  Subspace diag:                   119.550     0.660   0.0% |
   calc_h_matrix:                  103.640    10.062   0.3% |
    Apply H:                        93.578    89.842   3.1% ||
     HMM T:                          3.736     3.736   0.1% |
   diagonalize:                      2.802     2.802   0.1% |
   rotate_psi:                      12.448    12.448   0.4% |
  calc. matrices:                  243.105    56.215   1.9% ||
   Apply H:                        186.890   179.658   6.2% |-|
    HMM T:                           7.232     7.232   0.3% |
  diagonalize:                      20.478    20.478   0.7% |
  rotate_psi:                       23.157    23.157   0.8% |
 Density:                           45.719     0.001   0.0% |
  Atomic density matrices:           1.347     1.347   0.0% |
  Mix:                               2.683     2.683   0.1% |
  Multipole moments:                 0.018     0.018   0.0% |
  Pseudo density:                   41.669    41.667   1.4% ||
   Symmetrize density:               0.002     0.002   0.0% |
 Forces:                             4.972     4.972   0.2% |
 Hamiltonian:                       12.413     0.076   0.0% |
  Atomic:                            2.688     2.688   0.1% |
   XC Correction:                    0.000     0.000   0.0% |
  Calculate atomic Hamiltonians:     1.483     1.483   0.1% |
  Communicate:                       0.005     0.005   0.0% |
  Poisson:                           0.046     0.046   0.0% |
  XC 3D grid:                        8.115     8.115   0.3% |
 Orthonormalize:                     0.707     0.011   0.0% |
  calc_s_matrix:                     0.110     0.110   0.0% |
  inverse-cholesky:                  0.017     0.017   0.0% |
  projections:                       0.450     0.450   0.0% |
  rotate_psi_s:                      0.119     0.119   0.0% |
Set symmetry:                        0.000     0.000   0.0% |
Other:                            1730.685  1730.685  60.0% |-----------------------|
-----------------------------------------------------------
Total:                                      2884.950 100.0%

Memory usage: 28.48 GiB
Date: Tue Jul  5 07:57:05 2022
