
  ___ ___ ___ _ _ _  
 |   |   |_  | | | | 
 | | | | | . | | | | 
 |__ |  _|___|_____|  21.6.1b1
 |___|_|             

User:   madkru@c097.nifl.fysik.dtu.dk
Date:   Mon Jul  4 22:07:47 2022
Arch:   x86_64
Pid:    261120
Python: 3.8.6
gpaw:   /home/niflheim/madkru/new_venv/gpaw/gpaw (1f0dfc9eae)
_gpaw:  /home/niflheim/madkru/new_venv/gpaw/build/lib.linux-x86_64-skylake-3.8/
        _gpaw.cpython-38-x86_64-linux-gnu.so (c1e45bfab3)
ase:    /home/niflheim/madkru/new_venv/ase/ase (version 3.23.0b1-ca38c75a67)
numpy:  /home/modules/software/SciPy-bundle/2020.11-foss-2020b/lib/python3.8/site-packages/numpy (version 1.19.4)
scipy:  /home/modules/software/SciPy-bundle/2020.11-foss-2020b/lib/python3.8/site-packages/scipy (version 1.5.4)
libxc:  4.3.4
units:  Angstrom and eV
cores: 40
OpenMP: False
OMP_NUM_THREADS: 1

Input parameters:
  convergence: {bands: occupied,
                density: 0.0001,
                eigenstates: 4e-08,
                energy: 0.0005,
                forces: 0.0001}
  kpts: {gamma: True,
         size: [12, 12, 12]}
  mode: {ecut: 600.0,
         gammacentered: False,
         name: pw}
  occupations: {fixmagmom: False,
                name: fermi-dirac,
                width: 0.001}
  symmetry: {point_group: False,
             time_reversal: False}

System changes: positions, numbers, cell, pbc, initial_charges, initial_magmoms 

Initialize ...

O-setup:
  name: Oxygen
  id: 9b9d51c344dea68c822856295a461509
  Z: 8.0
  valence: 6
  core: 2
  charge: 0.0
  file: /home/modules/software/GPAW-setups/0.9.20000/O.LDA.gz
  compensation charges: gauss, rc=0.21, lmax=2
  cutoffs: 1.17(filt), 0.83(core),
  valence states:
                energy  radius
    2s(2.00)   -23.752   0.688
    2p(4.00)    -9.195   0.598
    *s           3.459   0.688
    *p          18.016   0.598
    *d           0.000   0.619

  Using partial waves for O as LCAO basis

Cr-setup:
  name: Chromium
  id: 444e8044bc0f91048286c984738d87f5
  Z: 24.0
  valence: 6
  core: 18
  charge: 0.0
  file: /home/modules/software/GPAW-setups/0.9.20000/Cr.LDA.gz
  compensation charges: gauss, rc=0.35, lmax=2
  cutoffs: 2.14(filt), 3.04(core),
  valence states:
                energy  radius
    4s(1.00)    -4.191   1.164
    4p(0.00)    -1.079   1.217
    3d(5.00)    -3.128   1.111
    *s          23.021   1.164
    *p          26.132   1.217
    *d          24.083   1.111

  Using partial waves for Cr as LCAO basis

Reference energy: -126274.181857

Spin-polarized calculation.
Magnetic moment: 0.000000

Convergence criteria:
  Maximum total energy change: 0.0005 eV / electron
  Maximum integral of absolute density change: 0.0001 electrons
  Maximum integral of absolute eigenstate change: 4e-08 eV^2
  Maximum change in atomic force: 0.0001 eV / Ang
  Maximum number of iterations: 333

Symmetries present (total): 1

  ( 1  0  0)
  ( 0  1  0)
  ( 0  0  1)

1728 k-points: 12 x 12 x 12 Monkhorst-Pack grid + [1/24,1/24,1/24]
1728 k-points in the irreducible part of the Brillouin zone
       k-points in crystal coordinates                weights
   0:    -0.41666667   -0.41666667   -0.41666667          1/1728
   1:    -0.41666667   -0.41666667   -0.33333333          1/1728
   2:    -0.41666667   -0.41666667   -0.25000000          1/1728
   3:    -0.41666667   -0.41666667   -0.16666667          1/1728
   4:    -0.41666667   -0.41666667   -0.08333333          1/1728
   5:    -0.41666667   -0.41666667   -0.00000000          1/1728
   6:    -0.41666667   -0.41666667    0.08333333          1/1728
   7:    -0.41666667   -0.41666667    0.16666667          1/1728
   8:    -0.41666667   -0.41666667    0.25000000          1/1728
   9:    -0.41666667   -0.41666667    0.33333333          1/1728
          ...
1727:     0.50000000    0.50000000    0.50000000          1/1728

Wave functions: Plane wave expansion
  Cutoff energy: 600.000 eV
  Number of coefficients (min, max): 2896, 2946
  Pulay-stress correction: 0.000000 eV/Ang^3 (de/decut=0.000000)
  Using FFTW library
  ScaLapack parameters: grid=1x1, blocksize=None
  Wavefunction extrapolation:
    Improved wavefunction reuse through dual PAW basis 

Occupation numbers: Fermi-Dirac: width=0.0010 eV
 

Eigensolver
   Davidson(niter=2) 

Densities:
  Coarse grid: 32*32*32 grid
  Fine grid: 64*64*64 grid
  Total Charge: 0.000000 

Density mixing:
  Method: difference
  Backend: pulay
  Linear mixing parameter: 0.05
  Mixing with 5 old densities
  Damping of long wave oscillations: 50 

Hamiltonian:
  XC and Coulomb potentials evaluated on a 64*64*64 grid
  Using the LDA Exchange-Correlation functional
  External potential:
    <gpaw.external.NoExternalPotential object at 0x2b3033be23d0>
 

Memory estimate:
  Process memory now: 28313.15 MiB
  Calculator: 209.79 MiB
    Density: 16.11 MiB
      Arrays: 8.75 MiB
      Localized functions: 3.86 MiB
      Mixer: 3.50 MiB
    Hamiltonian: 6.59 MiB
      Arrays: 6.50 MiB
      XC: 0.00 MiB
      Poisson: 0.00 MiB
      vbar: 0.09 MiB
    Wavefunctions: 187.08 MiB
      Arrays psit_nG: 154.64 MiB
      Eigensolver: 2.27 MiB
      Projections: 7.87 MiB
      Projectors: 19.12 MiB
      PW-descriptor: 3.18 MiB

Total number of cores used: 40
Parallelization over k-points: 40

Number of atoms: 10
Number of atomic orbitals: 60
Number of bands in calculation: 40
Number of valence electrons: 60
Bands to converge: occupied

... initialized

Initializing position-dependent things.

Density initialized from atomic densities
Creating initial wave functions:
  40 bands from LCAO basis set

                          
                          
                          
                          
            Cr            
                          
                          
            Cr            
           O              
         O      O         
                          
        O      O          
             O            
            Cr            
                          
                          
            Cr            
                          
                          
                          
                          

Positions:
   0 O     -0.760209   -1.389250    1.148641    ( 0.0000,  0.0000,  0.0000)
   1 O     -1.582607   -0.036807   -1.147820    ( 0.0000,  0.0000,  0.0000)
   2 O     -0.823830    1.352257    1.148121    ( 0.0000,  0.0000,  0.0000)
   3 O      0.823830   -1.352257   -1.148121    ( 0.0000,  0.0000,  0.0000)
   4 Cr    -0.000004    0.000260   -4.683226    ( 0.0000,  0.0000,  2.0000)
   5 Cr    -0.000004    0.000111   -2.195940    ( 0.0000,  0.0000, -2.0000)
   6 Cr     0.000004   -0.000260    4.693226    ( 0.0000,  0.0000, -2.0000)
   7 Cr     0.000004   -0.000111    2.195940    ( 0.0000,  0.0000,  2.0000)
   8 O      1.582607    0.036807    1.147820    ( 0.0000,  0.0000,  0.0000)
   9 O      0.760209    1.389250   -1.148641    ( 0.0000,  0.0000,  0.0000)

Unit cell:
           periodic     x           y           z      points  spacing
  1. axis:    yes    2.342815    1.352071    4.592704    32     0.1216
  2. axis:    yes   -2.342815    1.352071    4.592704    32     0.1216
  3. axis:    yes    0.000000   -2.704886    4.592923    32     0.1216

  Lengths:   5.330085   5.330085   5.330230
  Angles:   52.139511  52.139510  52.149782

Effective grid spacing dv^(1/3) = 0.1386

                     log10-error:           total        iterations:
           time      wfs    density  force  energy       poisson  magmom
iter:   1  22:15:18                       -100.567850             -0.0000
iter:   2  22:15:32  -0.70  -1.01          -99.836869             -0.0000
iter:   3  22:15:46  -0.13  -1.05          -97.280721             +0.0000
iter:   4  22:16:00  -1.16  -1.41          -97.357055             +0.0000
iter:   5  22:16:14  -1.15  -1.36          -97.354623             +0.0000
iter:   6  22:16:29  -0.76  -1.51          -96.976942             +0.0000
iter:   7  22:16:43  -1.58  -1.87          -96.866476             -0.0000
iter:   8  22:16:57  -1.80  -2.03          -96.842780             -0.0000
iter:   9  22:17:11  -1.95  -2.39          -96.843145             -0.0000
iter:  10  22:17:25  -2.75  -2.49          -96.838369             -0.0000
iter:  11  22:17:39  -2.90  -2.77          -96.842551             -0.0000
iter:  12  22:17:53  -3.22  -2.71          -96.843141             -0.0000
iter:  13  22:18:07  -3.28  -2.70          -96.840549             -0.0000
iter:  14  22:18:21  -2.82  -2.73          -96.839020             -0.0000
iter:  15  22:18:35  -3.48  -2.89          -96.838590             -0.0000
iter:  16  22:18:50  -3.77  -3.15          -96.838765             +0.0000
iter:  17  22:19:04  -3.88  -3.19          -96.838923             +0.0000
iter:  18  22:19:18  -3.99  -3.32          -96.839121             +0.0000
iter:  19  22:19:32  -4.15  -3.23          -96.839353             +0.0000
iter:  20  22:19:46  -4.22  -3.29          -96.839097             +0.0000
iter:  21  22:20:00  -4.52  -3.64          -96.839144             +0.0000
iter:  22  22:20:14  -4.64  -3.74          -96.839183             +0.0000
iter:  23  22:20:28  -4.76  -3.77          -96.839202             -0.0000
iter:  24  22:20:42  -4.92  -3.88          -96.839222             -0.0000
iter:  25  22:20:56  -5.13  -3.91          -96.839239             -0.0000
iter:  26  22:21:10  -5.13  -4.05          -96.839245             -0.0000
iter:  27  22:21:25  -5.27  -4.21          -96.839252             -0.0000
iter:  28  22:21:39  -5.35  -4.27          -96.839257             -0.0000
iter:  29  22:21:53  -5.52  -4.41          -96.839262             -0.0000
iter:  30  22:22:07  -5.61  -4.52          -96.839267             -0.0000
iter:  31  22:22:21  -5.66  -4.56          -96.839270             -0.0000
iter:  32  22:22:35  -5.78  -4.69          -96.839272             -0.0000
iter:  33  22:22:49  -5.87  -4.74          -96.839274             -0.0000
iter:  34  22:23:03  -6.04  -4.79          -96.839276             -0.0000
iter:  35  22:23:17  -6.15  -5.05          -96.839277             -0.0000
iter:  36  22:23:31  -6.24  -5.26          -96.839278             -0.0000
iter:  37  22:23:45  -6.34  -5.28          -96.839279             -0.0000
iter:  38  22:24:00  -6.40  -5.24          -96.839280             -0.0000
iter:  39  22:24:14  -6.49  -5.19          -96.839280             -0.0000
iter:  40  22:24:28  -6.62  -5.18          -96.839281             -0.0000
iter:  41  22:24:42  -6.76  -5.14          -96.839281             -0.0000
iter:  42  22:24:56  -6.80  -5.20          -96.839281             -0.0000
iter:  43  22:25:10  -6.82  -5.18          -96.839282             -0.0000
iter:  44  22:25:24  -6.91  -5.16          -96.839282             -0.0000
iter:  45  22:25:38  -7.05  -5.15          -96.839282             -0.0000
iter:  46  22:25:52  -7.19  -5.12          -96.839282             -0.0000
iter:  47  22:26:06  -7.26  -5.08          -96.839282             -0.0000
iter:  48  22:26:20  -7.28  -5.09          -96.839282             -0.0000
iter:  49  22:26:35  -7.32  -5.08          -96.839282             -0.0000
iter:  50  22:26:49  -7.38  -5.06          -96.839282             -0.0000
iter:  51  22:27:05  -7.53  -5.03          -96.839282             -0.0000
iter:  52  22:27:22  -7.65  -4.98    -3.76 -96.839282             -0.0000
iter:  53  22:27:38  -7.63  -5.04    -3.25 -96.839283             -0.0000
iter:  54  22:27:55  -7.81  -4.92    -3.12 -96.839283             -0.0000
iter:  55  22:28:11  -7.81  -4.89    -3.24 -96.839283             -0.0000
iter:  56  22:28:26  -7.15  -4.91          -96.839283             -0.0000
iter:  57  22:28:40  -7.19  -4.60          -96.839283             -0.0000
iter:  58  22:28:54  -7.08  -4.99          -96.839283             -0.0000
iter:  59  22:29:10  -7.90  -5.01    -3.22 -96.839283             -0.0000
iter:  60  22:29:27  -8.03  -5.19    -3.57 -96.839283             -0.0000
iter:  61  22:29:44  -7.92  -5.36    -3.29 -96.839283             -0.0000
iter:  62  22:30:00  -8.07  -5.27    -3.58 -96.839283             -0.0000
iter:  63  22:30:17  -8.43  -5.61    -4.48 -96.839283             -0.0000

Converged after 63 iterations.

Dipole moment: (0.000001, -0.000003, 0.018551) |e|*Ang

Total magnetic moment: (0.000000, 0.000000, -0.000000)
Local magnetic moments:
   0 O  ( 0.000000,  0.000000,  0.000201)
   1 O  ( 0.000000,  0.000000, -0.000453)
   2 O  ( 0.000000,  0.000000,  0.000366)
   3 O  ( 0.000000,  0.000000, -0.000292)
   4 Cr ( 0.000000,  0.000000,  2.204821)
   5 Cr ( 0.000000,  0.000000, -2.205481)
   6 Cr ( 0.000000,  0.000000, -2.209939)
   7 Cr ( 0.000000,  0.000000,  2.210264)
   8 O  ( 0.000000,  0.000000,  0.000524)
   9 O  ( 0.000000,  0.000000, -0.000130)

Energy contributions relative to reference atoms: (reference = -126274.181857)

Kinetic:        +34.148909
Potential:      -53.781789
External:        +0.000000
XC:             -78.938816
Entropy (-ST):   -0.000000
Local:           +1.732415
--------------------------
Free energy:    -96.839283
Extrapolated:   -96.839283

Spin contamination: 4.758781 electrons
Showing only first 2 kpts
                      Up                     Down
 Kpt  Band  Eigenvalues  Occupancy  Eigenvalues  Occupancy
  0    28      8.50513    1.00000      8.50648    1.00000
  0    29      8.76436    1.00000      8.76339    1.00000
  0    30     10.01428    0.00000     10.01419    0.00000
  0    31     10.02443    0.00000     10.02129    0.00000

  1    28      8.53333    1.00000      8.53356    1.00000
  1    29      8.81103    1.00000      8.81021    1.00000
  1    30      9.95319    0.00000      9.95360    0.00000
  1    31     10.01084    0.00000     10.00653    0.00000


Fermi level: 9.30148

Gap: 0.823 eV
Transition (v -> c):
  (s=0, k=785, n=29, [-0.00, -0.00, -0.00]) -> (s=0, k=471, n=30, [-0.17, -0.17, -0.17])
Writing to born-0.01-4z+.gpw (mode='all')

Timing:                              incl.     excl.
-----------------------------------------------------------
Hamiltonian:                         0.258     0.001   0.0% |
 Atomic:                             0.082     0.082   0.0% |
  XC Correction:                     0.000     0.000   0.0% |
 Calculate atomic Hamiltonians:      0.021     0.021   0.0% |
 Communicate:                        0.000     0.000   0.0% |
 Initialize Hamiltonian:             0.000     0.000   0.0% |
 Poisson:                            0.001     0.001   0.0% |
 XC 3D grid:                         0.153     0.153   0.0% |
LCAO initialization:               425.953     0.143   0.0% |
 LCAO eigensolver:                 251.276     0.009   0.0% |
  Calculate projections:             0.018     0.018   0.0% |
  DenseAtomicCorrection:             0.047     0.047   0.0% |
  Distribute overlap matrix:         0.005     0.005   0.0% |
  Orbital Layouts:                   0.127     0.127   0.0% |
  Potential matrix:                250.786   250.786   8.2% |--|
  Sum over cells:                    0.285     0.285   0.0% |
 LCAO to grid:                     172.303   172.303   5.6% |-|
 Set positions (LCAO WFS):           2.231     0.381   0.0% |
  Basic WFS set positions:           0.000     0.000   0.0% |
  Basis functions set positions:     0.000     0.000   0.0% |
  P tci:                             0.980     0.980   0.0% |
  ST tci:                            0.780     0.780   0.0% |
  mktci:                             0.089     0.089   0.0% |
PWDescriptor:                        0.059     0.059   0.0% |
SCF-cycle:                         921.921    38.842   1.3% ||
 Davidson:                         785.475   170.485   5.6% |-|
  Apply H:                         114.814   110.352   3.6% ||
   HMM T:                            4.462     4.462   0.1% |
  Subspace diag:                   146.900     0.810   0.0% |
   calc_h_matrix:                  127.175    12.498   0.4% |
    Apply H:                       114.676   110.057   3.6% ||
     HMM T:                          4.619     4.619   0.2% |
   diagonalize:                      3.452     3.452   0.1% |
   rotate_psi:                      15.464    15.464   0.5% |
  calc. matrices:                  299.459    69.696   2.3% ||
   Apply H:                        229.763   220.676   7.2% |--|
    HMM T:                           9.087     9.087   0.3% |
  diagonalize:                      25.275    25.275   0.8% |
  rotate_psi:                       28.540    28.540   0.9% |
 Density:                           56.752     0.002   0.0% |
  Atomic density matrices:           1.683     1.683   0.1% |
  Mix:                               3.323     3.323   0.1% |
  Multipole moments:                 0.022     0.022   0.0% |
  Pseudo density:                   51.722    51.720   1.7% ||
   Symmetrize density:               0.002     0.002   0.0% |
 Forces:                            24.797    24.797   0.8% |
 Hamiltonian:                       15.367     0.093   0.0% |
  Atomic:                            3.365     3.365   0.1% |
   XC Correction:                    0.000     0.000   0.0% |
  Calculate atomic Hamiltonians:     1.830     1.830   0.1% |
  Communicate:                       0.008     0.008   0.0% |
  Poisson:                           0.058     0.058   0.0% |
  XC 3D grid:                       10.013    10.013   0.3% |
 Orthonormalize:                     0.687     0.010   0.0% |
  calc_s_matrix:                     0.106     0.106   0.0% |
  inverse-cholesky:                  0.016     0.016   0.0% |
  projections:                       0.441     0.441   0.0% |
  rotate_psi_s:                      0.113     0.113   0.0% |
Set symmetry:                        0.000     0.000   0.0% |
Other:                            1702.347  1702.347  55.8% |---------------------|
-----------------------------------------------------------
Total:                                      3050.537 100.0%

Memory usage: 27.70 GiB
Date: Mon Jul  4 22:58:38 2022
