
  ___ ___ ___ _ _ _  
 |   |   |_  | | | | 
 | | | | | . | | | | 
 |__ |  _|___|_____|  21.6.1b1
 |___|_|             

User:   madkru@c097.nifl.fysik.dtu.dk
Date:   Tue Jul  5 08:29:59 2022
Arch:   x86_64
Pid:    261120
Python: 3.8.6
gpaw:   /home/niflheim/madkru/new_venv/gpaw/gpaw (1f0dfc9eae)
_gpaw:  /home/niflheim/madkru/new_venv/gpaw/build/lib.linux-x86_64-skylake-3.8/
        _gpaw.cpython-38-x86_64-linux-gnu.so (c1e45bfab3)
ase:    /home/niflheim/madkru/new_venv/ase/ase (version 3.23.0b1-ca38c75a67)
numpy:  /home/modules/software/SciPy-bundle/2020.11-foss-2020b/lib/python3.8/site-packages/numpy (version 1.19.4)
scipy:  /home/modules/software/SciPy-bundle/2020.11-foss-2020b/lib/python3.8/site-packages/scipy (version 1.5.4)
libxc:  4.3.4
units:  Angstrom and eV
cores: 40
OpenMP: False
OMP_NUM_THREADS: 1

Input parameters:
  convergence: {bands: occupied,
                density: 0.0001,
                eigenstates: 4e-08,
                energy: 0.0005,
                forces: 0.0001}
  kpts: {gamma: True,
         size: [12, 12, 12]}
  mode: {ecut: 600.0,
         gammacentered: False,
         name: pw}
  occupations: {fixmagmom: False,
                name: fermi-dirac,
                width: 0.001}
  symmetry: {point_group: False,
             time_reversal: False}

System changes: positions, numbers, cell, pbc, initial_charges, initial_magmoms 

Initialize ...

O-setup:
  name: Oxygen
  id: 9b9d51c344dea68c822856295a461509
  Z: 8.0
  valence: 6
  core: 2
  charge: 0.0
  file: /home/modules/software/GPAW-setups/0.9.20000/O.LDA.gz
  compensation charges: gauss, rc=0.21, lmax=2
  cutoffs: 1.17(filt), 0.83(core),
  valence states:
                energy  radius
    2s(2.00)   -23.752   0.688
    2p(4.00)    -9.195   0.598
    *s           3.459   0.688
    *p          18.016   0.598
    *d           0.000   0.619

  Using partial waves for O as LCAO basis

Cr-setup:
  name: Chromium
  id: 444e8044bc0f91048286c984738d87f5
  Z: 24.0
  valence: 6
  core: 18
  charge: 0.0
  file: /home/modules/software/GPAW-setups/0.9.20000/Cr.LDA.gz
  compensation charges: gauss, rc=0.35, lmax=2
  cutoffs: 2.14(filt), 3.04(core),
  valence states:
                energy  radius
    4s(1.00)    -4.191   1.164
    4p(0.00)    -1.079   1.217
    3d(5.00)    -3.128   1.111
    *s          23.021   1.164
    *p          26.132   1.217
    *d          24.083   1.111

  Using partial waves for Cr as LCAO basis

Reference energy: -126274.181857

Spin-polarized calculation.
Magnetic moment: 0.000000

Convergence criteria:
  Maximum total energy change: 0.0005 eV / electron
  Maximum integral of absolute density change: 0.0001 electrons
  Maximum integral of absolute eigenstate change: 4e-08 eV^2
  Maximum change in atomic force: 0.0001 eV / Ang
  Maximum number of iterations: 333

Symmetries present (total): 1

  ( 1  0  0)
  ( 0  1  0)
  ( 0  0  1)

1728 k-points: 12 x 12 x 12 Monkhorst-Pack grid + [1/24,1/24,1/24]
1728 k-points in the irreducible part of the Brillouin zone
       k-points in crystal coordinates                weights
   0:    -0.41666667   -0.41666667   -0.41666667          1/1728
   1:    -0.41666667   -0.41666667   -0.33333333          1/1728
   2:    -0.41666667   -0.41666667   -0.25000000          1/1728
   3:    -0.41666667   -0.41666667   -0.16666667          1/1728
   4:    -0.41666667   -0.41666667   -0.08333333          1/1728
   5:    -0.41666667   -0.41666667   -0.00000000          1/1728
   6:    -0.41666667   -0.41666667    0.08333333          1/1728
   7:    -0.41666667   -0.41666667    0.16666667          1/1728
   8:    -0.41666667   -0.41666667    0.25000000          1/1728
   9:    -0.41666667   -0.41666667    0.33333333          1/1728
          ...
1727:     0.50000000    0.50000000    0.50000000          1/1728

Wave functions: Plane wave expansion
  Cutoff energy: 600.000 eV
  Number of coefficients (min, max): 2896, 2946
  Pulay-stress correction: 0.000000 eV/Ang^3 (de/decut=0.000000)
  Using FFTW library
  ScaLapack parameters: grid=1x1, blocksize=None
  Wavefunction extrapolation:
    Improved wavefunction reuse through dual PAW basis 

Occupation numbers: Fermi-Dirac: width=0.0010 eV
 

Eigensolver
   Davidson(niter=2) 

Densities:
  Coarse grid: 32*32*32 grid
  Fine grid: 64*64*64 grid
  Total Charge: 0.000000 

Density mixing:
  Method: difference
  Backend: pulay
  Linear mixing parameter: 0.05
  Mixing with 5 old densities
  Damping of long wave oscillations: 50 

Hamiltonian:
  XC and Coulomb potentials evaluated on a 64*64*64 grid
  Using the LDA Exchange-Correlation functional
  External potential:
    <gpaw.external.NoExternalPotential object at 0x2b3074b86e50>
 

Memory estimate:
  Process memory now: 29248.13 MiB
  Calculator: 209.79 MiB
    Density: 16.11 MiB
      Arrays: 8.75 MiB
      Localized functions: 3.86 MiB
      Mixer: 3.50 MiB
    Hamiltonian: 6.59 MiB
      Arrays: 6.50 MiB
      XC: 0.00 MiB
      Poisson: 0.00 MiB
      vbar: 0.09 MiB
    Wavefunctions: 187.08 MiB
      Arrays psit_nG: 154.64 MiB
      Eigensolver: 2.27 MiB
      Projections: 7.87 MiB
      Projectors: 19.12 MiB
      PW-descriptor: 3.18 MiB

Total number of cores used: 40
Parallelization over k-points: 40

Number of atoms: 10
Number of atomic orbitals: 60
Number of bands in calculation: 40
Number of valence electrons: 60
Bands to converge: occupied

... initialized

Initializing position-dependent things.

Density initialized from atomic densities
Creating initial wave functions:
  40 bands from LCAO basis set

                          
                          
                          
                          
            Cr            
                          
                          
            Cr            
           O              
         O      O         
                          
        O      O          
             O            
            Cr            
                          
                          
            Cr            
                          
                          
                          
                          

Positions:
   0 O     -0.760209   -1.389250    1.148641    ( 0.0000,  0.0000,  0.0000)
   1 O     -1.582607   -0.036807   -1.147820    ( 0.0000,  0.0000,  0.0000)
   2 O     -0.823830    1.352257    1.148121    ( 0.0000,  0.0000,  0.0000)
   3 O      0.823830   -1.352257   -1.148121    ( 0.0000,  0.0000,  0.0000)
   4 Cr    -0.000004    0.000260   -4.693226    ( 0.0000,  0.0000,  2.0000)
   5 Cr    -0.000004    0.000111   -2.195940    ( 0.0000,  0.0000, -2.0000)
   6 Cr     0.000004   -0.000260    4.693226    ( 0.0000,  0.0000, -2.0000)
   7 Cr     0.000004   -0.000111    2.195940    ( 0.0000,  0.0000,  2.0000)
   8 O      1.582607    0.036807    1.137820    ( 0.0000,  0.0000,  0.0000)
   9 O      0.760209    1.389250   -1.148641    ( 0.0000,  0.0000,  0.0000)

Unit cell:
           periodic     x           y           z      points  spacing
  1. axis:    yes    2.342815    1.352071    4.592704    32     0.1216
  2. axis:    yes   -2.342815    1.352071    4.592704    32     0.1216
  3. axis:    yes    0.000000   -2.704886    4.592923    32     0.1216

  Lengths:   5.330085   5.330085   5.330230
  Angles:   52.139511  52.139510  52.149782

Effective grid spacing dv^(1/3) = 0.1386

                     log10-error:           total        iterations:
           time      wfs    density  force  energy       poisson  magmom
iter:   1  08:37:32                       -100.566985             -0.0000
iter:   2  08:37:46  -0.70  -1.01          -99.836684             -0.0000
iter:   3  08:38:00  -0.13  -1.05          -97.281130             +0.0000
iter:   4  08:38:14  -1.16  -1.41          -97.358351             +0.0000
iter:   5  08:38:28  -1.15  -1.36          -97.357502             +0.0000
iter:   6  08:38:43  -0.76  -1.51          -96.977470             +0.0000
iter:   7  08:38:57  -1.59  -1.87          -96.869500             -0.0000
iter:   8  08:39:11  -1.77  -2.02          -96.844829             -0.0000
iter:   9  08:39:25  -1.93  -2.36          -96.843766             -0.0000
iter:  10  08:39:39  -2.68  -2.49          -96.837610             -0.0000
iter:  11  08:39:53  -2.74  -2.85          -96.846561             -0.0000
iter:  12  08:40:07  -3.15  -2.61          -96.845005             -0.0000
iter:  13  08:40:21  -2.73  -2.64          -96.838217             +0.0000
iter:  14  08:40:35  -3.41  -3.07          -96.838705             +0.0000
iter:  15  08:40:49  -3.77  -3.15          -96.838938             +0.0000
iter:  16  08:41:03  -3.91  -3.15          -96.839441             +0.0000
iter:  17  08:41:18  -3.99  -3.11          -96.839560             +0.0000
iter:  18  08:41:32  -4.18  -3.06          -96.839680             +0.0000
iter:  19  08:41:46  -4.30  -3.05          -96.839733             +0.0000
iter:  20  08:42:00  -4.26  -3.04          -96.839640             +0.0000
iter:  21  08:42:14  -4.13  -3.08          -96.839521             +0.0000
iter:  22  08:42:28  -4.53  -3.47          -96.839592             +0.0000
iter:  23  08:42:42  -4.27  -3.47          -96.839651             +0.0000
iter:  24  08:42:56  -4.61  -3.48          -96.839759             +0.0000
iter:  25  08:43:10  -4.79  -3.48          -96.839831             +0.0000
iter:  26  08:43:24  -4.90  -3.39          -96.839931             +0.0000
iter:  27  08:43:38  -4.47  -3.33          -96.839651             +0.0000
iter:  28  08:43:53  -4.78  -3.66          -96.839649             +0.0000
iter:  29  08:44:07  -5.23  -3.69          -96.839657             +0.0000
iter:  30  08:44:21  -4.14  -3.69          -96.839974             +0.0000
iter:  31  08:44:35  -4.44  -3.38          -96.839616             +0.0000
iter:  32  08:44:49  -5.02  -4.08          -96.839628             +0.0000
iter:  33  08:45:03  -5.34  -4.06          -96.839630             +0.0000
iter:  34  08:45:17  -5.34  -4.12          -96.839637             +0.0000
iter:  35  08:45:31  -5.50  -4.01          -96.839637             +0.0000
iter:  36  08:45:45  -5.67  -4.10          -96.839638             +0.0000
iter:  37  08:45:59  -5.61  -4.12          -96.839638             +0.0000
iter:  38  08:46:13  -5.97  -4.28          -96.839639             +0.0000
iter:  39  08:46:28  -6.16  -4.29          -96.839637             +0.0000
iter:  40  08:46:42  -6.01  -4.33          -96.839639             +0.0000
iter:  41  08:46:56  -6.40  -4.44          -96.839637             +0.0000
iter:  42  08:47:10  -6.53  -4.67          -96.839637             +0.0000
iter:  43  08:47:24  -6.45  -4.69          -96.839638             +0.0000
iter:  44  08:47:38  -6.72  -4.63          -96.839638             +0.0000
iter:  45  08:47:52  -6.62  -4.98          -96.839638             +0.0000
iter:  46  08:48:06  -6.82  -5.00          -96.839638             +0.0000
iter:  47  08:48:20  -6.91  -5.29          -96.839638             +0.0000
iter:  48  08:48:34  -7.04  -5.44          -96.839638             +0.0000
iter:  49  08:48:48  -7.17  -5.65          -96.839639             +0.0000
iter:  50  08:49:03  -7.28  -5.60          -96.839639             +0.0000
iter:  51  08:49:17  -7.38  -5.59          -96.839639             +0.0000
iter:  52  08:49:33  -7.47  -5.60          -96.839639             +0.0000
iter:  53  08:49:50  -7.59  -5.58    -4.31 -96.839639             +0.0000

Converged after 53 iterations.

Dipole moment: (0.001500, 0.016383, -0.030425) |e|*Ang

Total magnetic moment: (0.000000, 0.000000, 0.000000)
Local magnetic moments:
   0 O  ( 0.000000,  0.000000, -0.000156)
   1 O  ( 0.000000,  0.000000, -0.000247)
   2 O  ( 0.000000,  0.000000, -0.000000)
   3 O  ( 0.000000,  0.000000, -0.000064)
   4 Cr ( 0.000000,  0.000000,  2.208352)
   5 Cr ( 0.000000,  0.000000, -2.211084)
   6 Cr ( 0.000000,  0.000000, -2.208452)
   7 Cr ( 0.000000,  0.000000,  2.210973)
   8 O  ( 0.000000,  0.000000,  0.000506)
   9 O  ( 0.000000,  0.000000,  0.000094)

Energy contributions relative to reference atoms: (reference = -126274.181857)

Kinetic:        +34.251413
Potential:      -53.871095
External:        +0.000000
XC:             -78.952986
Entropy (-ST):   -0.000000
Local:           +1.733029
--------------------------
Free energy:    -96.839639
Extrapolated:   -96.839639

Spin contamination: 4.763636 electrons
Showing only first 2 kpts
                      Up                     Down
 Kpt  Band  Eigenvalues  Occupancy  Eigenvalues  Occupancy
  0    28      8.50516    1.00000      8.50647    1.00000
  0    29      8.76911    1.00000      8.76886    1.00000
  0    30     10.01639    0.00000     10.01470    0.00000
  0    31     10.02320    0.00000     10.02230    0.00000

  1    28      8.53337    1.00000      8.53406    1.00000
  1    29      8.81547    1.00000      8.81598    1.00000
  1    30      9.95614    0.00000      9.95343    0.00000
  1    31     10.00945    0.00000     10.01012    0.00000


Fermi level: 9.31165

Gap: 0.825 eV
Transition (v -> c):
  (s=0, k=785, n=29, [-0.00, -0.00, -0.00]) -> (s=1, k=1099, n=30, [0.17, 0.17, 0.17])
Writing to born-0.01-8z-.gpw (mode='all')

Timing:                              incl.     excl.
-----------------------------------------------------------
Hamiltonian:                         0.258     0.001   0.0% |
 Atomic:                             0.075     0.075   0.0% |
  XC Correction:                     0.000     0.000   0.0% |
 Calculate atomic Hamiltonians:      0.025     0.025   0.0% |
 Communicate:                        0.000     0.000   0.0% |
 Initialize Hamiltonian:             0.000     0.000   0.0% |
 Poisson:                            0.001     0.001   0.0% |
 XC 3D grid:                         0.156     0.156   0.0% |
LCAO initialization:               426.304     0.143   0.0% |
 LCAO eigensolver:                 251.038     0.009   0.0% |
  Calculate projections:             0.017     0.017   0.0% |
  DenseAtomicCorrection:             0.045     0.045   0.0% |
  Distribute overlap matrix:         0.005     0.005   0.0% |
  Orbital Layouts:                   0.126     0.126   0.0% |
  Potential matrix:                250.552   250.552   8.6% |--|
  Sum over cells:                    0.285     0.285   0.0% |
 LCAO to grid:                     172.882   172.882   5.9% |-|
 Set positions (LCAO WFS):           2.241     0.381   0.0% |
  Basic WFS set positions:           0.000     0.000   0.0% |
  Basis functions set positions:     0.000     0.000   0.0% |
  P tci:                             0.978     0.978   0.0% |
  ST tci:                            0.793     0.793   0.0% |
  mktci:                             0.089     0.089   0.0% |
PWDescriptor:                        0.061     0.061   0.0% |
SCF-cycle:                         762.617    39.324   1.3% ||
 Davidson:                         657.748   143.048   4.9% |-|
  Apply H:                          96.294    92.494   3.2% ||
   HMM T:                            3.800     3.800   0.1% |
  Subspace diag:                   122.709     0.666   0.0% |
   calc_h_matrix:                  106.386    10.447   0.4% |
    Apply H:                        95.939    92.032   3.1% ||
     HMM T:                          3.907     3.907   0.1% |
   diagonalize:                      2.907     2.907   0.1% |
   rotate_psi:                      12.750    12.750   0.4% |
  calc. matrices:                  250.262    58.749   2.0% ||
   Apply H:                        191.513   183.906   6.3% |--|
    HMM T:                           7.607     7.607   0.3% |
  diagonalize:                      21.329    21.329   0.7% |
  rotate_psi:                       24.106    24.106   0.8% |
 Density:                           47.012     0.001   0.0% |
  Atomic density matrices:           1.399     1.399   0.0% |
  Mix:                               2.794     2.794   0.1% |
  Multipole moments:                 0.019     0.019   0.0% |
  Pseudo density:                   42.797    42.795   1.5% ||
   Symmetrize density:               0.002     0.002   0.0% |
 Forces:                             4.971     4.971   0.2% |
 Hamiltonian:                       12.853     0.080   0.0% |
  Atomic:                            2.801     2.801   0.1% |
   XC Correction:                    0.000     0.000   0.0% |
  Calculate atomic Hamiltonians:     1.542     1.542   0.1% |
  Communicate:                       0.008     0.008   0.0% |
  Poisson:                           0.047     0.047   0.0% |
  XC 3D grid:                        8.374     8.374   0.3% |
 Orthonormalize:                     0.710     0.013   0.0% |
  calc_s_matrix:                     0.110     0.110   0.0% |
  inverse-cholesky:                  0.017     0.017   0.0% |
  projections:                       0.451     0.451   0.0% |
  rotate_psi_s:                      0.119     0.119   0.0% |
Set symmetry:                        0.000     0.000   0.0% |
Other:                            1733.323  1733.323  59.3% |-----------------------|
-----------------------------------------------------------
Total:                                      2922.563 100.0%

Memory usage: 28.62 GiB
Date: Tue Jul  5 09:18:42 2022
