
  ___ ___ ___ _ _ _  
 |   |   |_  | | | | 
 | | | | | . | | | | 
 |__ |  _|___|_____|  21.6.1b1
 |___|_|             

User:   madkru@c097.nifl.fysik.dtu.dk
Date:   Tue Jul  5 10:42:59 2022
Arch:   x86_64
Pid:    261120
Python: 3.8.6
gpaw:   /home/niflheim/madkru/new_venv/gpaw/gpaw (1f0dfc9eae)
_gpaw:  /home/niflheim/madkru/new_venv/gpaw/build/lib.linux-x86_64-skylake-3.8/
        _gpaw.cpython-38-x86_64-linux-gnu.so (c1e45bfab3)
ase:    /home/niflheim/madkru/new_venv/ase/ase (version 3.23.0b1-ca38c75a67)
numpy:  /home/modules/software/SciPy-bundle/2020.11-foss-2020b/lib/python3.8/site-packages/numpy (version 1.19.4)
scipy:  /home/modules/software/SciPy-bundle/2020.11-foss-2020b/lib/python3.8/site-packages/scipy (version 1.5.4)
libxc:  4.3.4
units:  Angstrom and eV
cores: 40
OpenMP: False
OMP_NUM_THREADS: 1

Input parameters:
  convergence: {bands: occupied,
                density: 0.0001,
                eigenstates: 4e-08,
                energy: 0.0005,
                forces: 0.0001}
  kpts: {gamma: True,
         size: [12, 12, 12]}
  mode: {ecut: 600.0,
         gammacentered: False,
         name: pw}
  occupations: {fixmagmom: False,
                name: fermi-dirac,
                width: 0.001}
  symmetry: {point_group: False,
             time_reversal: False}

System changes: positions, numbers, cell, pbc, initial_charges, initial_magmoms 

Initialize ...

O-setup:
  name: Oxygen
  id: 9b9d51c344dea68c822856295a461509
  Z: 8.0
  valence: 6
  core: 2
  charge: 0.0
  file: /home/modules/software/GPAW-setups/0.9.20000/O.LDA.gz
  compensation charges: gauss, rc=0.21, lmax=2
  cutoffs: 1.17(filt), 0.83(core),
  valence states:
                energy  radius
    2s(2.00)   -23.752   0.688
    2p(4.00)    -9.195   0.598
    *s           3.459   0.688
    *p          18.016   0.598
    *d           0.000   0.619

  Using partial waves for O as LCAO basis

Cr-setup:
  name: Chromium
  id: 444e8044bc0f91048286c984738d87f5
  Z: 24.0
  valence: 6
  core: 18
  charge: 0.0
  file: /home/modules/software/GPAW-setups/0.9.20000/Cr.LDA.gz
  compensation charges: gauss, rc=0.35, lmax=2
  cutoffs: 2.14(filt), 3.04(core),
  valence states:
                energy  radius
    4s(1.00)    -4.191   1.164
    4p(0.00)    -1.079   1.217
    3d(5.00)    -3.128   1.111
    *s          23.021   1.164
    *p          26.132   1.217
    *d          24.083   1.111

  Using partial waves for Cr as LCAO basis

Reference energy: -126274.181857

Spin-polarized calculation.
Magnetic moment: 0.000000

Convergence criteria:
  Maximum total energy change: 0.0005 eV / electron
  Maximum integral of absolute density change: 0.0001 electrons
  Maximum integral of absolute eigenstate change: 4e-08 eV^2
  Maximum change in atomic force: 0.0001 eV / Ang
  Maximum number of iterations: 333

Symmetries present (total): 1

  ( 1  0  0)
  ( 0  1  0)
  ( 0  0  1)

1728 k-points: 12 x 12 x 12 Monkhorst-Pack grid + [1/24,1/24,1/24]
1728 k-points in the irreducible part of the Brillouin zone
       k-points in crystal coordinates                weights
   0:    -0.41666667   -0.41666667   -0.41666667          1/1728
   1:    -0.41666667   -0.41666667   -0.33333333          1/1728
   2:    -0.41666667   -0.41666667   -0.25000000          1/1728
   3:    -0.41666667   -0.41666667   -0.16666667          1/1728
   4:    -0.41666667   -0.41666667   -0.08333333          1/1728
   5:    -0.41666667   -0.41666667   -0.00000000          1/1728
   6:    -0.41666667   -0.41666667    0.08333333          1/1728
   7:    -0.41666667   -0.41666667    0.16666667          1/1728
   8:    -0.41666667   -0.41666667    0.25000000          1/1728
   9:    -0.41666667   -0.41666667    0.33333333          1/1728
          ...
1727:     0.50000000    0.50000000    0.50000000          1/1728

Wave functions: Plane wave expansion
  Cutoff energy: 600.000 eV
  Number of coefficients (min, max): 2896, 2946
  Pulay-stress correction: 0.000000 eV/Ang^3 (de/decut=0.000000)
  Using FFTW library
  ScaLapack parameters: grid=1x1, blocksize=None
  Wavefunction extrapolation:
    Improved wavefunction reuse through dual PAW basis 

Occupation numbers: Fermi-Dirac: width=0.0010 eV
 

Eigensolver
   Davidson(niter=2) 

Densities:
  Coarse grid: 32*32*32 grid
  Fine grid: 64*64*64 grid
  Total Charge: 0.000000 

Density mixing:
  Method: difference
  Backend: pulay
  Linear mixing parameter: 0.05
  Mixing with 5 old densities
  Damping of long wave oscillations: 50 

Hamiltonian:
  XC and Coulomb potentials evaluated on a 64*64*64 grid
  Using the LDA Exchange-Correlation functional
  External potential:
    <gpaw.external.NoExternalPotential object at 0x2b304fe6d040>
 

Memory estimate:
  Process memory now: 29443.42 MiB
  Calculator: 209.79 MiB
    Density: 16.11 MiB
      Arrays: 8.75 MiB
      Localized functions: 3.86 MiB
      Mixer: 3.50 MiB
    Hamiltonian: 6.59 MiB
      Arrays: 6.50 MiB
      XC: 0.00 MiB
      Poisson: 0.00 MiB
      vbar: 0.09 MiB
    Wavefunctions: 187.08 MiB
      Arrays psit_nG: 154.64 MiB
      Eigensolver: 2.27 MiB
      Projections: 7.87 MiB
      Projectors: 19.12 MiB
      PW-descriptor: 3.18 MiB

Total number of cores used: 40
Parallelization over k-points: 40

Number of atoms: 10
Number of atomic orbitals: 60
Number of bands in calculation: 40
Number of valence electrons: 60
Bands to converge: occupied

... initialized

Initializing position-dependent things.

Density initialized from atomic densities
Creating initial wave functions:
  40 bands from LCAO basis set

                          
                          
                          
                          
            Cr            
                          
                          
            Cr            
           O              
         O      O         
                          
        O      O          
             O            
            Cr            
                          
                          
            Cr            
                          
                          
                          
                          

Positions:
   0 O     -0.760209   -1.389250    1.148641    ( 0.0000,  0.0000,  0.0000)
   1 O     -1.582607   -0.036807   -1.147820    ( 0.0000,  0.0000,  0.0000)
   2 O     -0.823830    1.352257    1.148121    ( 0.0000,  0.0000,  0.0000)
   3 O      0.823830   -1.352257   -1.148121    ( 0.0000,  0.0000,  0.0000)
   4 Cr    -0.000004    0.000260   -4.693226    ( 0.0000,  0.0000,  2.0000)
   5 Cr    -0.000004    0.000111   -2.195940    ( 0.0000,  0.0000, -2.0000)
   6 Cr     0.000004   -0.000260    4.693226    ( 0.0000,  0.0000, -2.0000)
   7 Cr     0.000004   -0.000111    2.195940    ( 0.0000,  0.0000,  2.0000)
   8 O      1.582607    0.036807    1.147820    ( 0.0000,  0.0000,  0.0000)
   9 O      0.760209    1.399250   -1.148641    ( 0.0000,  0.0000,  0.0000)

Unit cell:
           periodic     x           y           z      points  spacing
  1. axis:    yes    2.342815    1.352071    4.592704    32     0.1216
  2. axis:    yes   -2.342815    1.352071    4.592704    32     0.1216
  3. axis:    yes    0.000000   -2.704886    4.592923    32     0.1216

  Lengths:   5.330085   5.330085   5.330230
  Angles:   52.139511  52.139510  52.149782

Effective grid spacing dv^(1/3) = 0.1386

                     log10-error:           total        iterations:
           time      wfs    density  force  energy       poisson  magmom
iter:   1  10:50:28                       -100.568681             -0.0000
iter:   2  10:50:43  -0.70  -1.01          -99.839906             +0.0000
iter:   3  10:50:57  -0.13  -1.05          -97.281752             +0.0000
iter:   4  10:51:11  -1.16  -1.41          -97.358655             -0.0000
iter:   5  10:51:25  -1.15  -1.36          -97.360925             -0.0000
iter:   6  10:51:39  -0.76  -1.51          -96.977927             -0.0000
iter:   7  10:51:53  -1.59  -1.87          -96.869955             -0.0000
iter:   8  10:52:08  -1.76  -2.02          -96.845308             -0.0000
iter:   9  10:52:22  -1.93  -2.34          -96.843045             -0.0000
iter:  10  10:52:36  -2.74  -2.51          -96.839561             -0.0000
iter:  11  10:52:50  -2.84  -2.72          -96.842178             -0.0000
iter:  12  10:53:04  -3.16  -2.73          -96.841709             -0.0000
iter:  13  10:53:18  -3.06  -2.78          -96.838319             -0.0000
iter:  14  10:53:32  -3.44  -3.06          -96.838614             -0.0000
iter:  15  10:53:46  -3.83  -3.10          -96.838839             -0.0000
iter:  16  10:54:01  -3.55  -3.24          -96.839727             -0.0000
iter:  17  10:54:15  -3.68  -3.10          -96.839268             -0.0000
iter:  18  10:54:29  -4.11  -3.41          -96.839330             -0.0000
iter:  19  10:54:43  -4.27  -3.47          -96.839413             -0.0000
iter:  20  10:54:57  -4.34  -3.45          -96.839556             -0.0000
iter:  21  10:55:11  -4.41  -3.26          -96.839740             -0.0000
iter:  22  10:55:25  -4.78  -3.25          -96.839747             -0.0000
iter:  23  10:55:39  -4.61  -3.29          -96.839652             +0.0000
iter:  24  10:55:54  -4.58  -3.39          -96.839561             -0.0000
iter:  25  10:56:08  -4.94  -3.50          -96.839576             +0.0000
iter:  26  10:56:22  -4.81  -3.50          -96.839635             -0.0000
iter:  27  10:56:36  -4.60  -3.61          -96.839565             +0.0000
iter:  28  10:56:50  -4.98  -3.55          -96.839567             +0.0000
iter:  29  10:57:04  -5.10  -3.59          -96.839578             +0.0000
iter:  30  10:57:18  -5.22  -3.80          -96.839564             -0.0000
iter:  31  10:57:32  -5.43  -3.94          -96.839563             -0.0000
iter:  32  10:57:47  -5.56  -4.04          -96.839557             +0.0000
iter:  33  10:58:01  -5.81  -4.31          -96.839559             -0.0000
iter:  34  10:58:15  -5.91  -4.46          -96.839561             +0.0000
iter:  35  10:58:29  -5.98  -4.47          -96.839563             +0.0000
iter:  36  10:58:43  -6.13  -4.48          -96.839563             +0.0000
iter:  37  10:58:57  -6.31  -4.55          -96.839564             -0.0000
iter:  38  10:59:11  -6.43  -4.66          -96.839564             +0.0000
iter:  39  10:59:25  -6.44  -4.69          -96.839565             +0.0000
iter:  40  10:59:39  -6.44  -4.86          -96.839565             +0.0000
iter:  41  10:59:53  -6.68  -4.82          -96.839566             +0.0000
iter:  42  11:00:08  -6.66  -4.85          -96.839566             +0.0000
iter:  43  11:00:22  -6.84  -4.96          -96.839566             +0.0000
iter:  44  11:00:36  -7.00  -5.20          -96.839566             +0.0000
iter:  45  11:00:50  -7.02  -5.26          -96.839567             -0.0000
iter:  46  11:01:04  -7.09  -5.33          -96.839567             +0.0000
iter:  47  11:01:18  -7.10  -5.26          -96.839567             -0.0000
iter:  48  11:01:32  -7.22  -5.57          -96.839567             +0.0000
iter:  49  11:01:46  -7.28  -5.68          -96.839567             +0.0000
iter:  50  11:02:03  -7.41  -5.70          -96.839567             -0.0000
iter:  51  11:02:20  -7.57  -5.67    -4.03 -96.839567             -0.0000

Converged after 51 iterations.

Dipole moment: (-0.022407, 0.014779, 0.053488) |e|*Ang

Total magnetic moment: (0.000000, 0.000000, -0.000000)
Local magnetic moments:
   0 O  ( 0.000000,  0.000000, -0.000108)
   1 O  ( 0.000000,  0.000000, -0.000204)
   2 O  ( 0.000000,  0.000000, -0.000143)
   3 O  ( 0.000000,  0.000000, -0.000077)
   4 Cr ( 0.000000,  0.000000,  2.212998)
   5 Cr ( 0.000000,  0.000000, -2.213527)
   6 Cr ( 0.000000,  0.000000, -2.210023)
   7 Cr ( 0.000000,  0.000000,  2.209709)
   8 O  ( 0.000000,  0.000000,  0.000349)
   9 O  ( 0.000000,  0.000000,  0.000940)

Energy contributions relative to reference atoms: (reference = -126274.181857)

Kinetic:        +34.460276
Potential:      -54.038390
External:        +0.000000
XC:             -78.994374
Entropy (-ST):   -0.000000
Local:           +1.732921
--------------------------
Free energy:    -96.839567
Extrapolated:   -96.839567

Spin contamination: 4.767655 electrons
Showing only first 2 kpts
                      Up                     Down
 Kpt  Band  Eigenvalues  Occupancy  Eigenvalues  Occupancy
  0    28      8.50965    1.00000      8.50548    1.00000
  0    29      8.77087    1.00000      8.76858    1.00000
  0    30     10.01717    0.00000     10.01806    0.00000
  0    31     10.02422    0.00000     10.02181    0.00000

  1    28      8.53725    1.00000      8.53366    1.00000
  1    29      8.81758    1.00000      8.81583    1.00000
  1    30      9.95416    0.00000      9.95574    0.00000
  1    31     10.01223    0.00000     10.00888    0.00000


Fermi level: 9.31605

Gap: 0.823 eV
Transition (v -> c):
  (s=0, k=785, n=29, [-0.00, -0.00, -0.00]) -> (s=1, k=1099, n=30, [0.17, 0.17, 0.17])
Writing to born-0.01-9y+.gpw (mode='all')

Timing:                              incl.     excl.
-----------------------------------------------------------
Hamiltonian:                         0.307     0.001   0.0% |
 Atomic:                             0.137     0.137   0.0% |
  XC Correction:                     0.000     0.000   0.0% |
 Calculate atomic Hamiltonians:      0.015     0.015   0.0% |
 Communicate:                        0.000     0.000   0.0% |
 Initialize Hamiltonian:             0.001     0.001   0.0% |
 Poisson:                            0.001     0.001   0.0% |
 XC 3D grid:                         0.151     0.151   0.0% |
LCAO initialization:               423.807     0.142   0.0% |
 LCAO eigensolver:                 251.726     0.009   0.0% |
  Calculate projections:             0.017     0.017   0.0% |
  DenseAtomicCorrection:             0.045     0.045   0.0% |
  Distribute overlap matrix:         0.005     0.005   0.0% |
  Orbital Layouts:                   0.127     0.127   0.0% |
  Potential matrix:                251.240   251.240   8.4% |--|
  Sum over cells:                    0.283     0.283   0.0% |
 LCAO to grid:                     169.732   169.732   5.7% |-|
 Set positions (LCAO WFS):           2.207     0.379   0.0% |
  Basic WFS set positions:           0.000     0.000   0.0% |
  Basis functions set positions:     0.000     0.000   0.0% |
  P tci:                             0.954     0.954   0.0% |
  ST tci:                            0.784     0.784   0.0% |
  mktci:                             0.090     0.090   0.0% |
PWDescriptor:                        0.059     0.059   0.0% |
SCF-cycle:                         735.483    36.891   1.2% |
 Davidson:                         634.772   137.510   4.6% |-|
  Apply H:                          92.936    89.269   3.0% ||
   HMM T:                            3.667     3.667   0.1% |
  Subspace diag:                   119.124     0.639   0.0% |
   calc_h_matrix:                  103.247    10.126   0.3% |
    Apply H:                        93.121    89.327   3.0% ||
     HMM T:                          3.793     3.793   0.1% |
   diagonalize:                      2.795     2.795   0.1% |
   rotate_psi:                      12.443    12.443   0.4% |
  calc. matrices:                  241.452    56.621   1.9% ||
   Apply H:                        184.831   177.598   5.9% |-|
    HMM T:                           7.233     7.233   0.2% |
  diagonalize:                      20.516    20.516   0.7% |
  rotate_psi:                       23.233    23.233   0.8% |
 Density:                           45.682     0.002   0.0% |
  Atomic density matrices:           1.341     1.341   0.0% |
  Mix:                               2.661     2.661   0.1% |
  Multipole moments:                 0.018     0.018   0.0% |
  Pseudo density:                   41.661    41.659   1.4% ||
   Symmetrize density:               0.002     0.002   0.0% |
 Forces:                             5.010     5.010   0.2% |
 Hamiltonian:                       12.424     0.080   0.0% |
  Atomic:                            2.732     2.732   0.1% |
   XC Correction:                    0.000     0.000   0.0% |
  Calculate atomic Hamiltonians:     1.466     1.466   0.0% |
  Communicate:                       0.006     0.006   0.0% |
  Poisson:                           0.050     0.050   0.0% |
  XC 3D grid:                        8.091     8.091   0.3% |
 Orthonormalize:                     0.704     0.011   0.0% |
  calc_s_matrix:                     0.110     0.110   0.0% |
  inverse-cholesky:                  0.017     0.017   0.0% |
  projections:                       0.449     0.449   0.0% |
  rotate_psi_s:                      0.118     0.118   0.0% |
Set symmetry:                        0.000     0.000   0.0% |
Other:                            1825.338  1825.338  61.2% |-----------------------|
-----------------------------------------------------------
Total:                                      2984.993 100.0%

Memory usage: 28.79 GiB
Date: Tue Jul  5 11:32:44 2022
