
  ___ ___ ___ _ _ _  
 |   |   |_  | | | | 
 | | | | | . | | | | 
 |__ |  _|___|_____|  21.6.1b1
 |___|_|             

User:   madkru@c097.nifl.fysik.dtu.dk
Date:   Tue Jul  5 11:37:27 2022
Arch:   x86_64
Pid:    261120
Python: 3.8.6
gpaw:   /home/niflheim/madkru/new_venv/gpaw/gpaw (1f0dfc9eae)
_gpaw:  /home/niflheim/madkru/new_venv/gpaw/build/lib.linux-x86_64-skylake-3.8/
        _gpaw.cpython-38-x86_64-linux-gnu.so (c1e45bfab3)
ase:    /home/niflheim/madkru/new_venv/ase/ase (version 3.23.0b1-ca38c75a67)
numpy:  /home/modules/software/SciPy-bundle/2020.11-foss-2020b/lib/python3.8/site-packages/numpy (version 1.19.4)
scipy:  /home/modules/software/SciPy-bundle/2020.11-foss-2020b/lib/python3.8/site-packages/scipy (version 1.5.4)
libxc:  4.3.4
units:  Angstrom and eV
cores: 40
OpenMP: False
OMP_NUM_THREADS: 1

Input parameters:
  convergence: {bands: occupied,
                density: 0.0001,
                eigenstates: 4e-08,
                energy: 0.0005,
                forces: 0.0001}
  kpts: {gamma: True,
         size: [12, 12, 12]}
  mode: {ecut: 600.0,
         gammacentered: False,
         name: pw}
  occupations: {fixmagmom: False,
                name: fermi-dirac,
                width: 0.001}
  symmetry: {point_group: False,
             time_reversal: False}

System changes: positions, numbers, cell, pbc, initial_charges, initial_magmoms 

Initialize ...

O-setup:
  name: Oxygen
  id: 9b9d51c344dea68c822856295a461509
  Z: 8.0
  valence: 6
  core: 2
  charge: 0.0
  file: /home/modules/software/GPAW-setups/0.9.20000/O.LDA.gz
  compensation charges: gauss, rc=0.21, lmax=2
  cutoffs: 1.17(filt), 0.83(core),
  valence states:
                energy  radius
    2s(2.00)   -23.752   0.688
    2p(4.00)    -9.195   0.598
    *s           3.459   0.688
    *p          18.016   0.598
    *d           0.000   0.619

  Using partial waves for O as LCAO basis

Cr-setup:
  name: Chromium
  id: 444e8044bc0f91048286c984738d87f5
  Z: 24.0
  valence: 6
  core: 18
  charge: 0.0
  file: /home/modules/software/GPAW-setups/0.9.20000/Cr.LDA.gz
  compensation charges: gauss, rc=0.35, lmax=2
  cutoffs: 2.14(filt), 3.04(core),
  valence states:
                energy  radius
    4s(1.00)    -4.191   1.164
    4p(0.00)    -1.079   1.217
    3d(5.00)    -3.128   1.111
    *s          23.021   1.164
    *p          26.132   1.217
    *d          24.083   1.111

  Using partial waves for Cr as LCAO basis

Reference energy: -126274.181857

Spin-polarized calculation.
Magnetic moment: 0.000000

Convergence criteria:
  Maximum total energy change: 0.0005 eV / electron
  Maximum integral of absolute density change: 0.0001 electrons
  Maximum integral of absolute eigenstate change: 4e-08 eV^2
  Maximum change in atomic force: 0.0001 eV / Ang
  Maximum number of iterations: 333

Symmetries present (total): 1

  ( 1  0  0)
  ( 0  1  0)
  ( 0  0  1)

1728 k-points: 12 x 12 x 12 Monkhorst-Pack grid + [1/24,1/24,1/24]
1728 k-points in the irreducible part of the Brillouin zone
       k-points in crystal coordinates                weights
   0:    -0.41666667   -0.41666667   -0.41666667          1/1728
   1:    -0.41666667   -0.41666667   -0.33333333          1/1728
   2:    -0.41666667   -0.41666667   -0.25000000          1/1728
   3:    -0.41666667   -0.41666667   -0.16666667          1/1728
   4:    -0.41666667   -0.41666667   -0.08333333          1/1728
   5:    -0.41666667   -0.41666667   -0.00000000          1/1728
   6:    -0.41666667   -0.41666667    0.08333333          1/1728
   7:    -0.41666667   -0.41666667    0.16666667          1/1728
   8:    -0.41666667   -0.41666667    0.25000000          1/1728
   9:    -0.41666667   -0.41666667    0.33333333          1/1728
          ...
1727:     0.50000000    0.50000000    0.50000000          1/1728

Wave functions: Plane wave expansion
  Cutoff energy: 600.000 eV
  Number of coefficients (min, max): 2896, 2946
  Pulay-stress correction: 0.000000 eV/Ang^3 (de/decut=0.000000)
  Using FFTW library
  ScaLapack parameters: grid=1x1, blocksize=None
  Wavefunction extrapolation:
    Improved wavefunction reuse through dual PAW basis 

Occupation numbers: Fermi-Dirac: width=0.0010 eV
 

Eigensolver
   Davidson(niter=2) 

Densities:
  Coarse grid: 32*32*32 grid
  Fine grid: 64*64*64 grid
  Total Charge: 0.000000 

Density mixing:
  Method: difference
  Backend: pulay
  Linear mixing parameter: 0.05
  Mixing with 5 old densities
  Damping of long wave oscillations: 50 

Hamiltonian:
  XC and Coulomb potentials evaluated on a 64*64*64 grid
  Using the LDA Exchange-Correlation functional
  External potential:
    <gpaw.external.NoExternalPotential object at 0x2b305d795400>
 

Memory estimate:
  Process memory now: 29526.04 MiB
  Calculator: 209.79 MiB
    Density: 16.11 MiB
      Arrays: 8.75 MiB
      Localized functions: 3.86 MiB
      Mixer: 3.50 MiB
    Hamiltonian: 6.59 MiB
      Arrays: 6.50 MiB
      XC: 0.00 MiB
      Poisson: 0.00 MiB
      vbar: 0.09 MiB
    Wavefunctions: 187.08 MiB
      Arrays psit_nG: 154.64 MiB
      Eigensolver: 2.27 MiB
      Projections: 7.87 MiB
      Projectors: 19.12 MiB
      PW-descriptor: 3.18 MiB

Total number of cores used: 40
Parallelization over k-points: 40

Number of atoms: 10
Number of atomic orbitals: 60
Number of bands in calculation: 40
Number of valence electrons: 60
Bands to converge: occupied

... initialized

Initializing position-dependent things.

Density initialized from atomic densities
Creating initial wave functions:
  40 bands from LCAO basis set

                          
                          
                          
                          
            Cr            
                          
                          
            Cr            
           O              
         O      O         
                          
        O      O          
             O            
            Cr            
                          
                          
            Cr            
                          
                          
                          
                          

Positions:
   0 O     -0.760209   -1.389250    1.148641    ( 0.0000,  0.0000,  0.0000)
   1 O     -1.582607   -0.036807   -1.147820    ( 0.0000,  0.0000,  0.0000)
   2 O     -0.823830    1.352257    1.148121    ( 0.0000,  0.0000,  0.0000)
   3 O      0.823830   -1.352257   -1.148121    ( 0.0000,  0.0000,  0.0000)
   4 Cr    -0.000004    0.000260   -4.693226    ( 0.0000,  0.0000,  2.0000)
   5 Cr    -0.000004    0.000111   -2.195940    ( 0.0000,  0.0000, -2.0000)
   6 Cr     0.000004   -0.000260    4.693226    ( 0.0000,  0.0000, -2.0000)
   7 Cr     0.000004   -0.000111    2.195940    ( 0.0000,  0.0000,  2.0000)
   8 O      1.582607    0.036807    1.147820    ( 0.0000,  0.0000,  0.0000)
   9 O      0.760209    1.389250   -1.138641    ( 0.0000,  0.0000,  0.0000)

Unit cell:
           periodic     x           y           z      points  spacing
  1. axis:    yes    2.342815    1.352071    4.592704    32     0.1216
  2. axis:    yes   -2.342815    1.352071    4.592704    32     0.1216
  3. axis:    yes    0.000000   -2.704886    4.592923    32     0.1216

  Lengths:   5.330085   5.330085   5.330230
  Angles:   52.139511  52.139510  52.149782

Effective grid spacing dv^(1/3) = 0.1386

                     log10-error:           total        iterations:
           time      wfs    density  force  energy       poisson  magmom
iter:   1  11:44:54                       -100.567032             -0.0000
iter:   2  11:45:08  -0.70  -1.01          -99.836713             -0.0000
iter:   3  11:45:23  -0.13  -1.05          -97.281134             -0.0000
iter:   4  11:45:37  -1.16  -1.41          -97.358357             +0.0000
iter:   5  11:45:51  -1.15  -1.36          -97.357497             +0.0000
iter:   6  11:46:05  -0.76  -1.51          -96.977468             +0.0000
iter:   7  11:46:19  -1.59  -1.87          -96.869495             +0.0000
iter:   8  11:46:33  -1.77  -2.02          -96.844826             +0.0000
iter:   9  11:46:47  -1.93  -2.36          -96.843767             +0.0000
iter:  10  11:47:01  -2.68  -2.49          -96.837608             +0.0000
iter:  11  11:47:16  -2.74  -2.85          -96.846558             +0.0000
iter:  12  11:47:30  -3.15  -2.61          -96.845003             +0.0000
iter:  13  11:47:44  -2.73  -2.64          -96.838215             -0.0000
iter:  14  11:47:58  -3.41  -3.07          -96.838702             -0.0000
iter:  15  11:48:12  -3.77  -3.15          -96.838935             -0.0000
iter:  16  11:48:26  -3.91  -3.15          -96.839439             -0.0000
iter:  17  11:48:40  -3.99  -3.10          -96.839556             -0.0000
iter:  18  11:48:54  -4.18  -3.06          -96.839677             -0.0000
iter:  19  11:49:08  -4.30  -3.05          -96.839729             +0.0000
iter:  20  11:49:22  -4.26  -3.04          -96.839637             -0.0000
iter:  21  11:49:36  -4.13  -3.08          -96.839518             -0.0000
iter:  22  11:49:50  -4.54  -3.48          -96.839590             +0.0000
iter:  23  11:50:04  -4.26  -3.47          -96.839652             -0.0000
iter:  24  11:50:18  -4.62  -3.48          -96.839756             -0.0000
iter:  25  11:50:33  -4.79  -3.48          -96.839829             -0.0000
iter:  26  11:50:47  -4.96  -3.39          -96.839884             -0.0000
iter:  27  11:51:01  -4.53  -3.34          -96.839657             -0.0000
iter:  28  11:51:15  -4.86  -3.65          -96.839652             -0.0000
iter:  29  11:51:29  -5.10  -3.67          -96.839678             -0.0000
iter:  30  11:51:43  -4.75  -3.63          -96.839706             -0.0000
iter:  31  11:51:57  -5.40  -3.51          -96.839681             -0.0000
iter:  32  11:52:11  -5.62  -3.55          -96.839664             -0.0000
iter:  33  11:52:25  -4.24  -3.63          -96.840147             -0.0000
iter:  34  11:52:39  -4.29  -3.22          -96.839650             -0.0000
iter:  35  11:52:53  -4.16  -3.65          -96.839923             -0.0000
iter:  36  11:53:07  -5.00  -3.43          -96.839677             +0.0000
iter:  37  11:53:21  -5.03  -3.71          -96.839642             -0.0000
iter:  38  11:53:35  -5.46  -3.70          -96.839654             -0.0000
iter:  39  11:53:50  -5.47  -3.77          -96.839659             -0.0000
iter:  40  11:54:04  -5.62  -3.88          -96.839634             -0.0000
iter:  41  11:54:18  -6.09  -4.00          -96.839636             -0.0000
iter:  42  11:54:32  -6.29  -4.01          -96.839638             -0.0000
iter:  43  11:54:46  -5.93  -4.07          -96.839637             +0.0000
iter:  44  11:55:00  -6.57  -4.40          -96.839636             +0.0000
iter:  45  11:55:14  -6.75  -4.56          -96.839636             +0.0000
iter:  46  11:55:28  -6.88  -4.63          -96.839636             +0.0000
iter:  47  11:55:42  -7.06  -4.68          -96.839636             +0.0000
iter:  48  11:55:56  -6.81  -4.68          -96.839637             +0.0000
iter:  49  11:56:10  -7.00  -4.67          -96.839636             +0.0000
iter:  50  11:56:24  -7.18  -4.95          -96.839636             +0.0000
iter:  51  11:56:38  -7.26  -5.01          -96.839636             +0.0000
iter:  52  11:56:52  -7.24  -5.09          -96.839636             +0.0000
iter:  53  11:57:06  -7.38  -5.23          -96.839636             +0.0000
iter:  54  11:57:23  -7.49  -5.33          -96.839637             -0.0000
iter:  55  11:57:39  -7.60  -5.34    -3.99 -96.839637             -0.0000
iter:  56  11:57:56  -7.71  -5.34    -4.04 -96.839637             +0.0000

Converged after 56 iterations.

Dipole moment: (-0.013556, 0.009547, 0.030605) |e|*Ang

Total magnetic moment: (0.000000, 0.000000, 0.000000)
Local magnetic moments:
   0 O  ( 0.000000,  0.000000, -0.000074)
   1 O  ( 0.000000,  0.000000, -0.000160)
   2 O  ( 0.000000,  0.000000,  0.000065)
   3 O  ( 0.000000,  0.000000, -0.000006)
   4 Cr ( 0.000000,  0.000000,  2.208425)
   5 Cr ( 0.000000,  0.000000, -2.210967)
   6 Cr ( 0.000000,  0.000000, -2.208325)
   7 Cr ( 0.000000,  0.000000,  2.211077)
   8 O  ( 0.000000,  0.000000,  0.000227)
   9 O  ( 0.000000,  0.000000, -0.000185)

Energy contributions relative to reference atoms: (reference = -126274.181857)

Kinetic:        +34.268098
Potential:      -53.884689
External:        +0.000000
XC:             -78.954851
Entropy (-ST):   -0.000000
Local:           +1.731805
--------------------------
Free energy:    -96.839637
Extrapolated:   -96.839637

Spin contamination: 4.763588 electrons
Showing only first 2 kpts
                      Up                     Down
 Kpt  Band  Eigenvalues  Occupancy  Eigenvalues  Occupancy
  0    28      8.50673    1.00000      8.50544    1.00000
  0    29      8.76898    1.00000      8.76923    1.00000
  0    30     10.01475    0.00000     10.01641    0.00000
  0    31     10.02248    0.00000     10.02341    0.00000

  1    28      8.53613    1.00000      8.53560    1.00000
  1    29      8.81469    1.00000      8.81422    1.00000
  1    30      9.95259    0.00000      9.95518    0.00000
  1    31     10.01028    0.00000     10.00972    0.00000


Fermi level: 9.31398

Gap: 0.824 eV
Transition (v -> c):
  (s=1, k=785, n=29, [-0.00, -0.00, -0.00]) -> (s=0, k=1099, n=30, [0.17, 0.17, 0.17])
Writing to born-0.01-9z+.gpw (mode='all')

Timing:                              incl.     excl.
-----------------------------------------------------------
Hamiltonian:                         0.271     0.001   0.0% |
 Atomic:                             0.095     0.095   0.0% |
  XC Correction:                     0.000     0.000   0.0% |
 Calculate atomic Hamiltonians:      0.021     0.021   0.0% |
 Communicate:                        0.000     0.000   0.0% |
 Initialize Hamiltonian:             0.000     0.000   0.0% |
 Poisson:                            0.001     0.001   0.0% |
 XC 3D grid:                         0.152     0.152   0.0% |
LCAO initialization:               421.927     0.150   0.0% |
 LCAO eigensolver:                 251.112     0.009   0.0% |
  Calculate projections:             0.017     0.017   0.0% |
  DenseAtomicCorrection:             0.045     0.045   0.0% |
  Distribute overlap matrix:         0.005     0.005   0.0% |
  Orbital Layouts:                   0.127     0.127   0.0% |
  Potential matrix:                250.626   250.626  15.1% |-----|
  Sum over cells:                    0.284     0.284   0.0% |
 LCAO to grid:                     168.431   168.431  10.2% |---|
 Set positions (LCAO WFS):           2.235     0.385   0.0% |
  Basic WFS set positions:           0.000     0.000   0.0% |
  Basis functions set positions:     0.000     0.000   0.0% |
  P tci:                             0.982     0.982   0.1% |
  ST tci:                            0.778     0.778   0.0% |
  mktci:                             0.089     0.089   0.0% |
PWDescriptor:                        0.061     0.061   0.0% |
SCF-cycle:                         805.527    38.543   2.3% ||
 Davidson:                         695.091   151.016   9.1% |---|
  Apply H:                         101.365    97.387   5.9% |-|
   HMM T:                            3.977     3.977   0.2% |
  Subspace diag:                   130.419     0.713   0.0% |
   calc_h_matrix:                  113.005    11.041   0.7% |
    Apply H:                       101.964    97.848   5.9% |-|
     HMM T:                          4.116     4.116   0.2% |
   diagonalize:                      3.076     3.076   0.2% |
   rotate_psi:                      13.625    13.625   0.8% |
  calc. matrices:                  264.313    62.082   3.8% |-|
   Apply H:                        202.231   194.309  11.7% |----|
    HMM T:                           7.922     7.922   0.5% |
  diagonalize:                      22.469    22.469   1.4% ||
  rotate_psi:                       25.510    25.510   1.5% ||
 Density:                           50.005     0.002   0.0% |
  Atomic density matrices:           1.478     1.478   0.1% |
  Mix:                               2.936     2.936   0.2% |
  Multipole moments:                 0.020     0.020   0.0% |
  Pseudo density:                   45.570    45.568   2.8% ||
   Symmetrize density:               0.002     0.002   0.0% |
 Forces:                             7.507     7.507   0.5% |
 Hamiltonian:                       13.668     0.085   0.0% |
  Atomic:                            3.007     3.007   0.2% |
   XC Correction:                    0.000     0.000   0.0% |
  Calculate atomic Hamiltonians:     1.617     1.617   0.1% |
  Communicate:                       0.006     0.006   0.0% |
  Poisson:                           0.059     0.059   0.0% |
  XC 3D grid:                        8.895     8.895   0.5% |
 Orthonormalize:                     0.712     0.012   0.0% |
  calc_s_matrix:                     0.111     0.111   0.0% |
  inverse-cholesky:                  0.017     0.017   0.0% |
  projections:                       0.453     0.453   0.0% |
  rotate_psi_s:                      0.120     0.120   0.0% |
Set symmetry:                        0.000     0.000   0.0% |
Other:                             427.215   427.215  25.8% |---------|
-----------------------------------------------------------
Total:                                      1655.000 100.0%

Memory usage: 28.88 GiB
Date: Tue Jul  5 12:05:02 2022
