
  ___ ___ ___ _ _ _  
 |   |   |_  | | | | 
 | | | | | . | | | | 
 |__ |  _|___|_____|  21.6.1b1
 |___|_|             

User:   madkru@c097.nifl.fysik.dtu.dk
Date:   Mon Jul  4 17:38:47 2022
Arch:   x86_64
Pid:    261120
Python: 3.8.6
gpaw:   /home/niflheim/madkru/new_venv/gpaw/gpaw (1f0dfc9eae)
_gpaw:  /home/niflheim/madkru/new_venv/gpaw/build/lib.linux-x86_64-skylake-3.8/
        _gpaw.cpython-38-x86_64-linux-gnu.so (c1e45bfab3)
ase:    /home/niflheim/madkru/new_venv/ase/ase (version 3.23.0b1-ca38c75a67)
numpy:  /home/modules/software/SciPy-bundle/2020.11-foss-2020b/lib/python3.8/site-packages/numpy (version 1.19.4)
scipy:  /home/modules/software/SciPy-bundle/2020.11-foss-2020b/lib/python3.8/site-packages/scipy (version 1.5.4)
libxc:  4.3.4
units:  Angstrom and eV
cores: 40
OpenMP: False
OMP_NUM_THREADS: 1

Input parameters:
  convergence: {bands: occupied,
                density: 0.0001,
                eigenstates: 4e-08,
                energy: 0.0005,
                forces: 0.0001}
  kpts: {gamma: True,
         size: [12, 12, 12]}
  mode: {ecut: 600.0,
         gammacentered: False,
         name: pw}
  occupations: {fixmagmom: False,
                name: fermi-dirac,
                width: 0.001}
  symmetry: {point_group: False,
             time_reversal: False}

System changes: positions, numbers, cell, pbc, initial_charges, initial_magmoms 

Initialize ...

O-setup:
  name: Oxygen
  id: 9b9d51c344dea68c822856295a461509
  Z: 8.0
  valence: 6
  core: 2
  charge: 0.0
  file: /home/modules/software/GPAW-setups/0.9.20000/O.LDA.gz
  compensation charges: gauss, rc=0.21, lmax=2
  cutoffs: 1.17(filt), 0.83(core),
  valence states:
                energy  radius
    2s(2.00)   -23.752   0.688
    2p(4.00)    -9.195   0.598
    *s           3.459   0.688
    *p          18.016   0.598
    *d           0.000   0.619

  Using partial waves for O as LCAO basis

Cr-setup:
  name: Chromium
  id: 444e8044bc0f91048286c984738d87f5
  Z: 24.0
  valence: 6
  core: 18
  charge: 0.0
  file: /home/modules/software/GPAW-setups/0.9.20000/Cr.LDA.gz
  compensation charges: gauss, rc=0.35, lmax=2
  cutoffs: 2.14(filt), 3.04(core),
  valence states:
                energy  radius
    4s(1.00)    -4.191   1.164
    4p(0.00)    -1.079   1.217
    3d(5.00)    -3.128   1.111
    *s          23.021   1.164
    *p          26.132   1.217
    *d          24.083   1.111

  Using partial waves for Cr as LCAO basis

Reference energy: -126274.181857

Spin-polarized calculation.
Magnetic moment: 0.000000

Convergence criteria:
  Maximum total energy change: 0.0005 eV / electron
  Maximum integral of absolute density change: 0.0001 electrons
  Maximum integral of absolute eigenstate change: 4e-08 eV^2
  Maximum change in atomic force: 0.0001 eV / Ang
  Maximum number of iterations: 333

Symmetries present (total): 1

  ( 1  0  0)
  ( 0  1  0)
  ( 0  0  1)

1728 k-points: 12 x 12 x 12 Monkhorst-Pack grid + [1/24,1/24,1/24]
1728 k-points in the irreducible part of the Brillouin zone
       k-points in crystal coordinates                weights
   0:    -0.41666667   -0.41666667   -0.41666667          1/1728
   1:    -0.41666667   -0.41666667   -0.33333333          1/1728
   2:    -0.41666667   -0.41666667   -0.25000000          1/1728
   3:    -0.41666667   -0.41666667   -0.16666667          1/1728
   4:    -0.41666667   -0.41666667   -0.08333333          1/1728
   5:    -0.41666667   -0.41666667   -0.00000000          1/1728
   6:    -0.41666667   -0.41666667    0.08333333          1/1728
   7:    -0.41666667   -0.41666667    0.16666667          1/1728
   8:    -0.41666667   -0.41666667    0.25000000          1/1728
   9:    -0.41666667   -0.41666667    0.33333333          1/1728
          ...
1727:     0.50000000    0.50000000    0.50000000          1/1728

Wave functions: Plane wave expansion
  Cutoff energy: 600.000 eV
  Number of coefficients (min, max): 2896, 2946
  Pulay-stress correction: 0.000000 eV/Ang^3 (de/decut=0.000000)
  Using FFTW library
  ScaLapack parameters: grid=1x1, blocksize=None
  Wavefunction extrapolation:
    Improved wavefunction reuse through dual PAW basis 

Occupation numbers: Fermi-Dirac: width=0.0010 eV
 

Eigensolver
   Davidson(niter=2) 

Densities:
  Coarse grid: 32*32*32 grid
  Fine grid: 64*64*64 grid
  Total Charge: 0.000000 

Density mixing:
  Method: difference
  Backend: pulay
  Linear mixing parameter: 0.05
  Mixing with 5 old densities
  Damping of long wave oscillations: 50 

Hamiltonian:
  XC and Coulomb potentials evaluated on a 64*64*64 grid
  Using the LDA Exchange-Correlation functional
  External potential:
    <gpaw.external.NoExternalPotential object at 0x2b3030f75c40>
 

Memory estimate:
  Process memory now: 27913.71 MiB
  Calculator: 209.79 MiB
    Density: 16.11 MiB
      Arrays: 8.75 MiB
      Localized functions: 3.86 MiB
      Mixer: 3.50 MiB
    Hamiltonian: 6.59 MiB
      Arrays: 6.50 MiB
      XC: 0.00 MiB
      Poisson: 0.00 MiB
      vbar: 0.09 MiB
    Wavefunctions: 187.08 MiB
      Arrays psit_nG: 154.64 MiB
      Eigensolver: 2.27 MiB
      Projections: 7.87 MiB
      Projectors: 19.12 MiB
      PW-descriptor: 3.18 MiB

Total number of cores used: 40
Parallelization over k-points: 40

Number of atoms: 10
Number of atomic orbitals: 60
Number of bands in calculation: 40
Number of valence electrons: 60
Bands to converge: occupied

... initialized

Initializing position-dependent things.

Density initialized from atomic densities
Creating initial wave functions:
  40 bands from LCAO basis set

                          
                          
                          
                          
            Cr            
                          
                          
            Cr            
           O              
         O      O         
                          
        O      O          
             O            
            Cr            
                          
                          
            Cr            
                          
                          
                          
                          

Positions:
   0 O     -0.760209   -1.389250    1.148641    ( 0.0000,  0.0000,  0.0000)
   1 O     -1.582607   -0.036807   -1.147820    ( 0.0000,  0.0000,  0.0000)
   2 O     -0.823830    1.352257    1.148121    ( 0.0000,  0.0000,  0.0000)
   3 O      0.833830   -1.352257   -1.148121    ( 0.0000,  0.0000,  0.0000)
   4 Cr    -0.000004    0.000260   -4.693226    ( 0.0000,  0.0000,  2.0000)
   5 Cr    -0.000004    0.000111   -2.195940    ( 0.0000,  0.0000, -2.0000)
   6 Cr     0.000004   -0.000260    4.693226    ( 0.0000,  0.0000, -2.0000)
   7 Cr     0.000004   -0.000111    2.195940    ( 0.0000,  0.0000,  2.0000)
   8 O      1.582607    0.036807    1.147820    ( 0.0000,  0.0000,  0.0000)
   9 O      0.760209    1.389250   -1.148641    ( 0.0000,  0.0000,  0.0000)

Unit cell:
           periodic     x           y           z      points  spacing
  1. axis:    yes    2.342815    1.352071    4.592704    32     0.1216
  2. axis:    yes   -2.342815    1.352071    4.592704    32     0.1216
  3. axis:    yes    0.000000   -2.704886    4.592923    32     0.1216

  Lengths:   5.330085   5.330085   5.330230
  Angles:   52.139511  52.139510  52.149782

Effective grid spacing dv^(1/3) = 0.1386

                     log10-error:           total        iterations:
           time      wfs    density  force  energy       poisson  magmom
iter:   1  17:46:22                       -100.568924             -0.0000
iter:   2  17:46:36  -0.70  -1.01          -99.840414             +0.0000
iter:   3  17:46:50  -0.13  -1.05          -97.281874             +0.0000
iter:   4  17:47:04  -1.16  -1.41          -97.358719             +0.0000
iter:   5  17:47:18  -1.15  -1.36          -97.361492             +0.0000
iter:   6  17:47:32  -0.76  -1.51          -96.978018             +0.0000
iter:   7  17:47:46  -1.59  -1.87          -96.870083             +0.0000
iter:   8  17:48:00  -1.76  -2.02          -96.845424             +0.0000
iter:   9  17:48:14  -1.93  -2.34          -96.842997             +0.0000
iter:  10  17:48:29  -2.74  -2.51          -96.839739             +0.0000
iter:  11  17:48:43  -2.83  -2.71          -96.841996             +0.0000
iter:  12  17:48:57  -3.16  -2.74          -96.841281             +0.0000
iter:  13  17:49:11  -3.08  -2.81          -96.838313             +0.0000
iter:  14  17:49:25  -3.49  -3.10          -96.838630             +0.0000
iter:  15  17:49:39  -3.86  -3.13          -96.838911             +0.0000
iter:  16  17:49:53  -3.89  -3.14          -96.839273             +0.0000
iter:  17  17:50:07  -4.05  -3.06          -96.839318             +0.0000
iter:  18  17:50:21  -4.18  -3.07          -96.839431             +0.0000
iter:  19  17:50:35  -4.40  -3.04          -96.839551             +0.0000
iter:  20  17:50:49  -4.12  -3.03          -96.839438             +0.0000
iter:  21  17:51:03  -4.55  -3.21          -96.839482             +0.0000
iter:  22  17:51:17  -4.20  -3.18          -96.839809             +0.0000
iter:  23  17:51:31  -3.84  -3.16          -96.840284             +0.0000
iter:  24  17:51:45  -3.98  -3.19          -96.839599             -0.0000
iter:  25  17:51:59  -4.59  -3.43          -96.839638             +0.0000
iter:  26  17:52:13  -4.90  -3.43          -96.839615             +0.0000
iter:  27  17:52:27  -4.58  -3.46          -96.839559             +0.0000
iter:  28  17:52:41  -5.10  -3.63          -96.839565             +0.0000
iter:  29  17:52:55  -5.40  -3.72          -96.839572             +0.0000
iter:  30  17:53:09  -5.44  -3.74          -96.839567             +0.0000
iter:  31  17:53:23  -5.35  -3.84          -96.839566             +0.0000
iter:  32  17:53:37  -5.58  -4.32          -96.839568             +0.0000
iter:  33  17:53:51  -5.72  -4.33          -96.839569             +0.0000
iter:  34  17:54:05  -5.81  -4.37          -96.839570             +0.0000
iter:  35  17:54:19  -5.99  -4.46          -96.839572             +0.0000
iter:  36  17:54:33  -6.15  -4.52          -96.839572             +0.0000
iter:  37  17:54:47  -6.33  -4.60          -96.839573             +0.0000
iter:  38  17:55:01  -6.42  -4.64          -96.839574             +0.0000
iter:  39  17:55:15  -6.53  -4.79          -96.839574             -0.0000
iter:  40  17:55:29  -6.65  -5.14          -96.839575             +0.0000
iter:  41  17:55:43  -6.71  -5.22          -96.839575             -0.0000
iter:  42  17:55:57  -6.82  -5.33          -96.839575             -0.0000
iter:  43  17:56:11  -6.94  -5.40          -96.839576             -0.0000
iter:  44  17:56:25  -6.98  -5.41          -96.839576             -0.0000
iter:  45  17:56:39  -7.19  -5.24          -96.839576             +0.0000
iter:  46  17:56:53  -7.15  -5.50          -96.839576             -0.0000
iter:  47  17:57:07  -7.36  -5.47          -96.839576             -0.0000
iter:  48  17:57:23  -7.42  -5.49          -96.839576             -0.0000
iter:  49  17:57:40  -7.46  -5.43    -4.68 -96.839576             -0.0000

Converged after 49 iterations.

Dipole moment: (0.040575, 0.025095, 0.080538) |e|*Ang

Total magnetic moment: (0.000000, 0.000000, -0.000000)
Local magnetic moments:
   0 O  ( 0.000000,  0.000000,  0.000028)
   1 O  ( 0.000000,  0.000000, -0.000181)
   2 O  ( 0.000000,  0.000000, -0.000000)
   3 O  ( 0.000000,  0.000000,  0.000000)
   4 Cr ( 0.000000,  0.000000,  2.213806)
   5 Cr ( 0.000000,  0.000000, -2.213806)
   6 Cr ( 0.000000,  0.000000, -2.209889)
   7 Cr ( 0.000000,  0.000000,  2.209889)
   8 O  ( 0.000000,  0.000000, -0.000028)
   9 O  ( 0.000000,  0.000000,  0.000181)

Energy contributions relative to reference atoms: (reference = -126274.181857)

Kinetic:        +34.513521
Potential:      -54.081658
External:        +0.000000
XC:             -79.003308
Entropy (-ST):   -0.000000
Local:           +1.731869
--------------------------
Free energy:    -96.839576
Extrapolated:   -96.839576

Spin contamination: 4.768263 electrons
Showing only first 2 kpts
                      Up                     Down
 Kpt  Band  Eigenvalues  Occupancy  Eigenvalues  Occupancy
  0    28      8.50813    1.00000      8.50812    1.00000
  0    29      8.76995    1.00000      8.76995    1.00000
  0    30     10.01790    0.00000     10.01790    0.00000
  0    31     10.02341    0.00000     10.02341    0.00000

  1    28      8.53657    1.00000      8.53657    1.00000
  1    29      8.81537    1.00000      8.81537    1.00000
  1    30      9.95643    0.00000      9.95643    0.00000
  1    31     10.01100    0.00000     10.01100    0.00000


Fermi level: 9.31532

Gap: 0.826 eV
Transition (v -> c):
  (s=1, k=785, n=29, [-0.00, -0.00, -0.00]) -> (s=0, k=1099, n=30, [0.17, 0.17, 0.17])
Writing to born-0.01-3x+.gpw (mode='all')

Timing:                              incl.     excl.
-----------------------------------------------------------
Hamiltonian:                         0.257     0.001   0.0% |
 Atomic:                             0.078     0.078   0.0% |
  XC Correction:                     0.000     0.000   0.0% |
 Calculate atomic Hamiltonians:      0.021     0.021   0.0% |
 Communicate:                        0.000     0.000   0.0% |
 Initialize Hamiltonian:             0.000     0.000   0.0% |
 Poisson:                            0.001     0.001   0.0% |
 XC 3D grid:                         0.154     0.154   0.0% |
LCAO initialization:               423.054     0.145   0.0% |
 LCAO eigensolver:                 251.337     0.009   0.0% |
  Calculate projections:             0.018     0.018   0.0% |
  DenseAtomicCorrection:             0.046     0.046   0.0% |
  Distribute overlap matrix:         0.005     0.005   0.0% |
  Orbital Layouts:                   0.127     0.127   0.0% |
  Potential matrix:                250.850   250.850   8.7% |--|
  Sum over cells:                    0.284     0.284   0.0% |
 LCAO to grid:                     169.309   169.309   5.9% |-|
 Set positions (LCAO WFS):           2.264     0.380   0.0% |
  Basic WFS set positions:           0.000     0.000   0.0% |
  Basis functions set positions:     0.000     0.000   0.0% |
  P tci:                             1.017     1.017   0.0% |
  ST tci:                            0.777     0.777   0.0% |
  mktci:                             0.090     0.090   0.0% |
PWDescriptor:                        0.062     0.062   0.0% |
SCF-cycle:                         708.653    34.098   1.2% |
 Davidson:                         613.576   132.364   4.6% |-|
  Apply H:                          89.969    86.463   3.0% ||
   HMM T:                            3.506     3.506   0.1% |
  Subspace diag:                   115.065     0.631   0.0% |
   calc_h_matrix:                   99.841     9.666   0.3% |
    Apply H:                        90.176    86.468   3.0% ||
     HMM T:                          3.707     3.707   0.1% |
   diagonalize:                      2.692     2.692   0.1% |
   rotate_psi:                      11.900    11.900   0.4% |
  calc. matrices:                  234.114    53.958   1.9% ||
   Apply H:                        180.156   173.069   6.0% |-|
    HMM T:                           7.087     7.087   0.2% |
  diagonalize:                      19.712    19.712   0.7% |
  rotate_psi:                       22.352    22.352   0.8% |
 Density:                           43.388     0.001   0.0% |
  Atomic density matrices:           1.290     1.290   0.0% |
  Mix:                               2.567     2.567   0.1% |
  Multipole moments:                 0.017     0.017   0.0% |
  Pseudo density:                   39.513    39.511   1.4% ||
   Symmetrize density:               0.002     0.002   0.0% |
 Forces:                             4.964     4.964   0.2% |
 Hamiltonian:                       11.896     0.073   0.0% |
  Atomic:                            2.609     2.609   0.1% |
   XC Correction:                    0.000     0.000   0.0% |
  Calculate atomic Hamiltonians:     1.399     1.399   0.0% |
  Communicate:                       0.007     0.007   0.0% |
  Poisson:                           0.044     0.044   0.0% |
  XC 3D grid:                        7.765     7.765   0.3% |
 Orthonormalize:                     0.730     0.012   0.0% |
  calc_s_matrix:                     0.111     0.111   0.0% |
  inverse-cholesky:                  0.017     0.017   0.0% |
  projections:                       0.470     0.470   0.0% |
  rotate_psi_s:                      0.120     0.120   0.0% |
Set symmetry:                        0.000     0.000   0.0% |
Other:                            1755.581  1755.581  60.8% |-----------------------|
-----------------------------------------------------------
Total:                                      2887.607 100.0%

Memory usage: 27.30 GiB
Date: Mon Jul  4 18:26:54 2022
