
  ___ ___ ___ _ _ _  
 |   |   |_  | | | | 
 | | | | | . | | | | 
 |__ |  _|___|_____|  21.6.1b1
 |___|_|             

User:   madkru@a019.nifl.fysik.dtu.dk
Date:   Mon Jun 27 13:13:29 2022
Arch:   x86_64
Pid:    207123
Python: 3.8.6
gpaw:   /home/niflheim/madkru/new_venv/gpaw/gpaw (1f0dfc9eae)
_gpaw:  /home/niflheim/madkru/new_venv/gpaw/build/lib.linux-x86_64-skylake-3.8/
        _gpaw.cpython-38-x86_64-linux-gnu.so (c1e45bfab3)
ase:    /home/niflheim/madkru/new_venv/ase/ase (version 3.23.0b1-ca38c75a67)
numpy:  /home/modules/software/SciPy-bundle/2020.11-foss-2020b/lib/python3.8/site-packages/numpy (version 1.19.4)
scipy:  /home/modules/software/SciPy-bundle/2020.11-foss-2020b/lib/python3.8/site-packages/scipy (version 1.5.4)
libxc:  4.3.4
units:  Angstrom and eV
cores: 40
OpenMP: False
OMP_NUM_THREADS: 1

Input parameters:
  convergence: {forces: 0.0001}
  kpts: {gamma: True,
         size: (12, 12, 12)}
  mode: {ecut: 600.0,
         gammacentered: False,
         name: pw}
  occupations: {fixmagmom: False,
                name: fermi-dirac,
                width: 0.001}
  symmetry: off

System changes: positions, numbers, cell, pbc, initial_charges, initial_magmoms 

Initialize ...

O-setup:
  name: Oxygen
  id: 9b9d51c344dea68c822856295a461509
  Z: 8.0
  valence: 6
  core: 2
  charge: 0.0
  file: /home/modules/software/GPAW-setups/0.9.20000/O.LDA.gz
  compensation charges: gauss, rc=0.21, lmax=2
  cutoffs: 1.17(filt), 0.83(core),
  valence states:
                energy  radius
    2s(2.00)   -23.752   0.688
    2p(4.00)    -9.195   0.598
    *s           3.459   0.688
    *p          18.016   0.598
    *d           0.000   0.619

  Using partial waves for O as LCAO basis

Cr-setup:
  name: Chromium
  id: 444e8044bc0f91048286c984738d87f5
  Z: 24.0
  valence: 6
  core: 18
  charge: 0.0
  file: /home/modules/software/GPAW-setups/0.9.20000/Cr.LDA.gz
  compensation charges: gauss, rc=0.35, lmax=2
  cutoffs: 2.14(filt), 3.04(core),
  valence states:
                energy  radius
    4s(1.00)    -4.191   1.164
    4p(0.00)    -1.079   1.217
    3d(5.00)    -3.128   1.111
    *s          23.021   1.164
    *p          26.132   1.217
    *d          24.083   1.111

  Using partial waves for Cr as LCAO basis

Reference energy: -126274.181857

Spin-polarized calculation.
Magnetic moment: 0.000000

Convergence criteria:
  Maximum total energy change: 0.0005 eV / electron
  Maximum integral of absolute density change: 0.0001 electrons
  Maximum integral of absolute eigenstate change: 4e-08 eV^2
  Maximum change in atomic force: 0.0001 eV / Ang
  Maximum number of iterations: 333

Symmetries present (total): 1

  ( 1  0  0)
  ( 0  1  0)
  ( 0  0  1)

1728 k-points: 12 x 12 x 12 Monkhorst-Pack grid + [1/24,1/24,1/24]
1728 k-points in the irreducible part of the Brillouin zone
       k-points in crystal coordinates                weights
   0:    -0.41666667   -0.41666667   -0.41666667          1/1728
   1:    -0.41666667   -0.41666667   -0.33333333          1/1728
   2:    -0.41666667   -0.41666667   -0.25000000          1/1728
   3:    -0.41666667   -0.41666667   -0.16666667          1/1728
   4:    -0.41666667   -0.41666667   -0.08333333          1/1728
   5:    -0.41666667   -0.41666667   -0.00000000          1/1728
   6:    -0.41666667   -0.41666667    0.08333333          1/1728
   7:    -0.41666667   -0.41666667    0.16666667          1/1728
   8:    -0.41666667   -0.41666667    0.25000000          1/1728
   9:    -0.41666667   -0.41666667    0.33333333          1/1728
          ...
1727:     0.50000000    0.50000000    0.50000000          1/1728

Wave functions: Plane wave expansion
  Cutoff energy: 600.000 eV
  Number of coefficients (min, max): 2865, 2922
  Pulay-stress correction: 0.000000 eV/Ang^3 (de/decut=0.000000)
  Using FFTW library
  ScaLapack parameters: grid=1x1, blocksize=None
  Wavefunction extrapolation:
    Improved wavefunction reuse through dual PAW basis 

Occupation numbers: Fermi-Dirac: width=0.0010 eV
 

Eigensolver
   Davidson(niter=2) 

Densities:
  Coarse grid: 32*32*32 grid
  Fine grid: 64*64*64 grid
  Total Charge: 0.000000 

Density mixing:
  Method: difference
  Backend: pulay
  Linear mixing parameter: 0.05
  Mixing with 5 old densities
  Damping of long wave oscillations: 50 

Hamiltonian:
  XC and Coulomb potentials evaluated on a 64*64*64 grid
  Using the LDA Exchange-Correlation functional
  External potential:
    <gpaw.external.NoExternalPotential object at 0x2b8b47b51910>
 

Memory estimate:
  Process memory now: 168.85 MiB
  Calculator: 208.24 MiB
    Density: 16.07 MiB
      Arrays: 8.75 MiB
      Localized functions: 3.82 MiB
      Mixer: 3.50 MiB
    Hamiltonian: 6.59 MiB
      Arrays: 6.50 MiB
      XC: 0.00 MiB
      Poisson: 0.00 MiB
      vbar: 0.09 MiB
    Wavefunctions: 185.57 MiB
      Arrays psit_nG: 153.38 MiB
      Eigensolver: 2.25 MiB
      Projections: 7.87 MiB
      Projectors: 18.90 MiB
      PW-descriptor: 3.17 MiB

Total number of cores used: 40
Parallelization over k-points: 40

Number of atoms: 10
Number of atomic orbitals: 60
Number of bands in calculation: 40
Number of valence electrons: 60
Bands to converge: occupied

... initialized

Initializing position-dependent things.

Density initialized from atomic densities
Creating initial wave functions:
  40 bands from LCAO basis set

                          
                          
                          
                          
            Cr            
                          
                          
            Cr            
           O              
         O      O         
                          
        O      O          
             O            
            Cr            
                          
                          
            Cr            
                          
                          
                          
                          

Positions:
   0 O     -0.757789   -1.375852    8.048823    ( 0.0000,  0.0000,  0.0000)
   1 O     -1.570418   -0.031661    5.749178    ( 0.0000,  0.0000,  0.0000)
   2 O     -0.812628    1.344191    8.048823    ( 0.0000,  0.0000,  0.0000)
   3 O      0.812628   -1.344191    5.749178    ( 0.0000,  0.0000,  0.0000)
   4 Cr     0.000000   -0.000000    2.204841    ( 0.0000,  0.0000,  2.0000)
   5 Cr     0.000000   -0.000000    4.694125    ( 0.0000,  0.0000, -2.0000)
   6 Cr     0.000000   -0.000000   11.593160    ( 0.0000,  0.0000, -2.0000)
   7 Cr     0.000000   -0.000000    9.103876    ( 0.0000,  0.0000,  2.0000)
   8 O      1.570418    0.031661    8.048823    ( 0.0000,  0.0000,  0.0000)
   9 O      0.757789    1.375852    5.749178    ( 0.0000,  0.0000,  0.0000)

Unit cell:
           periodic     x           y           z      points  spacing
  1. axis:    yes    2.328222    1.344200    4.599334    32     0.1210
  2. axis:    yes   -2.328222    1.344200    4.599334    32     0.1210
  3. axis:    yes   -0.000000   -2.688399    4.599334    32     0.1210

  Lengths:   5.327416   5.327416   5.327416
  Angles:   51.828627  51.828627  51.828627

Effective grid spacing dv^(1/3) = 0.1381

                     log10-error:           total        iterations:
           time      wfs    density  force  energy       poisson  magmom
iter:   1  13:20:15                       -100.618111             +0.0000
iter:   2  13:20:27  -0.70  -1.01          -99.837635             -0.0000
iter:   3  13:20:38  -0.13  -1.06          -97.232751             +0.0000
iter:   4  13:20:49  -1.16  -1.41          -97.308925             +0.0000
iter:   5  13:21:00  -1.18  -1.37          -97.266915             +0.0000
iter:   6  13:21:11  -0.78  -1.52          -96.925292             +0.0000
iter:   7  13:21:23  -1.56  -1.88          -96.807513             +0.0000
iter:   8  13:21:34  -1.93  -2.08          -96.790497             -0.0000
iter:   9  13:21:45  -2.07  -2.57          -96.795673             +0.0000
iter:  10  13:21:56  -2.59  -2.50          -96.800234             +0.0000
iter:  11  13:22:07  -2.96  -2.53          -96.791186             +0.0000
iter:  12  13:22:18  -3.15  -3.01          -96.791211             +0.0000
iter:  13  13:22:29  -3.59  -3.38          -96.791658             -0.0000
iter:  14  13:22:40  -3.76  -3.37          -96.792297             -0.0000
iter:  15  13:22:51  -3.91  -3.20          -96.792208             +0.0000
iter:  16  13:23:02  -4.00  -3.33          -96.792407             +0.0000
iter:  17  13:23:14  -4.18  -3.28          -96.792728             +0.0000
iter:  18  13:23:25  -4.32  -3.18          -96.792554             +0.0000
iter:  19  13:23:36  -4.30  -3.28          -96.792678             +0.0000
iter:  20  13:23:47  -4.39  -3.22          -96.792521             +0.0000
iter:  21  13:23:58  -4.62  -3.36          -96.792683             +0.0000
iter:  22  13:24:09  -4.89  -3.31          -96.792703             +0.0000
iter:  23  13:24:20  -4.81  -3.31          -96.792764             +0.0000
iter:  24  13:24:31  -4.33  -3.31          -96.792667             +0.0000
iter:  25  13:24:42  -4.72  -3.57          -96.792655             +0.0000
iter:  26  13:24:53  -4.27  -3.54          -96.792893             +0.0000
iter:  27  13:25:04  -4.36  -3.37          -96.792646             +0.0000
iter:  28  13:25:15  -5.13  -3.80          -96.792644             +0.0000
iter:  29  13:25:26  -5.29  -3.84          -96.792648             +0.0000
iter:  30  13:25:38  -5.46  -3.85          -96.792653             +0.0000
iter:  31  13:25:49  -4.89  -3.83          -96.792701             +0.0000
iter:  32  13:26:00  -5.09  -3.74          -96.792652             +0.0000
iter:  33  13:26:11  -5.83  -4.03          -96.792653             +0.0000
iter:  34  13:26:22  -5.41  -4.12          -96.792669             +0.0000
iter:  35  13:26:33  -5.78  -3.98          -96.792654             +0.0000
iter:  36  13:26:44  -6.10  -4.43          -96.792654             +0.0000
iter:  37  13:26:55  -6.24  -4.61          -96.792654             -0.0000
iter:  38  13:27:06  -6.25  -4.71          -96.792655             +0.0000
iter:  39  13:27:17  -6.40  -4.70          -96.792655             +0.0000
iter:  40  13:27:28  -6.55  -4.84          -96.792656             +0.0000
iter:  41  13:27:39  -6.73  -4.86          -96.792656             -0.0000
iter:  42  13:27:50  -6.88  -4.90          -96.792656             -0.0000
iter:  43  13:28:01  -6.94  -4.96          -96.792656             +0.0000
iter:  44  13:28:13  -7.04  -5.13          -96.792657             -0.0000
iter:  45  13:28:24  -7.22  -5.33          -96.792657             +0.0000
iter:  46  13:28:35  -7.32  -5.78          -96.792657             -0.0000
iter:  47  13:28:48  -7.43  -5.75          -96.792657             -0.0000
iter:  48  13:29:01  -7.49  -5.75    -4.82 -96.792657             -0.0000

Converged after 48 iterations.

Dipole moment: (0.000000, -0.000000, -0.000000) |e|*Ang

Total magnetic moment: (0.000000, 0.000000, -0.000000)
Local magnetic moments:
   0 O  ( 0.000000,  0.000000, -0.000124)
   1 O  ( 0.000000,  0.000000, -0.000123)
   2 O  ( 0.000000,  0.000000, -0.000001)
   3 O  ( 0.000000,  0.000000,  0.000001)
   4 Cr ( 0.000000,  0.000000,  2.164647)
   5 Cr ( 0.000000,  0.000000, -2.164656)
   6 Cr ( 0.000000,  0.000000, -2.164647)
   7 Cr ( 0.000000,  0.000000,  2.164656)
   8 O  ( 0.000000,  0.000000,  0.000123)
   9 O  ( 0.000000,  0.000000,  0.000124)

Energy contributions relative to reference atoms: (reference = -126274.181857)

Kinetic:        +38.927249
Potential:      -57.645099
External:        +0.000000
XC:             -79.832783
Entropy (-ST):   -0.000000
Local:           +1.757976
--------------------------
Free energy:    -96.792657
Extrapolated:   -96.792657

Spin contamination: 4.661328 electrons
Showing only first 2 kpts
                      Up                     Down
 Kpt  Band  Eigenvalues  Occupancy  Eigenvalues  Occupancy
  0    28      8.66479    1.00000      8.66479    1.00000
  0    29      8.95126    1.00000      8.95126    1.00000
  0    30     10.16417    0.00000     10.16417    0.00000
  0    31     10.16441    0.00000     10.16441    0.00000

  1    28      8.69571    1.00000      8.69571    1.00000
  1    29      8.99567    1.00000      8.99567    1.00000
  1    30     10.09556    0.00000     10.09556    0.00000
  1    31     10.15542    0.00000     10.15542    0.00000


Fermi level: 9.49140

Gap: 0.748 eV
Transition (v -> c):
  (s=0, k=785, n=29, [-0.00, -0.00, -0.00]) -> (s=1, k=471, n=30, [-0.17, -0.17, -0.17])
Stress tensor:
    -0.016493    -0.000000    -0.000000
    -0.000000    -0.016473    -0.000019
    -0.000000    -0.000019    -0.015796

Forces in eV/Ang:
  0 O    -0.01174    0.01513    0.00228
  1 O     0.01176    0.01512    0.00187
  2 O     0.01261   -0.00001    0.00020
  3 O    -0.01261    0.00001   -0.00020
  4 Cr   -0.00053   -0.00133   -0.00502
  5 Cr   -0.00053    0.00133    0.00564
  6 Cr    0.00053    0.00133    0.00502
  7 Cr    0.00053   -0.00133   -0.00564
  8 O    -0.01176   -0.01512   -0.00187
  9 O     0.01174   -0.01513   -0.00228

System changes: cell, positions 

Initialize ...

O-setup:
  name: Oxygen
  id: 9b9d51c344dea68c822856295a461509
  Z: 8.0
  valence: 6
  core: 2
  charge: 0.0
  file: /home/modules/software/GPAW-setups/0.9.20000/O.LDA.gz
  compensation charges: gauss, rc=0.21, lmax=2
  cutoffs: 1.17(filt), 0.83(core),
  valence states:
                energy  radius
    2s(2.00)   -23.752   0.688
    2p(4.00)    -9.195   0.598
    *s           3.459   0.688
    *p          18.016   0.598
    *d           0.000   0.619

  Using partial waves for O as LCAO basis

Cr-setup:
  name: Chromium
  id: 444e8044bc0f91048286c984738d87f5
  Z: 24.0
  valence: 6
  core: 18
  charge: 0.0
  file: /home/modules/software/GPAW-setups/0.9.20000/Cr.LDA.gz
  compensation charges: gauss, rc=0.35, lmax=2
  cutoffs: 2.14(filt), 3.04(core),
  valence states:
                energy  radius
    4s(1.00)    -4.191   1.164
    4p(0.00)    -1.079   1.217
    3d(5.00)    -3.128   1.111
    *s          23.021   1.164
    *p          26.132   1.217
    *d          24.083   1.111

  Using partial waves for Cr as LCAO basis

Reference energy: -126274.181857

Spin-polarized calculation.
Magnetic moment: 0.000000

Convergence criteria:
  Maximum total energy change: 0.0005 eV / electron
  Maximum integral of absolute density change: 0.0001 electrons
  Maximum integral of absolute eigenstate change: 4e-08 eV^2
  Maximum change in atomic force: 0.0001 eV / Ang
  Maximum number of iterations: 333

Symmetries present (total): 1

  ( 1  0  0)
  ( 0  1  0)
  ( 0  0  1)

1728 k-points: 12 x 12 x 12 Monkhorst-Pack grid + [1/24,1/24,1/24]
1728 k-points in the irreducible part of the Brillouin zone
       k-points in crystal coordinates                weights
   0:    -0.41666667   -0.41666667   -0.41666667          1/1728
   1:    -0.41666667   -0.41666667   -0.33333333          1/1728
   2:    -0.41666667   -0.41666667   -0.25000000          1/1728
   3:    -0.41666667   -0.41666667   -0.16666667          1/1728
   4:    -0.41666667   -0.41666667   -0.08333333          1/1728
   5:    -0.41666667   -0.41666667   -0.00000000          1/1728
   6:    -0.41666667   -0.41666667    0.08333333          1/1728
   7:    -0.41666667   -0.41666667    0.16666667          1/1728
   8:    -0.41666667   -0.41666667    0.25000000          1/1728
   9:    -0.41666667   -0.41666667    0.33333333          1/1728
          ...
1727:     0.50000000    0.50000000    0.50000000          1/1728

Wave functions: Plane wave expansion
  Cutoff energy: 600.000 eV
  Number of coefficients (min, max): 2865, 2922
  Pulay-stress correction: 0.000000 eV/Ang^3 (de/decut=0.000000)
  Using FFTW library
  ScaLapack parameters: grid=1x1, blocksize=None
  Wavefunction extrapolation:
    Improved wavefunction reuse through dual PAW basis 

Occupation numbers: Fermi-Dirac: width=0.0010 eV
 

Eigensolver
   Davidson(niter=2) 

Densities:
  Coarse grid: 32*32*32 grid
  Fine grid: 64*64*64 grid
  Total Charge: 0.000000 

Density mixing:
  Method: difference
  Backend: pulay
  Linear mixing parameter: 0.05
  Mixing with 5 old densities
  Damping of long wave oscillations: 50 

Hamiltonian:
  XC and Coulomb potentials evaluated on a 64*64*64 grid
  Using the LDA Exchange-Correlation functional
  External potential:
    <gpaw.external.NoExternalPotential object at 0x2b8b491415e0>
 

Memory estimate:
  Process memory now: 725.06 MiB
  Calculator: 208.25 MiB
    Density: 16.08 MiB
      Arrays: 8.75 MiB
      Localized functions: 3.83 MiB
      Mixer: 3.50 MiB
    Hamiltonian: 6.59 MiB
      Arrays: 6.50 MiB
      XC: 0.00 MiB
      Poisson: 0.00 MiB
      vbar: 0.09 MiB
    Wavefunctions: 185.59 MiB
      Arrays psit_nG: 153.38 MiB
      Eigensolver: 2.25 MiB
      Projections: 7.87 MiB
      Projectors: 18.92 MiB
      PW-descriptor: 3.17 MiB

Total number of cores used: 40
Parallelization over k-points: 40

Number of atoms: 10
Number of atomic orbitals: 60
Number of bands in calculation: 40
Number of valence electrons: 60
Bands to converge: occupied

... initialized

Initializing position-dependent things.

Density initialized from atomic densities
Creating initial wave functions:
  40 bands from LCAO basis set

                          
                          
                          
                          
            Cr            
                          
                          
            Cr            
           O              
         O      O         
                          
        O      O          
             O            
            Cr            
                          
                          
            Cr            
                          
                          
                          
                          

Positions:
   0 O     -0.758111   -1.375914    8.050424    ( 0.0000,  0.0000,  0.0000)
   1 O     -1.570569   -0.031450    5.750325    ( 0.0000,  0.0000,  0.0000)
   2 O     -0.812614    1.344466    8.050395    ( 0.0000,  0.0000,  0.0000)
   3 O      0.812614   -1.344463    5.750295    ( 0.0000,  0.0000,  0.0000)
   4 Cr    -0.000008   -0.000019    2.205199    ( 0.0000,  0.0000,  2.0000)
   5 Cr    -0.000008    0.000020    4.695121    ( 0.0000,  0.0000, -2.0000)
   6 Cr     0.000008    0.000022   11.595491    ( 0.0000,  0.0000, -2.0000)
   7 Cr     0.000008   -0.000017    9.105570    ( 0.0000,  0.0000,  2.0000)
   8 O      1.570569    0.031453    8.050365    ( 0.0000,  0.0000,  0.0000)
   9 O      0.758111    1.375917    5.750266    ( 0.0000,  0.0000,  0.0000)

Unit cell:
           periodic     x           y           z      points  spacing
  1. axis:    yes    2.328696    1.344474    4.600230    32     0.1210
  2. axis:    yes   -2.328696    1.344474    4.600230    32     0.1210
  3. axis:    yes    0.000000   -2.688944    4.600229    32     0.1210

  Lengths:   5.328466   5.328466   5.328464
  Angles:   51.828978  51.828978  51.828979

Effective grid spacing dv^(1/3) = 0.1382

                     log10-error:           total        iterations:
           time      wfs    density  force  energy       poisson  magmom
iter:   1  13:35:55                       -100.615426             +0.0000
iter:   2  13:36:06  -0.71  -1.01          -99.835846             +0.0000
iter:   3  13:36:17  -0.13  -1.06          -97.234514             +0.0000
iter:   4  13:36:29  -1.16  -1.41          -97.311035             -0.0000
iter:   5  13:36:40  -1.18  -1.37          -97.269502             -0.0000
iter:   6  13:36:51  -0.78  -1.52          -96.927704             -0.0000
iter:   7  13:37:02  -1.57  -1.88          -96.810170             +0.0000
iter:   8  13:37:13  -1.93  -2.08          -96.793013             -0.0000
iter:   9  13:37:24  -2.06  -2.57          -96.798195             -0.0000
iter:  10  13:37:35  -2.59  -2.50          -96.802680             -0.0000
iter:  11  13:37:46  -2.96  -2.53          -96.793669             -0.0000
iter:  12  13:37:57  -3.15  -3.01          -96.793670             -0.0000
iter:  13  13:38:09  -3.59  -3.38          -96.794116             +0.0000
iter:  14  13:38:20  -3.76  -3.37          -96.794750             -0.0000
iter:  15  13:38:31  -3.91  -3.20          -96.794667             +0.0000
iter:  16  13:38:42  -4.00  -3.34          -96.794861             +0.0000
iter:  17  13:38:53  -4.17  -3.28          -96.795195             +0.0000
iter:  18  13:39:04  -4.31  -3.17          -96.795015             +0.0000
iter:  19  13:39:15  -4.30  -3.27          -96.795132             +0.0000
iter:  20  13:39:26  -4.38  -3.22          -96.794985             +0.0000
iter:  21  13:39:37  -4.61  -3.36          -96.795142             +0.0000
iter:  22  13:39:48  -4.88  -3.31          -96.795159             +0.0000
iter:  23  13:39:59  -4.80  -3.32          -96.795219             +0.0000
iter:  24  13:40:10  -4.31  -3.32          -96.795133             +0.0000
iter:  25  13:40:21  -4.67  -3.57          -96.795109             +0.0000
iter:  26  13:40:33  -4.34  -3.58          -96.795354             +0.0000
iter:  27  13:40:44  -4.36  -3.39          -96.795102             +0.0000
iter:  28  13:40:55  -5.17  -4.09          -96.795103             +0.0000
iter:  29  13:41:06  -5.37  -4.14          -96.795109             +0.0000
iter:  30  13:41:17  -5.44  -4.13          -96.795115             +0.0000
iter:  31  13:41:28  -5.63  -4.06          -96.795116             +0.0000
iter:  32  13:41:39  -5.73  -4.11          -96.795118             +0.0000
iter:  33  13:41:50  -5.95  -4.16          -96.795118             +0.0000
iter:  34  13:42:01  -5.58  -4.19          -96.795121             +0.0000
iter:  35  13:42:12  -6.04  -4.11          -96.795116             +0.0000
iter:  36  13:42:23  -6.21  -4.38          -96.795116             +0.0000
iter:  37  13:42:34  -6.30  -4.45          -96.795116             +0.0000
iter:  38  13:42:45  -6.43  -4.52          -96.795117             +0.0000
iter:  39  13:42:56  -6.47  -4.53          -96.795117             +0.0000
iter:  40  13:43:08  -6.55  -4.58          -96.795117             +0.0000
iter:  41  13:43:19  -6.64  -4.71          -96.795117             +0.0000
iter:  42  13:43:30  -6.75  -4.72          -96.795117             +0.0000
iter:  43  13:43:41  -6.86  -4.86          -96.795118             +0.0000
iter:  44  13:43:52  -6.89  -4.96          -96.795118             +0.0000
iter:  45  13:44:03  -7.08  -5.00          -96.795118             +0.0000
iter:  46  13:44:14  -7.13  -4.98          -96.795118             +0.0000
iter:  47  13:44:25  -7.28  -5.03          -96.795118             +0.0000
iter:  48  13:44:36  -7.27  -5.03          -96.795118             +0.0000
iter:  49  13:44:47  -7.36  -5.25          -96.795118             +0.0000
iter:  50  13:45:00  -7.52  -5.35          -96.795118             +0.0000
iter:  51  13:45:14  -7.65  -5.36    -3.99 -96.795118             +0.0000
iter:  52  13:45:27  -7.71  -5.39    -3.66 -96.795118             +0.0000
iter:  53  13:45:40  -7.87  -5.66    -3.86 -96.795118             +0.0000
iter:  54  13:45:53  -7.97  -5.70    -4.37 -96.795118             +0.0000

Converged after 54 iterations.

Dipole moment: (0.000000, -0.000000, -0.000000) |e|*Ang

Total magnetic moment: (0.000000, 0.000000, 0.000000)
Local magnetic moments:
   0 O  ( 0.000000,  0.000000, -0.000132)
   1 O  ( 0.000000,  0.000000, -0.000132)
   2 O  ( 0.000000,  0.000000, -0.000000)
   3 O  ( 0.000000,  0.000000,  0.000000)
   4 Cr ( 0.000000,  0.000000,  2.165861)
   5 Cr ( 0.000000,  0.000000, -2.165868)
   6 Cr ( 0.000000,  0.000000, -2.165861)
   7 Cr ( 0.000000,  0.000000,  2.165868)
   8 O  ( 0.000000,  0.000000,  0.000132)
   9 O  ( 0.000000,  0.000000,  0.000132)

Energy contributions relative to reference atoms: (reference = -126274.181857)

Kinetic:        +38.509748
Potential:      -57.303723
External:        +0.000000
XC:             -79.756646
Entropy (-ST):   -0.000000
Local:           +1.755503
--------------------------
Free energy:    -96.795118
Extrapolated:   -96.795118

Spin contamination: 4.664140 electrons
Showing only first 2 kpts
                      Up                     Down
 Kpt  Band  Eigenvalues  Occupancy  Eigenvalues  Occupancy
  0    28      8.65474    1.00000      8.65474    1.00000
  0    29      8.94091    1.00000      8.94091    1.00000
  0    30     10.15470    0.00000     10.15470    0.00000
  0    31     10.15495    0.00000     10.15495    0.00000

  1    28      8.68577    1.00000      8.68577    1.00000
  1    29      8.98538    1.00000      8.98538    1.00000
  1    30     10.08623    0.00000     10.08623    0.00000
  1    31     10.14604    0.00000     10.14604    0.00000


Fermi level: 9.64289

Gap: 0.750 eV
Transition (v -> c):
  (s=0, k=785, n=29, [-0.00, -0.00, -0.00]) -> (s=0, k=1099, n=30, [0.17, 0.17, 0.17])
Stress tensor:
    -0.015283    -0.000000    -0.000000
    -0.000000    -0.015202    -0.000020
    -0.000000    -0.000020    -0.014335

Forces in eV/Ang:
  0 O    -0.00609    0.00591    0.00201
  1 O     0.00601    0.00595    0.00175
  2 O     0.00329    0.00005    0.00013
  3 O    -0.00329   -0.00005   -0.00013
  4 Cr   -0.00042   -0.00079   -0.00218
  5 Cr   -0.00042    0.00079    0.00259
  6 Cr    0.00042    0.00079    0.00218
  7 Cr    0.00042   -0.00079   -0.00259
  8 O    -0.00601   -0.00595   -0.00175
  9 O     0.00609   -0.00591   -0.00201

System changes: cell, positions 

Initialize ...

O-setup:
  name: Oxygen
  id: 9b9d51c344dea68c822856295a461509
  Z: 8.0
  valence: 6
  core: 2
  charge: 0.0
  file: /home/modules/software/GPAW-setups/0.9.20000/O.LDA.gz
  compensation charges: gauss, rc=0.21, lmax=2
  cutoffs: 1.17(filt), 0.83(core),
  valence states:
                energy  radius
    2s(2.00)   -23.752   0.688
    2p(4.00)    -9.195   0.598
    *s           3.459   0.688
    *p          18.016   0.598
    *d           0.000   0.619

  Using partial waves for O as LCAO basis

Cr-setup:
  name: Chromium
  id: 444e8044bc0f91048286c984738d87f5
  Z: 24.0
  valence: 6
  core: 18
  charge: 0.0
  file: /home/modules/software/GPAW-setups/0.9.20000/Cr.LDA.gz
  compensation charges: gauss, rc=0.35, lmax=2
  cutoffs: 2.14(filt), 3.04(core),
  valence states:
                energy  radius
    4s(1.00)    -4.191   1.164
    4p(0.00)    -1.079   1.217
    3d(5.00)    -3.128   1.111
    *s          23.021   1.164
    *p          26.132   1.217
    *d          24.083   1.111

  Using partial waves for Cr as LCAO basis

Reference energy: -126274.181857

Spin-polarized calculation.
Magnetic moment: 0.000000

Convergence criteria:
  Maximum total energy change: 0.0005 eV / electron
  Maximum integral of absolute density change: 0.0001 electrons
  Maximum integral of absolute eigenstate change: 4e-08 eV^2
  Maximum change in atomic force: 0.0001 eV / Ang
  Maximum number of iterations: 333

Symmetries present (total): 1

  ( 1  0  0)
  ( 0  1  0)
  ( 0  0  1)

1728 k-points: 12 x 12 x 12 Monkhorst-Pack grid + [1/24,1/24,1/24]
1728 k-points in the irreducible part of the Brillouin zone
       k-points in crystal coordinates                weights
   0:    -0.41666667   -0.41666667   -0.41666667          1/1728
   1:    -0.41666667   -0.41666667   -0.33333333          1/1728
   2:    -0.41666667   -0.41666667   -0.25000000          1/1728
   3:    -0.41666667   -0.41666667   -0.16666667          1/1728
   4:    -0.41666667   -0.41666667   -0.08333333          1/1728
   5:    -0.41666667   -0.41666667   -0.00000000          1/1728
   6:    -0.41666667   -0.41666667    0.08333333          1/1728
   7:    -0.41666667   -0.41666667    0.16666667          1/1728
   8:    -0.41666667   -0.41666667    0.25000000          1/1728
   9:    -0.41666667   -0.41666667    0.33333333          1/1728
          ...
1727:     0.50000000    0.50000000    0.50000000          1/1728

Wave functions: Plane wave expansion
  Cutoff energy: 600.000 eV
  Number of coefficients (min, max): 2884, 2928
  Pulay-stress correction: 0.000000 eV/Ang^3 (de/decut=0.000000)
  Using FFTW library
  ScaLapack parameters: grid=1x1, blocksize=None
  Wavefunction extrapolation:
    Improved wavefunction reuse through dual PAW basis 

Occupation numbers: Fermi-Dirac: width=0.0010 eV
 

Eigensolver
   Davidson(niter=2) 

Densities:
  Coarse grid: 32*32*32 grid
  Fine grid: 64*64*64 grid
  Total Charge: 0.000000 

Density mixing:
  Method: difference
  Backend: pulay
  Linear mixing parameter: 0.05
  Mixing with 5 old densities
  Damping of long wave oscillations: 50 

Hamiltonian:
  XC and Coulomb potentials evaluated on a 64*64*64 grid
  Using the LDA Exchange-Correlation functional
  External potential:
    <gpaw.external.NoExternalPotential object at 0x2b8b47b510a0>
 

Memory estimate:
  Process memory now: 775.48 MiB
  Calculator: 208.73 MiB
    Density: 16.10 MiB
      Arrays: 8.75 MiB
      Localized functions: 3.85 MiB
      Mixer: 3.50 MiB
    Hamiltonian: 6.59 MiB
      Arrays: 6.50 MiB
      XC: 0.00 MiB
      Poisson: 0.00 MiB
      vbar: 0.09 MiB
    Wavefunctions: 186.03 MiB
      Arrays psit_nG: 153.69 MiB
      Eigensolver: 2.26 MiB
      Projections: 7.87 MiB
      Projectors: 19.04 MiB
      PW-descriptor: 3.17 MiB

Total number of cores used: 40
Parallelization over k-points: 40

Number of atoms: 10
Number of atomic orbitals: 60
Number of bands in calculation: 40
Number of valence electrons: 60
Bands to converge: occupied

... initialized

Initializing position-dependent things.

Density initialized from atomic densities
Creating initial wave functions:
  40 bands from LCAO basis set

                          
                          
                          
                          
            Cr            
                          
                          
            Cr            
           O              
         O      O         
                          
        O      O          
             O            
            Cr            
                          
                          
            Cr            
                          
                          
                          
                          

Positions:
   0 O     -0.760787   -1.377750    8.066929    ( 0.0000,  0.0000,  0.0000)
   1 O     -1.572886   -0.030425    5.762168    ( 0.0000,  0.0000,  0.0000)
   2 O     -0.813704    1.347357    8.066602    ( 0.0000,  0.0000,  0.0000)
   3 O      0.813704   -1.347315    5.761828    ( 0.0000,  0.0000,  0.0000)
   4 Cr    -0.000077   -0.000147    2.209244    ( 0.0000,  0.0000,  2.0000)
   5 Cr    -0.000077    0.000167    4.705015    ( 0.0000,  0.0000, -2.0000)
   6 Cr     0.000077    0.000188   11.619186    ( 0.0000,  0.0000, -2.0000)
   7 Cr     0.000077   -0.000126    9.123415    ( 0.0000,  0.0000,  2.0000)
   8 O      1.572886    0.030466    8.066262    ( 0.0000,  0.0000,  0.0000)
   9 O      0.760787    1.377792    5.761500    ( 0.0000,  0.0000,  0.0000)

Unit cell:
           periodic     x           y           z      points  spacing
  1. axis:    yes    2.333677    1.347349    4.609481    32     0.1212
  2. axis:    yes   -2.333677    1.347349    4.609481    32     0.1212
  3. axis:    yes    0.000000   -2.694655    4.609468    32     0.1212

  Lengths:   5.339355   5.339355   5.339323
  Angles:   51.834013  51.834013  51.834293

Effective grid spacing dv^(1/3) = 0.1384

                     log10-error:           total        iterations:
           time      wfs    density  force  energy       poisson  magmom
iter:   1  13:52:45                       -100.592125             +0.0000
iter:   2  13:52:57  -0.71  -1.01          -99.822976             -0.0000
iter:   3  13:53:08  -0.13  -1.06          -97.255514             -0.0000
iter:   4  13:53:19  -1.17  -1.41          -97.335385             +0.0000
iter:   5  13:53:30  -1.19  -1.37          -97.300875             -0.0000
iter:   6  13:53:41  -0.78  -1.52          -96.955140             +0.0000
iter:   7  13:53:53  -1.57  -1.88          -96.840255             +0.0000
iter:   8  13:54:04  -1.90  -2.06          -96.821246             +0.0000
iter:   9  13:54:15  -2.02  -2.52          -96.826084             +0.0000
iter:  10  13:54:26  -2.59  -2.49          -96.829338             +0.0000
iter:  11  13:54:37  -2.98  -2.54          -96.821323             +0.0000
iter:  12  13:54:48  -3.14  -2.97          -96.820969             +0.0000
iter:  13  13:54:59  -3.58  -3.36          -96.821401             +0.0000
iter:  14  13:55:11  -3.77  -3.40          -96.821971             +0.0000
iter:  15  13:55:22  -3.91  -3.24          -96.821978             +0.0000
iter:  16  13:55:33  -4.01  -3.34          -96.822134             +0.0000
iter:  17  13:55:44  -4.11  -3.34          -96.822537             +0.0000
iter:  18  13:55:55  -4.33  -3.17          -96.822394             +0.0000
iter:  19  13:56:06  -4.40  -3.24          -96.822425             +0.0000
iter:  20  13:56:17  -4.34  -3.26          -96.822323             +0.0000
iter:  21  13:56:28  -4.52  -3.34          -96.822462             +0.0000
iter:  22  13:56:39  -4.85  -3.32          -96.822467             +0.0000
iter:  23  13:56:51  -4.75  -3.34          -96.822513             +0.0000
iter:  24  13:57:02  -4.87  -3.34          -96.822499             +0.0000
iter:  25  13:57:13  -4.84  -3.38          -96.822437             +0.0000
iter:  26  13:57:24  -4.94  -3.55          -96.822426             +0.0000
iter:  27  13:57:35  -5.16  -3.72          -96.822419             +0.0000
iter:  28  13:57:46  -5.44  -3.98          -96.822427             +0.0000
iter:  29  13:57:57  -5.39  -4.08          -96.822432             +0.0000
iter:  30  13:58:08  -5.55  -4.25          -96.822434             +0.0000
iter:  31  13:58:20  -5.71  -4.34          -96.822436             +0.0000
iter:  32  13:58:31  -5.92  -4.42          -96.822437             +0.0000
iter:  33  13:58:42  -6.07  -4.51          -96.822438             +0.0000
iter:  34  13:58:53  -6.23  -4.57          -96.822440             +0.0000
iter:  35  13:59:04  -6.23  -4.59          -96.822440             +0.0000
iter:  36  13:59:15  -6.16  -4.78          -96.822441             +0.0000
iter:  37  13:59:26  -6.31  -5.10          -96.822441             +0.0000
iter:  38  13:59:37  -6.43  -5.20          -96.822442             +0.0000
iter:  39  13:59:48  -6.56  -5.18          -96.822442             +0.0000
iter:  40  13:59:59  -6.75  -5.31          -96.822443             +0.0000
iter:  41  14:00:11  -6.84  -5.31          -96.822443             +0.0000
iter:  42  14:00:22  -6.95  -5.41          -96.822443             +0.0000
iter:  43  14:00:33  -6.99  -5.41          -96.822443             +0.0000
iter:  44  14:00:44  -7.12  -5.40          -96.822443             +0.0000
iter:  45  14:00:55  -7.23  -5.38          -96.822444             +0.0000
iter:  46  14:01:06  -7.38  -5.39          -96.822444             +0.0000
iter:  47  14:01:19  -7.42  -5.36          -96.822444             +0.0000
iter:  48  14:01:33  -7.51  -5.35    -3.95 -96.822444             +0.0000
iter:  49  14:01:46  -7.58  -5.36    -4.74 -96.822444             +0.0000

Converged after 49 iterations.

Dipole moment: (-0.000000, -0.000000, -0.000000) |e|*Ang

Total magnetic moment: (0.000000, 0.000000, 0.000000)
Local magnetic moments:
   0 O  ( 0.000000,  0.000000, -0.000211)
   1 O  ( 0.000000,  0.000000, -0.000215)
   2 O  ( 0.000000,  0.000000,  0.000002)
   3 O  ( 0.000000,  0.000000, -0.000002)
   4 Cr ( 0.000000,  0.000000,  2.179725)
   5 Cr ( 0.000000,  0.000000, -2.179695)
   6 Cr ( 0.000000,  0.000000, -2.179725)
   7 Cr ( 0.000000,  0.000000,  2.179695)
   8 O  ( 0.000000,  0.000000,  0.000215)
   9 O  ( 0.000000,  0.000000,  0.000211)

Energy contributions relative to reference atoms: (reference = -126274.181857)

Kinetic:        +34.529595
Potential:      -54.073186
External:        +0.000000
XC:             -79.019460
Entropy (-ST):   -0.000000
Local:           +1.740607
--------------------------
Free energy:    -96.822444
Extrapolated:   -96.822444

Spin contamination: 4.696365 electrons
Showing only first 2 kpts
                      Up                     Down
 Kpt  Band  Eigenvalues  Occupancy  Eigenvalues  Occupancy
  0    28      8.55237    1.00000      8.55237    1.00000
  0    29      8.83456    1.00000      8.83456    1.00000
  0    30     10.05791    0.00000     10.05791    0.00000
  0    31     10.05838    0.00000     10.05838    0.00000

  1    28      8.58382    1.00000      8.58382    1.00000
  1    29      8.87917    1.00000      8.87917    1.00000
  1    30      9.99089    0.00000      9.99089    0.00000
  1    31     10.04954    0.00000     10.04954    0.00000


Fermi level: 9.38002

Gap: 0.770 eV
Transition (v -> c):
  (s=1, k=785, n=29, [-0.00, -0.00, -0.00]) -> (s=0, k=1099, n=30, [0.17, 0.17, 0.17])
Stress tensor:
    -0.003658    -0.000000     0.000000
    -0.000000    -0.003092    -0.000006
     0.000000    -0.000006    -0.000146

Forces in eV/Ang:
  0 O     0.03152   -0.05286   -0.00014
  1 O    -0.03199   -0.05258    0.00060
  2 O    -0.05394    0.00027   -0.00037
  3 O     0.05394   -0.00027    0.00037
  4 Cr    0.00070    0.00346    0.00532
  5 Cr    0.00070   -0.00345   -0.00626
  6 Cr   -0.00070   -0.00346   -0.00532
  7 Cr   -0.00070    0.00345    0.00626
  8 O     0.03199    0.05258   -0.00060
  9 O    -0.03152    0.05286    0.00014

System changes: cell, positions 

Initialize ...

O-setup:
  name: Oxygen
  id: 9b9d51c344dea68c822856295a461509
  Z: 8.0
  valence: 6
  core: 2
  charge: 0.0
  file: /home/modules/software/GPAW-setups/0.9.20000/O.LDA.gz
  compensation charges: gauss, rc=0.21, lmax=2
  cutoffs: 1.17(filt), 0.83(core),
  valence states:
                energy  radius
    2s(2.00)   -23.752   0.688
    2p(4.00)    -9.195   0.598
    *s           3.459   0.688
    *p          18.016   0.598
    *d           0.000   0.619

  Using partial waves for O as LCAO basis

Cr-setup:
  name: Chromium
  id: 444e8044bc0f91048286c984738d87f5
  Z: 24.0
  valence: 6
  core: 18
  charge: 0.0
  file: /home/modules/software/GPAW-setups/0.9.20000/Cr.LDA.gz
  compensation charges: gauss, rc=0.35, lmax=2
  cutoffs: 2.14(filt), 3.04(core),
  valence states:
                energy  radius
    4s(1.00)    -4.191   1.164
    4p(0.00)    -1.079   1.217
    3d(5.00)    -3.128   1.111
    *s          23.021   1.164
    *p          26.132   1.217
    *d          24.083   1.111

  Using partial waves for Cr as LCAO basis

Reference energy: -126274.181857

Spin-polarized calculation.
Magnetic moment: 0.000000

Convergence criteria:
  Maximum total energy change: 0.0005 eV / electron
  Maximum integral of absolute density change: 0.0001 electrons
  Maximum integral of absolute eigenstate change: 4e-08 eV^2
  Maximum change in atomic force: 0.0001 eV / Ang
  Maximum number of iterations: 333

Symmetries present (total): 1

  ( 1  0  0)
  ( 0  1  0)
  ( 0  0  1)

1728 k-points: 12 x 12 x 12 Monkhorst-Pack grid + [1/24,1/24,1/24]
1728 k-points in the irreducible part of the Brillouin zone
       k-points in crystal coordinates                weights
   0:    -0.41666667   -0.41666667   -0.41666667          1/1728
   1:    -0.41666667   -0.41666667   -0.33333333          1/1728
   2:    -0.41666667   -0.41666667   -0.25000000          1/1728
   3:    -0.41666667   -0.41666667   -0.16666667          1/1728
   4:    -0.41666667   -0.41666667   -0.08333333          1/1728
   5:    -0.41666667   -0.41666667   -0.00000000          1/1728
   6:    -0.41666667   -0.41666667    0.08333333          1/1728
   7:    -0.41666667   -0.41666667    0.16666667          1/1728
   8:    -0.41666667   -0.41666667    0.25000000          1/1728
   9:    -0.41666667   -0.41666667    0.33333333          1/1728
          ...
1727:     0.50000000    0.50000000    0.50000000          1/1728

Wave functions: Plane wave expansion
  Cutoff energy: 600.000 eV
  Number of coefficients (min, max): 2889, 2928
  Pulay-stress correction: 0.000000 eV/Ang^3 (de/decut=0.000000)
  Using FFTW library
  ScaLapack parameters: grid=1x1, blocksize=None
  Wavefunction extrapolation:
    Improved wavefunction reuse through dual PAW basis 

Occupation numbers: Fermi-Dirac: width=0.0010 eV
 

Eigensolver
   Davidson(niter=2) 

Densities:
  Coarse grid: 32*32*32 grid
  Fine grid: 64*64*64 grid
  Total Charge: 0.000000 

Density mixing:
  Method: difference
  Backend: pulay
  Linear mixing parameter: 0.05
  Mixing with 5 old densities
  Damping of long wave oscillations: 50 

Hamiltonian:
  XC and Coulomb potentials evaluated on a 64*64*64 grid
  Using the LDA Exchange-Correlation functional
  External potential:
    <gpaw.external.NoExternalPotential object at 0x2b8b491415b0>
 

Memory estimate:
  Process memory now: 820.45 MiB
  Calculator: 208.75 MiB
    Density: 16.10 MiB
      Arrays: 8.75 MiB
      Localized functions: 3.85 MiB
      Mixer: 3.50 MiB
    Hamiltonian: 6.59 MiB
      Arrays: 6.50 MiB
      XC: 0.00 MiB
      Poisson: 0.00 MiB
      vbar: 0.09 MiB
    Wavefunctions: 186.06 MiB
      Arrays psit_nG: 153.69 MiB
      Eigensolver: 2.26 MiB
      Projections: 7.87 MiB
      Projectors: 19.06 MiB
      PW-descriptor: 3.17 MiB

Total number of cores used: 40
Parallelization over k-points: 40

Number of atoms: 10
Number of atomic orbitals: 60
Number of bands in calculation: 40
Number of valence electrons: 60
Bands to converge: occupied

... initialized

Initializing position-dependent things.

Density initialized from atomic densities
Creating initial wave functions:
  40 bands from LCAO basis set

                          
                          
                          
                          
            Cr            
                          
                          
            Cr            
           O              
         O      O         
                          
        O      O          
             O            
            Cr            
                          
                          
            Cr            
                          
                          
                          
                          

Positions:
   0 O     -0.760758   -1.378851    8.069387    ( 0.0000,  0.0000,  0.0000)
   1 O     -1.573773   -0.031043    5.763942    ( 0.0000,  0.0000,  0.0000)
   2 O     -0.814692    1.347844    8.069011    ( 0.0000,  0.0000,  0.0000)
   3 O      0.814692   -1.347796    5.763552    ( 0.0000,  0.0000,  0.0000)
   4 Cr    -0.000077   -0.000114    2.209910    ( 0.0000,  0.0000,  2.0000)
   5 Cr    -0.000077    0.000138    4.706412    ( 0.0000,  0.0000, -2.0000)
   6 Cr     0.000077    0.000162   11.622653    ( 0.0000,  0.0000, -2.0000)
   7 Cr     0.000077   -0.000090    9.126152    ( 0.0000,  0.0000,  2.0000)
   8 O      1.573773    0.031091    8.068622    ( 0.0000,  0.0000,  0.0000)
   9 O      0.760758    1.378899    5.763177    ( 0.0000,  0.0000,  0.0000)

Unit cell:
           periodic     x           y           z      points  spacing
  1. axis:    yes    2.334526    1.347829    4.610859    32     0.1213
  2. axis:    yes   -2.334526    1.347829    4.610859    32     0.1213
  3. axis:    yes   -0.000000   -2.695610    4.610845    32     0.1213

  Lengths:   5.341037   5.341037   5.340993
  Angles:   51.836421  51.836421  51.837006

Effective grid spacing dv^(1/3) = 0.1385

                     log10-error:           total        iterations:
           time      wfs    density  force  energy       poisson  magmom
iter:   1  14:08:38                       -100.589387             -0.0000
iter:   2  14:08:49  -0.71  -1.01          -99.822904             -0.0000
iter:   3  14:09:00  -0.13  -1.06          -97.259300             -0.0000
iter:   4  14:09:12  -1.17  -1.41          -97.339547             -0.0000
iter:   5  14:09:23  -1.18  -1.37          -97.307918             -0.0000
iter:   6  14:09:34  -0.78  -1.52          -96.959888             -0.0000
iter:   7  14:09:45  -1.58  -1.88          -96.845619             -0.0000
iter:   8  14:09:56  -1.89  -2.06          -96.826032             -0.0000
iter:   9  14:10:08  -2.01  -2.51          -96.830519             -0.0000
iter:  10  14:10:19  -2.60  -2.49          -96.833317             -0.0000
iter:  11  14:10:30  -2.99  -2.54          -96.825833             -0.0000
iter:  12  14:10:41  -3.14  -2.96          -96.825343             -0.0000
iter:  13  14:10:53  -3.57  -3.35          -96.825773             -0.0000
iter:  14  14:11:04  -3.77  -3.41          -96.826322             -0.0000
iter:  15  14:11:15  -3.91  -3.26          -96.826359             -0.0000
iter:  16  14:11:26  -4.01  -3.34          -96.826510             -0.0000
iter:  17  14:11:38  -4.10  -3.35          -96.826917             -0.0000
iter:  18  14:11:49  -4.34  -3.17          -96.826798             -0.0000
iter:  19  14:12:00  -4.46  -3.24          -96.826805             -0.0000
iter:  20  14:12:11  -4.29  -3.28          -96.826707             -0.0000
iter:  21  14:12:22  -4.47  -3.30          -96.826847             -0.0000
iter:  22  14:12:34  -4.84  -3.32          -96.826847             -0.0000
iter:  23  14:12:45  -4.58  -3.35          -96.826900             -0.0000
iter:  24  14:12:56  -4.77  -3.35          -96.826886             -0.0000
iter:  25  14:13:07  -4.83  -3.40          -96.826797             -0.0000
iter:  26  14:13:18  -4.92  -3.58          -96.826791             -0.0000
iter:  27  14:13:29  -5.17  -3.74          -96.826808             -0.0000
iter:  28  14:13:41  -5.36  -3.75          -96.826810             -0.0000
iter:  29  14:13:52  -5.34  -3.79          -96.826816             -0.0000
iter:  30  14:14:03  -5.56  -4.01          -96.826817             -0.0000
iter:  31  14:14:14  -5.83  -4.03          -96.826819             -0.0000
iter:  32  14:14:25  -5.80  -4.03          -96.826818             -0.0000
iter:  33  14:14:36  -5.90  -4.19          -96.826819             -0.0000
iter:  34  14:14:48  -6.14  -4.27          -96.826820             -0.0000
iter:  35  14:14:59  -6.00  -4.31          -96.826822             -0.0000
iter:  36  14:15:10  -6.29  -4.43          -96.826821             -0.0000
iter:  37  14:15:21  -6.48  -4.53          -96.826822             -0.0000
iter:  38  14:15:32  -6.38  -4.55          -96.826822             -0.0000
iter:  39  14:15:44  -6.57  -4.99          -96.826823             -0.0000
iter:  40  14:15:55  -6.66  -5.14          -96.826823             -0.0000
iter:  41  14:16:06  -6.86  -5.21          -96.826823             -0.0000
iter:  42  14:16:17  -6.90  -5.19          -96.826823             -0.0000
iter:  43  14:16:28  -7.00  -5.26          -96.826824             -0.0000
iter:  44  14:16:39  -7.04  -5.36          -96.826824             -0.0000
iter:  45  14:16:50  -7.18  -5.47          -96.826824             -0.0000
iter:  46  14:17:01  -7.29  -5.54          -96.826824             -0.0000
iter:  47  14:17:13  -7.39  -5.60          -96.826824             -0.0000
iter:  48  14:17:26  -7.43  -5.64          -96.826824             -0.0000
iter:  49  14:17:39  -7.53  -5.79    -4.06 -96.826824             -0.0000

Converged after 49 iterations.

Dipole moment: (-0.000000, -0.000000, -0.000000) |e|*Ang

Total magnetic moment: (0.000000, 0.000000, -0.000000)
Local magnetic moments:
   0 O  ( 0.000000,  0.000000, -0.000216)
   1 O  ( 0.000000,  0.000000, -0.000219)
   2 O  ( 0.000000,  0.000000,  0.000002)
   3 O  ( 0.000000,  0.000000, -0.000002)
   4 Cr ( 0.000000,  0.000000,  2.183072)
   5 Cr ( 0.000000,  0.000000, -2.183062)
   6 Cr ( 0.000000,  0.000000, -2.183072)
   7 Cr ( 0.000000,  0.000000,  2.183062)
   8 O  ( 0.000000,  0.000000,  0.000219)
   9 O  ( 0.000000,  0.000000,  0.000216)

Energy contributions relative to reference atoms: (reference = -126274.181857)

Kinetic:        +34.034845
Potential:      -53.671999
External:        +0.000000
XC:             -78.927772
Entropy (-ST):   -0.000000
Local:           +1.738101
--------------------------
Free energy:    -96.826824
Extrapolated:   -96.826824

Spin contamination: 4.704020 electrons
Showing only first 2 kpts
                      Up                     Down
 Kpt  Band  Eigenvalues  Occupancy  Eigenvalues  Occupancy
  0    28      8.53653    1.00000      8.53653    1.00000
  0    29      8.81759    1.00000      8.81759    1.00000
  0    30     10.04304    0.00000     10.04304    0.00000
  0    31     10.04357    0.00000     10.04357    0.00000

  1    28      8.56789    1.00000      8.56789    1.00000
  1    29      8.86228    1.00000      8.86228    1.00000
  1    30      9.97652    0.00000      9.97652    0.00000
  1    31     10.03453    0.00000     10.03453    0.00000


Fermi level: 9.51190

Gap: 0.774 eV
Transition (v -> c):
  (s=1, k=785, n=29, [-0.00, -0.00, -0.00]) -> (s=0, k=1099, n=30, [0.17, 0.17, 0.17])
Stress tensor:
    -0.002108    -0.000000     0.000000
    -0.000000    -0.001583     0.000022
     0.000000     0.000022     0.001689

Forces in eV/Ang:
  0 O     0.02897   -0.04767   -0.00026
  1 O    -0.02922   -0.04753    0.00029
  2 O    -0.04844    0.00014   -0.00027
  3 O     0.04844   -0.00014    0.00027
  4 Cr    0.00062    0.00308   -0.00477
  5 Cr    0.00062   -0.00308    0.00398
  6 Cr   -0.00062   -0.00308    0.00477
  7 Cr   -0.00062    0.00308   -0.00398
  8 O     0.02922    0.04753   -0.00029
  9 O    -0.02897    0.04767    0.00026

System changes: cell, positions 

Initialize ...

O-setup:
  name: Oxygen
  id: 9b9d51c344dea68c822856295a461509
  Z: 8.0
  valence: 6
  core: 2
  charge: 0.0
  file: /home/modules/software/GPAW-setups/0.9.20000/O.LDA.gz
  compensation charges: gauss, rc=0.21, lmax=2
  cutoffs: 1.17(filt), 0.83(core),
  valence states:
                energy  radius
    2s(2.00)   -23.752   0.688
    2p(4.00)    -9.195   0.598
    *s           3.459   0.688
    *p          18.016   0.598
    *d           0.000   0.619

  Using partial waves for O as LCAO basis

Cr-setup:
  name: Chromium
  id: 444e8044bc0f91048286c984738d87f5
  Z: 24.0
  valence: 6
  core: 18
  charge: 0.0
  file: /home/modules/software/GPAW-setups/0.9.20000/Cr.LDA.gz
  compensation charges: gauss, rc=0.35, lmax=2
  cutoffs: 2.14(filt), 3.04(core),
  valence states:
                energy  radius
    4s(1.00)    -4.191   1.164
    4p(0.00)    -1.079   1.217
    3d(5.00)    -3.128   1.111
    *s          23.021   1.164
    *p          26.132   1.217
    *d          24.083   1.111

  Using partial waves for Cr as LCAO basis

Reference energy: -126274.181857

Spin-polarized calculation.
Magnetic moment: 0.000000

Convergence criteria:
  Maximum total energy change: 0.0005 eV / electron
  Maximum integral of absolute density change: 0.0001 electrons
  Maximum integral of absolute eigenstate change: 4e-08 eV^2
  Maximum change in atomic force: 0.0001 eV / Ang
  Maximum number of iterations: 333

Symmetries present (total): 1

  ( 1  0  0)
  ( 0  1  0)
  ( 0  0  1)

1728 k-points: 12 x 12 x 12 Monkhorst-Pack grid + [1/24,1/24,1/24]
1728 k-points in the irreducible part of the Brillouin zone
       k-points in crystal coordinates                weights
   0:    -0.41666667   -0.41666667   -0.41666667          1/1728
   1:    -0.41666667   -0.41666667   -0.33333333          1/1728
   2:    -0.41666667   -0.41666667   -0.25000000          1/1728
   3:    -0.41666667   -0.41666667   -0.16666667          1/1728
   4:    -0.41666667   -0.41666667   -0.08333333          1/1728
   5:    -0.41666667   -0.41666667   -0.00000000          1/1728
   6:    -0.41666667   -0.41666667    0.08333333          1/1728
   7:    -0.41666667   -0.41666667    0.16666667          1/1728
   8:    -0.41666667   -0.41666667    0.25000000          1/1728
   9:    -0.41666667   -0.41666667    0.33333333          1/1728
          ...
1727:     0.50000000    0.50000000    0.50000000          1/1728

Wave functions: Plane wave expansion
  Cutoff energy: 600.000 eV
  Number of coefficients (min, max): 2891, 2928
  Pulay-stress correction: 0.000000 eV/Ang^3 (de/decut=0.000000)
  Using FFTW library
  ScaLapack parameters: grid=1x1, blocksize=None
  Wavefunction extrapolation:
    Improved wavefunction reuse through dual PAW basis 

Occupation numbers: Fermi-Dirac: width=0.0010 eV
 

Eigensolver
   Davidson(niter=2) 

Densities:
  Coarse grid: 32*32*32 grid
  Fine grid: 64*64*64 grid
  Total Charge: 0.000000 

Density mixing:
  Method: difference
  Backend: pulay
  Linear mixing parameter: 0.05
  Mixing with 5 old densities
  Damping of long wave oscillations: 50 

Hamiltonian:
  XC and Coulomb potentials evaluated on a 64*64*64 grid
  Using the LDA Exchange-Correlation functional
  External potential:
    <gpaw.external.NoExternalPotential object at 0x2b8b52f89040>
 

Memory estimate:
  Process memory now: 854.76 MiB
  Calculator: 208.80 MiB
    Density: 16.11 MiB
      Arrays: 8.75 MiB
      Localized functions: 3.86 MiB
      Mixer: 3.50 MiB
    Hamiltonian: 6.59 MiB
      Arrays: 6.50 MiB
      XC: 0.00 MiB
      Poisson: 0.00 MiB
      vbar: 0.09 MiB
    Wavefunctions: 186.09 MiB
      Arrays psit_nG: 153.69 MiB
      Eigensolver: 2.26 MiB
      Projections: 7.87 MiB
      Projectors: 19.10 MiB
      PW-descriptor: 3.17 MiB

Total number of cores used: 40
Parallelization over k-points: 40

Number of atoms: 10
Number of atomic orbitals: 60
Number of bands in calculation: 40
Number of valence electrons: 60
Bands to converge: occupied

... initialized

Initializing position-dependent things.

Density initialized from atomic densities
Creating initial wave functions:
  40 bands from LCAO basis set

                          
                          
                          
                          
            Cr            
                          
                          
            Cr            
           O              
         O      O         
                          
        O      O          
             O            
            Cr            
                          
                          
            Cr            
                          
                          
                          
                          

Positions:
   0 O     -0.759992   -1.381803    8.072702    ( 0.0000,  0.0000,  0.0000)
   1 O     -1.575948   -0.033217    5.766347    ( 0.0000,  0.0000,  0.0000)
   2 O     -0.817475    1.348622    8.072253    ( 0.0000,  0.0000,  0.0000)
   3 O      0.817475   -1.348575    5.765884    ( 0.0000,  0.0000,  0.0000)
   4 Cr    -0.000060    0.000013    2.210534    ( 0.0000,  0.0000,  2.0000)
   5 Cr    -0.000060    0.000010    4.708551    ( 0.0000,  0.0000, -2.0000)
   6 Cr     0.000060    0.000033   11.627603    ( 0.0000,  0.0000, -2.0000)
   7 Cr     0.000060    0.000037    9.129586    ( 0.0000,  0.0000,  2.0000)
   8 O      1.575948    0.033263    8.071790    ( 0.0000,  0.0000,  0.0000)
   9 O      0.759992    1.381850    5.765435    ( 0.0000,  0.0000,  0.0000)

Unit cell:
           periodic     x           y           z      points  spacing
  1. axis:    yes    2.335918    1.348598    4.612717    32     0.1214
  2. axis:    yes   -2.335918    1.348598    4.612717    32     0.1214
  3. axis:    yes   -0.000000   -2.697149    4.612703    32     0.1213

  Lengths:   5.343443   5.343443   5.343374
  Angles:   51.843599  51.843599  51.845121

Effective grid spacing dv^(1/3) = 0.1386

                     log10-error:           total        iterations:
           time      wfs    density  force  energy       poisson  magmom
iter:   1  14:24:28                       -100.586971             -0.0000
iter:   2  14:24:39  -0.71  -1.01          -99.826314             +0.0000
iter:   3  14:24:50  -0.13  -1.06          -97.266364             -0.0000
iter:   4  14:25:02  -1.17  -1.41          -97.346933             +0.0000
iter:   5  14:25:13  -1.18  -1.37          -97.322710             +0.0000
iter:   6  14:25:25  -0.77  -1.52          -96.968203             +0.0000
iter:   7  14:25:36  -1.58  -1.87          -96.855474             +0.0000
iter:   8  14:25:48  -1.85  -2.05          -96.834458             +0.0000
iter:   9  14:25:59  -1.99  -2.46          -96.837692             +0.0000
iter:  10  14:26:10  -2.62  -2.49          -96.839416             +0.0000
iter:  11  14:26:22  -2.99  -2.56          -96.833403             -0.0000
iter:  12  14:26:33  -3.15  -2.92          -96.832519             -0.0000
iter:  13  14:26:44  -3.54  -3.31          -96.832942             +0.0000
iter:  14  14:26:56  -3.76  -3.43          -96.833437             +0.0000
iter:  15  14:27:07  -3.90  -3.29          -96.833547             +0.0000
iter:  16  14:27:18  -4.00  -3.33          -96.833691             +0.0000
iter:  17  14:27:30  -4.09  -3.35          -96.834110             +0.0000
iter:  18  14:27:41  -4.31  -3.16          -96.834001             +0.0000
iter:  19  14:27:52  -4.40  -3.23          -96.833948             +0.0000
iter:  20  14:28:03  -4.49  -3.26          -96.833881             +0.0000
iter:  21  14:28:15  -4.53  -3.37          -96.834043             +0.0000
iter:  22  14:28:26  -4.73  -3.32          -96.834022             +0.0000
iter:  23  14:28:38  -4.85  -3.36          -96.834006             +0.0000
iter:  24  14:28:49  -4.44  -3.40          -96.834088             +0.0000
iter:  25  14:29:00  -4.85  -3.46          -96.834085             +0.0000
iter:  26  14:29:12  -4.98  -3.46          -96.834036             +0.0000
iter:  27  14:29:23  -5.11  -3.53          -96.834118             +0.0000
iter:  28  14:29:34  -5.33  -3.49          -96.834074             +0.0000
iter:  29  14:29:46  -4.94  -3.52          -96.834199             +0.0000
iter:  30  14:29:57  -4.60  -3.37          -96.833997             +0.0000
iter:  31  14:30:08  -5.48  -3.75          -96.834006             +0.0000
iter:  32  14:30:19  -5.68  -3.74          -96.834011             +0.0000
iter:  33  14:30:31  -5.85  -3.73          -96.834016             +0.0000
iter:  34  14:30:42  -5.44  -3.74          -96.833998             +0.0000
iter:  35  14:30:53  -6.07  -4.22          -96.834000             +0.0000
iter:  36  14:31:05  -6.13  -4.29          -96.834001             +0.0000
iter:  37  14:31:16  -6.15  -4.41          -96.834002             +0.0000
iter:  38  14:31:27  -6.38  -4.65          -96.834002             +0.0000
iter:  39  14:31:39  -6.44  -4.64          -96.834003             +0.0000
iter:  40  14:31:50  -6.59  -4.71          -96.834003             +0.0000
iter:  41  14:32:01  -6.72  -4.86          -96.834003             +0.0000
iter:  42  14:32:12  -6.83  -4.97          -96.834004             +0.0000
iter:  43  14:32:24  -6.89  -5.04          -96.834004             +0.0000
iter:  44  14:32:35  -6.93  -5.11          -96.834004             +0.0000
iter:  45  14:32:46  -7.13  -5.31          -96.834004             +0.0000
iter:  46  14:32:58  -7.16  -5.30          -96.834004             +0.0000
iter:  47  14:33:09  -7.33  -5.33          -96.834004             +0.0000
iter:  48  14:33:20  -7.39  -5.59          -96.834004             +0.0000
iter:  49  14:33:34  -7.53  -5.61          -96.834004             +0.0000
iter:  50  14:33:47  -7.58  -5.69    -4.20 -96.834004             +0.0000

Converged after 50 iterations.

Dipole moment: (0.000000, -0.000000, -0.000000) |e|*Ang

Total magnetic moment: (0.000000, 0.000000, 0.000000)
Local magnetic moments:
   0 O  ( 0.000000,  0.000000, -0.000211)
   1 O  ( 0.000000,  0.000000, -0.000210)
   2 O  ( 0.000000,  0.000000, -0.000000)
   3 O  ( 0.000000,  0.000000,  0.000000)
   4 Cr ( 0.000000,  0.000000,  2.190328)
   5 Cr ( 0.000000,  0.000000, -2.190327)
   6 Cr ( 0.000000,  0.000000, -2.190328)
   7 Cr ( 0.000000,  0.000000,  2.190327)
   8 O  ( 0.000000,  0.000000,  0.000210)
   9 O  ( 0.000000,  0.000000,  0.000211)

Energy contributions relative to reference atoms: (reference = -126274.181857)

Kinetic:        +33.491926
Potential:      -53.232809
External:        +0.000000
XC:             -78.828716
Entropy (-ST):   -0.000000
Local:           +1.735594
--------------------------
Free energy:    -96.834004
Extrapolated:   -96.834004

Spin contamination: 4.720395 electrons
Showing only first 2 kpts
                      Up                     Down
 Kpt  Band  Eigenvalues  Occupancy  Eigenvalues  Occupancy
  0    28      8.51360    1.00000      8.51360    1.00000
  0    29      8.79186    1.00000      8.79186    1.00000
  0    30     10.02132    0.00000     10.02132    0.00000
  0    31     10.02197    0.00000     10.02197    0.00000

  1    28      8.54426    1.00000      8.54426    1.00000
  1    29      8.83725    1.00000      8.83725    1.00000
  1    30      9.95593    0.00000      9.95593    0.00000
  1    31     10.01222    0.00000     10.01222    0.00000


Fermi level: 9.34237

Gap: 0.779 eV
Transition (v -> c):
  (s=0, k=785, n=29, [-0.00, -0.00, -0.00]) -> (s=1, k=471, n=30, [-0.17, -0.17, -0.17])
Stress tensor:
    -0.000282     0.000000    -0.000000
     0.000000     0.000017     0.000096
    -0.000000     0.000096     0.003792

Forces in eV/Ang:
  0 O     0.01317   -0.01991   -0.00022
  1 O    -0.01281   -0.02012   -0.00035
  2 O    -0.02043   -0.00021    0.00006
  3 O     0.02043    0.00021   -0.00006
  4 Cr    0.00019    0.00105   -0.02966
  5 Cr    0.00019   -0.00105    0.02952
  6 Cr   -0.00019   -0.00105    0.02966
  7 Cr   -0.00019    0.00105   -0.02952
  8 O     0.01281    0.02012    0.00035
  9 O    -0.01317    0.01991    0.00022

System changes: cell, positions 

Initialize ...

O-setup:
  name: Oxygen
  id: 9b9d51c344dea68c822856295a461509
  Z: 8.0
  valence: 6
  core: 2
  charge: 0.0
  file: /home/modules/software/GPAW-setups/0.9.20000/O.LDA.gz
  compensation charges: gauss, rc=0.21, lmax=2
  cutoffs: 1.17(filt), 0.83(core),
  valence states:
                energy  radius
    2s(2.00)   -23.752   0.688
    2p(4.00)    -9.195   0.598
    *s           3.459   0.688
    *p          18.016   0.598
    *d           0.000   0.619

  Using partial waves for O as LCAO basis

Cr-setup:
  name: Chromium
  id: 444e8044bc0f91048286c984738d87f5
  Z: 24.0
  valence: 6
  core: 18
  charge: 0.0
  file: /home/modules/software/GPAW-setups/0.9.20000/Cr.LDA.gz
  compensation charges: gauss, rc=0.35, lmax=2
  cutoffs: 2.14(filt), 3.04(core),
  valence states:
                energy  radius
    4s(1.00)    -4.191   1.164
    4p(0.00)    -1.079   1.217
    3d(5.00)    -3.128   1.111
    *s          23.021   1.164
    *p          26.132   1.217
    *d          24.083   1.111

  Using partial waves for Cr as LCAO basis

Reference energy: -126274.181857

Spin-polarized calculation.
Magnetic moment: 0.000000

Convergence criteria:
  Maximum total energy change: 0.0005 eV / electron
  Maximum integral of absolute density change: 0.0001 electrons
  Maximum integral of absolute eigenstate change: 4e-08 eV^2
  Maximum change in atomic force: 0.0001 eV / Ang
  Maximum number of iterations: 333

Symmetries present (total): 1

  ( 1  0  0)
  ( 0  1  0)
  ( 0  0  1)

1728 k-points: 12 x 12 x 12 Monkhorst-Pack grid + [1/24,1/24,1/24]
1728 k-points in the irreducible part of the Brillouin zone
       k-points in crystal coordinates                weights
   0:    -0.41666667   -0.41666667   -0.41666667          1/1728
   1:    -0.41666667   -0.41666667   -0.33333333          1/1728
   2:    -0.41666667   -0.41666667   -0.25000000          1/1728
   3:    -0.41666667   -0.41666667   -0.16666667          1/1728
   4:    -0.41666667   -0.41666667   -0.08333333          1/1728
   5:    -0.41666667   -0.41666667   -0.00000000          1/1728
   6:    -0.41666667   -0.41666667    0.08333333          1/1728
   7:    -0.41666667   -0.41666667    0.16666667          1/1728
   8:    -0.41666667   -0.41666667    0.25000000          1/1728
   9:    -0.41666667   -0.41666667    0.33333333          1/1728
          ...
1727:     0.50000000    0.50000000    0.50000000          1/1728

Wave functions: Plane wave expansion
  Cutoff energy: 600.000 eV
  Number of coefficients (min, max): 2891, 2928
  Pulay-stress correction: 0.000000 eV/Ang^3 (de/decut=0.000000)
  Using FFTW library
  ScaLapack parameters: grid=1x1, blocksize=None
  Wavefunction extrapolation:
    Improved wavefunction reuse through dual PAW basis 

Occupation numbers: Fermi-Dirac: width=0.0010 eV
 

Eigensolver
   Davidson(niter=2) 

Densities:
  Coarse grid: 32*32*32 grid
  Fine grid: 64*64*64 grid
  Total Charge: 0.000000 

Density mixing:
  Method: difference
  Backend: pulay
  Linear mixing parameter: 0.05
  Mixing with 5 old densities
  Damping of long wave oscillations: 50 

Hamiltonian:
  XC and Coulomb potentials evaluated on a 64*64*64 grid
  Using the LDA Exchange-Correlation functional
  External potential:
    <gpaw.external.NoExternalPotential object at 0x2b8b545854c0>
 

Memory estimate:
  Process memory now: 892.09 MiB
  Calculator: 208.80 MiB
    Density: 16.12 MiB
      Arrays: 8.75 MiB
      Localized functions: 3.87 MiB
      Mixer: 3.50 MiB
    Hamiltonian: 6.59 MiB
      Arrays: 6.50 MiB
      XC: 0.00 MiB
      Poisson: 0.00 MiB
      vbar: 0.09 MiB
    Wavefunctions: 186.09 MiB
      Arrays psit_nG: 153.69 MiB
      Eigensolver: 2.26 MiB
      Projections: 7.87 MiB
      Projectors: 19.10 MiB
      PW-descriptor: 3.17 MiB

Total number of cores used: 40
Parallelization over k-points: 40

Number of atoms: 10
Number of atomic orbitals: 60
Number of bands in calculation: 40
Number of valence electrons: 60
Bands to converge: occupied

... initialized

Initializing position-dependent things.

Density initialized from atomic densities
Creating initial wave functions:
  40 bands from LCAO basis set

                          
                          
                          
                          
            Cr            
                          
                          
            Cr            
           O              
         O      O         
                          
        O      O          
             O            
            Cr            
                          
                          
            Cr            
                          
                          
                          
                          

Positions:
   0 O     -0.759333   -1.383247    8.072763    ( 0.0000,  0.0000,  0.0000)
   1 O     -1.576931   -0.034488    5.766398    ( 0.0000,  0.0000,  0.0000)
   2 O     -0.818889    1.348777    8.072300    ( 0.0000,  0.0000,  0.0000)
   3 O      0.818888   -1.348753    5.765927    ( 0.0000,  0.0000,  0.0000)
   4 Cr    -0.000046    0.000086    2.209946    ( 0.0000,  0.0000,  2.0000)
   5 Cr    -0.000046   -0.000073    4.709168    ( 0.0000,  0.0000, -2.0000)
   6 Cr     0.000046   -0.000062   11.628281    ( 0.0000,  0.0000, -2.0000)
   7 Cr     0.000046    0.000097    9.129059    ( 0.0000,  0.0000,  2.0000)
   8 O      1.576931    0.034512    8.071829    ( 0.0000,  0.0000,  0.0000)
   9 O      0.759333    1.383271    5.765464    ( 0.0000,  0.0000,  0.0000)

Unit cell:
           periodic     x           y           z      points  spacing
  1. axis:    yes    2.336243    1.348759    4.612745    32     0.1214
  2. axis:    yes   -2.336243    1.348759    4.612745    32     0.1214
  3. axis:    yes   -0.000000   -2.697493    4.612738    32     0.1214

  Lengths:   5.343650   5.343650   5.343577
  Angles:   51.848616  51.848616  51.850716

Effective grid spacing dv^(1/3) = 0.1386

                     log10-error:           total        iterations:
           time      wfs    density  force  energy       poisson  magmom
iter:   1  14:40:36                       -100.587110             -0.0000
iter:   2  14:40:47  -0.71  -1.01          -99.828895             -0.0000
iter:   3  14:40:58  -0.13  -1.05          -97.267985             -0.0000
iter:   4  14:41:10  -1.16  -1.41          -97.348479             +0.0000
iter:   5  14:41:21  -1.17  -1.37          -97.328178             +0.0000
iter:   6  14:41:32  -0.77  -1.52          -96.969860             +0.0000
iter:   7  14:41:43  -1.58  -1.87          -96.858189             +0.0000
iter:   8  14:41:54  -1.84  -2.04          -96.836353             +0.0000
iter:   9  14:42:05  -1.98  -2.44          -96.838674             +0.0000
iter:  10  14:42:17  -2.63  -2.50          -96.839877             +0.0000
iter:  11  14:42:28  -2.98  -2.57          -96.834725             +0.0000
iter:  12  14:42:39  -3.15  -2.89          -96.833587             -0.0000
iter:  13  14:42:50  -3.51  -3.29          -96.833992             +0.0000
iter:  14  14:43:01  -3.75  -3.44          -96.834457             +0.0000
iter:  15  14:43:12  -3.92  -3.31          -96.834610             -0.0000
iter:  16  14:43:24  -4.00  -3.32          -96.834750             -0.0000
iter:  17  14:43:35  -4.08  -3.34          -96.835170             -0.0000
iter:  18  14:43:46  -4.26  -3.15          -96.835053             -0.0000
iter:  19  14:43:57  -4.33  -3.23          -96.834997             -0.0000
iter:  20  14:44:08  -4.50  -3.25          -96.834945             -0.0000
iter:  21  14:44:19  -4.53  -3.34          -96.835115             -0.0000
iter:  22  14:44:30  -4.71  -3.30          -96.835079             -0.0000
iter:  23  14:44:42  -4.92  -3.37          -96.835074             -0.0000
iter:  24  14:44:53  -4.40  -3.39          -96.835132             -0.0000
iter:  25  14:45:04  -4.65  -3.54          -96.835114             +0.0000
iter:  26  14:45:15  -4.91  -3.57          -96.835111             -0.0000
iter:  27  14:45:26  -5.17  -3.58          -96.835113             +0.0000
iter:  28  14:45:37  -5.27  -3.58          -96.835112             +0.0000
iter:  29  14:45:49  -5.34  -3.58          -96.835125             -0.0000
iter:  30  14:46:00  -5.61  -3.56          -96.835142             -0.0000
iter:  31  14:46:11  -5.10  -3.55          -96.835066             -0.0000
iter:  32  14:46:22  -5.54  -3.70          -96.835060             -0.0000
iter:  33  14:46:33  -5.56  -3.77          -96.835055             -0.0000
iter:  34  14:46:44  -5.86  -3.82          -96.835058             -0.0000
iter:  35  14:46:56  -6.04  -3.79          -96.835057             -0.0000
iter:  36  14:47:07  -5.74  -3.83          -96.835063             -0.0000
iter:  37  14:47:18  -6.15  -4.08          -96.835060             -0.0000
iter:  38  14:47:29  -5.75  -4.17          -96.835058             -0.0000
iter:  39  14:47:40  -6.17  -4.30          -96.835059             -0.0000
iter:  40  14:47:51  -6.34  -4.47          -96.835058             +0.0000
iter:  41  14:48:02  -6.61  -4.54          -96.835059             +0.0000
iter:  42  14:48:14  -6.51  -4.55          -96.835059             +0.0000
iter:  43  14:48:25  -6.54  -4.67          -96.835059             +0.0000
iter:  44  14:48:36  -6.90  -4.92          -96.835059             +0.0000
iter:  45  14:48:47  -7.03  -4.95          -96.835059             +0.0000
iter:  46  14:48:58  -7.13  -5.00          -96.835059             +0.0000
iter:  47  14:49:09  -7.14  -4.93          -96.835059             +0.0000
iter:  48  14:49:20  -7.25  -4.96          -96.835059             +0.0000
iter:  49  14:49:34  -7.45  -4.96          -96.835059             +0.0000
iter:  50  14:49:47  -7.49  -4.94    -3.65 -96.835060             +0.0000
iter:  51  14:50:00  -7.58  -4.94    -4.24 -96.835060             +0.0000

Converged after 51 iterations.

Dipole moment: (0.000000, -0.000000, -0.000000) |e|*Ang

Total magnetic moment: (0.000000, 0.000000, 0.000000)
Local magnetic moments:
   0 O  ( 0.000000,  0.000000, -0.000199)
   1 O  ( 0.000000,  0.000000, -0.000197)
   2 O  ( 0.000000,  0.000000, -0.000001)
   3 O  ( 0.000000,  0.000000,  0.000001)
   4 Cr ( 0.000000,  0.000000,  2.193353)
   5 Cr ( 0.000000,  0.000000, -2.193360)
   6 Cr ( 0.000000,  0.000000, -2.193353)
   7 Cr ( 0.000000,  0.000000,  2.193360)
   8 O  ( 0.000000,  0.000000,  0.000197)
   9 O  ( 0.000000,  0.000000,  0.000199)

Energy contributions relative to reference atoms: (reference = -126274.181857)

Kinetic:        +33.626418
Potential:      -53.341752
External:        +0.000000
XC:             -78.851192
Entropy (-ST):   -0.000000
Local:           +1.731466
--------------------------
Free energy:    -96.835060
Extrapolated:   -96.835060

Spin contamination: 4.727166 electrons
Showing only first 2 kpts
                      Up                     Down
 Kpt  Band  Eigenvalues  Occupancy  Eigenvalues  Occupancy
  0    28      8.51108    1.00000      8.51108    1.00000
  0    29      8.78928    1.00000      8.78928    1.00000
  0    30     10.01891    0.00000     10.01891    0.00000
  0    31     10.01960    0.00000     10.01960    0.00000

  1    28      8.54137    1.00000      8.54137    1.00000
  1    29      8.83453    1.00000      8.83453    1.00000
  1    30      9.95399    0.00000      9.95399    0.00000
  1    31     10.00961    0.00000     10.00961    0.00000


Fermi level: 9.52694

Gap: 0.780 eV
Transition (v -> c):
  (s=0, k=785, n=29, [-0.00, -0.00, -0.00]) -> (s=0, k=471, n=30, [-0.17, -0.17, -0.17])
Stress tensor:
    -0.000435     0.000000    -0.000000
     0.000000    -0.000293     0.000124
    -0.000000     0.000124     0.003665

Forces in eV/Ang:
  0 O     0.00332   -0.00378   -0.00020
  1 O    -0.00284   -0.00406   -0.00051
  2 O    -0.00475   -0.00028    0.00015
  3 O     0.00475    0.00028   -0.00015
  4 Cr   -0.00013   -0.00027   -0.03519
  5 Cr   -0.00013    0.00027    0.03535
  6 Cr    0.00013    0.00027    0.03519
  7 Cr    0.00013   -0.00027   -0.03535
  8 O     0.00284    0.00406    0.00051
  9 O    -0.00332    0.00378    0.00020

System changes: cell, positions 

Initialize ...

O-setup:
  name: Oxygen
  id: 9b9d51c344dea68c822856295a461509
  Z: 8.0
  valence: 6
  core: 2
  charge: 0.0
  file: /home/modules/software/GPAW-setups/0.9.20000/O.LDA.gz
  compensation charges: gauss, rc=0.21, lmax=2
  cutoffs: 1.17(filt), 0.83(core),
  valence states:
                energy  radius
    2s(2.00)   -23.752   0.688
    2p(4.00)    -9.195   0.598
    *s           3.459   0.688
    *p          18.016   0.598
    *d           0.000   0.619

  Using partial waves for O as LCAO basis

Cr-setup:
  name: Chromium
  id: 444e8044bc0f91048286c984738d87f5
  Z: 24.0
  valence: 6
  core: 18
  charge: 0.0
  file: /home/modules/software/GPAW-setups/0.9.20000/Cr.LDA.gz
  compensation charges: gauss, rc=0.35, lmax=2
  cutoffs: 2.14(filt), 3.04(core),
  valence states:
                energy  radius
    4s(1.00)    -4.191   1.164
    4p(0.00)    -1.079   1.217
    3d(5.00)    -3.128   1.111
    *s          23.021   1.164
    *p          26.132   1.217
    *d          24.083   1.111

  Using partial waves for Cr as LCAO basis

Reference energy: -126274.181857

Spin-polarized calculation.
Magnetic moment: 0.000000

Convergence criteria:
  Maximum total energy change: 0.0005 eV / electron
  Maximum integral of absolute density change: 0.0001 electrons
  Maximum integral of absolute eigenstate change: 4e-08 eV^2
  Maximum change in atomic force: 0.0001 eV / Ang
  Maximum number of iterations: 333

Symmetries present (total): 1

  ( 1  0  0)
  ( 0  1  0)
  ( 0  0  1)

1728 k-points: 12 x 12 x 12 Monkhorst-Pack grid + [1/24,1/24,1/24]
1728 k-points in the irreducible part of the Brillouin zone
       k-points in crystal coordinates                weights
   0:    -0.41666667   -0.41666667   -0.41666667          1/1728
   1:    -0.41666667   -0.41666667   -0.33333333          1/1728
   2:    -0.41666667   -0.41666667   -0.25000000          1/1728
   3:    -0.41666667   -0.41666667   -0.16666667          1/1728
   4:    -0.41666667   -0.41666667   -0.08333333          1/1728
   5:    -0.41666667   -0.41666667   -0.00000000          1/1728
   6:    -0.41666667   -0.41666667    0.08333333          1/1728
   7:    -0.41666667   -0.41666667    0.16666667          1/1728
   8:    -0.41666667   -0.41666667    0.25000000          1/1728
   9:    -0.41666667   -0.41666667    0.33333333          1/1728
          ...
1727:     0.50000000    0.50000000    0.50000000          1/1728

Wave functions: Plane wave expansion
  Cutoff energy: 600.000 eV
  Number of coefficients (min, max): 2892, 2928
  Pulay-stress correction: 0.000000 eV/Ang^3 (de/decut=0.000000)
  Using FFTW library
  ScaLapack parameters: grid=1x1, blocksize=None
  Wavefunction extrapolation:
    Improved wavefunction reuse through dual PAW basis 

Occupation numbers: Fermi-Dirac: width=0.0010 eV
 

Eigensolver
   Davidson(niter=2) 

Densities:
  Coarse grid: 32*32*32 grid
  Fine grid: 64*64*64 grid
  Total Charge: 0.000000 

Density mixing:
  Method: difference
  Backend: pulay
  Linear mixing parameter: 0.05
  Mixing with 5 old densities
  Damping of long wave oscillations: 50 

Hamiltonian:
  XC and Coulomb potentials evaluated on a 64*64*64 grid
  Using the LDA Exchange-Correlation functional
  External potential:
    <gpaw.external.NoExternalPotential object at 0x2b8b46708eb0>
 

Memory estimate:
  Process memory now: 937.10 MiB
  Calculator: 208.80 MiB
    Density: 16.12 MiB
      Arrays: 8.75 MiB
      Localized functions: 3.87 MiB
      Mixer: 3.50 MiB
    Hamiltonian: 6.59 MiB
      Arrays: 6.50 MiB
      XC: 0.00 MiB
      Poisson: 0.00 MiB
      vbar: 0.09 MiB
    Wavefunctions: 186.10 MiB
      Arrays psit_nG: 153.69 MiB
      Eigensolver: 2.26 MiB
      Projections: 7.87 MiB
      Projectors: 19.10 MiB
      PW-descriptor: 3.17 MiB

Total number of cores used: 40
Parallelization over k-points: 40

Number of atoms: 10
Number of atomic orbitals: 60
Number of bands in calculation: 40
Number of valence electrons: 60
Bands to converge: occupied

... initialized

Initializing position-dependent things.

Density initialized from atomic densities
Creating initial wave functions:
  40 bands from LCAO basis set

                          
                          
                          
                          
            Cr            
                          
                          
            Cr            
           O              
         O      O         
                          
        O      O          
             O            
            Cr            
                          
                          
            Cr            
                          
                          
                          
                          

Positions:
   0 O     -0.758565   -1.384726    8.071884    ( 0.0000,  0.0000,  0.0000)
   1 O     -1.577914   -0.035856    5.765767    ( 0.0000,  0.0000,  0.0000)
   2 O     -0.820359    1.348847    8.071416    ( 0.0000,  0.0000,  0.0000)
   3 O      0.820359   -1.348878    5.765308    ( 0.0000,  0.0000,  0.0000)
   4 Cr    -0.000034    0.000147    2.208403    ( 0.0000,  0.0000,  2.0000)
   5 Cr    -0.000034   -0.000162    4.709946    ( 0.0000,  0.0000, -2.0000)
   6 Cr     0.000034   -0.000178   11.628321    ( 0.0000,  0.0000, -2.0000)
   7 Cr     0.000034    0.000131    9.126778    ( 0.0000,  0.0000,  2.0000)
   8 O      1.577914    0.035825    8.070957    ( 0.0000,  0.0000,  0.0000)
   9 O      0.758565    1.384695    5.764840    ( 0.0000,  0.0000,  0.0000)

Unit cell:
           periodic     x           y           z      points  spacing
  1. axis:    yes    2.336467    1.348848    4.612238    32     0.1214
  2. axis:    yes   -2.336467    1.348848    4.612238    32     0.1214
  3. axis:    yes   -0.000000   -2.697726    4.612247    32     0.1214

  Lengths:   5.343333   5.343333   5.343272
  Angles:   51.856520  51.856520  51.859353

Effective grid spacing dv^(1/3) = 0.1386

                     log10-error:           total        iterations:
           time      wfs    density  force  energy       poisson  magmom
iter:   1  14:56:49                       -100.587990             -0.0000
iter:   2  14:57:00  -0.70  -1.01          -99.832351             -0.0000
iter:   3  14:57:11  -0.13  -1.05          -97.269389             -0.0000
iter:   4  14:57:23  -1.16  -1.41          -97.349814             +0.0000
iter:   5  14:57:34  -1.17  -1.37          -97.334224             +0.0000
[...]
iter:  45  19:21:32  -7.16  -5.23          -96.840592             +0.0000
iter:  46  19:21:44  -7.21  -5.27          -96.840592             +0.0000
iter:  47  19:21:55  -7.25  -5.29          -96.840592             +0.0000
iter:  48  19:22:06  -7.40  -5.35          -96.840592             +0.0000
iter:  49  19:22:19  -7.57  -5.34          -96.840592             +0.0000
iter:  50  19:22:32  -7.60  -5.42    -3.92 -96.840592             +0.0000
iter:  51  19:22:45  -7.74  -5.41    -3.72 -96.840592             +0.0000
iter:  52  19:22:58  -7.84  -5.40    -3.79 -96.840592             +0.0000
iter:  53  19:23:11  -7.89  -5.39    -3.69 -96.840592             +0.0000
iter:  54  19:23:25  -7.93  -5.25    -3.97 -96.840592             +0.0000
iter:  55  19:23:38  -7.92  -5.21    -3.79 -96.840592             +0.0000
iter:  56  19:23:51  -8.07  -5.29    -3.78 -96.840592             +0.0000
iter:  57  19:24:04  -8.20  -5.31    -4.19 -96.840592             +0.0000

Converged after 57 iterations.

Dipole moment: (-0.000000, 0.000000, -0.000000) |e|*Ang

Total magnetic moment: (0.000000, 0.000000, 0.000000)
Local magnetic moments:
   0 O  ( 0.000000,  0.000000, -0.000157)
   1 O  ( 0.000000,  0.000000, -0.000157)
   2 O  ( 0.000000,  0.000000, -0.000000)
   3 O  ( 0.000000,  0.000000,  0.000000)
   4 Cr ( 0.000000,  0.000000,  2.209801)
   5 Cr ( 0.000000,  0.000000, -2.209801)
   6 Cr ( 0.000000,  0.000000, -2.209801)
   7 Cr ( 0.000000,  0.000000,  2.209801)
   8 O  ( 0.000000,  0.000000,  0.000157)
   9 O  ( 0.000000,  0.000000,  0.000157)

Energy contributions relative to reference atoms: (reference = -126274.181857)

Kinetic:        +34.226255
Potential:      -53.850246
External:        +0.000000
XC:             -78.948727
Entropy (-ST):   -0.000000
Local:           +1.732126
--------------------------
Free energy:    -96.840592
Extrapolated:   -96.840592

Spin contamination: 4.763760 electrons
Showing only first 2 kpts
                      Up                     Down
 Kpt  Band  Eigenvalues  Occupancy  Eigenvalues  Occupancy
  0    28      8.50359    1.00000      8.50359    1.00000
  0    29      8.76855    1.00000      8.76855    1.00000
  0    30     10.01836    0.00000     10.01836    0.00000
  0    31     10.01915    0.00000     10.01915    0.00000

  1    28      8.53410    1.00000      8.53410    1.00000
  1    29      8.81458    1.00000      8.81458    1.00000
  1    30      9.95403    0.00000      9.95403    0.00000
  1    31     10.00926    0.00000     10.00926    0.00000


Fermi level: 9.31599

Gap: 0.827 eV
Transition (v -> c):
  (s=0, k=785, n=29, [-0.00, -0.00, -0.00]) -> (s=1, k=471, n=30, [-0.17, -0.17, -0.17])
Stress tensor:
     0.000071    -0.000000    -0.000000
    -0.000000    -0.000012    -0.000101
    -0.000000    -0.000101     0.000037

Forces in eV/Ang:
  0 O     0.00008   -0.00025    0.00012
  1 O    -0.00006   -0.00026    0.00012
  2 O    -0.00122   -0.00001    0.00000
  3 O     0.00122    0.00001   -0.00000
  4 Cr   -0.00021   -0.00013    0.00070
  5 Cr   -0.00021    0.00013   -0.00067
  6 Cr    0.00021    0.00013   -0.00070
  7 Cr    0.00021   -0.00013    0.00067
  8 O     0.00006    0.00026   -0.00012
  9 O    -0.00008    0.00025   -0.00012

System changes: cell, positions 

Initialize ...

O-setup:
  name: Oxygen
  id: 9b9d51c344dea68c822856295a461509
  Z: 8.0
  valence: 6
  core: 2
  charge: 0.0
  file: /home/modules/software/GPAW-setups/0.9.20000/O.LDA.gz
  compensation charges: gauss, rc=0.21, lmax=2
  cutoffs: 1.17(filt), 0.83(core),
  valence states:
                energy  radius
    2s(2.00)   -23.752   0.688
    2p(4.00)    -9.195   0.598
    *s           3.459   0.688
    *p          18.016   0.598
    *d           0.000   0.619

  Using partial waves for O as LCAO basis

Cr-setup:
  name: Chromium
  id: 444e8044bc0f91048286c984738d87f5
  Z: 24.0
  valence: 6
  core: 18
  charge: 0.0
  file: /home/modules/software/GPAW-setups/0.9.20000/Cr.LDA.gz
  compensation charges: gauss, rc=0.35, lmax=2
  cutoffs: 2.14(filt), 3.04(core),
  valence states:
                energy  radius
    4s(1.00)    -4.191   1.164
    4p(0.00)    -1.079   1.217
    3d(5.00)    -3.128   1.111
    *s          23.021   1.164
    *p          26.132   1.217
    *d          24.083   1.111

  Using partial waves for Cr as LCAO basis

Reference energy: -126274.181857

Spin-polarized calculation.
Magnetic moment: 0.000000

Convergence criteria:
  Maximum total energy change: 0.0005 eV / electron
  Maximum integral of absolute density change: 0.0001 electrons
  Maximum integral of absolute eigenstate change: 4e-08 eV^2
  Maximum change in atomic force: 0.0001 eV / Ang
  Maximum number of iterations: 333

Symmetries present (total): 1

  ( 1  0  0)
  ( 0  1  0)
  ( 0  0  1)

1728 k-points: 12 x 12 x 12 Monkhorst-Pack grid + [1/24,1/24,1/24]
1728 k-points in the irreducible part of the Brillouin zone
       k-points in crystal coordinates                weights
   0:    -0.41666667   -0.41666667   -0.41666667          1/1728
   1:    -0.41666667   -0.41666667   -0.33333333          1/1728
   2:    -0.41666667   -0.41666667   -0.25000000          1/1728
   3:    -0.41666667   -0.41666667   -0.16666667          1/1728
   4:    -0.41666667   -0.41666667   -0.08333333          1/1728
   5:    -0.41666667   -0.41666667   -0.00000000          1/1728
   6:    -0.41666667   -0.41666667    0.08333333          1/1728
   7:    -0.41666667   -0.41666667    0.16666667          1/1728
   8:    -0.41666667   -0.41666667    0.25000000          1/1728
   9:    -0.41666667   -0.41666667    0.33333333          1/1728
          ...
1727:     0.50000000    0.50000000    0.50000000          1/1728

Wave functions: Plane wave expansion
  Cutoff energy: 600.000 eV
  Number of coefficients (min, max): 2896, 2946
  Pulay-stress correction: 0.000000 eV/Ang^3 (de/decut=0.000000)
  Using FFTW library
  ScaLapack parameters: grid=1x1, blocksize=None
  Wavefunction extrapolation:
    Improved wavefunction reuse through dual PAW basis 

Occupation numbers: Fermi-Dirac: width=0.0010 eV
 

Eigensolver
   Davidson(niter=2) 

Densities:
  Coarse grid: 32*32*32 grid
  Fine grid: 64*64*64 grid
  Total Charge: 0.000000 

Density mixing:
  Method: difference
  Backend: pulay
  Linear mixing parameter: 0.05
  Mixing with 5 old densities
  Damping of long wave oscillations: 50 

Hamiltonian:
  XC and Coulomb potentials evaluated on a 64*64*64 grid
  Using the LDA Exchange-Correlation functional
  External potential:
    <gpaw.external.NoExternalPotential object at 0x2b8b47beb550>
 

Memory estimate:
  Process memory now: 1621.08 MiB
  Calculator: 209.79 MiB
    Density: 16.11 MiB
      Arrays: 8.75 MiB
      Localized functions: 3.86 MiB
      Mixer: 3.50 MiB
    Hamiltonian: 6.59 MiB
      Arrays: 6.50 MiB
      XC: 0.00 MiB
      Poisson: 0.00 MiB
      vbar: 0.09 MiB
    Wavefunctions: 187.08 MiB
      Arrays psit_nG: 154.64 MiB
      Eigensolver: 2.27 MiB
      Projections: 7.87 MiB
      Projectors: 19.12 MiB
      PW-descriptor: 3.18 MiB

Total number of cores used: 40
Parallelization over k-points: 40

Number of atoms: 10
Number of atomic orbitals: 60
Number of bands in calculation: 40
Number of valence electrons: 60
Bands to converge: occupied

... initialized

Initializing position-dependent things.

Density initialized from atomic densities
Creating initial wave functions:
  40 bands from LCAO basis set

                          
                          
                          
                          
            Cr            
                          
                          
            Cr            
           O              
         O      O         
                          
        O      O          
             O            
            Cr            
                          
                          
            Cr            
                          
                          
                          
                          

Positions:
   0 O     -0.760209   -1.389622    8.037806    ( 0.0000,  0.0000,  0.0000)
   1 O     -1.582607   -0.037179    5.741345    ( 0.0000,  0.0000,  0.0000)
   2 O     -0.823830    1.351886    8.037286    ( 0.0000,  0.0000,  0.0000)
   3 O      0.823830   -1.352629    5.741044    ( 0.0000,  0.0000,  0.0000)
   4 Cr    -0.000004   -0.000111    2.195939    ( 0.0000,  0.0000,  2.0000)
   5 Cr    -0.000004   -0.000260    4.693225    ( 0.0000,  0.0000, -2.0000)
   6 Cr     0.000004   -0.000632   11.582391    ( 0.0000,  0.0000, -2.0000)
   7 Cr     0.000004   -0.000483    9.085105    ( 0.0000,  0.0000,  2.0000)
   8 O      1.582607    0.036435    8.036986    ( 0.0000,  0.0000,  0.0000)
   9 O      0.760209    1.388879    5.740525    ( 0.0000,  0.0000,  0.0000)

Unit cell:
           periodic     x           y           z      points  spacing
  1. axis:    yes    2.342815    1.352071    4.592704    32     0.1216
  2. axis:    yes   -2.342815    1.352071    4.592704    32     0.1216
  3. axis:    yes    0.000000   -2.704886    4.592923    32     0.1216

  Lengths:   5.330085   5.330085   5.330230
  Angles:   52.139511  52.139510  52.149782

Effective grid spacing dv^(1/3) = 0.1386

                     log10-error:           total        iterations:
           time      wfs    density  force  energy       poisson  magmom
iter:   1  19:30:50                       -100.567716             -0.0000
iter:   2  19:31:01  -0.70  -1.01          -99.837395             -0.0000
iter:   3  19:31:13  -0.13  -1.05          -97.281833             -0.0000
iter:   4  19:31:24  -1.16  -1.41          -97.359109             -0.0000
iter:   5  19:31:35  -1.15  -1.36          -97.358706             -0.0000
iter:   6  19:31:46  -0.76  -1.51          -96.978245             -0.0000
iter:   7  19:31:57  -1.59  -1.87          -96.869642             -0.0000
iter:   8  19:32:08  -1.77  -2.02          -96.845269             -0.0000
iter:   9  19:32:19  -1.94  -2.36          -96.843954             -0.0000
iter:  10  19:32:30  -2.66  -2.51          -96.843408             -0.0000
iter:  11  19:32:42  -2.87  -2.61          -96.841138             -0.0000
iter:  12  19:32:53  -3.17  -2.83          -96.839256             -0.0000
iter:  13  19:33:04  -3.37  -3.15          -96.839325             -0.0000
iter:  14  19:33:15  -3.68  -3.44          -96.839726             +0.0000
iter:  15  19:33:26  -3.86  -3.35          -96.840053             -0.0000
iter:  16  19:33:37  -3.96  -3.23          -96.840172             -0.0000
iter:  17  19:33:48  -4.09  -3.27          -96.840560             -0.0000
iter:  18  19:33:59  -4.16  -3.13          -96.840318             -0.0000
iter:  19  19:34:10  -4.32  -3.35          -96.840495             -0.0000
iter:  20  19:34:21  -4.33  -3.19          -96.840334             -0.0000
iter:  21  19:34:32  -4.38  -3.51          -96.840367             -0.0000
iter:  22  19:34:43  -4.59  -3.61          -96.840436             +0.0000
iter:  23  19:34:54  -4.81  -3.48          -96.840412             +0.0000
iter:  24  19:35:05  -5.08  -3.62          -96.840430             -0.0000
iter:  25  19:35:16  -5.17  -3.62          -96.840437             -0.0000
iter:  26  19:35:27  -5.24  -3.63          -96.840440             -0.0000
iter:  27  19:35:38  -5.41  -3.61          -96.840445             +0.0000
iter:  28  19:35:49  -5.39  -3.64          -96.840454             -0.0000
iter:  29  19:36:01  -5.62  -3.69          -96.840446             -0.0000
iter:  30  19:36:12  -5.55  -3.80          -96.840451             +0.0000
iter:  31  19:36:23  -5.83  -4.13          -96.840454             -0.0000
iter:  32  19:36:34  -5.46  -4.15          -96.840455             +0.0000
iter:  33  19:36:45  -5.83  -4.15          -96.840454             +0.0000
iter:  34  19:36:56  -6.03  -4.31          -96.840456             +0.0000
iter:  35  19:37:07  -5.96  -4.36          -96.840458             +0.0000
iter:  36  19:37:18  -6.08  -4.37          -96.840457             -0.0000
iter:  37  19:37:29  -6.17  -4.62          -96.840457             -0.0000
iter:  38  19:37:40  -6.35  -5.15          -96.840458             -0.0000
iter:  39  19:37:51  -6.48  -5.21          -96.840458             +0.0000
iter:  40  19:38:02  -6.56  -5.24          -96.840458             -0.0000
iter:  41  19:38:13  -6.67  -5.24          -96.840459             +0.0000
iter:  42  19:38:24  -6.79  -5.23          -96.840459             -0.0000
iter:  43  19:38:35  -6.88  -5.19          -96.840459             +0.0000
iter:  44  19:38:46  -7.00  -5.23          -96.840459             -0.0000
iter:  45  19:38:57  -7.11  -5.23          -96.840460             -0.0000
iter:  46  19:39:08  -7.16  -5.22          -96.840460             -0.0000
iter:  47  19:39:19  -7.25  -5.20          -96.840460             -0.0000
iter:  48  19:39:32  -7.41  -5.21          -96.840460             -0.0000
iter:  49  19:39:43  -7.31  -5.24          -96.840460             -0.0000
iter:  50  19:39:56  -7.44  -5.24    -3.26 -96.840460             -0.0000
iter:  51  19:40:09  -7.49  -5.29    -3.60 -96.840460             -0.0000
iter:  52  19:40:22  -7.71  -5.28    -3.69 -96.840460             -0.0000
iter:  53  19:40:36  -7.81  -5.31    -3.62 -96.840460             -0.0000
iter:  54  19:40:49  -7.94  -5.40    -3.77 -96.840460             -0.0000
iter:  55  19:41:02  -7.96  -5.51    -3.63 -96.840460             -0.0000
iter:  56  19:41:15  -7.99  -5.58    -4.48 -96.840460             -0.0000

Converged after 56 iterations.

Dipole moment: (-0.000000, 0.000000, -0.000000) |e|*Ang

Total magnetic moment: (0.000000, 0.000000, -0.000000)
Local magnetic moments:
   0 O  ( 0.000000,  0.000000, -0.000161)
   1 O  ( 0.000000,  0.000000, -0.000161)
   2 O  ( 0.000000,  0.000000, -0.000000)
   3 O  ( 0.000000,  0.000000,  0.000000)
   4 Cr ( 0.000000,  0.000000,  2.209744)
   5 Cr ( 0.000000,  0.000000, -2.209744)
   6 Cr ( 0.000000,  0.000000, -2.209744)
   7 Cr ( 0.000000,  0.000000,  2.209744)
   8 O  ( 0.000000,  0.000000,  0.000161)
   9 O  ( 0.000000,  0.000000,  0.000161)

Energy contributions relative to reference atoms: (reference = -126274.181857)

Kinetic:        +34.237968
Potential:      -53.858731
External:        +0.000000
XC:             -78.951656
Entropy (-ST):   -0.000000
Local:           +1.731959
--------------------------
Free energy:    -96.840460
Extrapolated:   -96.840460

Spin contamination: 4.763631 electrons
Showing only first 2 kpts
                      Up                     Down
 Kpt  Band  Eigenvalues  Occupancy  Eigenvalues  Occupancy
  0    28      8.50400    1.00000      8.50400    1.00000
  0    29      8.76887    1.00000      8.76887    1.00000
  0    30     10.01876    0.00000     10.01876    0.00000
  0    31     10.01954    0.00000     10.01954    0.00000

  1    28      8.53450    1.00000      8.53450    1.00000
  1    29      8.81493    1.00000      8.81493    1.00000
  1    30      9.95442    0.00000      9.95442    0.00000
  1    31     10.00964    0.00000     10.00964    0.00000


Fermi level: 9.31423

Gap: 0.827 eV
Transition (v -> c):
  (s=0, k=785, n=29, [-0.00, -0.00, -0.00]) -> (s=1, k=471, n=30, [-0.17, -0.17, -0.17])
Stress tensor:
     0.000018    -0.000000    -0.000000
    -0.000000    -0.000032    -0.000098
    -0.000000    -0.000098    -0.000036

Forces in eV/Ang:
  0 O    -0.00018    0.00044    0.00012
  1 O     0.00020    0.00044    0.00011
  2 O     0.00024   -0.00001    0.00001
  3 O    -0.00024    0.00001   -0.00001
  4 Cr   -0.00011    0.00006   -0.00082
  5 Cr   -0.00011   -0.00006    0.00083
  6 Cr    0.00011   -0.00006    0.00082
  7 Cr    0.00011    0.00006   -0.00083
  8 O    -0.00020   -0.00044   -0.00011
  9 O     0.00018   -0.00044   -0.00012

Writing to Cr2O3_relaxed.gpw (mode='')

Timing:                              incl.     excl.
-----------------------------------------------------------
Forces:                             49.015    49.015   0.2% |
Hamiltonian:                         4.805     0.025   0.0% |
 Atomic:                             1.492     1.492   0.0% |
  XC Correction:                     0.000     0.000   0.0% |
 Calculate atomic Hamiltonians:      0.430     0.430   0.0% |
 Communicate:                        0.002     0.002   0.0% |
 Initialize Hamiltonian:             0.010     0.010   0.0% |
 Poisson:                            0.017     0.017   0.0% |
 XC 3D grid:                         2.828     2.828   0.0% |
LCAO initialization:              8227.106     2.509   0.0% |
 LCAO eigensolver:                4979.868     0.148   0.0% |
  Calculate projections:             0.322     0.322   0.0% |
  DenseAtomicCorrection:             0.808     0.808   0.0% |
  Distribute overlap matrix:         0.083     0.083   0.0% |
  Orbital Layouts:                   2.218     2.218   0.0% |
  Potential matrix:               4970.456  4970.456  21.3% |--------|
  Sum over cells:                    5.834     5.834   0.0% |
 LCAO to grid:                    3199.184  3199.184  13.7% |----|
 Set positions (LCAO WFS):          45.545     6.943   0.0% |
  Basic WFS set positions:           0.008     0.008   0.0% |
  Basis functions set positions:     0.001     0.001   0.0% |
  P tci:                            19.894    19.894   0.1% |
  ST tci:                           16.990    16.990   0.1% |
  mktci:                             1.709     1.709   0.0% |
PWDescriptor:                        1.269     1.269   0.0% |
SCF-cycle:                       14619.112  1014.484   4.4% |-|
 Davidson:                       12193.260  2716.348  11.7% |----|
  Apply H:                        1753.204  1675.448   7.2% |--|
   HMM T:                           77.756    77.756   0.3% |
  Subspace diag:                  2267.277    12.806   0.1% |
   calc_h_matrix:                 1952.440   195.926   0.8% |
    Apply H:                      1756.515  1675.943   7.2% |--|
     HMM T:                         80.571    80.571   0.3% |
   diagonalize:                     53.796    53.796   0.2% |
   rotate_psi:                     248.234   248.234   1.1% |
  calc. matrices:                 4609.315  1109.076   4.8% |-|
   Apply H:                       3500.239  3343.960  14.4% |-----|
    HMM T:                         156.279   156.279   0.7% |
  diagonalize:                     382.590   382.590   1.6% ||
  rotate_psi:                      464.526   464.526   2.0% ||
 Density:                          890.689     0.030   0.0% |
  Atomic density matrices:          25.555    25.555   0.1% |
  Mix:                              57.133    57.133   0.2% |
  Multipole moments:                 0.304     0.304   0.0% |
  Pseudo density:                  807.668   807.644   3.5% ||
   Symmetrize density:               0.025     0.025   0.0% |
 Forces:                           262.380   262.380   1.1% |
 Hamiltonian:                      244.534     1.525   0.0% |
  Atomic:                           51.901    51.897   0.2% |
   XC Correction:                    0.004     0.004   0.0% |
  Calculate atomic Hamiltonians:    32.855    32.855   0.1% |
  Communicate:                       0.130     0.130   0.0% |
  Poisson:                           1.034     1.034   0.0% |
  XC 3D grid:                      157.088   157.088   0.7% |
 Orthonormalize:                    13.764     0.232   0.0% |
  calc_s_matrix:                     2.057     2.057   0.0% |
  inverse-cholesky:                  0.330     0.330   0.0% |
  projections:                       8.782     8.782   0.0% |
  rotate_psi_s:                      2.363     2.363   0.0% |
Set symmetry:                        0.000     0.000   0.0% |
Stress:                            294.486     0.001   0.0% |
 Stress tensor:                    294.485   294.485   1.3% ||
Other:                              95.455    95.455   0.4% |
-----------------------------------------------------------
Total:                                     23291.249 100.0%

Memory usage: 1.77 GiB
Date: Mon Jun 27 19:41:40 2022
