
  ___ ___ ___ _ _ _  
 |   |   |_  | | | | 
 | | | | | . | | | | 
 |__ |  _|___|_____|  21.6.1b1
 |___|_|             

User:   madkru@c130.nifl.fysik.dtu.dk
Date:   Wed Jul  6 15:44:47 2022
Arch:   x86_64
Pid:    254457
Python: 3.8.6
gpaw:   /home/niflheim/madkru/new_venv/gpaw/gpaw (1f0dfc9eae)
_gpaw:  /home/niflheim/madkru/new_venv/gpaw/build/lib.linux-x86_64-skylake-3.8/
        _gpaw.cpython-38-x86_64-linux-gnu.so (c1e45bfab3)
ase:    /home/niflheim/madkru/new_venv/ase/ase (version 3.23.0b1-ca38c75a67)
numpy:  /home/modules/software/SciPy-bundle/2020.11-foss-2020b/lib/python3.8/site-packages/numpy (version 1.19.4)
scipy:  /home/modules/software/SciPy-bundle/2020.11-foss-2020b/lib/python3.8/site-packages/scipy (version 1.5.4)
libxc:  4.3.4
units:  Angstrom and eV
cores: 40
OpenMP: False
OMP_NUM_THREADS: 1

Input parameters:
  convergence: {density: 1e-09}
  experimental: {magmoms: [[0. 0. 0.]
 [0. 0. 0.]
 [0. 0. 0.]
 ...
 [0. 0. 5.]
 [0. 0. 0.]
 [0. 0. 0.]],
                 soc: True}
  kpts: [4 4 6]
  maxiter: 5000
  mixer: {backend: pulay,
          beta: 0.02,
          method: difference,
          nmaxold: 5,
          weight: 100}
  mode: {ecut: 600.0,
         gammacentered: False,
         name: pw}
  occupations: {name: fermi-dirac,
                width: 0.001}
  symmetry: off

System changes: positions, numbers, cell, pbc, initial_charges, initial_magmoms 

Initialize ...

O-setup:
  name: Oxygen
  id: 9b9d51c344dea68c822856295a461509
  Z: 8.0
  valence: 6
  core: 2
  charge: 0.0
  file: /home/modules/software/GPAW-setups/0.9.20000/O.LDA.gz
  compensation charges: gauss, rc=0.21, lmax=2
  cutoffs: 1.17(filt), 0.83(core),
  valence states:
                energy  radius
    2s(2.00)   -23.752   0.688
    2p(4.00)    -9.195   0.598
    *s           3.459   0.688
    *p          18.016   0.598
    *d           0.000   0.619

  Using partial waves for O as LCAO basis

Cr-setup:
  name: Chromium
  id: 444e8044bc0f91048286c984738d87f5
  Z: 24.0
  valence: 6
  core: 18
  charge: 0.0
  file: /home/modules/software/GPAW-setups/0.9.20000/Cr.LDA.gz
  compensation charges: gauss, rc=0.35, lmax=2
  cutoffs: 2.14(filt), 3.04(core),
  valence states:
                energy  radius
    4s(1.00)    -4.191   1.164
    4p(0.00)    -1.079   1.217
    3d(5.00)    -3.128   1.111
    *s          23.021   1.164
    *p          26.132   1.217
    *d          24.083   1.111

  Using partial waves for Cr as LCAO basis

Reference energy: -126274.181857

Non-collinear calculation.
Magnetic moment: (0.000000, 0.000000, 0.000000)

Convergence criteria:
  Maximum total energy change: 0.0005 eV / electron
  Maximum integral of absolute density change: 1e-09 electrons
  Maximum integral of absolute eigenstate change: 4e-08 eV^2
  Maximum number of iterations: 5000

Symmetries present (total): 1

  ( 1  0  0)
  ( 0  1  0)
  ( 0  0  1)

96 k-points: 4 x 4 x 6 Monkhorst-Pack grid
96 k-points in the irreducible part of the Brillouin zone
       k-points in crystal coordinates                weights
   0:    -0.37500000   -0.37500000   -0.41666667          1/96
   1:    -0.37500000   -0.37500000   -0.25000000          1/96
   2:    -0.37500000   -0.37500000   -0.08333333          1/96
   3:    -0.37500000   -0.37500000    0.08333333          1/96
   4:    -0.37500000   -0.37500000    0.25000000          1/96
   5:    -0.37500000   -0.37500000    0.41666667          1/96
   6:    -0.37500000   -0.12500000   -0.41666667          1/96
   7:    -0.37500000   -0.12500000   -0.25000000          1/96
   8:    -0.37500000   -0.12500000   -0.08333333          1/96
   9:    -0.37500000   -0.12500000    0.08333333          1/96
          ...
  95:     0.37500000    0.37500000    0.41666667          1/96

Wave functions: Plane wave expansion
  Cutoff energy: 600.000 eV
  Number of coefficients (min, max): 2899, 2926
  Pulay-stress correction: 0.000000 eV/Ang^3 (de/decut=0.000000)
  Using FFTW library
  ScaLapack parameters: grid=1x1, blocksize=None
  Wavefunction extrapolation:
    Improved wavefunction reuse through dual PAW basis 

Occupation numbers: Fermi-Dirac: width=0.0010 eV
 

Eigensolver
   Davidson(niter=2) 

Densities:
  Coarse grid: 32*32*32 grid
  Fine grid: 64*64*64 grid
  Total Charge: 0.000000 

Density mixing:
  Method: difference
  Backend: pulay
  Linear mixing parameter: 0.02
  Mixing with 5 old densities
  Damping of long wave oscillations: 100 

Hamiltonian:
  XC and Coulomb potentials evaluated on a 64*64*64 grid
  Using the LDA Exchange-Correlation functional
  External potential:
    <gpaw.external.NoExternalPotential object at 0x2b05f76a0ee0>
 

Memory estimate:
  Process memory now: 467.30 MiB
  Calculator: 34.72 MiB
    Density: 15.86 MiB
      Arrays: 6.50 MiB
      Localized functions: 3.86 MiB
      Mixer: 5.50 MiB
    Hamiltonian: 4.34 MiB
      Arrays: 4.25 MiB
      XC: 0.00 MiB
      Poisson: 0.00 MiB
      vbar: 0.09 MiB
    Wavefunctions: 14.51 MiB
      Arrays psit_nG: 7.14 MiB
      Eigensolver: 4.77 MiB
      Projections: 0.37 MiB
      Projectors: 0.89 MiB
      PW-descriptor: 1.34 MiB

Total number of cores used: 40
Parallelization over k-points: 40

Number of atoms: 10
Number of atomic orbitals: 60
Number of bands in calculation: 80
Number of valence electrons: 60
Bands to converge: occupied

... initialized

Initializing position-dependent things.

Density initialized from atomic densities
Creating initial wave functions:
  60 bands from LCAO basis set
  20 bands from random numbers

                          
                          
                          
                          
            Cr            
                          
                          
            Cr            
           O              
         O      O         
                          
        O      O          
             O            
            Cr            
                          
                          
            Cr            
                          
                          
                          
                          

Positions:
   0 O     -0.760328   -1.389688    8.034001    ( 0.0000,  0.0000,  0.0000)
   1 O     -1.582514   -0.037243    5.737518    ( 0.0000,  0.0000,  0.0000)
   2 O     -0.823835    1.352024    8.033479    ( 0.0000,  0.0000,  0.0000)
   3 O      0.823836   -1.352483    5.737228    ( 0.0000,  0.0000,  0.0000)
   4 Cr    -0.000001   -0.000115    2.201670    ( 0.0000,  0.0000,  5.0000)
   5 Cr    -0.000004   -0.000255    4.698959    ( 0.0000,  0.0000, -5.0000)
   6 Cr     0.000015   -0.000629   11.588120    ( 0.0000,  0.0000, -5.0000)
   7 Cr     0.000001   -0.000489    9.090830    ( 0.0000,  0.0000,  5.0000)
   8 O      1.582727    0.036366    8.033159    ( 0.0000,  0.0000,  0.0000)
   9 O      0.760103    1.388797    5.736708    ( 0.0000,  0.0000,  0.0000)

Unit cell:
           periodic     x           y           z      points  spacing
  1. axis:    yes    2.342815    1.352071    4.592704    32     0.1216
  2. axis:    yes   -2.342815    1.352071    4.592704    32     0.1216
  3. axis:    yes    0.000000   -2.704886    4.592923    32     0.1216

  Lengths:   5.330085   5.330085   5.330230
  Angles:   52.139511  52.139510  52.149782

Effective grid spacing dv^(1/3) = 0.1386

                     log10-error:    total        iterations:
           time      wfs    density  energy       poisson
iter:   1  15:45:29                 -99.628753            +0.0,+0.0,-0.0
iter:   2  15:45:34  -0.65  -0.99  -100.949513            -0.0,-0.0,+0.0
iter:   3  15:45:39  -0.08  -1.00   -97.145753            -0.0,-0.0,+0.0
iter:   4  15:45:44  -0.60  -1.35   -97.335079            -0.0,+0.0,+0.0
iter:   5  15:45:50  -1.12  -1.37   -97.419967            -0.0,+0.0,+0.0
iter:   6  15:45:55  -0.38  -1.38   -98.583508            -0.0,+0.0,+0.0
iter:   7  15:46:00  -1.07  -1.54   -97.145523            -0.0,+0.0,+0.0
iter:   8  15:46:05  -2.26  -1.84   -97.268790            -0.0,+0.0,+0.0
iter:   9  15:46:10  -1.32  -1.79   -97.139671            -0.0,+0.0,+0.0
iter:  10  15:46:15  -0.60  -1.83   -97.345154            -0.0,+0.0,+0.0
iter:  11  15:46:20  -1.57  -1.72   -96.850416            -0.0,+0.0,+0.0
iter:  12  15:46:25  -2.69  -2.33   -96.852565            -0.0,+0.0,+0.0
iter:  13  15:46:30  -2.06  -2.41   -96.855291            -0.0,+0.0,+0.0
iter:  14  15:46:35  -2.86  -2.52   -96.853639            -0.0,+0.0,+0.0
iter:  15  15:46:40  -3.40  -2.60   -96.853398            -0.0,+0.0,+0.0
iter:  16  15:46:45  -3.19  -2.60   -96.855066            -0.0,+0.0,+0.0
iter:  17  15:46:50  -3.13  -2.58   -96.864444            -0.0,+0.0,+0.0
iter:  18  15:46:55  -2.60  -2.46   -96.851261            -0.0,+0.0,+0.0
iter:  19  15:47:00  -3.47  -2.66   -96.854017            -0.0,+0.0,+0.0
iter:  20  15:47:05  -3.15  -2.50   -96.849755            -0.0,+0.0,+0.0
iter:  21  15:47:10  -4.03  -2.86   -96.849767            -0.0,+0.0,+0.0
iter:  22  15:47:15  -3.82  -2.83   -96.849367            -0.0,+0.0,+0.0
iter:  23  15:47:20  -3.77  -2.94   -96.849331            -0.0,+0.0,+0.0
iter:  24  15:47:25  -4.03  -2.89   -96.849147            -0.0,+0.0,+0.0
iter:  25  15:47:30  -4.13  -2.96   -96.849394            -0.0,+0.0,+0.0
iter:  26  15:47:36  -3.72  -3.02   -96.849262            -0.0,+0.0,+0.0
iter:  27  15:47:41  -4.03  -3.09   -96.849028            -0.0,+0.0,+0.0
iter:  28  15:47:46  -4.17  -3.21   -96.848986            -0.0,+0.0,+0.0
iter:  29  15:47:51  -4.29  -3.32   -96.848946            -0.0,+0.0,+0.0
iter:  30  15:47:56  -4.63  -3.50   -96.848957            -0.0,+0.0,+0.0
iter:  31  15:48:01  -4.77  -3.53   -96.848934            -0.0,+0.0,+0.0
iter:  32  15:48:06  -4.90  -3.68   -96.848971            -0.0,+0.0,+0.0
iter:  33  15:48:11  -5.19  -3.72   -96.848977            -0.0,+0.0,+0.0
iter:  34  15:48:16  -5.36  -3.76   -96.848981            -0.0,+0.0,+0.0
iter:  35  15:48:21  -5.32  -3.75   -96.848979            -0.0,+0.0,+0.0
iter:  36  15:48:26  -5.46  -3.79   -96.848979            -0.0,+0.0,+0.0
iter:  37  15:48:31  -5.69  -3.78   -96.848992            -0.0,+0.0,+0.0
iter:  38  15:48:36  -5.87  -3.72   -96.848980            -0.0,+0.0,+0.0
iter:  39  15:48:41  -5.92  -3.75   -96.848979            -0.0,+0.0,+0.0
iter:  40  15:48:46  -5.59  -3.79   -96.849002            -0.0,+0.0,+0.0
iter:  41  15:48:51  -5.97  -3.68   -96.848975            -0.0,+0.0,+0.0
iter:  42  15:48:56  -5.03  -3.77   -96.848958            -0.0,+0.0,+0.0
iter:  43  15:49:01  -5.57  -4.02   -96.848952            -0.0,+0.0,+0.0
iter:  44  15:49:06  -5.77  -4.09   -96.848953            -0.0,+0.0,+0.0
iter:  45  15:49:11  -5.93  -4.15   -96.848954            -0.0,+0.0,+0.0
iter:  46  15:49:16  -6.21  -4.25   -96.848954            -0.0,+0.0,+0.0
iter:  47  15:49:21  -6.49  -4.27   -96.848954            -0.0,+0.0,+0.0
iter:  48  15:49:27  -6.63  -4.33   -96.848955            -0.0,+0.0,+0.0
iter:  49  15:49:32  -6.46  -4.40   -96.848956            -0.0,+0.0,+0.0
iter:  50  15:49:37  -6.67  -4.37   -96.848956            -0.0,+0.0,+0.0
iter:  51  15:49:42  -6.49  -4.40   -96.848955            -0.0,+0.0,+0.0
iter:  52  15:49:47  -7.02  -4.52   -96.848955            -0.0,+0.0,+0.0
iter:  53  15:49:52  -7.16  -4.59   -96.848954            -0.0,+0.0,+0.0
iter:  54  15:49:57  -7.37  -4.68   -96.848954            -0.0,+0.0,+0.0
iter:  55  15:50:02  -7.46  -4.68   -96.848954            -0.0,+0.0,+0.0
iter:  56  15:50:07  -7.31  -4.71   -96.848955            -0.0,+0.0,+0.0
iter:  57  15:50:12  -7.50  -4.76   -96.848955            -0.0,+0.0,+0.0
iter:  58  15:50:17  -7.46  -4.83   -96.848955            -0.0,+0.0,+0.0
iter:  59  15:50:22  -7.64  -4.94   -96.848955            -0.0,+0.0,+0.0
iter:  60  15:50:27  -7.84  -5.00   -96.848955            -0.0,+0.0,+0.0
iter:  61  15:50:32  -7.86  -5.04   -96.848955            -0.0,+0.0,+0.0
iter:  62  15:50:37  -8.12  -5.02   -96.848955            -0.0,+0.0,+0.0
iter:  63  15:50:42  -8.25  -5.04   -96.848955            -0.0,+0.0,+0.0
iter:  64  15:50:47  -8.40  -5.05   -96.848955            -0.0,+0.0,+0.0
iter:  65  15:50:52  -7.69  -5.05   -96.848955            -0.0,+0.0,+0.0
iter:  66  15:50:57  -8.26  -5.43   -96.848955            -0.0,+0.0,+0.0
iter:  67  15:51:02  -8.03  -5.45   -96.848955            -0.0,+0.0,+0.0
iter:  68  15:51:07  -8.40  -5.29   -96.848955            -0.0,+0.0,+0.0
iter:  69  15:51:12  -8.24  -5.28   -96.848955            -0.0,+0.0,+0.0
iter:  70  15:51:18  -8.15  -5.19   -96.848955            -0.0,+0.0,+0.0
iter:  71  15:51:23  -8.73  -5.49   -96.848955            -0.0,+0.0,+0.0
iter:  72  15:51:28  -8.61  -5.40   -96.848955            -0.0,+0.0,+0.0
iter:  73  15:51:33  -8.90  -5.49   -96.848955            -0.0,+0.0,+0.0
iter:  74  15:51:38  -8.98  -5.50   -96.848955            -0.0,+0.0,+0.0
iter:  75  15:51:43  -8.57  -5.49   -96.848955            -0.0,+0.0,+0.0
iter:  76  15:51:48  -9.09  -5.40   -96.848955            -0.0,+0.0,+0.0
iter:  77  15:51:53  -9.00  -5.43   -96.848955            -0.0,+0.0,+0.0
iter:  78  15:51:58  -9.36  -5.53   -96.848955            -0.0,+0.0,+0.0
iter:  79  15:52:03  -9.46  -5.52   -96.848955            -0.0,+0.0,+0.0
iter:  80  15:52:08  -9.09  -5.52   -96.848955            -0.0,+0.0,+0.0
iter:  81  15:52:13  -9.36  -5.55   -96.848955            -0.0,+0.0,+0.0
iter:  82  15:52:18  -9.61  -5.56   -96.848955            -0.0,+0.0,+0.0
iter:  83  15:52:23  -9.46  -5.57   -96.848955            -0.0,+0.0,+0.0
iter:  84  15:52:28  -9.64  -5.70   -96.848955            -0.0,+0.0,+0.0
iter:  85  15:52:33  -9.43  -5.71   -96.848955            -0.0,+0.0,+0.0
iter:  86  15:52:38  -9.53  -5.69   -96.848955            -0.0,+0.0,+0.0
iter:  87  15:52:43  -9.93  -5.83   -96.848955            -0.0,+0.0,+0.0
iter:  88  15:52:48  -9.94  -5.82   -96.848955            -0.0,+0.0,+0.0
iter:  89  15:52:53  -9.65  -5.81   -96.848955            -0.0,+0.0,+0.0
iter:  90  15:52:58 -10.28  -5.94   -96.848955            -0.0,+0.0,+0.0
iter:  91  15:53:03  -9.59  -5.94   -96.848955            -0.0,+0.0,+0.0
iter:  92  15:53:08  -9.69  -5.94   -96.848955            -0.0,+0.0,+0.0
iter:  93  15:53:13 -10.18  -6.21   -96.848955            -0.0,+0.0,+0.0
iter:  94  15:53:18 -10.20  -6.20   -96.848955            -0.0,+0.0,+0.0
iter:  95  15:53:23 -10.46  -6.16   -96.848955            -0.0,+0.0,+0.0
iter:  96  15:53:28 -10.66  -6.18   -96.848955            -0.0,+0.0,+0.0
iter:  97  15:53:34 -10.49  -6.20   -96.848955            -0.0,+0.0,+0.0
iter:  98  15:53:39 -10.56  -6.17   -96.848955            -0.0,+0.0,+0.0
iter:  99  15:53:44 -10.79  -6.16   -96.848955            -0.0,+0.0,+0.0
iter: 100  15:53:49 -11.09  -6.18   -96.848955            -0.0,+0.0,+0.0
iter: 101  15:53:54 -11.03  -6.19   -96.848955            -0.0,+0.0,+0.0
iter: 102  15:53:59 -11.06  -6.22   -96.848955            -0.0,+0.0,+0.0
iter: 103  15:54:04 -10.10  -6.24   -96.848955            -0.0,+0.0,+0.0
iter: 104  15:54:09 -11.01  -6.27   -96.848955            -0.0,+0.0,+0.0
iter: 105  15:54:14 -10.46  -6.30   -96.848955            -0.0,+0.0,+0.0
iter: 106  15:54:19 -10.27  -6.40   -96.848955            -0.0,+0.0,+0.0
iter: 107  15:54:24 -10.29  -6.23   -96.848955            -0.0,+0.0,+0.0
iter: 108  15:54:29 -10.95  -6.50   -96.848955            -0.0,+0.0,+0.0
iter: 109  15:54:34 -11.31  -6.60   -96.848955            -0.0,+0.0,+0.0
iter: 110  15:54:39 -10.87  -6.61   -96.848955            -0.0,+0.0,+0.0
iter: 111  15:54:44 -11.13  -6.69   -96.848955            -0.0,+0.0,+0.0
iter: 112  15:54:49 -11.56  -6.68   -96.848955            -0.0,+0.0,+0.0
iter: 113  15:54:54 -11.58  -6.72   -96.848955            -0.0,+0.0,+0.0
iter: 114  15:54:59 -11.82  -6.78   -96.848955            -0.0,+0.0,+0.0
iter: 115  15:55:04 -11.60  -6.79   -96.848955            -0.0,+0.0,+0.0
iter: 116  15:55:09 -12.07  -6.82   -96.848955            -0.0,+0.0,+0.0
iter: 117  15:55:14 -12.05  -6.82   -96.848955            -0.0,+0.0,+0.0
iter: 118  15:55:19 -11.93  -6.83   -96.848955            -0.0,+0.0,+0.0
iter: 119  15:55:24 -11.97  -6.85   -96.848955            -0.0,+0.0,+0.0
iter: 120  15:55:30 -12.29  -7.32   -96.848955            -0.0,+0.0,+0.0
iter: 121  15:55:35 -12.23  -7.51   -96.848955            -0.0,+0.0,+0.0
iter: 122  15:55:40 -11.52  -7.50   -96.848955            -0.0,+0.0,+0.0
iter: 123  15:55:45 -11.49  -7.48   -96.848955            -0.0,+0.0,+0.0
iter: 124  15:55:50 -12.16  -7.68   -96.848955            -0.0,+0.0,+0.0
iter: 125  15:55:55 -12.19  -7.76   -96.848955            -0.0,+0.0,+0.0
iter: 126  15:56:00 -12.45  -7.76   -96.848955            -0.0,+0.0,+0.0
iter: 127  15:56:05 -12.30  -7.75   -96.848955            -0.0,+0.0,+0.0
iter: 128  15:56:10 -11.32  -7.86   -96.848955            -0.0,+0.0,+0.0
iter: 129  15:56:15 -11.77  -7.95   -96.848955            -0.0,+0.0,+0.0
iter: 130  15:56:20 -12.40  -8.07   -96.848955            -0.0,+0.0,+0.0
iter: 131  15:56:25 -12.04  -7.83   -96.848955            -0.0,+0.0,+0.0
iter: 132  15:56:30 -11.50  -8.04   -96.848955            -0.0,+0.0,+0.0
iter: 133  15:56:35 -11.75  -7.87   -96.848955            -0.0,+0.0,+0.0
iter: 134  15:56:40 -12.42  -8.22   -96.848955            -0.0,+0.0,+0.0
iter: 135  15:56:45 -11.79  -8.38   -96.848955            -0.0,+0.0,+0.0
iter: 136  15:56:50 -11.68  -8.42   -96.848955            -0.0,+0.0,+0.0
iter: 137  15:56:55 -11.13  -8.46   -96.848955            -0.0,+0.0,+0.0
iter: 138  15:57:00 -12.10  -8.75   -96.848955            -0.0,+0.0,+0.0
iter: 139  15:57:05 -11.95  -8.70   -96.848955            -0.0,+0.0,+0.0
iter: 140  15:57:10 -11.35  -8.63   -96.848955            -0.0,+0.0,+0.0
iter: 141  15:57:15 -11.73  -8.61   -96.848955            -0.0,+0.0,+0.0
iter: 142  15:57:20 -12.34  -8.59   -96.848955            -0.0,+0.0,+0.0
iter: 143  15:57:25 -12.07  -8.66   -96.848955            -0.0,+0.0,+0.0
iter: 144  15:57:30 -11.19  -8.61   -96.848955            -0.0,+0.0,+0.0
iter: 145  15:57:35 -11.77  -8.62   -96.848955            -0.0,+0.0,+0.0
iter: 146  15:57:40 -12.17  -8.71   -96.848955            -0.0,+0.0,+0.0
iter: 147  15:57:45 -12.56  -8.63   -96.848955            -0.0,+0.0,+0.0
iter: 148  15:57:51 -12.61  -8.64   -96.848955            -0.0,+0.0,+0.0
iter: 149  15:57:56 -11.78  -8.67   -96.848955            -0.0,+0.0,+0.0
iter: 150  15:58:01 -12.53  -8.83   -96.848955            -0.0,+0.0,+0.0
iter: 151  15:58:06 -12.58  -8.87   -96.848955            -0.0,+0.0,+0.0
iter: 152  15:58:11 -12.02  -8.89   -96.848955            -0.0,+0.0,+0.0
iter: 153  15:58:16 -12.76  -8.84   -96.848955            -0.0,+0.0,+0.0
iter: 154  15:58:21 -12.68  -8.84   -96.848955            -0.0,+0.0,+0.0
iter: 155  15:58:26 -11.07  -8.84   -96.848955            -0.0,+0.0,+0.0
iter: 156  15:58:31 -12.24  -8.91   -96.848955            -0.0,+0.0,+0.0
iter: 157  15:58:36 -12.07  -8.91   -96.848955            -0.0,+0.0,+0.0
iter: 158  15:58:41 -11.62  -8.94   -96.848955            -0.0,+0.0,+0.0
iter: 159  15:58:46 -11.26  -9.00   -96.848955            -0.0,+0.0,+0.0
iter: 160  15:58:51 -11.56  -8.98   -96.848955            -0.0,+0.0,+0.0
iter: 161  15:58:56 -12.31  -8.98   -96.848955            -0.0,+0.0,+0.0
iter: 162  15:59:01 -11.83  -8.99   -96.848955            -0.0,+0.0,+0.0
iter: 163  15:59:06 -11.24  -9.03   -96.848955            -0.0,+0.0,+0.0

Converged after 163 iterations.

Dipole moment: (-0.000185, -0.000153, 0.026204) |e|*Ang

Total magnetic moment: (-0.000001, 0.000003, 0.000111)
Local magnetic moments:
   0 O  (-0.000026,  0.000029, -0.000061)
   1 O  ( 0.000026,  0.000029, -0.000056)
   2 O  ( 0.000034,  0.000009,  0.000108)
   3 O  (-0.000034,  0.000009,  0.000107)
   4 Cr (-0.000082, -0.000169,  2.208366)
   5 Cr (-0.000082,  0.000169, -2.208837)
   6 Cr ( 0.000082,  0.000170, -2.208845)
   7 Cr ( 0.000082, -0.000168,  2.208365)
   8 O  (-0.000010, -0.000039,  0.000265)
   9 O  ( 0.000010, -0.000039,  0.000263)

Energy contributions relative to reference atoms: (reference = -126274.181857)

Kinetic:        +34.324776
Potential:      -53.952527
External:        +0.000000
XC:             -78.955488
Entropy (-ST):   -0.000000
Local:           +1.734284
--------------------------
Free energy:    -96.848955
Extrapolated:   -96.848955

Showing only first 2 kpts
 Kpt  Band  Eigenvalues  Occupancy
  0    28      2.74796    1.00000
  0    29      2.75271    1.00000
  0    30      2.96290    1.00000
  0    31      2.96852    1.00000

  1    28      2.89239    1.00000
  1    29      2.90495    1.00000
  1    30      2.93880    1.00000
  1    31      2.94318    1.00000


Fermi level: 9.21441

Gap: 0.824 eV
Transition (v -> c):
  (s=0, k=63, n=59, [0.12, 0.12, 0.08]) -> (s=0, k=63, n=60, [0.12, 0.12, 0.08])
Timing:                              incl.     excl.
-----------------------------------------------------------
Hamiltonian:                         0.346     0.002   0.0% |
 Atomic:                             0.129     0.129   0.0% |
  XC Correction:                     0.000     0.000   0.0% |
 Calculate atomic Hamiltonians:      0.024     0.024   0.0% |
 Communicate:                        0.000     0.000   0.0% |
 Initialize Hamiltonian:             0.000     0.000   0.0% |
 Poisson:                            0.001     0.001   0.0% |
 XC 3D grid:                         0.189     0.189   0.0% |
LCAO initialization:                26.372     0.142   0.0% |
 LCAO eigensolver:                  11.564     0.000   0.0% |
  DenseAtomicCorrection:             0.004     0.004   0.0% |
  Distribute overlap matrix:         0.000     0.000   0.0% |
  Orbital Layouts:                   0.009     0.009   0.0% |
  Potential matrix:                 11.523    11.523   1.3% ||
  Sum over cells:                    0.028     0.028   0.0% |
 LCAO to grid:                      14.177    14.177   1.6% ||
 Set positions (LCAO WFS):           0.489     0.114   0.0% |
  Basic WFS set positions:           0.000     0.000   0.0% |
  Basis functions set positions:     0.000     0.000   0.0% |
  P tci:                             0.132     0.132   0.0% |
  ST tci:                            0.157     0.157   0.0% |
  mktci:                             0.086     0.086   0.0% |
PWDescriptor:                        0.007     0.007   0.0% |
SCF-cycle:                         831.988   222.894  25.9% |---------|
 Davidson:                         444.944    32.387   3.8% |-|
  Apply H:                          90.895    90.895  10.6% |---|
  Subspace diag:                   103.071     0.051   0.0% |
   calc_h_matrix:                   96.133     4.426   0.5% |
    Apply H:                        91.707    91.707  10.7% |---|
   diagonalize:                      0.878     0.878   0.1% |
   rotate_psi:                       6.009     6.009   0.7% |
  calc. matrices:                  201.068    24.556   2.9% ||
   Apply H:                        176.513   176.513  20.5% |-------|
  diagonalize:                       6.932     6.932   0.8% |
  rotate_psi:                       10.590    10.590   1.2% |
 Density:                          111.417     0.005   0.0% |
  Atomic density matrices:           4.239     4.239   0.5% |
  Mix:                              11.573    11.573   1.3% ||
  Multipole moments:                 0.051     0.051   0.0% |
  Pseudo density:                   95.549    95.543  11.1% |---|
   Symmetrize density:               0.006     0.006   0.0% |
 Hamiltonian:                       52.662     0.338   0.0% |
  Atomic:                           13.610    13.609   1.6% ||
   XC Correction:                    0.001     0.001   0.0% |
  Calculate atomic Hamiltonians:     4.485     4.485   0.5% |
  Communicate:                       0.028     0.028   0.0% |
  Poisson:                           0.165     0.165   0.0% |
  XC 3D grid:                       34.036    34.036   4.0% |-|
 Orthonormalize:                     0.071     0.000   0.0% |
  calc_s_matrix:                     0.016     0.016   0.0% |
  inverse-cholesky:                  0.001     0.001   0.0% |
  projections:                       0.032     0.032   0.0% |
  rotate_psi_s:                      0.021     0.021   0.0% |
Set symmetry:                        0.000     0.000   0.0% |
Other:                               0.747     0.747   0.1% |
-----------------------------------------------------------
Total:                                       859.459 100.0%

Memory usage: 467.30 MiB
Date: Wed Jul  6 15:59:06 2022
