
  ___ ___ ___ _ _ _  
 |   |   |_  | | | | 
 | | | | | . | | | | 
 |__ |  _|___|_____|  21.6.1b1
 |___|_|             

User:   madkru@c018.nifl.fysik.dtu.dk
Date:   Wed Jul  6 18:22:42 2022
Arch:   x86_64
Pid:    244658
Python: 3.8.6
gpaw:   /home/niflheim/madkru/new_venv/gpaw/gpaw (1f0dfc9eae)
_gpaw:  /home/niflheim/madkru/new_venv/gpaw/build/lib.linux-x86_64-skylake-3.8/
        _gpaw.cpython-38-x86_64-linux-gnu.so (c1e45bfab3)
ase:    /home/niflheim/madkru/new_venv/ase/ase (version 3.23.0b1-ca38c75a67)
numpy:  /home/modules/software/SciPy-bundle/2020.11-foss-2020b/lib/python3.8/site-packages/numpy (version 1.19.4)
scipy:  /home/modules/software/SciPy-bundle/2020.11-foss-2020b/lib/python3.8/site-packages/scipy (version 1.5.4)
libxc:  4.3.4
units:  Angstrom and eV
cores: 40
OpenMP: False
OMP_NUM_THREADS: 1

Input parameters:
  convergence: {density: 1e-09}
  experimental: {magmoms: [[0. 0. 0.]
 [0. 0. 0.]
 [0. 0. 0.]
 ...
 [0. 0. 5.]
 [0. 0. 0.]
 [0. 0. 0.]],
                 soc: True}
  kpts: [4 4 6]
  maxiter: 5000
  mixer: {backend: pulay,
          beta: 0.02,
          method: difference,
          nmaxold: 5,
          weight: 100}
  mode: {ecut: 600.0,
         gammacentered: False,
         name: pw}
  occupations: {name: fermi-dirac,
                width: 0.001}
  symmetry: off

System changes: positions, numbers, cell, pbc, initial_charges, initial_magmoms 

Initialize ...

O-setup:
  name: Oxygen
  id: 9b9d51c344dea68c822856295a461509
  Z: 8.0
  valence: 6
  core: 2
  charge: 0.0
  file: /home/modules/software/GPAW-setups/0.9.20000/O.LDA.gz
  compensation charges: gauss, rc=0.21, lmax=2
  cutoffs: 1.17(filt), 0.83(core),
  valence states:
                energy  radius
    2s(2.00)   -23.752   0.688
    2p(4.00)    -9.195   0.598
    *s           3.459   0.688
    *p          18.016   0.598
    *d           0.000   0.619

  Using partial waves for O as LCAO basis

Cr-setup:
  name: Chromium
  id: 444e8044bc0f91048286c984738d87f5
  Z: 24.0
  valence: 6
  core: 18
  charge: 0.0
  file: /home/modules/software/GPAW-setups/0.9.20000/Cr.LDA.gz
  compensation charges: gauss, rc=0.35, lmax=2
  cutoffs: 2.14(filt), 3.04(core),
  valence states:
                energy  radius
    4s(1.00)    -4.191   1.164
    4p(0.00)    -1.079   1.217
    3d(5.00)    -3.128   1.111
    *s          23.021   1.164
    *p          26.132   1.217
    *d          24.083   1.111

  Using partial waves for Cr as LCAO basis

Reference energy: -126274.181857

Non-collinear calculation.
Magnetic moment: (0.000000, 0.000000, 0.000000)

Convergence criteria:
  Maximum total energy change: 0.0005 eV / electron
  Maximum integral of absolute density change: 1e-09 electrons
  Maximum integral of absolute eigenstate change: 4e-08 eV^2
  Maximum number of iterations: 5000

Symmetries present (total): 1

  ( 1  0  0)
  ( 0  1  0)
  ( 0  0  1)

96 k-points: 4 x 4 x 6 Monkhorst-Pack grid
96 k-points in the irreducible part of the Brillouin zone
       k-points in crystal coordinates                weights
   0:    -0.37500000   -0.37500000   -0.41666667          1/96
   1:    -0.37500000   -0.37500000   -0.25000000          1/96
   2:    -0.37500000   -0.37500000   -0.08333333          1/96
   3:    -0.37500000   -0.37500000    0.08333333          1/96
   4:    -0.37500000   -0.37500000    0.25000000          1/96
   5:    -0.37500000   -0.37500000    0.41666667          1/96
   6:    -0.37500000   -0.12500000   -0.41666667          1/96
   7:    -0.37500000   -0.12500000   -0.25000000          1/96
   8:    -0.37500000   -0.12500000   -0.08333333          1/96
   9:    -0.37500000   -0.12500000    0.08333333          1/96
          ...
  95:     0.37500000    0.37500000    0.41666667          1/96

Wave functions: Plane wave expansion
  Cutoff energy: 600.000 eV
  Number of coefficients (min, max): 2899, 2926
  Pulay-stress correction: 0.000000 eV/Ang^3 (de/decut=0.000000)
  Using FFTW library
  ScaLapack parameters: grid=1x1, blocksize=None
  Wavefunction extrapolation:
    Improved wavefunction reuse through dual PAW basis 

Occupation numbers: Fermi-Dirac: width=0.0010 eV
 

Eigensolver
   Davidson(niter=2) 

Densities:
  Coarse grid: 32*32*32 grid
  Fine grid: 64*64*64 grid
  Total Charge: 0.000000 

Density mixing:
  Method: difference
  Backend: pulay
  Linear mixing parameter: 0.02
  Mixing with 5 old densities
  Damping of long wave oscillations: 100 

Hamiltonian:
  XC and Coulomb potentials evaluated on a 64*64*64 grid
  Using the LDA Exchange-Correlation functional
  External potential:
    <gpaw.external.NoExternalPotential object at 0x2b9cf24665b0>
 

Memory estimate:
  Process memory now: 444.18 MiB
  Calculator: 34.72 MiB
    Density: 15.86 MiB
      Arrays: 6.50 MiB
      Localized functions: 3.86 MiB
      Mixer: 5.50 MiB
    Hamiltonian: 4.34 MiB
      Arrays: 4.25 MiB
      XC: 0.00 MiB
      Poisson: 0.00 MiB
      vbar: 0.09 MiB
    Wavefunctions: 14.51 MiB
      Arrays psit_nG: 7.14 MiB
      Eigensolver: 4.77 MiB
      Projections: 0.37 MiB
      Projectors: 0.89 MiB
      PW-descriptor: 1.34 MiB

Total number of cores used: 40
Parallelization over k-points: 40

Number of atoms: 10
Number of atomic orbitals: 60
Number of bands in calculation: 80
Number of valence electrons: 60
Bands to converge: occupied

... initialized

Initializing position-dependent things.

Density initialized from atomic densities
Creating initial wave functions:
  60 bands from LCAO basis set
  20 bands from random numbers

                          
                          
                          
                          
            Cr            
                          
                          
            Cr            
           O              
         O      O         
                          
        O      O          
             O            
            Cr            
                          
                          
            Cr            
                          
                          
                          
                          

Positions:
   0 O     -0.758934   -1.391665    8.037177    ( 0.0000,  0.0000,  0.0000)
   1 O     -1.583875   -0.039230    5.740729    ( 0.0000,  0.0000,  0.0000)
   2 O     -0.823830    1.352031    8.038526    ( 0.0000,  0.0000,  0.0000)
   3 O      0.823830   -1.352479    5.742289    ( 0.0000,  0.0000,  0.0000)
   4 Cr     0.000659    0.001860    2.195938    ( 0.0000,  0.0000,  5.0000)
   5 Cr    -0.000667    0.001719    4.693228    ( 0.0000,  0.0000, -5.0000)
   6 Cr     0.000667    0.001339   11.582394    ( 0.0000,  0.0000, -5.0000)
   7 Cr    -0.000661    0.001486    9.085106    ( 0.0000,  0.0000,  5.0000)
   8 O      1.581333    0.034393    8.036359    ( 0.0000,  0.0000,  0.0000)
   9 O      0.761478    1.386831    5.739908    ( 0.0000,  0.0000,  0.0000)

Unit cell:
           periodic     x           y           z      points  spacing
  1. axis:    yes    2.342815    1.352071    4.592704    32     0.1216
  2. axis:    yes   -2.342815    1.352071    4.592704    32     0.1216
  3. axis:    yes    0.000000   -2.704886    4.592923    32     0.1216

  Lengths:   5.330085   5.330085   5.330230
  Angles:   52.139511  52.139510  52.149782

Effective grid spacing dv^(1/3) = 0.1386

                     log10-error:    total        iterations:
           time      wfs    density  energy       poisson
iter:   1  18:23:24                 -99.631228            +0.0,+0.0,+0.0
iter:   2  18:23:29  -0.65  -0.99  -100.951776            -0.0,+0.0,+0.0
iter:   3  18:23:34  -0.08  -1.00   -97.147799            -0.0,+0.0,+0.0
iter:   4  18:23:39  -0.60  -1.35   -97.337290            -0.0,+0.0,+0.0
iter:   5  18:23:44  -1.12  -1.37   -97.423316            -0.0,+0.0,+0.0
iter:   6  18:23:49  -0.38  -1.38   -98.571527            -0.0,+0.0,+0.0
iter:   7  18:23:54  -1.08  -1.54   -97.143316            -0.0,+0.0,+0.0
iter:   8  18:23:59  -2.27  -1.84   -97.265022            -0.0,+0.0,+0.0
iter:   9  18:24:04  -1.38  -1.79   -97.147298            -0.0,+0.0,+0.0
iter:  10  18:24:09  -0.60  -1.83   -97.352668            -0.0,+0.0,+0.0
iter:  11  18:24:14  -1.57  -1.72   -96.852493            -0.0,+0.0,+0.0
iter:  12  18:24:20  -2.69  -2.33   -96.854771            -0.0,+0.0,+0.0
iter:  13  18:24:25  -2.06  -2.41   -96.857566            -0.0,+0.0,+0.0
iter:  14  18:24:30  -2.74  -2.52   -96.858413            -0.0,+0.0,+0.0
iter:  15  18:24:35  -3.12  -2.52   -96.860144            -0.0,+0.0,+0.0
iter:  16  18:24:40  -2.67  -2.43   -96.877515            -0.0,+0.0,+0.0
iter:  17  18:24:45  -3.12  -2.25   -96.873317            -0.0,+0.0,+0.0
iter:  18  18:24:50  -3.19  -2.38   -96.878924            -0.0,+0.0,+0.0
iter:  19  18:24:55  -2.59  -2.28   -96.874369            -0.0,+0.0,+0.0
iter:  20  18:25:00  -2.83  -2.41   -96.857187            -0.0,+0.0,+0.0
iter:  21  18:25:05  -3.18  -2.60   -96.863762            -0.0,+0.0,+0.0
iter:  22  18:25:10  -3.06  -2.52   -96.858027            -0.0,+0.0,+0.0
iter:  23  18:25:15  -2.85  -2.63   -96.850619            -0.0,+0.0,+0.0
iter:  24  18:25:20  -3.52  -3.02   -96.851098            -0.0,+0.0,+0.0
iter:  25  18:25:25  -3.60  -3.07   -96.853181            -0.0,+0.0,+0.0
iter:  26  18:25:30  -4.33  -2.93   -96.852216            -0.0,+0.0,+0.0
iter:  27  18:25:35  -4.30  -2.97   -96.852189            -0.0,+0.0,+0.0
iter:  28  18:25:40  -4.12  -2.98   -96.852373            -0.0,+0.0,+0.0
iter:  29  18:25:45  -4.30  -2.99   -96.851637            -0.0,+0.0,+0.0
iter:  30  18:25:50  -4.89  -3.04   -96.851633            -0.0,+0.0,+0.0
iter:  31  18:25:55  -3.64  -3.05   -96.853151            -0.0,+0.0,+0.0
iter:  32  18:26:00  -3.58  -2.96   -96.851526            -0.0,+0.0,+0.0
iter:  33  18:26:05  -4.33  -3.22   -96.851626            -0.0,+0.0,+0.0
iter:  34  18:26:10  -4.73  -3.23   -96.851656            -0.0,+0.0,+0.0
iter:  35  18:26:15  -5.12  -3.25   -96.851583            -0.0,+0.0,+0.0
iter:  36  18:26:20  -4.60  -3.30   -96.851451            -0.0,+0.0,+0.0
iter:  37  18:26:25  -5.31  -3.33   -96.851448            -0.0,+0.0,+0.0
iter:  38  18:26:30  -4.27  -3.37   -96.851601            -0.0,+0.0,+0.0
iter:  39  18:26:35  -4.96  -3.35   -96.851376            -0.0,+0.0,+0.0
iter:  40  18:26:40  -4.65  -3.65   -96.851352            -0.0,+0.0,+0.0
iter:  41  18:26:46  -5.50  -3.94   -96.851350            -0.0,+0.0,+0.0
iter:  42  18:26:51  -6.01  -4.04   -96.851352            -0.0,+0.0,+0.0
iter:  43  18:26:56  -6.15  -4.02   -96.851348            -0.0,+0.0,+0.0
iter:  44  18:27:01  -6.21  -4.09   -96.851348            -0.0,+0.0,+0.0
iter:  45  18:27:06  -5.80  -4.11   -96.851355            -0.0,+0.0,+0.0
iter:  46  18:27:11  -6.15  -4.14   -96.851349            -0.0,+0.0,+0.0
iter:  47  18:27:16  -6.32  -4.24   -96.851348            -0.0,+0.0,+0.0
iter:  48  18:27:21  -6.38  -4.29   -96.851347            -0.0,+0.0,+0.0
iter:  49  18:27:26  -6.62  -4.41   -96.851346            -0.0,+0.0,+0.0
iter:  50  18:27:31  -6.64  -4.46   -96.851345            -0.0,+0.0,+0.0
iter:  51  18:27:36  -6.83  -4.63   -96.851345            -0.0,+0.0,+0.0
iter:  52  18:27:41  -7.10  -4.65   -96.851346            -0.0,+0.0,+0.0
iter:  53  18:27:46  -7.01  -4.65   -96.851346            -0.0,+0.0,+0.0
iter:  54  18:27:51  -7.21  -4.78   -96.851346            -0.0,+0.0,+0.0
iter:  55  18:27:56  -7.03  -4.83   -96.851346            -0.0,+0.0,+0.0
iter:  56  18:28:01  -7.17  -4.86   -96.851346            -0.0,+0.0,+0.0
iter:  57  18:28:06  -7.43  -5.04   -96.851346            -0.0,+0.0,+0.0
iter:  58  18:28:11  -7.60  -5.19   -96.851346            -0.0,+0.0,+0.0
iter:  59  18:28:16  -7.74  -5.20   -96.851346            -0.0,+0.0,+0.0
iter:  60  18:28:21  -7.70  -5.19   -96.851346            -0.0,+0.0,+0.0
iter:  61  18:28:26  -7.91  -5.19   -96.851346            -0.0,+0.0,+0.0
iter:  62  18:28:31  -7.88  -5.16   -96.851346            -0.0,+0.0,+0.0
iter:  63  18:28:36  -8.08  -5.27   -96.851346            -0.0,+0.0,+0.0
iter:  64  18:28:41  -8.12  -5.27   -96.851346            -0.0,+0.0,+0.0
iter:  65  18:28:46  -8.23  -5.31   -96.851346            -0.0,+0.0,+0.0
iter:  66  18:28:51  -8.35  -5.38   -96.851346            -0.0,+0.0,+0.0
iter:  67  18:28:56  -8.39  -5.39   -96.851346            -0.0,+0.0,+0.0
iter:  68  18:29:01  -8.53  -5.48   -96.851346            -0.0,+0.0,+0.0
iter:  69  18:29:06  -8.61  -5.55   -96.851346            -0.0,+0.0,+0.0
iter:  70  18:29:11  -8.74  -5.59   -96.851346            -0.0,+0.0,+0.0
iter:  71  18:29:16  -8.80  -5.53   -96.851346            -0.0,+0.0,+0.0
iter:  72  18:29:21  -8.82  -5.55   -96.851346            -0.0,+0.0,+0.0
iter:  73  18:29:26  -8.94  -5.54   -96.851346            -0.0,+0.0,+0.0
iter:  74  18:29:31  -9.02  -5.55   -96.851346            -0.0,+0.0,+0.0
iter:  75  18:29:36  -8.85  -5.58   -96.851346            -0.0,+0.0,+0.0
iter:  76  18:29:41  -9.03  -5.61   -96.851346            -0.0,+0.0,+0.0
iter:  77  18:29:46  -9.24  -5.66   -96.851346            -0.0,+0.0,+0.0
iter:  78  18:29:51  -9.26  -5.68   -96.851346            -0.0,+0.0,+0.0
iter:  79  18:29:56  -9.36  -5.73   -96.851346            -0.0,+0.0,+0.0
iter:  80  18:30:01  -9.53  -5.78   -96.851346            -0.0,+0.0,+0.0
iter:  81  18:30:06  -9.62  -5.83   -96.851346            -0.0,+0.0,+0.0
iter:  82  18:30:11  -9.50  -5.87   -96.851346            -0.0,+0.0,+0.0
iter:  83  18:30:16  -9.59  -5.89   -96.851346            -0.0,+0.0,+0.0
iter:  84  18:30:21  -9.75  -6.00   -96.851346            -0.0,+0.0,+0.0
iter:  85  18:30:26  -9.83  -6.02   -96.851346            -0.0,+0.0,+0.0
iter:  86  18:30:31  -9.70  -6.10   -96.851346            -0.0,+0.0,+0.0
iter:  87  18:30:36 -10.07  -6.20   -96.851346            -0.0,+0.0,+0.0
iter:  88  18:30:41 -10.14  -6.23   -96.851346            -0.0,+0.0,+0.0
iter:  89  18:30:46 -10.15  -6.24   -96.851346            -0.0,+0.0,+0.0
iter:  90  18:30:51 -10.22  -6.28   -96.851346            -0.0,+0.0,+0.0
iter:  91  18:30:56 -10.34  -6.30   -96.851346            -0.0,+0.0,+0.0
iter:  92  18:31:01 -10.50  -6.34   -96.851346            -0.0,+0.0,+0.0
iter:  93  18:31:06 -10.24  -6.38   -96.851346            -0.0,+0.0,+0.0
iter:  94  18:31:11 -10.42  -6.48   -96.851346            -0.0,+0.0,+0.0
iter:  95  18:31:16 -10.51  -6.63   -96.851346            -0.0,+0.0,+0.0
iter:  96  18:31:21 -10.61  -6.70   -96.851346            -0.0,+0.0,+0.0
iter:  97  18:31:26 -10.71  -6.72   -96.851346            -0.0,+0.0,+0.0
iter:  98  18:31:31 -10.84  -6.75   -96.851346            -0.0,+0.0,+0.0
iter:  99  18:31:36 -10.93  -6.78   -96.851346            -0.0,+0.0,+0.0
iter: 100  18:31:41 -11.02  -6.85   -96.851346            -0.0,+0.0,+0.0
iter: 101  18:31:46 -11.15  -7.00   -96.851346            -0.0,+0.0,+0.0
iter: 102  18:31:51 -11.14  -7.03   -96.851346            -0.0,+0.0,+0.0
iter: 103  18:31:56 -11.23  -7.08   -96.851346            -0.0,+0.0,+0.0
iter: 104  18:32:01 -11.31  -7.09   -96.851346            -0.0,+0.0,+0.0
iter: 105  18:32:06 -11.32  -7.14   -96.851346            -0.0,+0.0,+0.0
iter: 106  18:32:11 -11.41  -7.18   -96.851346            -0.0,+0.0,+0.0
iter: 107  18:32:16 -11.46  -7.19   -96.851346            -0.0,+0.0,+0.0
iter: 108  18:32:21 -11.50  -7.21   -96.851346            -0.0,+0.0,+0.0
iter: 109  18:32:26 -11.45  -7.39   -96.851346            -0.0,+0.0,+0.0
iter: 110  18:32:31 -11.45  -7.39   -96.851346            -0.0,+0.0,+0.0
iter: 111  18:32:36 -11.48  -7.36   -96.851346            -0.0,+0.0,+0.0
iter: 112  18:32:41 -11.78  -7.36   -96.851346            -0.0,+0.0,+0.0
iter: 113  18:32:46 -11.73  -7.37   -96.851346            -0.0,+0.0,+0.0
iter: 114  18:32:51 -11.95  -7.33   -96.851346            -0.0,+0.0,+0.0
iter: 115  18:32:56 -11.96  -7.34   -96.851346            -0.0,+0.0,+0.0
iter: 116  18:33:01 -11.31  -7.35   -96.851346            -0.0,+0.0,+0.0
iter: 117  18:33:06 -11.65  -7.36   -96.851346            -0.0,+0.0,+0.0
iter: 118  18:33:11 -12.07  -7.34   -96.851346            -0.0,+0.0,+0.0
iter: 119  18:33:16 -11.85  -7.36   -96.851346            -0.0,+0.0,+0.0
iter: 120  18:33:21 -11.24  -7.38   -96.851346            -0.0,+0.0,+0.0
iter: 121  18:33:26 -11.58  -7.44   -96.851346            -0.0,+0.0,+0.0
iter: 122  18:33:31 -12.13  -7.48   -96.851346            -0.0,+0.0,+0.0
iter: 123  18:33:36 -11.87  -7.53   -96.851346            -0.0,+0.0,+0.0
iter: 124  18:33:41 -11.27  -7.59   -96.851346            -0.0,+0.0,+0.0
iter: 125  18:33:46 -11.67  -7.62   -96.851346            -0.0,+0.0,+0.0
iter: 126  18:33:51 -12.17  -7.72   -96.851346            -0.0,+0.0,+0.0
iter: 127  18:33:56 -12.08  -7.84   -96.851346            -0.0,+0.0,+0.0
iter: 128  18:34:01 -11.37  -7.89   -96.851346            -0.0,+0.0,+0.0
iter: 129  18:34:06 -11.85  -7.95   -96.851346            -0.0,+0.0,+0.0
iter: 130  18:34:11 -12.28  -8.03   -96.851346            -0.0,+0.0,+0.0
iter: 131  18:34:16 -12.45  -8.05   -96.851346            -0.0,+0.0,+0.0
iter: 132  18:34:21 -12.57  -8.07   -96.851346            -0.0,+0.0,+0.0
iter: 133  18:34:26 -11.78  -8.10   -96.851346            -0.0,+0.0,+0.0
iter: 134  18:34:31 -11.53  -8.13   -96.851346            -0.0,+0.0,+0.0
iter: 135  18:34:36 -11.48  -8.14   -96.851346            -0.0,+0.0,+0.0
iter: 136  18:34:41 -11.29  -8.18   -96.851346            -0.0,+0.0,+0.0
iter: 137  18:34:46 -11.93  -8.20   -96.851346            -0.0,+0.0,+0.0
iter: 138  18:34:51 -12.12  -8.24   -96.851346            -0.0,+0.0,+0.0
iter: 139  18:34:56 -11.70  -8.27   -96.851346            -0.0,+0.0,+0.0
iter: 140  18:35:01 -11.27  -8.24   -96.851346            -0.0,+0.0,+0.0
iter: 141  18:35:06 -11.81  -8.33   -96.851346            -0.0,+0.0,+0.0
iter: 142  18:35:11 -12.38  -8.36   -96.851346            -0.0,+0.0,+0.0
iter: 143  18:35:16 -12.23  -8.44   -96.851346            -0.0,+0.0,+0.0
iter: 144  18:35:21 -11.01  -8.50   -96.851346            -0.0,+0.0,+0.0
iter: 145  18:35:26 -11.96  -8.53   -96.851346            -0.0,+0.0,+0.0
iter: 146  18:35:31 -11.94  -8.59   -96.851346            -0.0,+0.0,+0.0
iter: 147  18:35:36 -10.82  -8.61   -96.851346            -0.0,+0.0,+0.0
iter: 148  18:35:41 -11.93  -8.59   -96.851346            -0.0,+0.0,+0.0
iter: 149  18:35:46 -11.77  -8.62   -96.851346            -0.0,+0.0,+0.0
iter: 150  18:35:51 -11.53  -8.60   -96.851346            -0.0,+0.0,+0.0
iter: 151  18:35:56 -11.34  -8.61   -96.851346            -0.0,+0.0,+0.0
iter: 152  18:36:01 -11.64  -8.57   -96.851346            -0.0,+0.0,+0.0
iter: 153  18:36:06 -12.29  -8.62   -96.851346            -0.0,+0.0,+0.0
iter: 154  18:36:11 -11.95  -8.60   -96.851346            -0.0,+0.0,+0.0
iter: 155  18:36:16 -11.39  -8.62   -96.851346            -0.0,+0.0,+0.0
iter: 156  18:36:21 -11.69  -8.61   -96.851346            -0.0,+0.0,+0.0
iter: 157  18:36:26 -12.41  -8.61   -96.851346            -0.0,+0.0,+0.0
iter: 158  18:36:31 -11.86  -8.61   -96.851346            -0.0,+0.0,+0.0
iter: 159  18:36:36 -11.49  -8.61   -96.851346            -0.0,+0.0,+0.0
iter: 160  18:36:41 -11.47  -8.60   -96.851346            -0.0,+0.0,+0.0
iter: 161  18:36:46 -10.63  -8.63   -96.851346            -0.0,+0.0,+0.0
iter: 162  18:36:51 -11.43  -8.61   -96.851346            -0.0,+0.0,+0.0
iter: 163  18:36:56 -11.61  -8.64   -96.851346            -0.0,+0.0,+0.0
iter: 164  18:37:01 -11.73  -8.62   -96.851346            -0.0,+0.0,+0.0
iter: 165  18:37:06 -11.74  -8.67   -96.851346            -0.0,+0.0,+0.0
iter: 166  18:37:11 -11.38  -8.76   -96.851346            -0.0,+0.0,+0.0
iter: 167  18:37:16 -11.73  -8.70   -96.851346            -0.0,+0.0,+0.0
iter: 168  18:37:21 -12.52  -8.68   -96.851346            -0.0,+0.0,+0.0
iter: 169  18:37:26 -11.79  -8.63   -96.851346            -0.0,+0.0,+0.0
iter: 170  18:37:31 -11.36  -8.60   -96.851346            -0.0,+0.0,+0.0
iter: 171  18:37:36 -11.43  -8.63   -96.851346            -0.0,+0.0,+0.0
iter: 172  18:37:41 -11.17  -8.71   -96.851346            -0.0,+0.0,+0.0
iter: 173  18:37:46 -11.09  -8.99   -96.851346            -0.0,+0.0,+0.0
iter: 174  18:37:51 -11.76  -9.01   -96.851346            -0.0,+0.0,+0.0

Converged after 174 iterations.

Dipole moment: (-0.024134, -0.000270, -0.000384) |e|*Ang

Total magnetic moment: (-0.000000, 0.000280, 0.000093)
Local magnetic moments:
   0 O  (-0.000018,  0.000034, -0.000455)
   1 O  ( 0.000018,  0.000034, -0.000456)
   2 O  ( 0.000034,  0.000001,  0.000591)
   3 O  (-0.000034,  0.000001,  0.000592)
   4 Cr ( 0.000036, -0.000165,  2.208794)
   5 Cr (-0.000189,  0.000297, -2.208760)
   6 Cr ( 0.000189,  0.000298, -2.208752)
   7 Cr (-0.000036, -0.000165,  2.208800)
   8 O  (-0.000018, -0.000034, -0.000132)
   9 O  ( 0.000018, -0.000034, -0.000134)

Energy contributions relative to reference atoms: (reference = -126274.181857)

Kinetic:        +34.283839
Potential:      -53.918151
External:        +0.000000
XC:             -78.951155
Entropy (-ST):   -0.000000
Local:           +1.734121
--------------------------
Free energy:    -96.851346
Extrapolated:   -96.851346

Showing only first 2 kpts
 Kpt  Band  Eigenvalues  Occupancy
  0    28      2.74967    1.00000
  0    29      2.75083    1.00000
  0    30      2.96488    1.00000
  0    31      2.96645    1.00000

  1    28      2.89842    1.00000
  1    29      2.89857    1.00000
  1    30      2.93982    1.00000
  1    31      2.94212    1.00000


Fermi level: 9.08341

Gap: 0.831 eV
Transition (v -> c):
  (s=0, k=32, n=59, [-0.12, -0.12, -0.08]) -> (s=0, k=32, n=60, [-0.12, -0.12, -0.08])
Timing:                              incl.     excl.
-----------------------------------------------------------
Hamiltonian:                         0.356     0.004   0.0% |
 Atomic:                             0.131     0.131   0.0% |
  XC Correction:                     0.000     0.000   0.0% |
 Calculate atomic Hamiltonians:      0.026     0.026   0.0% |
 Communicate:                        0.000     0.000   0.0% |
 Initialize Hamiltonian:             0.001     0.001   0.0% |
 Poisson:                            0.001     0.001   0.0% |
 XC 3D grid:                         0.194     0.194   0.0% |
LCAO initialization:                27.125     0.142   0.0% |
 LCAO eigensolver:                  11.816     0.000   0.0% |
  DenseAtomicCorrection:             0.004     0.004   0.0% |
  Distribute overlap matrix:         0.000     0.000   0.0% |
  Orbital Layouts:                   0.009     0.009   0.0% |
  Potential matrix:                 11.775    11.775   1.3% ||
  Sum over cells:                    0.028     0.028   0.0% |
 LCAO to grid:                      14.685    14.685   1.6% ||
 Set positions (LCAO WFS):           0.482     0.112   0.0% |
  Basic WFS set positions:           0.000     0.000   0.0% |
  Basis functions set positions:     0.000     0.000   0.0% |
  P tci:                             0.130     0.130   0.0% |
  ST tci:                            0.153     0.153   0.0% |
  mktci:                             0.086     0.086   0.0% |
PWDescriptor:                        0.007     0.007   0.0% |
SCF-cycle:                         880.026   232.804  25.6% |---------|
 Davidson:                         473.661    33.591   3.7% ||
  Apply H:                          97.606    97.606  10.7% |---|
  Subspace diag:                   110.268     0.058   0.0% |
   calc_h_matrix:                  102.810     4.483   0.5% |
    Apply H:                        98.327    98.327  10.8% |---|
   diagonalize:                      0.961     0.961   0.1% |
   rotate_psi:                       6.440     6.440   0.7% |
  calc. matrices:                  213.454    24.892   2.7% ||
   Apply H:                        188.562   188.562  20.8% |-------|
  diagonalize:                       7.281     7.281   0.8% |
  rotate_psi:                       11.460    11.460   1.3% ||
 Density:                          116.446     0.005   0.0% |
  Atomic density matrices:           5.072     5.072   0.6% |
  Mix:                              12.253    12.253   1.3% ||
  Multipole moments:                 0.054     0.054   0.0% |
  Pseudo density:                   99.062    99.053  10.9% |---|
   Symmetrize density:               0.009     0.009   0.0% |
 Hamiltonian:                       57.046     0.511   0.1% |
  Atomic:                           14.183    14.182   1.6% ||
   XC Correction:                    0.001     0.001   0.0% |
  Calculate atomic Hamiltonians:     5.449     5.449   0.6% |
  Communicate:                       0.029     0.029   0.0% |
  Poisson:                           0.169     0.169   0.0% |
  XC 3D grid:                       36.706    36.706   4.0% |-|
 Orthonormalize:                     0.068     0.000   0.0% |
  calc_s_matrix:                     0.015     0.015   0.0% |
  inverse-cholesky:                  0.001     0.001   0.0% |
  projections:                       0.030     0.030   0.0% |
  rotate_psi_s:                      0.021     0.021   0.0% |
Set symmetry:                        0.000     0.000   0.0% |
Other:                               0.748     0.748   0.1% |
-----------------------------------------------------------
Total:                                       908.262 100.0%

Memory usage: 457.25 MiB
Date: Wed Jul  6 18:37:51 2022
