
  ___ ___ ___ _ _ _  
 |   |   |_  | | | | 
 | | | | | . | | | | 
 |__ |  _|___|_____|  21.6.1b1
 |___|_|             

User:   madkru@c119.nifl.fysik.dtu.dk
Date:   Wed Jul  6 10:18:04 2022
Arch:   x86_64
Pid:    227957
Python: 3.8.6
gpaw:   /home/niflheim/madkru/new_venv/gpaw/gpaw (1f0dfc9eae)
_gpaw:  /home/niflheim/madkru/new_venv/gpaw/build/lib.linux-x86_64-skylake-3.8/
        _gpaw.cpython-38-x86_64-linux-gnu.so (c1e45bfab3)
ase:    /home/niflheim/madkru/new_venv/ase/ase (version 3.23.0b1-ca38c75a67)
numpy:  /home/modules/software/SciPy-bundle/2020.11-foss-2020b/lib/python3.8/site-packages/numpy (version 1.19.4)
scipy:  /home/modules/software/SciPy-bundle/2020.11-foss-2020b/lib/python3.8/site-packages/scipy (version 1.5.4)
libxc:  4.3.4
units:  Angstrom and eV
cores: 40
OpenMP: False
OMP_NUM_THREADS: 1

Input parameters:
  convergence: {density: 1e-09}
  experimental: {magmoms: [[0. 0. 0.]
 [0. 0. 0.]
 [0. 0. 0.]
 ...
 [0. 0. 5.]
 [0. 0. 0.]
 [0. 0. 0.]],
                 soc: True}
  kpts: [4 4 6]
  maxiter: 5000
  mixer: {backend: pulay,
          beta: 0.02,
          method: difference,
          nmaxold: 5,
          weight: 100}
  mode: {ecut: 600.0,
         gammacentered: False,
         name: pw}
  occupations: {name: fermi-dirac,
                width: 0.001}
  symmetry: off

System changes: positions, numbers, cell, pbc, initial_charges, initial_magmoms 

Initialize ...

O-setup:
  name: Oxygen
  id: 9b9d51c344dea68c822856295a461509
  Z: 8.0
  valence: 6
  core: 2
  charge: 0.0
  file: /home/modules/software/GPAW-setups/0.9.20000/O.LDA.gz
  compensation charges: gauss, rc=0.21, lmax=2
  cutoffs: 1.17(filt), 0.83(core),
  valence states:
                energy  radius
    2s(2.00)   -23.752   0.688
    2p(4.00)    -9.195   0.598
    *s           3.459   0.688
    *p          18.016   0.598
    *d           0.000   0.619

  Using partial waves for O as LCAO basis

Cr-setup:
  name: Chromium
  id: 444e8044bc0f91048286c984738d87f5
  Z: 24.0
  valence: 6
  core: 18
  charge: 0.0
  file: /home/modules/software/GPAW-setups/0.9.20000/Cr.LDA.gz
  compensation charges: gauss, rc=0.35, lmax=2
  cutoffs: 2.14(filt), 3.04(core),
  valence states:
                energy  radius
    4s(1.00)    -4.191   1.164
    4p(0.00)    -1.079   1.217
    3d(5.00)    -3.128   1.111
    *s          23.021   1.164
    *p          26.132   1.217
    *d          24.083   1.111

  Using partial waves for Cr as LCAO basis

Reference energy: -126274.181857

Non-collinear calculation.
Magnetic moment: (0.000000, 0.000000, 0.000000)

Convergence criteria:
  Maximum total energy change: 0.0005 eV / electron
  Maximum integral of absolute density change: 1e-09 electrons
  Maximum integral of absolute eigenstate change: 4e-08 eV^2
  Maximum number of iterations: 5000

Symmetries present (total): 1

  ( 1  0  0)
  ( 0  1  0)
  ( 0  0  1)

96 k-points: 4 x 4 x 6 Monkhorst-Pack grid
96 k-points in the irreducible part of the Brillouin zone
       k-points in crystal coordinates                weights
   0:    -0.37500000   -0.37500000   -0.41666667          1/96
   1:    -0.37500000   -0.37500000   -0.25000000          1/96
   2:    -0.37500000   -0.37500000   -0.08333333          1/96
   3:    -0.37500000   -0.37500000    0.08333333          1/96
   4:    -0.37500000   -0.37500000    0.25000000          1/96
   5:    -0.37500000   -0.37500000    0.41666667          1/96
   6:    -0.37500000   -0.12500000   -0.41666667          1/96
   7:    -0.37500000   -0.12500000   -0.25000000          1/96
   8:    -0.37500000   -0.12500000   -0.08333333          1/96
   9:    -0.37500000   -0.12500000    0.08333333          1/96
          ...
  95:     0.37500000    0.37500000    0.41666667          1/96

Wave functions: Plane wave expansion
  Cutoff energy: 600.000 eV
  Number of coefficients (min, max): 2899, 2926
  Pulay-stress correction: 0.000000 eV/Ang^3 (de/decut=0.000000)
  Using FFTW library
  ScaLapack parameters: grid=1x1, blocksize=None
  Wavefunction extrapolation:
    Improved wavefunction reuse through dual PAW basis 

Occupation numbers: Fermi-Dirac: width=0.0010 eV
 

Eigensolver
   Davidson(niter=2) 

Densities:
  Coarse grid: 32*32*32 grid
  Fine grid: 64*64*64 grid
  Total Charge: 0.000000 

Density mixing:
  Method: difference
  Backend: pulay
  Linear mixing parameter: 0.02
  Mixing with 5 old densities
  Damping of long wave oscillations: 100 

Hamiltonian:
  XC and Coulomb potentials evaluated on a 64*64*64 grid
  Using the LDA Exchange-Correlation functional
  External potential:
    <gpaw.external.NoExternalPotential object at 0x2ad4941e0730>
 

Memory estimate:
  Process memory now: 420.57 MiB
  Calculator: 34.72 MiB
    Density: 15.86 MiB
      Arrays: 6.50 MiB
      Localized functions: 3.86 MiB
      Mixer: 5.50 MiB
    Hamiltonian: 4.34 MiB
      Arrays: 4.25 MiB
      XC: 0.00 MiB
      Poisson: 0.00 MiB
      vbar: 0.09 MiB
    Wavefunctions: 14.51 MiB
      Arrays psit_nG: 7.14 MiB
      Eigensolver: 4.77 MiB
      Projections: 0.37 MiB
      Projectors: 0.89 MiB
      PW-descriptor: 1.34 MiB

Total number of cores used: 40
Parallelization over k-points: 40

Number of atoms: 10
Number of atomic orbitals: 60
Number of bands in calculation: 80
Number of valence electrons: 60
Bands to converge: occupied

... initialized

Initializing position-dependent things.

Density initialized from atomic densities
Creating initial wave functions:
  60 bands from LCAO basis set
  20 bands from random numbers

                          
                          
                          
                          
            Cr            
                          
                          
            Cr            
           O              
         O      O         
                          
        O      O          
             O            
            Cr            
                          
                          
            Cr            
                          
                          
                          
                          

Positions:
   0 O     -0.760403   -1.389198    8.037447    ( 0.0000,  0.0000,  0.0000)
   1 O     -1.582801   -0.037605    5.741705    ( 0.0000,  0.0000,  0.0000)
   2 O     -0.824758    1.351886    8.037286    ( 0.0000,  0.0000,  0.0000)
   3 O      0.822903   -1.352628    5.741042    ( 0.0000,  0.0000,  0.0000)
   4 Cr     0.000653   -0.000330    2.195940    ( 0.0000,  0.0000,  5.0000)
   5 Cr     0.000652   -0.000037    4.693224    ( 0.0000,  0.0000, -5.0000)
   6 Cr     0.000661   -0.000857   11.582391    ( 0.0000,  0.0000, -5.0000)
   7 Cr     0.000664   -0.000263    9.085105    ( 0.0000,  0.0000,  5.0000)
   8 O      1.582414    0.036011    8.037345    ( 0.0000,  0.0000,  0.0000)
   9 O      0.760016    1.389302    5.740166    ( 0.0000,  0.0000,  0.0000)

Unit cell:
           periodic     x           y           z      points  spacing
  1. axis:    yes    2.342815    1.352071    4.592704    32     0.1216
  2. axis:    yes   -2.342815    1.352071    4.592704    32     0.1216
  3. axis:    yes    0.000000   -2.704886    4.592923    32     0.1216

  Lengths:   5.330085   5.330085   5.330230
  Angles:   52.139511  52.139510  52.149782

Effective grid spacing dv^(1/3) = 0.1386

                     log10-error:    total        iterations:
           time      wfs    density  energy       poisson
iter:   1  10:18:46                 -99.631750            +0.0,+0.0,+0.0
iter:   2  10:18:51  -0.65  -0.99  -100.952272            +0.0,+0.0,+0.0
iter:   3  10:18:56  -0.08  -1.00   -97.148310            +0.0,-0.0,+0.0
iter:   4  10:19:01  -0.60  -1.35   -97.337828            +0.0,-0.0,+0.0
iter:   5  10:19:06  -1.12  -1.37   -97.424071            +0.0,+0.0,+0.0
iter:   6  10:19:11  -0.38  -1.38   -98.571883            +0.0,+0.0,+0.0
iter:   7  10:19:16  -1.08  -1.55   -97.143539            +0.0,+0.0,+0.0
iter:   8  10:19:21  -2.27  -1.84   -97.265335            +0.0,-0.0,+0.0
iter:   9  10:19:26  -1.38  -1.79   -97.147887            +0.0,-0.0,+0.0
iter:  10  10:19:31  -0.60  -1.83   -97.359081            +0.0,-0.0,+0.0
iter:  11  10:19:36  -1.56  -1.71   -96.852952            +0.0,-0.0,+0.0
iter:  12  10:19:41  -2.68  -2.33   -96.855280            +0.0,-0.0,+0.0
iter:  13  10:19:46  -2.06  -2.42   -96.857875            +0.0,-0.0,+0.0
iter:  14  10:19:51  -2.73  -2.52   -96.859292            +0.0,-0.0,+0.0
iter:  15  10:19:56  -3.12  -2.51   -96.860767            +0.0,-0.0,+0.0
iter:  16  10:20:01  -2.57  -2.42   -96.882566            +0.0,-0.0,+0.0
iter:  17  10:20:06  -3.06  -2.21   -96.876250            +0.0,-0.0,+0.0
iter:  18  10:20:11  -3.08  -2.35   -96.884906            +0.0,-0.0,+0.0
iter:  19  10:20:16  -2.35  -2.24   -96.861147            +0.0,-0.0,+0.0
iter:  20  10:20:21  -2.98  -2.54   -96.857101            +0.0,-0.0,+0.0
iter:  21  10:20:26  -3.17  -2.63   -96.852403            +0.0,-0.0,+0.0
iter:  22  10:20:31  -3.73  -2.80   -96.856966            +0.0,+0.0,+0.0
iter:  23  10:20:36  -3.03  -2.65   -96.851704            +0.0,+0.0,+0.0
iter:  24  10:20:41  -3.82  -2.92   -96.853659            +0.0,+0.0,+0.0
iter:  25  10:20:46  -3.76  -2.86   -96.851936            +0.0,+0.0,+0.0
iter:  26  10:20:51  -4.27  -2.99   -96.851981            +0.0,+0.0,+0.0
iter:  27  10:20:56  -3.43  -3.00   -96.854796            +0.0,+0.0,+0.0
iter:  28  10:21:01  -3.46  -2.85   -96.851818            +0.0,+0.0,+0.0
iter:  29  10:21:07  -4.36  -3.92   -96.851881            +0.0,+0.0,+0.0
iter:  30  10:21:12  -4.45  -3.84   -96.852057            +0.0,+0.0,+0.0
iter:  31  10:21:17  -4.97  -3.55   -96.852075            +0.0,+0.0,+0.0
iter:  32  10:21:22  -5.27  -3.51   -96.851977            +0.0,+0.0,+0.0
iter:  33  10:21:27  -5.53  -3.62   -96.851986            +0.0,+0.0,+0.0
iter:  34  10:21:32  -4.96  -3.62   -96.851894            +0.0,+0.0,+0.0
iter:  35  10:21:37  -5.57  -3.97   -96.851910            +0.0,+0.0,+0.0
iter:  36  10:21:42  -5.03  -3.91   -96.851905            +0.0,+0.0,+0.0
iter:  37  10:21:47  -5.79  -3.93   -96.851899            +0.0,+0.0,+0.0
iter:  38  10:21:52  -6.04  -4.03   -96.851901            +0.0,+0.0,+0.0
iter:  39  10:21:57  -5.45  -4.04   -96.851922            +0.0,+0.0,+0.0
iter:  40  10:22:02  -5.33  -3.95   -96.851905            +0.0,+0.0,+0.0
iter:  41  10:22:07  -6.04  -4.12   -96.851905            +0.0,+0.0,+0.0
iter:  42  10:22:12  -6.02  -4.25   -96.851904            +0.0,+0.0,+0.0
iter:  43  10:22:17  -6.18  -4.38   -96.851906            +0.0,-0.0,+0.0
iter:  44  10:22:22  -6.29  -4.35   -96.851905            +0.0,-0.0,+0.0
iter:  45  10:22:27  -6.54  -4.47   -96.851905            +0.0,-0.0,+0.0
iter:  46  10:22:32  -6.55  -4.48   -96.851906            +0.0,-0.0,+0.0
iter:  47  10:22:37  -6.57  -4.54   -96.851906            +0.0,-0.0,+0.0
iter:  48  10:22:42  -6.68  -4.63   -96.851906            +0.0,-0.0,+0.0
iter:  49  10:22:47  -6.90  -4.64   -96.851906            +0.0,-0.0,+0.0
iter:  50  10:22:52  -6.93  -4.66   -96.851906            +0.0,-0.0,+0.0
iter:  51  10:22:57  -7.12  -4.76   -96.851906            +0.0,-0.0,+0.0
iter:  52  10:23:02  -7.27  -4.81   -96.851906            +0.0,-0.0,+0.0
iter:  53  10:23:07  -7.31  -4.82   -96.851906            +0.0,-0.0,+0.0
iter:  54  10:23:12  -7.25  -4.84   -96.851906            +0.0,-0.0,+0.0
iter:  55  10:23:17  -7.38  -4.87   -96.851906            +0.0,-0.0,+0.0
iter:  56  10:23:22  -7.54  -4.90   -96.851906            +0.0,-0.0,+0.0
iter:  57  10:23:27  -7.54  -4.92   -96.851906            +0.0,-0.0,+0.0
iter:  58  10:23:32  -7.60  -4.94   -96.851906            +0.0,-0.0,+0.0
iter:  59  10:23:37  -7.74  -5.33   -96.851906            +0.0,-0.0,+0.0
iter:  60  10:23:42  -7.92  -5.45   -96.851906            +0.0,-0.0,+0.0
iter:  61  10:23:47  -7.96  -5.50   -96.851906            +0.0,-0.0,+0.0
iter:  62  10:23:52  -8.12  -5.55   -96.851906            +0.0,-0.0,+0.0
iter:  63  10:23:57  -8.16  -5.57   -96.851906            +0.0,-0.0,+0.0
iter:  64  10:24:02  -8.26  -5.61   -96.851906            +0.0,+0.0,+0.0
iter:  65  10:24:07  -8.45  -5.63   -96.851906            +0.0,+0.0,+0.0
iter:  66  10:24:12  -8.54  -5.70   -96.851906            +0.0,+0.0,+0.0
iter:  67  10:24:17  -8.64  -5.86   -96.851906            +0.0,+0.0,+0.0
iter:  68  10:24:22  -8.78  -5.96   -96.851906            +0.0,+0.0,+0.0
iter:  69  10:24:27  -8.81  -6.03   -96.851906            +0.0,+0.0,+0.0
iter:  70  10:24:32  -8.93  -6.03   -96.851906            +0.0,+0.0,+0.0
iter:  71  10:24:37  -8.93  -6.05   -96.851906            +0.0,+0.0,+0.0
iter:  72  10:24:42  -9.05  -6.22   -96.851906            +0.0,+0.0,+0.0
iter:  73  10:24:47  -9.18  -6.41   -96.851906            +0.0,+0.0,+0.0
iter:  74  10:24:52  -9.22  -6.41   -96.851906            +0.0,+0.0,+0.0
iter:  75  10:24:57  -9.28  -6.41   -96.851906            +0.0,+0.0,+0.0
iter:  76  10:25:02  -9.39  -6.42   -96.851906            +0.0,+0.0,+0.0
iter:  77  10:25:07  -9.42  -6.37   -96.851906            +0.0,+0.0,+0.0
iter:  78  10:25:12  -9.49  -6.42   -96.851906            +0.0,+0.0,+0.0
iter:  79  10:25:17  -9.58  -6.41   -96.851906            +0.0,+0.0,+0.0
iter:  80  10:25:22  -9.64  -6.43   -96.851906            +0.0,+0.0,+0.0
iter:  81  10:25:27  -9.73  -6.42   -96.851906            +0.0,+0.0,+0.0
iter:  82  10:25:32  -9.73  -6.46   -96.851906            +0.0,+0.0,+0.0
iter:  83  10:25:37  -9.79  -6.57   -96.851906            +0.0,+0.0,+0.0
iter:  84  10:25:42  -9.87  -6.57   -96.851906            +0.0,+0.0,+0.0
iter:  85  10:25:48  -9.96  -6.57   -96.851906            +0.0,+0.0,+0.0
iter:  86  10:25:52 -10.07  -6.53   -96.851906            +0.0,+0.0,+0.0
iter:  87  10:25:58 -10.12  -6.52   -96.851906            +0.0,+0.0,+0.0
iter:  88  10:26:03 -10.14  -6.52   -96.851906            +0.0,+0.0,+0.0
iter:  89  10:26:08 -10.22  -6.51   -96.851906            +0.0,+0.0,+0.0
iter:  90  10:26:13 -10.32  -6.53   -96.851906            +0.0,+0.0,+0.0
iter:  91  10:26:18 -10.35  -6.48   -96.851906            +0.0,+0.0,+0.0
iter:  92  10:26:23 -10.44  -6.56   -96.851906            +0.0,+0.0,+0.0
iter:  93  10:26:28 -10.51  -6.59   -96.851906            +0.0,+0.0,+0.0
iter:  94  10:26:33 -10.59  -6.59   -96.851906            +0.0,+0.0,+0.0
iter:  95  10:26:38 -10.54  -6.60   -96.851906            +0.0,+0.0,+0.0
iter:  96  10:26:43 -10.64  -6.86   -96.851906            +0.0,+0.0,+0.0
iter:  97  10:26:48 -10.75  -7.01   -96.851906            +0.0,-0.0,+0.0
iter:  98  10:26:53 -10.77  -6.98   -96.851906            +0.0,-0.0,+0.0
iter:  99  10:26:58 -10.82  -6.95   -96.851906            +0.0,-0.0,+0.0
iter: 100  10:27:03 -10.98  -7.12   -96.851906            +0.0,-0.0,+0.0
iter: 101  10:27:08 -10.91  -7.13   -96.851906            +0.0,-0.0,+0.0
iter: 102  10:27:13 -10.93  -7.05   -96.851906            +0.0,-0.0,+0.0
iter: 103  10:27:18 -11.09  -7.24   -96.851906            +0.0,-0.0,+0.0
iter: 104  10:27:23 -11.25  -7.28   -96.851906            +0.0,-0.0,+0.0
iter: 105  10:27:28 -11.17  -7.29   -96.851906            +0.0,-0.0,+0.0
iter: 106  10:27:33 -11.20  -7.41   -96.851906            +0.0,-0.0,+0.0
iter: 107  10:27:38 -11.16  -7.44   -96.851906            +0.0,+0.0,+0.0
iter: 108  10:27:43 -11.43  -7.62   -96.851906            +0.0,+0.0,+0.0
iter: 109  10:27:48 -11.60  -7.76   -96.851906            +0.0,+0.0,+0.0
iter: 110  10:27:53 -11.66  -7.81   -96.851906            +0.0,+0.0,+0.0
iter: 111  10:27:58 -11.38  -7.93   -96.851906            +0.0,+0.0,+0.0
iter: 112  10:28:03 -11.33  -7.93   -96.851906            +0.0,+0.0,+0.0
iter: 113  10:28:08 -11.37  -8.02   -96.851906            +0.0,+0.0,+0.0
iter: 114  10:28:13 -11.42  -8.06   -96.851906            +0.0,+0.0,+0.0
iter: 115  10:28:18 -11.80  -8.07   -96.851906            +0.0,+0.0,+0.0
iter: 116  10:28:23 -11.90  -8.08   -96.851906            +0.0,+0.0,+0.0
iter: 117  10:28:28 -11.90  -8.20   -96.851906            +0.0,+0.0,+0.0
iter: 118  10:28:33 -11.28  -8.20   -96.851906            +0.0,+0.0,+0.0
iter: 119  10:28:38 -11.54  -8.18   -96.851906            +0.0,+0.0,+0.0
iter: 120  10:28:43 -12.02  -8.16   -96.851906            +0.0,+0.0,+0.0
iter: 121  10:28:48 -11.45  -8.16   -96.851906            +0.0,+0.0,+0.0
iter: 122  10:28:53 -11.39  -8.15   -96.851906            +0.0,+0.0,+0.0
iter: 123  10:28:58 -11.02  -8.17   -96.851906            +0.0,+0.0,+0.0
iter: 124  10:29:03 -11.80  -8.14   -96.851906            +0.0,+0.0,+0.0
iter: 125  10:29:08 -11.82  -8.14   -96.851906            +0.0,+0.0,+0.0
iter: 126  10:29:13 -11.03  -8.15   -96.851906            +0.0,+0.0,+0.0
iter: 127  10:29:18 -11.93  -8.11   -96.851906            +0.0,+0.0,+0.0
iter: 128  10:29:23 -11.87  -8.15   -96.851906            +0.0,+0.0,+0.0
iter: 129  10:29:28 -11.34  -8.13   -96.851906            +0.0,+0.0,+0.0
iter: 130  10:29:33 -11.84  -8.14   -96.851906            +0.0,+0.0,+0.0
iter: 131  10:29:38 -12.18  -8.16   -96.851906            +0.0,+0.0,+0.0
iter: 132  10:29:43 -12.49  -8.12   -96.851906            +0.0,+0.0,+0.0
iter: 133  10:29:48 -12.64  -8.12   -96.851906            +0.0,+0.0,+0.0
iter: 134  10:29:53 -12.42  -8.16   -96.851906            +0.0,-0.0,+0.0
iter: 135  10:29:58 -12.83  -8.18   -96.851906            +0.0,-0.0,+0.0
iter: 136  10:30:03 -12.88  -8.17   -96.851906            +0.0,-0.0,+0.0
iter: 137  10:30:08 -13.03  -8.15   -96.851906            +0.0,-0.0,+0.0
iter: 138  10:30:13 -13.15  -8.19   -96.851906            +0.0,-0.0,+0.0
iter: 139  10:30:18 -13.13  -8.14   -96.851906            +0.0,-0.0,+0.0
iter: 140  10:30:23 -13.29  -8.31   -96.851906            +0.0,-0.0,+0.0
iter: 141  10:30:28 -12.97  -8.29   -96.851906            +0.0,+0.0,+0.0
iter: 142  10:30:33 -12.95  -8.35   -96.851906            +0.0,-0.0,+0.0
iter: 143  10:30:38 -13.22  -8.36   -96.851906            +0.0,-0.0,+0.0
iter: 144  10:30:43 -13.57  -8.36   -96.851906            +0.0,-0.0,+0.0
iter: 145  10:30:48 -13.09  -8.33   -96.851906            +0.0,+0.0,+0.0
iter: 146  10:30:53 -11.48  -8.34   -96.851906            +0.0,+0.0,+0.0
iter: 147  10:30:58 -11.76  -8.30   -96.851906            +0.0,+0.0,+0.0
iter: 148  10:31:03 -12.63  -8.32   -96.851906            +0.0,+0.0,+0.0
iter: 149  10:31:08 -11.79  -8.37   -96.851906            +0.0,+0.0,+0.0
iter: 150  10:31:13 -11.25  -8.35   -96.851906            +0.0,+0.0,+0.0
iter: 151  10:31:18 -11.42  -8.39   -96.851906            +0.0,+0.0,+0.0
iter: 152  10:31:23 -11.57  -8.37   -96.851906            +0.0,+0.0,+0.0
iter: 153  10:31:28 -11.24  -8.36   -96.851906            +0.0,+0.0,+0.0
iter: 154  10:31:33 -11.59  -8.86   -96.851906            +0.0,+0.0,+0.0
iter: 155  10:31:38 -12.38  -8.88   -96.851906            +0.0,+0.0,+0.0
iter: 156  10:31:43 -11.61  -8.92   -96.851906            +0.0,+0.0,+0.0
iter: 157  10:31:48 -11.45  -8.93   -96.851906            +0.0,+0.0,+0.0
iter: 158  10:31:53 -11.13  -8.92   -96.851906            +0.0,+0.0,+0.0
iter: 159  10:31:58 -11.83  -8.92   -96.851906            +0.0,+0.0,+0.0
iter: 160  10:32:03 -12.03  -8.91   -96.851906            +0.0,+0.0,+0.0
iter: 161  10:32:08 -11.47  -8.87   -96.851906            +0.0,+0.0,+0.0
iter: 162  10:32:13 -11.12  -8.90   -96.851906            +0.0,+0.0,+0.0
iter: 163  10:32:18 -11.75  -8.88   -96.851906            +0.0,+0.0,+0.0
iter: 164  10:32:23 -12.24  -8.92   -96.851906            +0.0,+0.0,+0.0
iter: 165  10:32:28 -12.40  -8.89   -96.851906            +0.0,+0.0,+0.0
iter: 166  10:32:33 -11.87  -9.04   -96.851906            +0.0,+0.0,+0.0

Converged after 166 iterations.

Dipole moment: (-0.000081, 0.007979, -0.000060) |e|*Ang

Total magnetic moment: (0.000095, 0.000000, 0.000093)
Local magnetic moments:
   0 O  (-0.000018,  0.000034, -0.000332)
   1 O  ( 0.000019,  0.000033,  0.000008)
   2 O  ( 0.000034,  0.000001, -0.000000)
   3 O  (-0.000034,  0.000001,  0.000000)
   4 Cr (-0.000058, -0.000238,  2.208827)
   5 Cr (-0.000059,  0.000236, -2.208784)
   6 Cr ( 0.000102,  0.000163, -2.208784)
   7 Cr ( 0.000104, -0.000161,  2.208828)
   8 O  (-0.000017, -0.000034,  0.000332)
   9 O  ( 0.000018, -0.000034, -0.000008)

Energy contributions relative to reference atoms: (reference = -126274.181857)

Kinetic:        +34.277665
Potential:      -53.913177
External:        +0.000000
XC:             -78.950488
Entropy (-ST):   -0.000000
Local:           +1.734093
--------------------------
Free energy:    -96.851906
Extrapolated:   -96.851906

Showing only first 2 kpts
 Kpt  Band  Eigenvalues  Occupancy
  0    28      2.75024    1.00000
  0    29      2.75031    1.00000
  0    30      2.96559    1.00000
  0    31      2.96575    1.00000

  1    28      2.89829    1.00000
  1    29      2.89870    1.00000
  1    30      2.94095    1.00000
  1    31      2.94117    1.00000


Fermi level: 9.02495

Gap: 0.831 eV
Transition (v -> c):
  (s=0, k=32, n=59, [-0.12, -0.12, -0.08]) -> (s=0, k=32, n=60, [-0.12, -0.12, -0.08])
Timing:                              incl.     excl.
-----------------------------------------------------------
Hamiltonian:                         0.365     0.002   0.0% |
 Atomic:                             0.147     0.147   0.0% |
  XC Correction:                     0.000     0.000   0.0% |
 Calculate atomic Hamiltonians:      0.025     0.025   0.0% |
 Communicate:                        0.000     0.000   0.0% |
 Initialize Hamiltonian:             0.001     0.001   0.0% |
 Poisson:                            0.001     0.001   0.0% |
 XC 3D grid:                         0.189     0.189   0.0% |
LCAO initialization:                25.896     0.141   0.0% |
 LCAO eigensolver:                  11.606     0.000   0.0% |
  DenseAtomicCorrection:             0.004     0.004   0.0% |
  Distribute overlap matrix:         0.000     0.000   0.0% |
  Orbital Layouts:                   0.009     0.009   0.0% |
  Potential matrix:                 11.564    11.564   1.3% ||
  Sum over cells:                    0.028     0.028   0.0% |
 LCAO to grid:                      13.668    13.668   1.6% ||
 Set positions (LCAO WFS):           0.480     0.111   0.0% |
  Basic WFS set positions:           0.000     0.000   0.0% |
  Basis functions set positions:     0.000     0.000   0.0% |
  P tci:                             0.128     0.128   0.0% |
  ST tci:                            0.153     0.153   0.0% |
  mktci:                             0.088     0.088   0.0% |
PWDescriptor:                        0.007     0.007   0.0% |
SCF-cycle:                         841.281   223.293  25.7% |---------|
 Davidson:                         453.338    31.802   3.7% ||
  Apply H:                          94.337    94.337  10.9% |---|
  Subspace diag:                   104.839     0.056   0.0% |
   calc_h_matrix:                   97.791     4.414   0.5% |
    Apply H:                        93.376    93.376  10.8% |---|
   diagonalize:                      0.959     0.959   0.1% |
   rotate_psi:                       6.034     6.034   0.7% |
  calc. matrices:                  204.782    23.876   2.7% ||
   Apply H:                        180.905   180.905  20.8% |-------|
  diagonalize:                       6.855     6.855   0.8% |
  rotate_psi:                       10.723    10.723   1.2% |
 Density:                          110.525     0.005   0.0% |
  Atomic density matrices:           4.940     4.940   0.6% |
  Mix:                              11.709    11.709   1.3% ||
  Multipole moments:                 0.051     0.051   0.0% |
  Pseudo density:                   93.820    93.813  10.8% |---|
   Symmetrize density:               0.008     0.008   0.0% |
 Hamiltonian:                       54.064     0.332   0.0% |
  Atomic:                           14.601    14.600   1.7% ||
   XC Correction:                    0.001     0.001   0.0% |
  Calculate atomic Hamiltonians:     4.304     4.304   0.5% |
  Communicate:                       0.026     0.026   0.0% |
  Poisson:                           0.163     0.163   0.0% |
  XC 3D grid:                       34.639    34.639   4.0% |-|
 Orthonormalize:                     0.062     0.000   0.0% |
  calc_s_matrix:                     0.015     0.015   0.0% |
  inverse-cholesky:                  0.001     0.001   0.0% |
  projections:                       0.027     0.027   0.0% |
  rotate_psi_s:                      0.018     0.018   0.0% |
Set symmetry:                        0.000     0.000   0.0% |
Other:                               0.749     0.749   0.1% |
-----------------------------------------------------------
Total:                                       868.298 100.0%

Memory usage: 433.19 MiB
Date: Wed Jul  6 10:32:33 2022
