
  ___ ___ ___ _ _ _  
 |   |   |_  | | | | 
 | | | | | . | | | | 
 |__ |  _|___|_____|  21.6.1b1
 |___|_|             

User:   madkru@c119.nifl.fysik.dtu.dk
Date:   Wed Jul  6 10:02:53 2022
Arch:   x86_64
Pid:    227957
Python: 3.8.6
gpaw:   /home/niflheim/madkru/new_venv/gpaw/gpaw (1f0dfc9eae)
_gpaw:  /home/niflheim/madkru/new_venv/gpaw/build/lib.linux-x86_64-skylake-3.8/
        _gpaw.cpython-38-x86_64-linux-gnu.so (c1e45bfab3)
ase:    /home/niflheim/madkru/new_venv/ase/ase (version 3.23.0b1-ca38c75a67)
numpy:  /home/modules/software/SciPy-bundle/2020.11-foss-2020b/lib/python3.8/site-packages/numpy (version 1.19.4)
scipy:  /home/modules/software/SciPy-bundle/2020.11-foss-2020b/lib/python3.8/site-packages/scipy (version 1.5.4)
libxc:  4.3.4
units:  Angstrom and eV
cores: 40
OpenMP: False
OMP_NUM_THREADS: 1

Input parameters:
  convergence: {density: 1e-09}
  experimental: {magmoms: [[0. 0. 0.]
 [0. 0. 0.]
 [0. 0. 0.]
 ...
 [0. 0. 5.]
 [0. 0. 0.]
 [0. 0. 0.]],
                 soc: True}
  kpts: [4 4 6]
  maxiter: 5000
  mixer: {backend: pulay,
          beta: 0.02,
          method: difference,
          nmaxold: 5,
          weight: 100}
  mode: {ecut: 600.0,
         gammacentered: False,
         name: pw}
  occupations: {name: fermi-dirac,
                width: 0.001}
  symmetry: off

System changes: positions, numbers, cell, pbc, initial_charges, initial_magmoms 

Initialize ...

O-setup:
  name: Oxygen
  id: 9b9d51c344dea68c822856295a461509
  Z: 8.0
  valence: 6
  core: 2
  charge: 0.0
  file: /home/modules/software/GPAW-setups/0.9.20000/O.LDA.gz
  compensation charges: gauss, rc=0.21, lmax=2
  cutoffs: 1.17(filt), 0.83(core),
  valence states:
                energy  radius
    2s(2.00)   -23.752   0.688
    2p(4.00)    -9.195   0.598
    *s           3.459   0.688
    *p          18.016   0.598
    *d           0.000   0.619

  Using partial waves for O as LCAO basis

Cr-setup:
  name: Chromium
  id: 444e8044bc0f91048286c984738d87f5
  Z: 24.0
  valence: 6
  core: 18
  charge: 0.0
  file: /home/modules/software/GPAW-setups/0.9.20000/Cr.LDA.gz
  compensation charges: gauss, rc=0.35, lmax=2
  cutoffs: 2.14(filt), 3.04(core),
  valence states:
                energy  radius
    4s(1.00)    -4.191   1.164
    4p(0.00)    -1.079   1.217
    3d(5.00)    -3.128   1.111
    *s          23.021   1.164
    *p          26.132   1.217
    *d          24.083   1.111

  Using partial waves for Cr as LCAO basis

Reference energy: -126274.181857

Non-collinear calculation.
Magnetic moment: (0.000000, 0.000000, 0.000000)

Convergence criteria:
  Maximum total energy change: 0.0005 eV / electron
  Maximum integral of absolute density change: 1e-09 electrons
  Maximum integral of absolute eigenstate change: 4e-08 eV^2
  Maximum number of iterations: 5000

Symmetries present (total): 1

  ( 1  0  0)
  ( 0  1  0)
  ( 0  0  1)

96 k-points: 4 x 4 x 6 Monkhorst-Pack grid
96 k-points in the irreducible part of the Brillouin zone
       k-points in crystal coordinates                weights
   0:    -0.37500000   -0.37500000   -0.41666667          1/96
   1:    -0.37500000   -0.37500000   -0.25000000          1/96
   2:    -0.37500000   -0.37500000   -0.08333333          1/96
   3:    -0.37500000   -0.37500000    0.08333333          1/96
   4:    -0.37500000   -0.37500000    0.25000000          1/96
   5:    -0.37500000   -0.37500000    0.41666667          1/96
   6:    -0.37500000   -0.12500000   -0.41666667          1/96
   7:    -0.37500000   -0.12500000   -0.25000000          1/96
   8:    -0.37500000   -0.12500000   -0.08333333          1/96
   9:    -0.37500000   -0.12500000    0.08333333          1/96
          ...
  95:     0.37500000    0.37500000    0.41666667          1/96

Wave functions: Plane wave expansion
  Cutoff energy: 600.000 eV
  Number of coefficients (min, max): 2899, 2926
  Pulay-stress correction: 0.000000 eV/Ang^3 (de/decut=0.000000)
  Using FFTW library
  ScaLapack parameters: grid=1x1, blocksize=None
  Wavefunction extrapolation:
    Improved wavefunction reuse through dual PAW basis 

Occupation numbers: Fermi-Dirac: width=0.0010 eV
 

Eigensolver
   Davidson(niter=2) 

Densities:
  Coarse grid: 32*32*32 grid
  Fine grid: 64*64*64 grid
  Total Charge: 0.000000 

Density mixing:
  Method: difference
  Backend: pulay
  Linear mixing parameter: 0.02
  Mixing with 5 old densities
  Damping of long wave oscillations: 100 

Hamiltonian:
  XC and Coulomb potentials evaluated on a 64*64*64 grid
  Using the LDA Exchange-Correlation functional
  External potential:
    <gpaw.external.NoExternalPotential object at 0x2ad493cb33d0>
 

Memory estimate:
  Process memory now: 410.77 MiB
  Calculator: 34.72 MiB
    Density: 15.86 MiB
      Arrays: 6.50 MiB
      Localized functions: 3.86 MiB
      Mixer: 5.50 MiB
    Hamiltonian: 4.34 MiB
      Arrays: 4.25 MiB
      XC: 0.00 MiB
      Poisson: 0.00 MiB
      vbar: 0.09 MiB
    Wavefunctions: 14.51 MiB
      Arrays psit_nG: 7.14 MiB
      Eigensolver: 4.77 MiB
      Projections: 0.37 MiB
      Projectors: 0.89 MiB
      PW-descriptor: 1.34 MiB

Total number of cores used: 40
Parallelization over k-points: 40

Number of atoms: 10
Number of atomic orbitals: 60
Number of bands in calculation: 80
Number of valence electrons: 60
Bands to converge: occupied

... initialized

Initializing position-dependent things.

Density initialized from atomic densities
Creating initial wave functions:
  60 bands from LCAO basis set
  20 bands from random numbers

                          
                          
                          
                          
            Cr            
                          
                          
            Cr            
           O              
         O      O         
                          
        O      O          
             O            
            Cr            
                          
                          
            Cr            
                          
                          
                          
                          

Positions:
   0 O     -0.760209   -1.389622    8.037806    ( 0.0000,  0.0000,  0.0000)
   1 O     -1.582607   -0.037179    5.741345    ( 0.0000,  0.0000,  0.0000)
   2 O     -0.823830    1.351886    8.037286    ( 0.0000,  0.0000,  0.0000)
   3 O      0.823830   -1.352629    5.741044    ( 0.0000,  0.0000,  0.0000)
   4 Cr    -0.000004   -0.000111    2.195939    ( 0.0000,  0.0000,  5.0000)
   5 Cr    -0.000004   -0.000260    4.693225    ( 0.0000,  0.0000, -5.0000)
   6 Cr     0.000004   -0.000632   11.582391    ( 0.0000,  0.0000, -5.0000)
   7 Cr     0.000004   -0.000483    9.085105    ( 0.0000,  0.0000,  5.0000)
   8 O      1.582607    0.036435    8.036986    ( 0.0000,  0.0000,  0.0000)
   9 O      0.760209    1.388879    5.740525    ( 0.0000,  0.0000,  0.0000)

Unit cell:
           periodic     x           y           z      points  spacing
  1. axis:    yes    2.342815    1.352071    4.592704    32     0.1216
  2. axis:    yes   -2.342815    1.352071    4.592704    32     0.1216
  3. axis:    yes    0.000000   -2.704886    4.592923    32     0.1216

  Lengths:   5.330085   5.330085   5.330230
  Angles:   52.139511  52.139510  52.149782

Effective grid spacing dv^(1/3) = 0.1386

                     log10-error:    total        iterations:
           time      wfs    density  energy       poisson
iter:   1  10:03:35                 -99.631815            +0.0,+0.0,-0.0
iter:   2  10:03:40  -0.65  -0.99  -100.952333            +0.0,+0.0,+0.0
iter:   3  10:03:45  -0.08  -1.00   -97.148373            +0.0,-0.0,+0.0
iter:   4  10:03:50  -0.60  -1.35   -97.337897            +0.0,-0.0,+0.0
iter:   5  10:03:55  -1.12  -1.37   -97.424168            +0.0,+0.0,+0.0
iter:   6  10:04:00  -0.38  -1.38   -98.571941            +0.0,+0.0,+0.0
iter:   7  10:04:05  -1.08  -1.55   -97.143552            +0.0,+0.0,+0.0
iter:   8  10:04:10  -2.27  -1.84   -97.265344            +0.0,-0.0,+0.0
iter:   9  10:04:15  -1.38  -1.79   -97.147963            +0.0,-0.0,+0.0
iter:  10  10:04:20  -0.60  -1.83   -97.359927            +0.0,-0.0,+0.0
iter:  11  10:04:25  -1.56  -1.71   -96.853010            +0.0,-0.0,+0.0
iter:  12  10:04:30  -2.68  -2.33   -96.855345            +0.0,-0.0,+0.0
iter:  13  10:04:35  -2.06  -2.42   -96.857908            +0.0,-0.0,+0.0
iter:  14  10:04:40  -2.72  -2.52   -96.859401            +0.0,-0.0,+0.0
iter:  15  10:04:45  -3.13  -2.51   -96.860831            +0.0,-0.0,+0.0
iter:  16  10:04:50  -2.56  -2.42   -96.883179            +0.0,-0.0,+0.0
iter:  17  10:04:55  -3.06  -2.20   -96.876648            +0.0,-0.0,+0.0
iter:  18  10:05:00  -3.07  -2.35   -96.885660            +0.0,-0.0,+0.0
iter:  19  10:05:05  -2.30  -2.24   -96.859495            +0.0,-0.0,+0.0
iter:  20  10:05:10  -2.92  -2.56   -96.857080            +0.0,-0.0,+0.0
iter:  21  10:05:15  -3.19  -2.63   -96.852777            +0.0,-0.0,+0.0
iter:  22  10:05:21  -3.79  -2.79   -96.856948            +0.0,+0.0,+0.0
iter:  23  10:05:26  -3.15  -2.65   -96.851728            +0.0,+0.0,+0.0
iter:  24  10:05:31  -3.42  -2.87   -96.855048            +0.0,+0.0,+0.0
iter:  25  10:05:36  -3.35  -2.72   -96.858982            +0.0,+0.0,+0.0
iter:  26  10:05:41  -3.63  -2.58   -96.861206            +0.0,+0.0,+0.0
iter:  27  10:05:46  -3.04  -2.56   -96.852073            +0.0,+0.0,+0.0
iter:  28  10:05:51  -3.67  -2.94   -96.851901            +0.0,+0.0,+0.0
iter:  29  10:05:56  -3.98  -3.10   -96.852965            +0.0,+0.0,+0.0
iter:  30  10:06:01  -4.58  -3.00   -96.852386            +0.0,+0.0,+0.0
iter:  31  10:06:06  -4.68  -3.05   -96.852204            +0.0,+0.0,+0.0
iter:  32  10:06:11  -4.96  -3.07   -96.852223            +0.0,+0.0,+0.0
iter:  33  10:06:16  -5.06  -3.09   -96.852137            +0.0,+0.0,+0.0
iter:  34  10:06:21  -4.49  -3.11   -96.852333            +0.0,+0.0,+0.0
iter:  35  10:06:26  -5.16  -3.19   -96.852211            +0.0,+0.0,+0.0
iter:  36  10:06:31  -5.51  -3.22   -96.852174            +0.0,+0.0,+0.0
iter:  37  10:06:36  -4.82  -3.24   -96.852020            +0.0,+0.0,+0.0
iter:  38  10:06:41  -5.58  -3.40   -96.852026            +0.0,+0.0,+0.0
iter:  39  10:06:46  -4.40  -3.40   -96.852176            +0.0,+0.0,+0.0
iter:  40  10:06:51  -5.06  -3.26   -96.852174            +0.0,+0.0,+0.0
iter:  41  10:06:56  -5.62  -3.28   -96.852234            +0.0,+0.0,+0.0
iter:  42  10:07:01  -5.97  -3.23   -96.852243            +0.0,+0.0,+0.0
iter:  43  10:07:06  -4.46  -3.22   -96.852032            +0.0,+0.0,+0.0
iter:  44  10:07:11  -5.12  -3.45   -96.852060            +0.0,+0.0,+0.0
iter:  45  10:07:16  -5.15  -3.43   -96.852140            +0.0,+0.0,+0.0
iter:  46  10:07:21  -5.02  -3.37   -96.852050            +0.0,+0.0,+0.0
iter:  47  10:07:26  -5.42  -3.44   -96.852043            +0.0,+0.0,+0.0
iter:  48  10:07:31  -5.93  -3.44   -96.852035            +0.0,+0.0,+0.0
iter:  49  10:07:36  -4.75  -3.44   -96.852003            +0.0,-0.0,+0.0
iter:  50  10:07:41  -4.97  -3.67   -96.852099            +0.0,+0.0,+0.0
iter:  51  10:07:46  -4.80  -3.53   -96.851986            +0.0,+0.0,+0.0
iter:  52  10:07:51  -4.58  -3.63   -96.852092            +0.0,+0.0,+0.0
iter:  53  10:07:56  -5.24  -3.39   -96.852057            +0.0,+0.0,+0.0
iter:  54  10:08:01  -5.24  -3.43   -96.852078            +0.0,+0.0,+0.0
iter:  55  10:08:06  -4.99  -3.40   -96.851993            +0.0,+0.0,+0.0
iter:  56  10:08:11  -5.70  -3.58   -96.852018            +0.0,+0.0,+0.0
iter:  57  10:08:16  -5.69  -3.56   -96.852010            +0.0,+0.0,+0.0
iter:  58  10:08:21  -5.59  -3.59   -96.851988            +0.0,+0.0,+0.0
iter:  59  10:08:26  -5.01  -3.73   -96.852001            +0.0,+0.0,+0.0
iter:  60  10:08:31  -5.88  -3.68   -96.851996            +0.0,+0.0,+0.0
iter:  61  10:08:36  -6.10  -3.75   -96.851993            +0.0,+0.0,+0.0
iter:  62  10:08:41  -6.14  -3.79   -96.851987            +0.0,+0.0,+0.0
iter:  63  10:08:46  -5.85  -3.81   -96.851983            +0.0,+0.0,+0.0
iter:  64  10:08:51  -6.06  -3.90   -96.851979            +0.0,+0.0,+0.0
iter:  65  10:08:56  -5.49  -4.01   -96.851978            +0.0,+0.0,+0.0
iter:  66  10:09:01  -6.10  -4.25   -96.851979            +0.0,+0.0,+0.0
iter:  67  10:09:06  -6.50  -4.37   -96.851978            +0.0,+0.0,+0.0
iter:  68  10:09:11  -6.58  -4.39   -96.851979            +0.0,+0.0,+0.0
iter:  69  10:09:16  -6.28  -4.29   -96.851981            +0.0,+0.0,+0.0
iter:  70  10:09:21  -6.41  -4.25   -96.851981            +0.0,+0.0,+0.0
iter:  71  10:09:26  -6.78  -4.24   -96.851980            +0.0,+0.0,+0.0
iter:  72  10:09:31  -6.98  -4.27   -96.851979            +0.0,+0.0,+0.0
iter:  73  10:09:36  -6.85  -4.28   -96.851981            +0.0,+0.0,+0.0
iter:  74  10:09:41  -6.59  -4.20   -96.851981            +0.0,+0.0,+0.0
iter:  75  10:09:47  -6.66  -4.15   -96.851979            +0.0,+0.0,+0.0
iter:  76  10:09:52  -6.81  -4.28   -96.851979            +0.0,+0.0,+0.0
iter:  77  10:09:57  -6.68  -4.29   -96.851981            +0.0,+0.0,+0.0
iter:  78  10:10:02  -6.61  -4.13   -96.851979            +0.0,+0.0,+0.0
iter:  79  10:10:07  -5.99  -4.31   -96.851981            +0.0,+0.0,+0.0
iter:  80  10:10:12  -6.55  -4.21   -96.851981            +0.0,+0.0,+0.0
iter:  81  10:10:17  -6.53  -4.18   -96.851979            +0.0,+0.0,+0.0
iter:  82  10:10:22  -5.49  -4.31   -96.851989            +0.0,+0.0,+0.0
iter:  83  10:10:27  -6.19  -4.02   -96.851977            +0.0,+0.0,+0.0
iter:  84  10:10:32  -6.68  -4.34   -96.851978            +0.0,+0.0,+0.0
iter:  85  10:10:37  -5.91  -4.38   -96.851983            +0.0,+0.0,+0.0
iter:  86  10:10:42  -6.38  -4.17   -96.851976            +0.0,+0.0,+0.0
iter:  87  10:10:47  -6.70  -4.56   -96.851976            +0.0,+0.0,+0.0
iter:  88  10:10:52  -6.92  -4.61   -96.851977            +0.0,+0.0,+0.0
iter:  89  10:10:57  -6.74  -4.60   -96.851977            +0.0,+0.0,+0.0
iter:  90  10:11:02  -7.34  -4.73   -96.851977            +0.0,+0.0,+0.0
iter:  91  10:11:07  -7.77  -4.79   -96.851977            +0.0,-0.0,+0.0
iter:  92  10:11:12  -7.65  -4.78   -96.851977            +0.0,-0.0,+0.0
iter:  93  10:11:17  -7.01  -4.83   -96.851977            +0.0,-0.0,+0.0
iter:  94  10:11:22  -7.45  -4.72   -96.851977            +0.0,-0.0,+0.0
iter:  95  10:11:27  -7.67  -4.83   -96.851977            +0.0,-0.0,+0.0
iter:  96  10:11:32  -7.84  -4.88   -96.851977            +0.0,-0.0,+0.0
iter:  97  10:11:37  -7.79  -4.85   -96.851977            +0.0,-0.0,+0.0
iter:  98  10:11:42  -7.80  -4.86   -96.851977            +0.0,-0.0,+0.0
iter:  99  10:11:47  -8.16  -5.20   -96.851977            +0.0,-0.0,+0.0
iter: 100  10:11:52  -8.46  -5.18   -96.851977            +0.0,-0.0,+0.0
iter: 101  10:11:57  -9.21  -5.20   -96.851977            +0.0,-0.0,+0.0
iter: 102  10:12:02  -9.25  -5.20   -96.851977            +0.0,-0.0,+0.0
iter: 103  10:12:07  -8.13  -5.24   -96.851977            +0.0,-0.0,+0.0
iter: 104  10:12:12  -8.61  -5.23   -96.851977            +0.0,-0.0,+0.0
iter: 105  10:12:17  -8.25  -5.52   -96.851977            +0.0,-0.0,+0.0
iter: 106  10:12:22  -8.32  -5.14   -96.851977            +0.0,-0.0,+0.0
iter: 107  10:12:27  -9.10  -5.60   -96.851977            +0.0,-0.0,+0.0
iter: 108  10:12:32  -9.15  -5.68   -96.851977            +0.0,-0.0,+0.0
iter: 109  10:12:37  -9.14  -5.63   -96.851977            +0.0,-0.0,+0.0
iter: 110  10:12:42  -8.70  -5.71   -96.851977            +0.0,+0.0,+0.0
iter: 111  10:12:47  -9.57  -5.56   -96.851977            +0.0,+0.0,+0.0
iter: 112  10:12:52  -9.09  -5.67   -96.851977            +0.0,+0.0,+0.0
iter: 113  10:12:57  -9.66  -5.92   -96.851977            +0.0,+0.0,+0.0
iter: 114  10:13:02  -9.31  -5.94   -96.851977            +0.0,+0.0,+0.0
iter: 115  10:13:07  -9.98  -5.90   -96.851977            +0.0,+0.0,+0.0
iter: 116  10:13:12  -9.74  -6.13   -96.851977            +0.0,+0.0,+0.0
iter: 117  10:13:17 -10.12  -6.14   -96.851977            +0.0,+0.0,+0.0
iter: 118  10:13:22 -10.32  -6.28   -96.851977            +0.0,-0.0,+0.0
iter: 119  10:13:27 -10.77  -6.31   -96.851977            +0.0,-0.0,+0.0
iter: 120  10:13:32 -10.77  -6.42   -96.851977            +0.0,-0.0,+0.0
iter: 121  10:13:37 -10.62  -6.46   -96.851977            +0.0,-0.0,+0.0
iter: 122  10:13:42 -11.07  -6.43   -96.851977            +0.0,+0.0,+0.0
iter: 123  10:13:47 -11.12  -6.55   -96.851977            +0.0,-0.0,+0.0
iter: 124  10:13:52 -11.07  -6.64   -96.851977            +0.0,-0.0,+0.0
iter: 125  10:13:57 -11.27  -6.54   -96.851977            +0.0,-0.0,+0.0
iter: 126  10:14:02 -11.21  -6.65   -96.851977            +0.0,-0.0,+0.0
iter: 127  10:14:07 -11.43  -6.73   -96.851977            +0.0,-0.0,+0.0
iter: 128  10:14:12 -11.45  -6.70   -96.851977            +0.0,-0.0,+0.0
iter: 129  10:14:17 -11.45  -6.80   -96.851977            +0.0,-0.0,+0.0
iter: 130  10:14:22 -11.44  -6.84   -96.851977            +0.0,-0.0,+0.0
iter: 131  10:14:27 -11.70  -6.86   -96.851977            +0.0,-0.0,+0.0
iter: 132  10:14:32 -11.99  -6.91   -96.851977            +0.0,-0.0,+0.0
iter: 133  10:14:37 -12.05  -6.86   -96.851977            +0.0,-0.0,+0.0
iter: 134  10:14:42 -12.06  -6.92   -96.851977            +0.0,-0.0,+0.0
iter: 135  10:14:47 -12.14  -7.00   -96.851977            +0.0,-0.0,+0.0
iter: 136  10:14:52 -12.21  -7.05   -96.851977            +0.0,+0.0,+0.0
iter: 137  10:14:57 -11.62  -7.11   -96.851977            +0.0,+0.0,+0.0
iter: 138  10:15:02 -11.70  -7.15   -96.851977            +0.0,+0.0,+0.0
iter: 139  10:15:07 -12.48  -7.21   -96.851977            +0.0,+0.0,+0.0
iter: 140  10:15:12 -11.90  -7.25   -96.851977            +0.0,+0.0,+0.0
iter: 141  10:15:17 -11.40  -7.31   -96.851977            +0.0,+0.0,+0.0
iter: 142  10:15:21 -11.19  -7.18   -96.851977            +0.0,+0.0,+0.0
iter: 143  10:15:26 -11.47  -7.61   -96.851977            +0.0,+0.0,+0.0
iter: 144  10:15:31 -12.18  -7.87   -96.851977            +0.0,+0.0,+0.0
iter: 145  10:15:36 -11.69  -7.87   -96.851977            +0.0,+0.0,+0.0
iter: 146  10:15:41 -11.51  -7.79   -96.851977            +0.0,+0.0,+0.0
iter: 147  10:15:46 -11.27  -7.77   -96.851977            +0.0,+0.0,+0.0
iter: 148  10:15:51 -11.75  -7.79   -96.851977            +0.0,+0.0,+0.0
iter: 149  10:15:56 -12.20  -7.76   -96.851977            +0.0,+0.0,+0.0
iter: 150  10:16:01 -12.45  -7.71   -96.851977            +0.0,+0.0,+0.0
iter: 151  10:16:06 -12.68  -7.78   -96.851977            +0.0,+0.0,+0.0
iter: 152  10:16:11 -11.42  -7.73   -96.851977            +0.0,-0.0,+0.0
iter: 153  10:16:16 -11.57  -7.67   -96.851977            +0.0,-0.0,+0.0
iter: 154  10:16:21 -11.88  -7.65   -96.851977            +0.0,-0.0,+0.0
iter: 155  10:16:26 -12.48  -7.88   -96.851977            +0.0,-0.0,+0.0
iter: 156  10:16:31 -12.22  -7.90   -96.851977            +0.0,-0.0,+0.0
iter: 157  10:16:36 -11.43  -7.88   -96.851977            +0.0,-0.0,+0.0
iter: 158  10:16:41 -11.79  -7.94   -96.851977            +0.0,-0.0,+0.0
iter: 159  10:16:45 -12.49  -8.01   -96.851977            +0.0,-0.0,+0.0
iter: 160  10:16:50 -11.98  -8.07   -96.851977            +0.0,-0.0,+0.0
iter: 161  10:16:55 -11.42  -8.12   -96.851977            +0.0,-0.0,+0.0
iter: 162  10:17:00 -11.58  -8.17   -96.851977            +0.0,-0.0,+0.0
iter: 163  10:17:05 -12.08  -8.21   -96.851977            +0.0,-0.0,+0.0
iter: 164  10:17:10 -11.56  -8.17   -96.851977            +0.0,-0.0,+0.0
iter: 165  10:17:15 -11.58  -8.31   -96.851977            +0.0,+0.0,+0.0
iter: 166  10:17:20 -12.16  -8.35   -96.851977            +0.0,-0.0,+0.0
iter: 167  10:17:25 -12.26  -8.37   -96.851977            +0.0,+0.0,+0.0
iter: 168  10:17:30 -12.69  -8.65   -96.851977            +0.0,-0.0,+0.0
iter: 169  10:17:35 -12.97  -8.98   -96.851977            +0.0,-0.0,+0.0
iter: 170  10:17:40 -12.45  -8.97   -96.851977            +0.0,+0.0,+0.0
iter: 171  10:17:45 -12.32  -8.88   -96.851977            +0.0,+0.0,+0.0
iter: 172  10:17:50 -10.69  -8.94   -96.851977            +0.0,+0.0,+0.0
iter: 173  10:17:55 -11.52  -8.96   -96.851977            +0.0,+0.0,+0.0
iter: 174  10:17:59 -11.81  -8.98   -96.851977            +0.0,+0.0,+0.0
iter: 175  10:18:04 -11.81  -9.00   -96.851977            +0.0,+0.0,+0.0

Converged after 175 iterations.

Dipole moment: (-0.000000, -0.000000, -0.000006) |e|*Ang

Total magnetic moment: (0.000000, 0.000000, 0.000093)
Local magnetic moments:
   0 O  (-0.000018,  0.000033, -0.000162)
   1 O  ( 0.000018,  0.000033, -0.000162)
   2 O  ( 0.000034,  0.000001,  0.000000)
   3 O  (-0.000034,  0.000001,  0.000000)
   4 Cr (-0.000082, -0.000163,  2.208831)
   5 Cr (-0.000082,  0.000163, -2.208788)
   6 Cr ( 0.000082,  0.000163, -2.208788)
   7 Cr ( 0.000082, -0.000163,  2.208831)
   8 O  (-0.000017, -0.000034,  0.000162)
   9 O  ( 0.000017, -0.000034,  0.000162)

Energy contributions relative to reference atoms: (reference = -126274.181857)

Kinetic:        +34.276886
Potential:      -53.912550
External:        +0.000000
XC:             -78.950401
Entropy (-ST):   -0.000000
Local:           +1.734089
--------------------------
Free energy:    -96.851977
Extrapolated:   -96.851977

Showing only first 2 kpts
 Kpt  Band  Eigenvalues  Occupancy
  0    28      2.75024    1.00000
  0    29      2.75028    1.00000
  0    30      2.96569    1.00000
  0    31      2.96571    1.00000

  1    28      2.89849    1.00000
  1    29      2.89852    1.00000
  1    30      2.94102    1.00000
  1    31      2.94109    1.00000


Fermi level: 9.00500

Gap: 0.832 eV
Transition (v -> c):
  (s=0, k=32, n=59, [-0.12, -0.12, -0.08]) -> (s=0, k=32, n=60, [-0.12, -0.12, -0.08])
Timing:                              incl.     excl.
-----------------------------------------------------------
Hamiltonian:                         0.380     0.002   0.0% |
 Atomic:                             0.172     0.172   0.0% |
  XC Correction:                     0.000     0.000   0.0% |
 Calculate atomic Hamiltonians:      0.018     0.018   0.0% |
 Communicate:                        0.000     0.000   0.0% |
 Initialize Hamiltonian:             0.000     0.000   0.0% |
 Poisson:                            0.001     0.001   0.0% |
 XC 3D grid:                         0.186     0.186   0.0% |
LCAO initialization:                26.839     0.141   0.0% |
 LCAO eigensolver:                  12.413     0.000   0.0% |
  DenseAtomicCorrection:             0.004     0.004   0.0% |
  Distribute overlap matrix:         0.000     0.000   0.0% |
  Orbital Layouts:                   0.009     0.009   0.0% |
  Potential matrix:                 12.372    12.372   1.4% ||
  Sum over cells:                    0.028     0.028   0.0% |
 LCAO to grid:                      13.806    13.806   1.5% ||
 Set positions (LCAO WFS):           0.479     0.111   0.0% |
  Basic WFS set positions:           0.000     0.000   0.0% |
  Basis functions set positions:     0.000     0.000   0.0% |
  P tci:                             0.128     0.128   0.0% |
  ST tci:                            0.153     0.153   0.0% |
  mktci:                             0.086     0.086   0.0% |
PWDescriptor:                        0.007     0.007   0.0% |
SCF-cycle:                         883.130   233.557  25.6% |---------|
 Davidson:                         475.596    34.094   3.7% ||
  Apply H:                          96.563    96.563  10.6% |---|
  Subspace diag:                   111.554     0.057   0.0% |
   calc_h_matrix:                  103.777     4.622   0.5% |
    Apply H:                        99.155    99.155  10.9% |---|
   diagonalize:                      1.036     1.036   0.1% |
   rotate_psi:                       6.684     6.684   0.7% |
  calc. matrices:                  214.503    26.062   2.9% ||
   Apply H:                        188.441   188.441  20.7% |-------|
  diagonalize:                       7.370     7.370   0.8% |
  rotate_psi:                       11.512    11.512   1.3% ||
 Density:                          116.354     0.005   0.0% |
  Atomic density matrices:           4.664     4.664   0.5% |
  Mix:                              12.335    12.335   1.4% ||
  Multipole moments:                 0.054     0.054   0.0% |
  Pseudo density:                   99.296    99.288  10.9% |---|
   Symmetrize density:               0.008     0.008   0.0% |
 Hamiltonian:                       57.560     0.508   0.1% |
  Atomic:                           14.492    14.491   1.6% ||
   XC Correction:                    0.001     0.001   0.0% |
  Calculate atomic Hamiltonians:     5.353     5.353   0.6% |
  Communicate:                       0.029     0.029   0.0% |
  Poisson:                           0.170     0.170   0.0% |
  XC 3D grid:                       37.007    37.007   4.1% |-|
 Orthonormalize:                     0.063     0.000   0.0% |
  calc_s_matrix:                     0.015     0.015   0.0% |
  inverse-cholesky:                  0.001     0.001   0.0% |
  projections:                       0.029     0.029   0.0% |
  rotate_psi_s:                      0.018     0.018   0.0% |
Set symmetry:                        0.000     0.000   0.0% |
Other:                               0.731     0.731   0.1% |
-----------------------------------------------------------
Total:                                       911.087 100.0%

Memory usage: 420.57 MiB
Date: Wed Jul  6 10:18:04 2022
