
  ___ ___ ___ _ _ _  
 |   |   |_  | | | | 
 | | | | | . | | | | 
 |__ |  _|___|_____|  21.6.1b1
 |___|_|             

User:   madkru@c130.nifl.fysik.dtu.dk
Date:   Wed Jul  6 14:22:00 2022
Arch:   x86_64
Pid:    254457
Python: 3.8.6
gpaw:   /home/niflheim/madkru/new_venv/gpaw/gpaw (1f0dfc9eae)
_gpaw:  /home/niflheim/madkru/new_venv/gpaw/build/lib.linux-x86_64-skylake-3.8/
        _gpaw.cpython-38-x86_64-linux-gnu.so (c1e45bfab3)
ase:    /home/niflheim/madkru/new_venv/ase/ase (version 3.23.0b1-ca38c75a67)
numpy:  /home/modules/software/SciPy-bundle/2020.11-foss-2020b/lib/python3.8/site-packages/numpy (version 1.19.4)
scipy:  /home/modules/software/SciPy-bundle/2020.11-foss-2020b/lib/python3.8/site-packages/scipy (version 1.5.4)
libxc:  4.3.4
units:  Angstrom and eV
cores: 40
OpenMP: False
OMP_NUM_THREADS: 1

Input parameters:
  convergence: {density: 1e-09}
  experimental: {magmoms: [[0. 0. 0.]
 [0. 0. 0.]
 [0. 0. 0.]
 ...
 [0. 0. 5.]
 [0. 0. 0.]
 [0. 0. 0.]],
                 soc: True}
  kpts: [4 4 6]
  maxiter: 5000
  mixer: {backend: pulay,
          beta: 0.02,
          method: difference,
          nmaxold: 5,
          weight: 100}
  mode: {ecut: 600.0,
         gammacentered: False,
         name: pw}
  occupations: {name: fermi-dirac,
                width: 0.001}
  symmetry: off

System changes: positions, numbers, cell, pbc, initial_charges, initial_magmoms 

Initialize ...

O-setup:
  name: Oxygen
  id: 9b9d51c344dea68c822856295a461509
  Z: 8.0
  valence: 6
  core: 2
  charge: 0.0
  file: /home/modules/software/GPAW-setups/0.9.20000/O.LDA.gz
  compensation charges: gauss, rc=0.21, lmax=2
  cutoffs: 1.17(filt), 0.83(core),
  valence states:
                energy  radius
    2s(2.00)   -23.752   0.688
    2p(4.00)    -9.195   0.598
    *s           3.459   0.688
    *p          18.016   0.598
    *d           0.000   0.619

  Using partial waves for O as LCAO basis

Cr-setup:
  name: Chromium
  id: 444e8044bc0f91048286c984738d87f5
  Z: 24.0
  valence: 6
  core: 18
  charge: 0.0
  file: /home/modules/software/GPAW-setups/0.9.20000/Cr.LDA.gz
  compensation charges: gauss, rc=0.35, lmax=2
  cutoffs: 2.14(filt), 3.04(core),
  valence states:
                energy  radius
    4s(1.00)    -4.191   1.164
    4p(0.00)    -1.079   1.217
    3d(5.00)    -3.128   1.111
    *s          23.021   1.164
    *p          26.132   1.217
    *d          24.083   1.111

  Using partial waves for Cr as LCAO basis

Reference energy: -126274.181857

Non-collinear calculation.
Magnetic moment: (0.000000, 0.000000, 0.000000)

Convergence criteria:
  Maximum total energy change: 0.0005 eV / electron
  Maximum integral of absolute density change: 1e-09 electrons
  Maximum integral of absolute eigenstate change: 4e-08 eV^2
  Maximum number of iterations: 5000

Symmetries present (total): 1

  ( 1  0  0)
  ( 0  1  0)
  ( 0  0  1)

96 k-points: 4 x 4 x 6 Monkhorst-Pack grid
96 k-points in the irreducible part of the Brillouin zone
       k-points in crystal coordinates                weights
   0:    -0.37500000   -0.37500000   -0.41666667          1/96
   1:    -0.37500000   -0.37500000   -0.25000000          1/96
   2:    -0.37500000   -0.37500000   -0.08333333          1/96
   3:    -0.37500000   -0.37500000    0.08333333          1/96
   4:    -0.37500000   -0.37500000    0.25000000          1/96
   5:    -0.37500000   -0.37500000    0.41666667          1/96
   6:    -0.37500000   -0.12500000   -0.41666667          1/96
   7:    -0.37500000   -0.12500000   -0.25000000          1/96
   8:    -0.37500000   -0.12500000   -0.08333333          1/96
   9:    -0.37500000   -0.12500000    0.08333333          1/96
          ...
  95:     0.37500000    0.37500000    0.41666667          1/96

Wave functions: Plane wave expansion
  Cutoff energy: 600.000 eV
  Number of coefficients (min, max): 2899, 2926
  Pulay-stress correction: 0.000000 eV/Ang^3 (de/decut=0.000000)
  Using FFTW library
  ScaLapack parameters: grid=1x1, blocksize=None
  Wavefunction extrapolation:
    Improved wavefunction reuse through dual PAW basis 

Occupation numbers: Fermi-Dirac: width=0.0010 eV
 

Eigensolver
   Davidson(niter=2) 

Densities:
  Coarse grid: 32*32*32 grid
  Fine grid: 64*64*64 grid
  Total Charge: 0.000000 

Density mixing:
  Method: difference
  Backend: pulay
  Linear mixing parameter: 0.02
  Mixing with 5 old densities
  Damping of long wave oscillations: 100 

Hamiltonian:
  XC and Coulomb potentials evaluated on a 64*64*64 grid
  Using the LDA Exchange-Correlation functional
  External potential:
    <gpaw.external.NoExternalPotential object at 0x2b05f5a2cb50>
 

Memory estimate:
  Process memory now: 400.18 MiB
  Calculator: 34.72 MiB
    Density: 15.86 MiB
      Arrays: 6.50 MiB
      Localized functions: 3.86 MiB
      Mixer: 5.50 MiB
    Hamiltonian: 4.34 MiB
      Arrays: 4.25 MiB
      XC: 0.00 MiB
      Poisson: 0.00 MiB
      vbar: 0.09 MiB
    Wavefunctions: 14.51 MiB
      Arrays psit_nG: 7.14 MiB
      Eigensolver: 4.77 MiB
      Projections: 0.37 MiB
      Projectors: 0.89 MiB
      PW-descriptor: 1.34 MiB

Total number of cores used: 40
Parallelization over k-points: 40

Number of atoms: 10
Number of atomic orbitals: 60
Number of bands in calculation: 80
Number of valence electrons: 60
Bands to converge: occupied

... initialized

Initializing position-dependent things.

Density initialized from atomic densities
Creating initial wave functions:
  60 bands from LCAO basis set
  20 bands from random numbers

                          
                          
                          
                          
            Cr            
                          
                          
            Cr            
           O              
         O      O         
                          
        O      O          
             O            
            Cr            
                          
                          
            Cr            
                          
                          
                          
                          

Positions:
   0 O     -0.760185   -1.389609    8.038567    ( 0.0000,  0.0000,  0.0000)
   1 O     -1.582625   -0.037166    5.742110    ( 0.0000,  0.0000,  0.0000)
   2 O     -0.823829    1.351858    8.038047    ( 0.0000,  0.0000,  0.0000)
   3 O      0.823829   -1.352658    5.741808    ( 0.0000,  0.0000,  0.0000)
   4 Cr    -0.000005   -0.000111    2.194793    ( 0.0000,  0.0000,  5.0000)
   5 Cr    -0.000004   -0.000261    4.692079    ( 0.0000,  0.0000, -5.0000)
   6 Cr     0.000002   -0.000632   11.581245    ( 0.0000,  0.0000, -5.0000)
   7 Cr     0.000005   -0.000482    9.083960    ( 0.0000,  0.0000,  5.0000)
   8 O      1.582583    0.036449    8.037751    ( 0.0000,  0.0000,  0.0000)
   9 O      0.760230    1.388895    5.741288    ( 0.0000,  0.0000,  0.0000)

Unit cell:
           periodic     x           y           z      points  spacing
  1. axis:    yes    2.342815    1.352071    4.592704    32     0.1216
  2. axis:    yes   -2.342815    1.352071    4.592704    32     0.1216
  3. axis:    yes    0.000000   -2.704886    4.592923    32     0.1216

  Lengths:   5.330085   5.330085   5.330230
  Angles:   52.139511  52.139510  52.149782

Effective grid spacing dv^(1/3) = 0.1386

                     log10-error:    total        iterations:
           time      wfs    density  energy       poisson
iter:   1  14:22:43                 -99.631691            +0.0,+0.0,+0.0
iter:   2  14:22:48  -0.65  -0.99  -100.952220            +0.0,+0.0,+0.0
iter:   3  14:22:53  -0.08  -1.00   -97.148269            +0.0,+0.0,+0.0
iter:   4  14:22:58  -0.60  -1.35   -97.337784            +0.0,-0.0,+0.0
iter:   5  14:23:03  -1.12  -1.37   -97.423991            +0.0,-0.0,+0.0
iter:   6  14:23:08  -0.38  -1.38   -98.572708            +0.0,-0.0,+0.0
iter:   7  14:23:13  -1.08  -1.54   -97.143649            +0.0,-0.0,+0.0
iter:   8  14:23:18  -2.27  -1.84   -97.265512            +0.0,-0.0,+0.0
iter:   9  14:23:23  -1.38  -1.79   -97.147818            +0.0,-0.0,+0.0
iter:  10  14:23:28  -0.60  -1.83   -97.358595            +0.0,-0.0,+0.0
iter:  11  14:23:33  -1.56  -1.71   -96.852921            +0.0,-0.0,+0.0
iter:  12  14:23:38  -2.69  -2.33   -96.855239            +0.0,-0.0,+0.0
iter:  13  14:23:43  -2.06  -2.42   -96.857810            +0.0,-0.0,+0.0
iter:  14  14:23:48  -2.73  -2.52   -96.859089            +0.0,-0.0,+0.0
iter:  15  14:23:53  -3.14  -2.51   -96.860564            +0.0,-0.0,+0.0
iter:  16  14:23:58  -2.59  -2.43   -96.881362            +0.0,-0.0,+0.0
iter:  17  14:24:03  -3.08  -2.22   -96.875979            +0.0,-0.0,+0.0
iter:  18  14:24:09  -3.13  -2.36   -96.883292            +0.0,-0.0,+0.0
iter:  19  14:24:14  -2.57  -2.25   -96.868179            +0.0,-0.0,+0.0
iter:  20  14:24:19  -3.06  -2.47   -96.858382            +0.0,-0.0,+0.0
iter:  21  14:24:24  -3.43  -2.60   -96.857275            +0.0,-0.0,+0.0
iter:  22  14:24:29  -3.20  -2.66   -96.852280            +0.0,-0.0,+0.0
iter:  23  14:24:34  -3.47  -2.83   -96.851808            +0.0,-0.0,+0.0
iter:  24  14:24:39  -3.79  -2.93   -96.852691            +0.0,-0.0,+0.0
iter:  25  14:24:44  -3.94  -2.94   -96.852210            +0.0,-0.0,+0.0
iter:  26  14:24:49  -4.20  -3.00   -96.852094            +0.0,-0.0,+0.0
iter:  27  14:24:54  -4.51  -3.05   -96.852034            +0.0,-0.0,+0.0
iter:  28  14:24:59  -4.69  -3.07   -96.852130            +0.0,-0.0,+0.0
iter:  29  14:25:04  -4.84  -3.07   -96.852194            +0.0,-0.0,+0.0
iter:  30  14:25:09  -5.14  -3.09   -96.852170            +0.0,-0.0,+0.0
iter:  31  14:25:14  -5.05  -3.09   -96.852110            +0.0,-0.0,+0.0
iter:  32  14:25:19  -4.87  -3.11   -96.852031            +0.0,-0.0,+0.0
iter:  33  14:25:24  -4.83  -3.20   -96.851932            +0.0,-0.0,+0.0
iter:  34  14:25:29  -4.99  -3.25   -96.851935            +0.0,-0.0,+0.0
iter:  35  14:25:34  -4.23  -3.27   -96.851925            +0.0,-0.0,+0.0
iter:  36  14:25:39  -4.61  -3.42   -96.851868            +0.0,-0.0,+0.0
iter:  37  14:25:44  -5.00  -3.48   -96.851880            +0.0,-0.0,+0.0
iter:  38  14:25:49  -4.81  -3.47   -96.851885            +0.0,-0.0,+0.0
iter:  39  14:25:54  -4.71  -3.53   -96.851892            +0.0,-0.0,+0.0
iter:  40  14:25:59  -5.20  -3.66   -96.851857            +0.0,-0.0,+0.0
iter:  41  14:26:04  -5.64  -4.03   -96.851862            +0.0,-0.0,+0.0
iter:  42  14:26:09  -5.84  -3.98   -96.851856            +0.0,-0.0,+0.0
iter:  43  14:26:15  -5.89  -4.03   -96.851863            +0.0,-0.0,+0.0
iter:  44  14:26:20  -6.09  -3.95   -96.851863            +0.0,-0.0,+0.0
iter:  45  14:26:25  -6.21  -3.98   -96.851863            +0.0,-0.0,+0.0
iter:  46  14:26:30  -5.90  -3.97   -96.851858            +0.0,-0.0,+0.0
iter:  47  14:26:35  -6.41  -4.07   -96.851857            +0.0,-0.0,+0.0
iter:  48  14:26:40  -5.95  -4.09   -96.851856            +0.0,-0.0,+0.0
iter:  49  14:26:45  -6.21  -4.19   -96.851856            +0.0,-0.0,+0.0
iter:  50  14:26:50  -6.35  -4.20   -96.851856            +0.0,-0.0,+0.0
iter:  51  14:26:55  -6.53  -4.20   -96.851857            +0.0,-0.0,+0.0
iter:  52  14:27:00  -5.92  -4.19   -96.851858            +0.0,-0.0,+0.0
iter:  53  14:27:05  -6.49  -4.18   -96.851857            +0.0,-0.0,+0.0
iter:  54  14:27:10  -7.06  -4.25   -96.851857            +0.0,-0.0,+0.0
iter:  55  14:27:15  -6.52  -4.26   -96.851856            +0.0,-0.0,+0.0
iter:  56  14:27:20  -6.82  -4.37   -96.851857            +0.0,-0.0,+0.0
iter:  57  14:27:25  -7.08  -4.39   -96.851857            +0.0,-0.0,+0.0
iter:  58  14:27:30  -7.23  -4.52   -96.851856            +0.0,-0.0,+0.0
iter:  59  14:27:35  -7.42  -4.55   -96.851856            +0.0,-0.0,+0.0
iter:  60  14:27:40  -7.20  -4.59   -96.851856            +0.0,-0.0,+0.0
iter:  61  14:27:45  -7.49  -4.67   -96.851856            +0.0,-0.0,+0.0
iter:  62  14:27:50  -7.66  -4.70   -96.851856            +0.0,-0.0,+0.0
iter:  63  14:27:55  -7.87  -4.76   -96.851856            +0.0,-0.0,+0.0
iter:  64  14:28:00  -7.69  -4.78   -96.851856            +0.0,-0.0,+0.0
iter:  65  14:28:05  -7.75  -4.85   -96.851856            +0.0,-0.0,+0.0
iter:  66  14:28:10  -8.16  -4.90   -96.851856            +0.0,-0.0,+0.0
iter:  67  14:28:15  -8.20  -4.90   -96.851856            +0.0,-0.0,+0.0
iter:  68  14:28:20  -7.25  -4.92   -96.851856            +0.0,-0.0,+0.0
iter:  69  14:28:25  -8.05  -5.00   -96.851856            +0.0,-0.0,+0.0
iter:  70  14:28:30  -8.21  -5.09   -96.851856            +0.0,-0.0,+0.0
iter:  71  14:28:35  -8.42  -5.16   -96.851856            +0.0,-0.0,+0.0
iter:  72  14:28:40  -8.42  -5.25   -96.851856            +0.0,-0.0,+0.0
iter:  73  14:28:45  -8.63  -5.35   -96.851856            +0.0,-0.0,+0.0
iter:  74  14:28:51  -8.79  -5.39   -96.851856            +0.0,-0.0,+0.0
iter:  75  14:28:56  -8.95  -5.41   -96.851856            +0.0,-0.0,+0.0
iter:  76  14:29:01  -8.51  -5.42   -96.851856            +0.0,-0.0,+0.0
iter:  77  14:29:06  -8.66  -5.83   -96.851856            +0.0,-0.0,+0.0
iter:  78  14:29:11  -8.98  -5.94   -96.851856            +0.0,-0.0,+0.0
iter:  79  14:29:16  -8.80  -5.93   -96.851856            +0.0,-0.0,+0.0
iter:  80  14:29:21  -9.12  -5.82   -96.851856            +0.0,-0.0,+0.0
iter:  81  14:29:26  -9.33  -5.86   -96.851856            +0.0,-0.0,+0.0
iter:  82  14:29:31  -9.53  -5.84   -96.851856            +0.0,-0.0,+0.0
iter:  83  14:29:36  -9.63  -5.88   -96.851856            +0.0,-0.0,+0.0
iter:  84  14:29:41  -9.59  -5.88   -96.851856            +0.0,-0.0,+0.0
iter:  85  14:29:46  -9.73  -5.92   -96.851856            +0.0,-0.0,+0.0
iter:  86  14:29:51  -9.73  -6.01   -96.851856            +0.0,-0.0,+0.0
iter:  87  14:29:56  -9.66  -6.04   -96.851856            +0.0,-0.0,+0.0
iter:  88  14:30:01  -9.68  -6.20   -96.851856            +0.0,-0.0,+0.0
iter:  89  14:30:06  -9.87  -6.29   -96.851856            +0.0,-0.0,+0.0
iter:  90  14:30:11 -10.04  -6.37   -96.851856            +0.0,-0.0,+0.0
iter:  91  14:30:16 -10.14  -6.42   -96.851856            +0.0,-0.0,+0.0
iter:  92  14:30:21 -10.31  -6.57   -96.851856            +0.0,-0.0,+0.0
iter:  93  14:30:26 -10.41  -6.60   -96.851856            +0.0,-0.0,+0.0
iter:  94  14:30:31 -10.53  -6.62   -96.851856            +0.0,-0.0,+0.0
iter:  95  14:30:36 -10.50  -6.62   -96.851856            +0.0,-0.0,+0.0
iter:  96  14:30:41 -10.58  -6.58   -96.851856            +0.0,-0.0,+0.0
iter:  97  14:30:46 -10.79  -6.64   -96.851856            +0.0,-0.0,+0.0
iter:  98  14:30:51 -10.91  -6.68   -96.851856            +0.0,-0.0,+0.0
iter:  99  14:30:56 -10.80  -6.70   -96.851856            +0.0,-0.0,+0.0
iter: 100  14:31:01 -11.04  -6.86   -96.851856            +0.0,-0.0,+0.0
iter: 101  14:31:06 -11.05  -6.82   -96.851856            +0.0,-0.0,+0.0
iter: 102  14:31:11 -10.83  -6.84   -96.851856            +0.0,-0.0,+0.0
iter: 103  14:31:16 -11.19  -6.73   -96.851856            +0.0,-0.0,+0.0
iter: 104  14:31:21 -11.20  -6.85   -96.851856            +0.0,-0.0,+0.0
iter: 105  14:31:26 -11.12  -6.76   -96.851856            +0.0,-0.0,+0.0
iter: 106  14:31:31 -11.23  -6.96   -96.851856            +0.0,-0.0,+0.0
iter: 107  14:31:36 -11.40  -7.02   -96.851856            +0.0,-0.0,+0.0
iter: 108  14:31:41 -11.53  -6.99   -96.851856            +0.0,-0.0,+0.0
iter: 109  14:31:46 -11.68  -7.13   -96.851856            +0.0,-0.0,+0.0
iter: 110  14:31:51 -11.52  -7.12   -96.851856            +0.0,-0.0,+0.0
iter: 111  14:31:56 -11.53  -7.42   -96.851856            +0.0,-0.0,+0.0
iter: 112  14:32:02 -11.74  -7.49   -96.851856            +0.0,-0.0,+0.0
iter: 113  14:32:07 -11.86  -7.49   -96.851856            +0.0,-0.0,+0.0
iter: 114  14:32:12 -11.84  -7.50   -96.851856            +0.0,-0.0,+0.0
iter: 115  14:32:17 -11.62  -7.48   -96.851856            +0.0,-0.0,+0.0
iter: 116  14:32:22 -11.60  -7.47   -96.851856            +0.0,-0.0,+0.0
iter: 117  14:32:27 -12.01  -7.49   -96.851856            +0.0,-0.0,+0.0
iter: 118  14:32:32 -11.83  -7.58   -96.851856            +0.0,-0.0,+0.0
iter: 119  14:32:37 -12.04  -7.81   -96.851856            +0.0,-0.0,+0.0
iter: 120  14:32:42 -12.24  -7.82   -96.851856            +0.0,-0.0,+0.0
iter: 121  14:32:47 -12.39  -7.91   -96.851856            +0.0,-0.0,+0.0
iter: 122  14:32:52 -12.46  -8.13   -96.851856            +0.0,-0.0,+0.0
iter: 123  14:32:57 -12.56  -8.21   -96.851856            +0.0,-0.0,+0.0
iter: 124  14:33:02 -12.66  -8.27   -96.851856            +0.0,-0.0,+0.0
iter: 125  14:33:07 -12.66  -8.55   -96.851856            +0.0,-0.0,+0.0
iter: 126  14:33:12 -12.67  -8.57   -96.851856            +0.0,-0.0,+0.0
iter: 127  14:33:17 -12.46  -8.61   -96.851856            +0.0,-0.0,+0.0
iter: 128  14:33:22 -11.99  -8.66   -96.851856            +0.0,+0.0,+0.0
iter: 129  14:33:27 -11.21  -8.76   -96.851856            +0.0,+0.0,+0.0
iter: 130  14:33:32 -11.77  -8.79   -96.851856            +0.0,+0.0,+0.0
iter: 131  14:33:37 -12.20  -8.80   -96.851856            +0.0,+0.0,+0.0
iter: 132  14:33:42 -12.47  -8.80   -96.851856            +0.0,+0.0,+0.0
iter: 133  14:33:47 -12.86  -8.81   -96.851856            +0.0,+0.0,+0.0
iter: 134  14:33:52 -13.11  -8.86   -96.851856            +0.0,+0.0,+0.0
iter: 135  14:33:57 -13.22  -9.06   -96.851856            +0.0,+0.0,+0.0

Converged after 135 iterations.

Dipole moment: (0.000037, 0.000031, -0.005248) |e|*Ang

Total magnetic moment: (0.000000, 0.000001, 0.000089)
Local magnetic moments:
   0 O  (-0.000017,  0.000034, -0.000182)
   1 O  ( 0.000017,  0.000034, -0.000183)
   2 O  ( 0.000034, -0.000001, -0.000022)
   3 O  (-0.000034, -0.000001, -0.000021)
   4 Cr (-0.000084, -0.000056,  2.208874)
   5 Cr (-0.000084,  0.000057, -2.208728)
   6 Cr ( 0.000084,  0.000057, -2.208727)
   7 Cr ( 0.000084, -0.000056,  2.208875)
   8 O  (-0.000019, -0.000033,  0.000141)
   9 O  ( 0.000019, -0.000033,  0.000142)

Energy contributions relative to reference atoms: (reference = -126274.181857)

Kinetic:        +34.278787
Potential:      -53.914136
External:        +0.000000
XC:             -78.950603
Entropy (-ST):   -0.000000
Local:           +1.734097
--------------------------
Free energy:    -96.851856
Extrapolated:   -96.851856

Showing only first 2 kpts
 Kpt  Band  Eigenvalues  Occupancy
  0    28      2.74979    1.00000
  0    29      2.75074    1.00000
  0    30      2.96514    1.00000
  0    31      2.96628    1.00000

  1    28      2.89725    1.00000
  1    29      2.89977    1.00000
  1    30      2.94061    1.00000
  1    31      2.94150    1.00000


Fermi level: 9.04610

Gap: 0.830 eV
Transition (v -> c):
  (s=0, k=63, n=59, [0.12, 0.12, 0.08]) -> (s=0, k=63, n=60, [0.12, 0.12, 0.08])
Timing:                              incl.     excl.
-----------------------------------------------------------
Hamiltonian:                         0.360     0.003   0.0% |
 Atomic:                             0.143     0.143   0.0% |
  XC Correction:                     0.000     0.000   0.0% |
 Calculate atomic Hamiltonians:      0.029     0.029   0.0% |
 Communicate:                        0.000     0.000   0.0% |
 Initialize Hamiltonian:             0.000     0.000   0.0% |
 Poisson:                            0.001     0.001   0.0% |
 XC 3D grid:                         0.185     0.185   0.0% |
LCAO initialization:                25.946     0.142   0.0% |
 LCAO eigensolver:                  11.560     0.000   0.0% |
  DenseAtomicCorrection:             0.004     0.004   0.0% |
  Distribute overlap matrix:         0.000     0.000   0.0% |
  Orbital Layouts:                   0.009     0.009   0.0% |
  Potential matrix:                 11.518    11.518   1.6% ||
  Sum over cells:                    0.028     0.028   0.0% |
 LCAO to grid:                      13.761    13.761   1.9% ||
 Set positions (LCAO WFS):           0.483     0.112   0.0% |
  Basic WFS set positions:           0.000     0.000   0.0% |
  Basis functions set positions:     0.000     0.000   0.0% |
  P tci:                             0.130     0.130   0.0% |
  ST tci:                            0.154     0.154   0.0% |
  mktci:                             0.087     0.087   0.0% |
PWDescriptor:                        0.007     0.007   0.0% |
SCF-cycle:                         689.527   188.110  26.3% |----------|
 Davidson:                         367.187    25.973   3.6% ||
  Apply H:                          75.480    75.480  10.5% |---|
  Subspace diag:                    85.861     0.042   0.0% |
   calc_h_matrix:                   80.076     3.521   0.5% |
    Apply H:                        76.555    76.555  10.7% |---|
   diagonalize:                      0.758     0.758   0.1% |
   rotate_psi:                       4.985     4.985   0.7% |
  calc. matrices:                  165.537    19.304   2.7% ||
   Apply H:                        146.234   146.234  20.4% |-------|
  diagonalize:                       5.628     5.628   0.8% |
  rotate_psi:                        8.709     8.709   1.2% |
 Density:                           89.998     0.004   0.0% |
  Atomic density matrices:           3.962     3.962   0.6% |
  Mix:                               9.444     9.444   1.3% ||
  Multipole moments:                 0.041     0.041   0.0% |
  Pseudo density:                   76.548    76.543  10.7% |---|
   Symmetrize density:               0.005     0.005   0.0% |
 Hamiltonian:                       44.165     0.394   0.1% |
  Atomic:                           11.244    11.244   1.6% ||
   XC Correction:                    0.001     0.001   0.0% |
  Calculate atomic Hamiltonians:     4.094     4.094   0.6% |
  Communicate:                       0.023     0.023   0.0% |
  Poisson:                           0.129     0.129   0.0% |
  XC 3D grid:                       28.281    28.281   3.9% |-|
 Orthonormalize:                     0.066     0.000   0.0% |
  calc_s_matrix:                     0.015     0.015   0.0% |
  inverse-cholesky:                  0.001     0.001   0.0% |
  projections:                       0.031     0.031   0.0% |
  rotate_psi_s:                      0.019     0.019   0.0% |
Set symmetry:                        0.000     0.000   0.0% |
Other:                               0.744     0.744   0.1% |
-----------------------------------------------------------
Total:                                       716.585 100.0%

Memory usage: 408.43 MiB
Date: Wed Jul  6 14:33:57 2022
