
  ___ ___ ___ _ _ _  
 |   |   |_  | | | | 
 | | | | | . | | | | 
 |__ |  _|___|_____|  21.6.1b1
 |___|_|             

User:   madkru@c018.nifl.fysik.dtu.dk
Date:   Wed Jul  6 18:37:51 2022
Arch:   x86_64
Pid:    244658
Python: 3.8.6
gpaw:   /home/niflheim/madkru/new_venv/gpaw/gpaw (1f0dfc9eae)
_gpaw:  /home/niflheim/madkru/new_venv/gpaw/build/lib.linux-x86_64-skylake-3.8/
        _gpaw.cpython-38-x86_64-linux-gnu.so (c1e45bfab3)
ase:    /home/niflheim/madkru/new_venv/ase/ase (version 3.23.0b1-ca38c75a67)
numpy:  /home/modules/software/SciPy-bundle/2020.11-foss-2020b/lib/python3.8/site-packages/numpy (version 1.19.4)
scipy:  /home/modules/software/SciPy-bundle/2020.11-foss-2020b/lib/python3.8/site-packages/scipy (version 1.5.4)
libxc:  4.3.4
units:  Angstrom and eV
cores: 40
OpenMP: False
OMP_NUM_THREADS: 1

Input parameters:
  convergence: {density: 1e-09}
  experimental: {magmoms: [[0. 0. 0.]
 [0. 0. 0.]
 [0. 0. 0.]
 ...
 [0. 0. 5.]
 [0. 0. 0.]
 [0. 0. 0.]],
                 soc: True}
  kpts: [4 4 6]
  maxiter: 5000
  mixer: {backend: pulay,
          beta: 0.02,
          method: difference,
          nmaxold: 5,
          weight: 100}
  mode: {ecut: 600.0,
         gammacentered: False,
         name: pw}
  occupations: {name: fermi-dirac,
                width: 0.001}
  symmetry: off

System changes: positions, numbers, cell, pbc, initial_charges, initial_magmoms 

Initialize ...

O-setup:
  name: Oxygen
  id: 9b9d51c344dea68c822856295a461509
  Z: 8.0
  valence: 6
  core: 2
  charge: 0.0
  file: /home/modules/software/GPAW-setups/0.9.20000/O.LDA.gz
  compensation charges: gauss, rc=0.21, lmax=2
  cutoffs: 1.17(filt), 0.83(core),
  valence states:
                energy  radius
    2s(2.00)   -23.752   0.688
    2p(4.00)    -9.195   0.598
    *s           3.459   0.688
    *p          18.016   0.598
    *d           0.000   0.619

  Using partial waves for O as LCAO basis

Cr-setup:
  name: Chromium
  id: 444e8044bc0f91048286c984738d87f5
  Z: 24.0
  valence: 6
  core: 18
  charge: 0.0
  file: /home/modules/software/GPAW-setups/0.9.20000/Cr.LDA.gz
  compensation charges: gauss, rc=0.35, lmax=2
  cutoffs: 2.14(filt), 3.04(core),
  valence states:
                energy  radius
    4s(1.00)    -4.191   1.164
    4p(0.00)    -1.079   1.217
    3d(5.00)    -3.128   1.111
    *s          23.021   1.164
    *p          26.132   1.217
    *d          24.083   1.111

  Using partial waves for Cr as LCAO basis

Reference energy: -126274.181857

Non-collinear calculation.
Magnetic moment: (0.000000, 0.000000, 0.000000)

Convergence criteria:
  Maximum total energy change: 0.0005 eV / electron
  Maximum integral of absolute density change: 1e-09 electrons
  Maximum integral of absolute eigenstate change: 4e-08 eV^2
  Maximum number of iterations: 5000

Symmetries present (total): 1

  ( 1  0  0)
  ( 0  1  0)
  ( 0  0  1)

96 k-points: 4 x 4 x 6 Monkhorst-Pack grid
96 k-points in the irreducible part of the Brillouin zone
       k-points in crystal coordinates                weights
   0:    -0.37500000   -0.37500000   -0.41666667          1/96
   1:    -0.37500000   -0.37500000   -0.25000000          1/96
   2:    -0.37500000   -0.37500000   -0.08333333          1/96
   3:    -0.37500000   -0.37500000    0.08333333          1/96
   4:    -0.37500000   -0.37500000    0.25000000          1/96
   5:    -0.37500000   -0.37500000    0.41666667          1/96
   6:    -0.37500000   -0.12500000   -0.41666667          1/96
   7:    -0.37500000   -0.12500000   -0.25000000          1/96
   8:    -0.37500000   -0.12500000   -0.08333333          1/96
   9:    -0.37500000   -0.12500000    0.08333333          1/96
          ...
  95:     0.37500000    0.37500000    0.41666667          1/96

Wave functions: Plane wave expansion
  Cutoff energy: 600.000 eV
  Number of coefficients (min, max): 2899, 2926
  Pulay-stress correction: 0.000000 eV/Ang^3 (de/decut=0.000000)
  Using FFTW library
  ScaLapack parameters: grid=1x1, blocksize=None
  Wavefunction extrapolation:
    Improved wavefunction reuse through dual PAW basis 

Occupation numbers: Fermi-Dirac: width=0.0010 eV
 

Eigensolver
   Davidson(niter=2) 

Densities:
  Coarse grid: 32*32*32 grid
  Fine grid: 64*64*64 grid
  Total Charge: 0.000000 

Density mixing:
  Method: difference
  Backend: pulay
  Linear mixing parameter: 0.02
  Mixing with 5 old densities
  Damping of long wave oscillations: 100 

Hamiltonian:
  XC and Coulomb potentials evaluated on a 64*64*64 grid
  Using the LDA Exchange-Correlation functional
  External potential:
    <gpaw.external.NoExternalPotential object at 0x2b9cf2e16160>
 

Memory estimate:
  Process memory now: 457.25 MiB
  Calculator: 34.72 MiB
    Density: 15.86 MiB
      Arrays: 6.50 MiB
      Localized functions: 3.86 MiB
      Mixer: 5.50 MiB
    Hamiltonian: 4.34 MiB
      Arrays: 4.25 MiB
      XC: 0.00 MiB
      Poisson: 0.00 MiB
      vbar: 0.09 MiB
    Wavefunctions: 14.51 MiB
      Arrays psit_nG: 7.14 MiB
      Eigensolver: 4.77 MiB
      Projections: 0.37 MiB
      Projectors: 0.89 MiB
      PW-descriptor: 1.34 MiB

Total number of cores used: 40
Parallelization over k-points: 40

Number of atoms: 10
Number of atomic orbitals: 60
Number of bands in calculation: 80
Number of valence electrons: 60
Bands to converge: occupied

... initialized

Initializing position-dependent things.

Density initialized from atomic densities
Creating initial wave functions:
  60 bands from LCAO basis set
  20 bands from random numbers

                          
                          
                          
                          
            Cr            
                          
                          
            Cr            
           O              
         O      O         
                          
        O      O          
             O            
            Cr            
                          
                          
            Cr            
                          
                          
                          
                          

Positions:
   0 O     -0.758509   -1.392345    8.036968    ( 0.0000,  0.0000,  0.0000)
   1 O     -1.584298   -0.039914    5.740524    ( 0.0000,  0.0000,  0.0000)
   2 O     -0.823830    1.352079    8.038939    ( 0.0000,  0.0000,  0.0000)
   3 O      0.823830   -1.352429    5.742704    ( 0.0000,  0.0000,  0.0000)
   4 Cr     0.000880    0.002517    2.195938    ( 0.0000,  0.0000,  5.0000)
   5 Cr    -0.000887    0.002378    4.693228    ( 0.0000,  0.0000, -5.0000)
   6 Cr     0.000888    0.001996   11.582395    ( 0.0000,  0.0000, -5.0000)
   7 Cr    -0.000883    0.002143    9.085106    ( 0.0000,  0.0000,  5.0000)
   8 O      1.580908    0.033712    8.036150    ( 0.0000,  0.0000,  0.0000)
   9 O      0.761901    1.386148    5.739703    ( 0.0000,  0.0000,  0.0000)

Unit cell:
           periodic     x           y           z      points  spacing
  1. axis:    yes    2.342815    1.352071    4.592704    32     0.1216
  2. axis:    yes   -2.342815    1.352071    4.592704    32     0.1216
  3. axis:    yes    0.000000   -2.704886    4.592923    32     0.1216

  Lengths:   5.330085   5.330085   5.330230
  Angles:   52.139511  52.139510  52.149782

Effective grid spacing dv^(1/3) = 0.1386

                     log10-error:    total        iterations:
           time      wfs    density  energy       poisson
iter:   1  18:38:33                 -99.630770            +0.0,+0.0,+0.0
iter:   2  18:38:38  -0.65  -0.99  -100.951341            -0.0,+0.0,+0.0
iter:   3  18:38:43  -0.08  -1.00   -97.147352            -0.0,+0.0,+0.0
iter:   4  18:38:48  -0.60  -1.35   -97.336819            -0.0,+0.0,+0.0
iter:   5  18:38:53  -1.12  -1.37   -97.422650            -0.0,+0.0,+0.0
iter:   6  18:38:58  -0.38  -1.38   -98.571105            -0.0,+0.0,+0.0
iter:   7  18:39:03  -1.08  -1.54   -97.143164            -0.0,+0.0,+0.0
iter:   8  18:39:08  -2.27  -1.84   -97.264808            -0.0,+0.0,+0.0
iter:   9  18:39:13  -1.38  -1.79   -97.146554            -0.0,+0.0,+0.0
iter:  10  18:39:18  -0.60  -1.83   -97.347834            -0.0,+0.0,+0.0
iter:  11  18:39:24  -1.57  -1.72   -96.852077            -0.0,+0.0,+0.0
iter:  12  18:39:29  -2.69  -2.33   -96.854319            -0.0,+0.0,+0.0
iter:  13  18:39:34  -2.06  -2.41   -96.857340            -0.0,+0.0,+0.0
iter:  14  18:39:39  -2.76  -2.51   -96.857614            -0.0,+0.0,+0.0
iter:  15  18:39:44  -3.11  -2.53   -96.859547            -0.0,+0.0,+0.0
iter:  16  18:39:49  -2.78  -2.44   -96.872426            -0.0,+0.0,+0.0
iter:  17  18:39:54  -3.17  -2.29   -96.870952            -0.0,+0.0,+0.0
iter:  18  18:39:59  -3.36  -2.41   -96.872855            -0.0,+0.0,+0.0
iter:  19  18:40:04  -2.74  -2.32   -96.870016            -0.0,+0.0,+0.0
iter:  20  18:40:09  -3.56  -2.42   -96.872357            -0.0,+0.0,+0.0
iter:  21  18:40:14  -3.37  -2.41   -96.884863            -0.0,+0.0,+0.0
iter:  22  18:40:19  -3.26  -2.33   -96.896598            -0.0,+0.0,+0.0
iter:  23  18:40:25  -2.88  -2.29   -96.866199            -0.0,+0.0,+0.0
iter:  24  18:40:30  -3.34  -2.43   -96.860810            -0.0,+0.0,+0.0
iter:  25  18:40:35  -2.92  -2.50   -96.860664            -0.0,+0.0,+0.0
iter:  26  18:40:40  -3.15  -2.60   -96.852132            -0.0,+0.0,+0.0
iter:  27  18:40:45  -3.76  -2.76   -96.851769            -0.0,+0.0,+0.0
iter:  28  18:40:50  -4.26  -2.79   -96.852553            -0.0,+0.0,+0.0
iter:  29  18:40:55  -4.19  -2.85   -96.851445            -0.0,+0.0,+0.0
iter:  30  18:41:00  -4.83  -2.95   -96.851316            -0.0,+0.0,+0.0
iter:  31  18:41:05  -4.23  -3.00   -96.851112            -0.0,+0.0,+0.0
iter:  32  18:41:10  -4.64  -3.21   -96.850869            -0.0,+0.0,+0.0
iter:  33  18:41:15  -4.95  -3.38   -96.850844            -0.0,+0.0,+0.0
iter:  34  18:41:20  -4.47  -3.46   -96.851011            -0.0,+0.0,+0.0
iter:  35  18:41:26  -5.00  -3.30   -96.850860            -0.0,+0.0,+0.0
iter:  36  18:41:31  -5.46  -3.53   -96.850931            -0.0,+0.0,+0.0
iter:  37  18:41:36  -4.37  -3.42   -96.850904            -0.0,+0.0,+0.0
iter:  38  18:41:41  -5.52  -3.49   -96.850846            -0.0,+0.0,+0.0
iter:  39  18:41:46  -5.47  -3.59   -96.850891            -0.0,+0.0,+0.0
iter:  40  18:41:51  -5.09  -3.52   -96.850852            -0.0,+0.0,+0.0
iter:  41  18:41:56  -5.78  -3.67   -96.850848            -0.0,+0.0,+0.0
iter:  42  18:42:01  -6.06  -3.70   -96.850848            -0.0,+0.0,+0.0
iter:  43  18:42:06  -6.16  -3.71   -96.850851            -0.0,+0.0,+0.0
iter:  44  18:42:11  -5.94  -3.71   -96.850858            -0.0,+0.0,+0.0
iter:  45  18:42:16  -5.72  -3.70   -96.850883            -0.0,+0.0,+0.0
iter:  46  18:42:22  -5.54  -3.65   -96.850858            -0.0,+0.0,+0.0
iter:  47  18:42:27  -5.65  -3.77   -96.850860            -0.0,+0.0,+0.0
iter:  48  18:42:32  -6.45  -3.92   -96.850859            -0.0,+0.0,+0.0
iter:  49  18:42:37  -6.82  -3.92   -96.850858            -0.0,+0.0,+0.0
iter:  50  18:42:42  -6.55  -3.92   -96.850857            -0.0,+0.0,+0.0
iter:  51  18:42:47  -6.49  -4.05   -96.850858            -0.0,+0.0,+0.0
iter:  52  18:42:52  -6.61  -4.21   -96.850856            -0.0,+0.0,+0.0
iter:  53  18:42:57  -6.81  -4.25   -96.850856            -0.0,+0.0,+0.0
iter:  54  18:43:02  -7.00  -4.26   -96.850856            -0.0,+0.0,+0.0
iter:  55  18:43:07  -7.27  -4.26   -96.850856            -0.0,+0.0,+0.0
iter:  56  18:43:12  -6.63  -4.26   -96.850855            -0.0,+0.0,+0.0
iter:  57  18:43:17  -7.15  -4.34   -96.850855            -0.0,+0.0,+0.0
iter:  58  18:43:23  -7.20  -4.37   -96.850856            -0.0,+0.0,+0.0
iter:  59  18:43:28  -7.57  -4.39   -96.850856            -0.0,+0.0,+0.0
iter:  60  18:43:33  -7.42  -4.42   -96.850855            -0.0,+0.0,+0.0
iter:  61  18:43:38  -7.25  -4.50   -96.850856            -0.0,+0.0,+0.0
iter:  62  18:43:43  -7.46  -4.67   -96.850855            -0.0,+0.0,+0.0
iter:  63  18:43:48  -8.04  -4.79   -96.850855            -0.0,+0.0,+0.0
iter:  64  18:43:53  -7.80  -4.81   -96.850855            -0.0,+0.0,+0.0
iter:  65  18:43:58  -7.88  -4.88   -96.850855            -0.0,+0.0,+0.0
iter:  66  18:44:03  -8.17  -4.90   -96.850855            -0.0,+0.0,+0.0
iter:  67  18:44:08  -8.34  -4.92   -96.850855            -0.0,+0.0,+0.0
iter:  68  18:44:13  -8.28  -4.87   -96.850855            -0.0,+0.0,+0.0
iter:  69  18:44:18  -8.55  -4.96   -96.850855            -0.0,+0.0,+0.0
iter:  70  18:44:24  -8.52  -4.98   -96.850855            -0.0,+0.0,+0.0
iter:  71  18:44:29  -8.01  -5.02   -96.850855            -0.0,+0.0,+0.0
iter:  72  18:44:34  -8.55  -5.18   -96.850855            -0.0,+0.0,+0.0
iter:  73  18:44:39  -8.88  -5.20   -96.850855            -0.0,+0.0,+0.0
iter:  74  18:44:44  -8.44  -5.22   -96.850855            -0.0,+0.0,+0.0
iter:  75  18:44:49  -8.28  -5.52   -96.850855            -0.0,+0.0,+0.0
iter:  76  18:44:54  -8.82  -5.37   -96.850855            -0.0,+0.0,+0.0
iter:  77  18:44:59  -8.73  -5.46   -96.850855            -0.0,+0.0,+0.0
iter:  78  18:45:04  -9.29  -5.82   -96.850855            -0.0,+0.0,+0.0
iter:  79  18:45:09  -9.27  -5.86   -96.850855            -0.0,+0.0,+0.0
iter:  80  18:45:14  -9.42  -5.87   -96.850855            -0.0,+0.0,+0.0
iter:  81  18:45:20  -9.74  -6.01   -96.850855            -0.0,+0.0,+0.0
iter:  82  18:45:25  -9.85  -6.03   -96.850855            -0.0,+0.0,+0.0
iter:  83  18:45:30  -9.90  -6.11   -96.850855            -0.0,+0.0,+0.0
iter:  84  18:45:35 -10.11  -6.25   -96.850855            -0.0,+0.0,+0.0
iter:  85  18:45:40 -10.05  -6.26   -96.850855            -0.0,+0.0,+0.0
iter:  86  18:45:45 -10.08  -6.30   -96.850855            -0.0,+0.0,+0.0
iter:  87  18:45:50 -10.28  -6.34   -96.850855            -0.0,+0.0,+0.0
iter:  88  18:45:55 -10.41  -6.37   -96.850855            -0.0,+0.0,+0.0
iter:  89  18:46:00 -10.44  -6.41   -96.850855            -0.0,+0.0,+0.0
iter:  90  18:46:05 -10.58  -6.41   -96.850855            -0.0,+0.0,+0.0
iter:  91  18:46:10 -10.65  -6.42   -96.850855            -0.0,+0.0,+0.0
iter:  92  18:46:15 -10.77  -6.50   -96.850855            -0.0,+0.0,+0.0
iter:  93  18:46:21 -10.85  -6.56   -96.850855            -0.0,+0.0,+0.0
iter:  94  18:46:26 -10.82  -6.58   -96.850855            -0.0,+0.0,+0.0
iter:  95  18:46:31 -10.94  -6.58   -96.850855            -0.0,+0.0,+0.0
iter:  96  18:46:36 -11.11  -6.68   -96.850855            -0.0,+0.0,+0.0
iter:  97  18:46:41 -11.05  -6.74   -96.850855            -0.0,+0.0,+0.0
iter:  98  18:46:46 -10.90  -6.74   -96.850855            -0.0,+0.0,+0.0
iter:  99  18:46:51 -11.19  -7.11   -96.850855            -0.0,+0.0,+0.0
iter: 100  18:46:56 -11.34  -7.14   -96.850855            -0.0,+0.0,+0.0
iter: 101  18:47:01 -11.41  -7.12   -96.850855            -0.0,+0.0,+0.0
iter: 102  18:47:06 -11.47  -7.20   -96.850855            -0.0,+0.0,+0.0
iter: 103  18:47:11 -11.42  -7.37   -96.850855            -0.0,+0.0,+0.0
iter: 104  18:47:16 -11.50  -7.38   -96.850855            -0.0,+0.0,+0.0
iter: 105  18:47:22 -11.59  -7.50   -96.850855            -0.0,+0.0,+0.0
iter: 106  18:47:27 -11.47  -7.58   -96.850855            -0.0,+0.0,+0.0
iter: 107  18:47:32 -11.67  -7.49   -96.850855            -0.0,+0.0,+0.0
iter: 108  18:47:37 -11.95  -7.64   -96.850855            -0.0,+0.0,+0.0
iter: 109  18:47:42 -11.86  -7.64   -96.850855            -0.0,+0.0,+0.0
iter: 110  18:47:47 -11.51  -7.66   -96.850855            -0.0,+0.0,+0.0
iter: 111  18:47:52 -11.45  -7.68   -96.850855            -0.0,+0.0,+0.0
iter: 112  18:47:57 -11.93  -7.83   -96.850855            -0.0,+0.0,+0.0
iter: 113  18:48:02 -11.99  -7.85   -96.850855            -0.0,+0.0,+0.0
iter: 114  18:48:07 -12.12  -7.95   -96.850855            -0.0,+0.0,+0.0
iter: 115  18:48:12 -11.95  -7.96   -96.850855            -0.0,+0.0,+0.0
iter: 116  18:48:17 -11.48  -7.98   -96.850855            -0.0,+0.0,+0.0
iter: 117  18:48:22 -11.69  -8.18   -96.850855            -0.0,+0.0,+0.0
iter: 118  18:48:27 -11.97  -8.18   -96.850855            -0.0,+0.0,+0.0
iter: 119  18:48:32 -11.53  -8.14   -96.850855            -0.0,+0.0,+0.0
iter: 120  18:48:38 -11.72  -8.20   -96.850855            -0.0,+0.0,+0.0
iter: 121  18:48:43 -11.92  -8.19   -96.850855            -0.0,+0.0,+0.0
iter: 122  18:48:48 -11.48  -8.43   -96.850855            -0.0,+0.0,+0.0
iter: 123  18:48:53 -11.71  -8.47   -96.850855            -0.0,+0.0,+0.0
iter: 124  18:48:58 -12.22  -8.50   -96.850855            -0.0,+0.0,+0.0
iter: 125  18:49:03 -11.59  -8.55   -96.850855            -0.0,+0.0,+0.0
iter: 126  18:49:08 -11.59  -8.84   -96.850855            -0.0,+0.0,+0.0
iter: 127  18:49:13 -11.70  -8.83   -96.850855            -0.0,+0.0,+0.0
iter: 128  18:49:18 -12.11  -8.84   -96.850855            -0.0,+0.0,+0.0
iter: 129  18:49:23 -12.53  -8.83   -96.850855            -0.0,+0.0,+0.0
iter: 130  18:49:28 -12.64  -8.85   -96.850855            -0.0,+0.0,+0.0
iter: 131  18:49:33 -12.80  -8.82   -96.850855            -0.0,+0.0,+0.0
iter: 132  18:49:38 -13.06  -8.82   -96.850855            -0.0,+0.0,+0.0
iter: 133  18:49:44 -13.20  -8.77   -96.850855            -0.0,+0.0,+0.0
iter: 134  18:49:49 -13.38  -8.76   -96.850855            -0.0,+0.0,+0.0
iter: 135  18:49:54 -13.45  -8.77   -96.850855            -0.0,+0.0,+0.0
iter: 136  18:49:59 -13.64  -8.73   -96.850855            -0.0,+0.0,+0.0
iter: 137  18:50:04 -13.05  -8.70   -96.850855            -0.0,+0.0,+0.0
iter: 138  18:50:09 -11.38  -8.71   -96.850855            -0.0,+0.0,+0.0
iter: 139  18:50:14 -11.98  -8.79   -96.850855            -0.0,+0.0,+0.0
iter: 140  18:50:19 -12.44  -8.80   -96.850855            -0.0,+0.0,+0.0
iter: 141  18:50:24 -12.69  -8.83   -96.850855            -0.0,+0.0,+0.0
iter: 142  18:50:29 -12.98  -8.89   -96.850855            -0.0,+0.0,+0.0
iter: 143  18:50:34 -12.46  -8.88   -96.850855            -0.0,+0.0,+0.0
iter: 144  18:50:39 -11.62  -8.85   -96.850855            -0.0,+0.0,+0.0
iter: 145  18:50:44 -11.52  -8.94   -96.850855            -0.0,+0.0,+0.0
iter: 146  18:50:49 -11.82  -9.03   -96.850855            -0.0,+0.0,+0.0

Converged after 146 iterations.

Dipole moment: (-0.032176, -0.000358, -0.000506) |e|*Ang

Total magnetic moment: (-0.000000, 0.000374, 0.000093)
Local magnetic moments:
   0 O  (-0.000018,  0.000034, -0.000552)
   1 O  ( 0.000018,  0.000034, -0.000554)
   2 O  ( 0.000034,  0.000001,  0.000789)
   3 O  (-0.000034,  0.000001,  0.000789)
   4 Cr ( 0.000075, -0.000046,  2.208766)
   5 Cr (-0.000226,  0.000222, -2.208735)
   6 Cr ( 0.000226,  0.000223, -2.208724)
   7 Cr (-0.000075, -0.000046,  2.208774)
   8 O  (-0.000018, -0.000034, -0.000231)
   9 O  ( 0.000018, -0.000034, -0.000233)

Energy contributions relative to reference atoms: (reference = -126274.181857)

Kinetic:        +34.289188
Potential:      -53.922459
External:        +0.000000
XC:             -78.951731
Entropy (-ST):   -0.000000
Local:           +1.734146
--------------------------
Free energy:    -96.850855
Extrapolated:   -96.850855

Showing only first 2 kpts
 Kpt  Band  Eigenvalues  Occupancy
  0    28      2.74947    1.00000
  0    29      2.75101    1.00000
  0    30      2.96459    1.00000
  0    31      2.96669    1.00000

  1    28      2.89839    1.00000
  1    29      2.89858    1.00000
  1    30      2.93937    1.00000
  1    31      2.94244    1.00000


Fermi level: 9.24490

Gap: 0.830 eV
Transition (v -> c):
  (s=0, k=32, n=59, [-0.12, -0.12, -0.08]) -> (s=0, k=32, n=60, [-0.12, -0.12, -0.08])
Timing:                              incl.     excl.
-----------------------------------------------------------
Hamiltonian:                         0.351     0.004   0.0% |
 Atomic:                             0.126     0.126   0.0% |
  XC Correction:                     0.000     0.000   0.0% |
 Calculate atomic Hamiltonians:      0.028     0.028   0.0% |
 Communicate:                        0.000     0.000   0.0% |
 Initialize Hamiltonian:             0.000     0.000   0.0% |
 Poisson:                            0.001     0.001   0.0% |
 XC 3D grid:                         0.193     0.193   0.0% |
LCAO initialization:                27.320     0.142   0.0% |
 LCAO eigensolver:                  11.839     0.000   0.0% |
  DenseAtomicCorrection:             0.004     0.004   0.0% |
  Distribute overlap matrix:         0.000     0.000   0.0% |
  Orbital Layouts:                   0.009     0.009   0.0% |
  Potential matrix:                 11.798    11.798   1.5% ||
  Sum over cells:                    0.027     0.027   0.0% |
 LCAO to grid:                      14.857    14.857   1.9% ||
 Set positions (LCAO WFS):           0.483     0.112   0.0% |
  Basic WFS set positions:           0.000     0.000   0.0% |
  Basis functions set positions:     0.000     0.000   0.0% |
  P tci:                             0.130     0.130   0.0% |
  ST tci:                            0.153     0.153   0.0% |
  mktci:                             0.087     0.087   0.0% |
PWDescriptor:                        0.007     0.007   0.0% |
SCF-cycle:                         750.428   205.062  26.3% |----------|
 Davidson:                         395.840    28.336   3.6% ||
  Apply H:                          81.235    81.235  10.4% |---|
  Subspace diag:                    92.462     0.048   0.0% |
   calc_h_matrix:                   86.244     3.802   0.5% |
    Apply H:                        82.443    82.443  10.6% |---|
   diagonalize:                      0.804     0.804   0.1% |
   rotate_psi:                       5.366     5.366   0.7% |
  calc. matrices:                  178.342    21.045   2.7% ||
   Apply H:                        157.296   157.296  20.2% |-------|
  diagonalize:                       6.118     6.118   0.8% |
  rotate_psi:                        9.348     9.348   1.2% |
 Density:                          101.805     0.004   0.0% |
  Atomic density matrices:           3.811     3.811   0.5% |
  Mix:                              10.324    10.324   1.3% ||
  Multipole moments:                 0.046     0.046   0.0% |
  Pseudo density:                   87.621    87.615  11.2% |---|
   Symmetrize density:               0.005     0.005   0.0% |
 Hamiltonian:                       47.651     0.438   0.1% |
  Atomic:                           11.935    11.934   1.5% ||
   XC Correction:                    0.001     0.001   0.0% |
  Calculate atomic Hamiltonians:     4.617     4.617   0.6% |
  Communicate:                       0.026     0.026   0.0% |
  Poisson:                           0.145     0.145   0.0% |
  XC 3D grid:                       30.492    30.492   3.9% |-|
 Orthonormalize:                     0.068     0.000   0.0% |
  calc_s_matrix:                     0.015     0.015   0.0% |
  inverse-cholesky:                  0.001     0.001   0.0% |
  projections:                       0.032     0.032   0.0% |
  rotate_psi_s:                      0.020     0.020   0.0% |
Set symmetry:                        0.000     0.000   0.0% |
Other:                               0.759     0.759   0.1% |
-----------------------------------------------------------
Total:                                       778.865 100.0%

Memory usage: 464.82 MiB
Date: Wed Jul  6 18:50:50 2022
