
  ___ ___ ___ _ _ _  
 |   |   |_  | | | | 
 | | | | | . | | | | 
 |__ |  _|___|_____|  21.6.1b1
 |___|_|             

User:   madkru@c130.nifl.fysik.dtu.dk
Date:   Wed Jul  6 15:31:01 2022
Arch:   x86_64
Pid:    254457
Python: 3.8.6
gpaw:   /home/niflheim/madkru/new_venv/gpaw/gpaw (1f0dfc9eae)
_gpaw:  /home/niflheim/madkru/new_venv/gpaw/build/lib.linux-x86_64-skylake-3.8/
        _gpaw.cpython-38-x86_64-linux-gnu.so (c1e45bfab3)
ase:    /home/niflheim/madkru/new_venv/ase/ase (version 3.23.0b1-ca38c75a67)
numpy:  /home/modules/software/SciPy-bundle/2020.11-foss-2020b/lib/python3.8/site-packages/numpy (version 1.19.4)
scipy:  /home/modules/software/SciPy-bundle/2020.11-foss-2020b/lib/python3.8/site-packages/scipy (version 1.5.4)
libxc:  4.3.4
units:  Angstrom and eV
cores: 40
OpenMP: False
OMP_NUM_THREADS: 1

Input parameters:
  convergence: {density: 1e-09}
  experimental: {magmoms: [[0. 0. 0.]
 [0. 0. 0.]
 [0. 0. 0.]
 ...
 [0. 0. 5.]
 [0. 0. 0.]
 [0. 0. 0.]],
                 soc: True}
  kpts: [4 4 6]
  maxiter: 5000
  mixer: {backend: pulay,
          beta: 0.02,
          method: difference,
          nmaxold: 5,
          weight: 100}
  mode: {ecut: 600.0,
         gammacentered: False,
         name: pw}
  occupations: {name: fermi-dirac,
                width: 0.001}
  symmetry: off

System changes: positions, numbers, cell, pbc, initial_charges, initial_magmoms 

Initialize ...

O-setup:
  name: Oxygen
  id: 9b9d51c344dea68c822856295a461509
  Z: 8.0
  valence: 6
  core: 2
  charge: 0.0
  file: /home/modules/software/GPAW-setups/0.9.20000/O.LDA.gz
  compensation charges: gauss, rc=0.21, lmax=2
  cutoffs: 1.17(filt), 0.83(core),
  valence states:
                energy  radius
    2s(2.00)   -23.752   0.688
    2p(4.00)    -9.195   0.598
    *s           3.459   0.688
    *p          18.016   0.598
    *d           0.000   0.619

  Using partial waves for O as LCAO basis

Cr-setup:
  name: Chromium
  id: 444e8044bc0f91048286c984738d87f5
  Z: 24.0
  valence: 6
  core: 18
  charge: 0.0
  file: /home/modules/software/GPAW-setups/0.9.20000/Cr.LDA.gz
  compensation charges: gauss, rc=0.35, lmax=2
  cutoffs: 2.14(filt), 3.04(core),
  valence states:
                energy  radius
    4s(1.00)    -4.191   1.164
    4p(0.00)    -1.079   1.217
    3d(5.00)    -3.128   1.111
    *s          23.021   1.164
    *p          26.132   1.217
    *d          24.083   1.111

  Using partial waves for Cr as LCAO basis

Reference energy: -126274.181857

Non-collinear calculation.
Magnetic moment: (0.000000, 0.000000, 0.000000)

Convergence criteria:
  Maximum total energy change: 0.0005 eV / electron
  Maximum integral of absolute density change: 1e-09 electrons
  Maximum integral of absolute eigenstate change: 4e-08 eV^2
  Maximum number of iterations: 5000

Symmetries present (total): 1

  ( 1  0  0)
  ( 0  1  0)
  ( 0  0  1)

96 k-points: 4 x 4 x 6 Monkhorst-Pack grid
96 k-points in the irreducible part of the Brillouin zone
       k-points in crystal coordinates                weights
   0:    -0.37500000   -0.37500000   -0.41666667          1/96
   1:    -0.37500000   -0.37500000   -0.25000000          1/96
   2:    -0.37500000   -0.37500000   -0.08333333          1/96
   3:    -0.37500000   -0.37500000    0.08333333          1/96
   4:    -0.37500000   -0.37500000    0.25000000          1/96
   5:    -0.37500000   -0.37500000    0.41666667          1/96
   6:    -0.37500000   -0.12500000   -0.41666667          1/96
   7:    -0.37500000   -0.12500000   -0.25000000          1/96
   8:    -0.37500000   -0.12500000   -0.08333333          1/96
   9:    -0.37500000   -0.12500000    0.08333333          1/96
          ...
  95:     0.37500000    0.37500000    0.41666667          1/96

Wave functions: Plane wave expansion
  Cutoff energy: 600.000 eV
  Number of coefficients (min, max): 2899, 2926
  Pulay-stress correction: 0.000000 eV/Ang^3 (de/decut=0.000000)
  Using FFTW library
  ScaLapack parameters: grid=1x1, blocksize=None
  Wavefunction extrapolation:
    Improved wavefunction reuse through dual PAW basis 

Occupation numbers: Fermi-Dirac: width=0.0010 eV
 

Eigensolver
   Davidson(niter=2) 

Densities:
  Coarse grid: 32*32*32 grid
  Fine grid: 64*64*64 grid
  Total Charge: 0.000000 

Density mixing:
  Method: difference
  Backend: pulay
  Linear mixing parameter: 0.02
  Mixing with 5 old densities
  Damping of long wave oscillations: 100 

Hamiltonian:
  XC and Coulomb potentials evaluated on a 64*64*64 grid
  Using the LDA Exchange-Correlation functional
  External potential:
    <gpaw.external.NoExternalPotential object at 0x2b05f76a03a0>
 

Memory estimate:
  Process memory now: 454.05 MiB
  Calculator: 34.72 MiB
    Density: 15.86 MiB
      Arrays: 6.50 MiB
      Localized functions: 3.86 MiB
      Mixer: 5.50 MiB
    Hamiltonian: 4.34 MiB
      Arrays: 4.25 MiB
      XC: 0.00 MiB
      Poisson: 0.00 MiB
      vbar: 0.09 MiB
    Wavefunctions: 14.51 MiB
      Arrays psit_nG: 7.14 MiB
      Eigensolver: 4.77 MiB
      Projections: 0.37 MiB
      Projectors: 0.89 MiB
      PW-descriptor: 1.34 MiB

Total number of cores used: 40
Parallelization over k-points: 40

Number of atoms: 10
Number of atomic orbitals: 60
Number of bands in calculation: 80
Number of valence electrons: 60
Bands to converge: occupied

... initialized

Initializing position-dependent things.

Density initialized from atomic densities
Creating initial wave functions:
  60 bands from LCAO basis set
  20 bands from random numbers

                          
                          
                          
                          
            Cr            
                          
                          
            Cr            
           O              
         O      O         
                          
        O      O          
             O            
            Cr            
                          
                          
            Cr            
                          
                          
                          
                          

Positions:
   0 O     -0.760305   -1.389675    8.034762    ( 0.0000,  0.0000,  0.0000)
   1 O     -1.582533   -0.037230    5.738283    ( 0.0000,  0.0000,  0.0000)
   2 O     -0.823834    1.351996    8.034241    ( 0.0000,  0.0000,  0.0000)
   3 O      0.823835   -1.352512    5.737992    ( 0.0000,  0.0000,  0.0000)
   4 Cr    -0.000002   -0.000114    2.200524    ( 0.0000,  0.0000,  5.0000)
   5 Cr    -0.000004   -0.000256    4.697812    ( 0.0000,  0.0000, -5.0000)
   6 Cr     0.000013   -0.000630   11.586974    ( 0.0000,  0.0000, -5.0000)
   7 Cr     0.000002   -0.000487    9.089685    ( 0.0000,  0.0000,  5.0000)
   8 O      1.582703    0.036380    8.033924    ( 0.0000,  0.0000,  0.0000)
   9 O      0.760124    1.388813    5.737472    ( 0.0000,  0.0000,  0.0000)

Unit cell:
           periodic     x           y           z      points  spacing
  1. axis:    yes    2.342815    1.352071    4.592704    32     0.1216
  2. axis:    yes   -2.342815    1.352071    4.592704    32     0.1216
  3. axis:    yes    0.000000   -2.704886    4.592923    32     0.1216

  Lengths:   5.330085   5.330085   5.330230
  Angles:   52.139511  52.139510  52.149782

Effective grid spacing dv^(1/3) = 0.1386

                     log10-error:    total        iterations:
           time      wfs    density  energy       poisson
iter:   1  15:31:43                 -99.629855            +0.0,+0.0,-0.0
iter:   2  15:31:48  -0.65  -0.99  -100.950529            -0.0,-0.0,+0.0
iter:   3  15:31:53  -0.08  -1.00   -97.146696            -0.0,-0.0,+0.0
iter:   4  15:31:59  -0.60  -1.35   -97.336094            -0.0,+0.0,+0.0
iter:   5  15:32:04  -1.12  -1.37   -97.421469            -0.0,+0.0,+0.0
iter:   6  15:32:09  -0.38  -1.38   -98.580386            -0.0,+0.0,+0.0
iter:   7  15:32:14  -1.07  -1.54   -97.144733            -0.0,+0.0,+0.0
iter:   8  15:32:19  -2.26  -1.84   -97.267465            -0.0,+0.0,+0.0
iter:   9  15:32:24  -1.35  -1.79   -97.143824            -0.0,+0.0,+0.0
iter:  10  15:32:29  -0.60  -1.83   -97.346304            -0.0,+0.0,+0.0
iter:  11  15:32:34  -1.57  -1.72   -96.851441            -0.0,+0.0,+0.0
iter:  12  15:32:39  -2.69  -2.33   -96.853602            -0.0,+0.0,+0.0
iter:  13  15:32:45  -2.06  -2.41   -96.856175            -0.0,+0.0,+0.0
iter:  14  15:32:50  -2.83  -2.52   -96.855274            -0.0,+0.0,+0.0
iter:  15  15:32:55  -3.40  -2.58   -96.855783            -0.0,+0.0,+0.0
iter:  16  15:33:00  -3.05  -2.53   -96.860784            -0.0,+0.0,+0.0
iter:  17  15:33:05  -3.20  -2.46   -96.867413            -0.0,+0.0,+0.0
iter:  18  15:33:10  -2.78  -2.44   -96.880052            -0.0,+0.0,+0.0
iter:  19  15:33:15  -2.42  -2.22   -96.850766            -0.0,+0.0,+0.0
iter:  20  15:33:20  -2.87  -2.75   -96.850173            -0.0,+0.0,+0.0
iter:  21  15:33:25  -3.30  -2.83   -96.850342            -0.0,+0.0,+0.0
iter:  22  15:33:31  -3.08  -2.85   -96.855053            -0.0,+0.0,+0.0
iter:  23  15:33:36  -3.60  -2.70   -96.851578            -0.0,+0.0,+0.0
iter:  24  15:33:41  -3.93  -2.86   -96.852272            -0.0,+0.0,+0.0
iter:  25  15:33:46  -4.10  -2.83   -96.852557            -0.0,+0.0,+0.0
iter:  26  15:33:51  -3.32  -2.82   -96.850216            -0.0,+0.0,+0.0
iter:  27  15:33:56  -4.03  -2.95   -96.850165            -0.0,+0.0,+0.0
iter:  28  15:34:01  -4.45  -3.01   -96.850175            -0.0,+0.0,+0.0
iter:  29  15:34:06  -3.20  -3.05   -96.851589            -0.0,+0.0,+0.0
iter:  30  15:34:12  -4.03  -2.87   -96.850590            -0.0,+0.0,+0.0
iter:  31  15:34:17  -4.56  -3.01   -96.850536            -0.0,+0.0,+0.0
iter:  32  15:34:22  -3.82  -3.02   -96.850597            -0.0,+0.0,+0.0
iter:  33  15:34:27  -4.38  -3.16   -96.850600            -0.0,+0.0,+0.0
iter:  34  15:34:32  -4.85  -3.18   -96.850328            -0.0,+0.0,+0.0
iter:  35  15:34:37  -4.94  -3.24   -96.850349            -0.0,+0.0,+0.0
iter:  36  15:34:42  -4.00  -3.28   -96.850182            -0.0,+0.0,+0.0
iter:  37  15:34:47  -4.76  -3.37   -96.850068            -0.0,+0.0,+0.0
iter:  38  15:34:52  -5.12  -3.55   -96.850092            -0.0,+0.0,+0.0
iter:  39  15:34:58  -5.55  -3.56   -96.850079            -0.0,+0.0,+0.0
iter:  40  15:35:03  -4.55  -3.57   -96.850225            -0.0,+0.0,+0.0
iter:  41  15:35:08  -4.56  -3.43   -96.850043            -0.0,+0.0,+0.0
iter:  42  15:35:13  -5.15  -3.98   -96.850051            -0.0,+0.0,+0.0
iter:  43  15:35:18  -5.66  -3.98   -96.850043            -0.0,+0.0,+0.0
iter:  44  15:35:23  -5.76  -4.20   -96.850050            -0.0,+0.0,+0.0
iter:  45  15:35:28  -5.64  -4.04   -96.850043            -0.0,+0.0,+0.0
iter:  46  15:35:33  -6.25  -4.32   -96.850043            -0.0,+0.0,+0.0
iter:  47  15:35:38  -6.29  -4.30   -96.850045            -0.0,+0.0,+0.0
iter:  48  15:35:44  -6.30  -4.30   -96.850044            -0.0,+0.0,+0.0
iter:  49  15:35:49  -6.28  -4.32   -96.850042            -0.0,+0.0,+0.0
iter:  50  15:35:54  -6.62  -4.40   -96.850043            -0.0,+0.0,+0.0
iter:  51  15:35:59  -6.43  -4.42   -96.850042            -0.0,+0.0,+0.0
iter:  52  15:36:04  -6.46  -4.56   -96.850043            -0.0,+0.0,+0.0
iter:  53  15:36:09  -6.69  -4.52   -96.850043            -0.0,+0.0,+0.0
iter:  54  15:36:14  -6.77  -4.55   -96.850043            -0.0,+0.0,+0.0
iter:  55  15:36:19  -6.72  -4.61   -96.850042            -0.0,+0.0,+0.0
iter:  56  15:36:25  -7.01  -4.71   -96.850043            -0.0,+0.0,+0.0
iter:  57  15:36:30  -7.25  -4.72   -96.850043            -0.0,+0.0,+0.0
iter:  58  15:36:35  -6.87  -4.76   -96.850042            -0.0,+0.0,+0.0
iter:  59  15:36:40  -7.39  -4.97   -96.850042            -0.0,+0.0,+0.0
iter:  60  15:36:45  -7.54  -4.99   -96.850042            -0.0,+0.0,+0.0
iter:  61  15:36:50  -7.53  -5.03   -96.850042            -0.0,+0.0,+0.0
iter:  62  15:36:55  -7.65  -5.41   -96.850042            -0.0,+0.0,+0.0
iter:  63  15:37:00  -7.79  -5.45   -96.850042            -0.0,+0.0,+0.0
iter:  64  15:37:05  -7.92  -5.44   -96.850042            -0.0,+0.0,+0.0
iter:  65  15:37:11  -8.02  -5.40   -96.850042            -0.0,+0.0,+0.0
iter:  66  15:37:16  -8.05  -5.50   -96.850042            -0.0,+0.0,+0.0
iter:  67  15:37:21  -8.23  -5.46   -96.850042            -0.0,+0.0,+0.0
iter:  68  15:37:26  -8.30  -5.54   -96.850042            -0.0,+0.0,+0.0
iter:  69  15:37:31  -8.31  -5.51   -96.850042            -0.0,+0.0,+0.0
iter:  70  15:37:36  -8.48  -5.51   -96.850042            -0.0,+0.0,+0.0
iter:  71  15:37:41  -8.37  -5.50   -96.850042            -0.0,+0.0,+0.0
iter:  72  15:37:46  -8.59  -5.55   -96.850042            -0.0,+0.0,+0.0
iter:  73  15:37:51  -8.69  -5.67   -96.850043            -0.0,+0.0,+0.0
iter:  74  15:37:57  -8.71  -5.73   -96.850043            -0.0,+0.0,+0.0
iter:  75  15:38:02  -8.58  -5.79   -96.850043            -0.0,+0.0,+0.0
iter:  76  15:38:07  -8.83  -5.98   -96.850043            -0.0,+0.0,+0.0
iter:  77  15:38:12  -8.93  -6.24   -96.850043            -0.0,+0.0,+0.0
iter:  78  15:38:17  -9.01  -6.31   -96.850043            -0.0,+0.0,+0.0
iter:  79  15:38:22  -9.11  -6.28   -96.850043            -0.0,+0.0,+0.0
iter:  80  15:38:27  -9.20  -6.45   -96.850043            -0.0,+0.0,+0.0
iter:  81  15:38:32  -9.24  -6.46   -96.850043            -0.0,+0.0,+0.0
iter:  82  15:38:37  -9.27  -6.46   -96.850043            -0.0,+0.0,+0.0
iter:  83  15:38:43  -9.39  -6.45   -96.850043            -0.0,+0.0,+0.0
iter:  84  15:38:48  -9.48  -6.64   -96.850043            -0.0,+0.0,+0.0
iter:  85  15:38:53  -9.61  -6.64   -96.850043            -0.0,+0.0,+0.0
iter:  86  15:38:58  -9.68  -6.67   -96.850043            -0.0,+0.0,+0.0
iter:  87  15:39:03  -9.72  -6.67   -96.850043            -0.0,+0.0,+0.0
iter:  88  15:39:08  -9.78  -6.68   -96.850043            -0.0,+0.0,+0.0
iter:  89  15:39:13  -9.90  -6.70   -96.850043            -0.0,+0.0,+0.0
iter:  90  15:39:18 -10.01  -6.86   -96.850043            -0.0,+0.0,+0.0
iter:  91  15:39:23 -10.07  -6.92   -96.850043            -0.0,+0.0,+0.0
iter:  92  15:39:29 -10.09  -6.92   -96.850043            -0.0,+0.0,+0.0
iter:  93  15:39:34 -10.28  -6.93   -96.850043            -0.0,+0.0,+0.0
iter:  94  15:39:39 -10.30  -6.97   -96.850043            -0.0,+0.0,+0.0
iter:  95  15:39:44 -10.31  -6.96   -96.850043            -0.0,+0.0,+0.0
iter:  96  15:39:49 -10.33  -6.95   -96.850043            -0.0,+0.0,+0.0
iter:  97  15:39:54 -10.45  -7.00   -96.850043            -0.0,+0.0,+0.0
iter:  98  15:39:59 -10.49  -7.00   -96.850043            -0.0,+0.0,+0.0
iter:  99  15:40:04 -10.56  -7.00   -96.850043            -0.0,+0.0,+0.0
iter: 100  15:40:10 -10.64  -6.97   -96.850043            -0.0,+0.0,+0.0
iter: 101  15:40:15 -10.66  -7.00   -96.850043            -0.0,+0.0,+0.0
iter: 102  15:40:20 -10.66  -7.02   -96.850043            -0.0,+0.0,+0.0
iter: 103  15:40:25 -10.78  -7.22   -96.850043            -0.0,+0.0,+0.0
iter: 104  15:40:30 -10.90  -7.37   -96.850043            -0.0,+0.0,+0.0
iter: 105  15:40:35 -10.88  -7.43   -96.850043            -0.0,+0.0,+0.0
iter: 106  15:40:40 -10.92  -7.50   -96.850043            -0.0,+0.0,+0.0
iter: 107  15:40:45 -11.12  -7.51   -96.850043            -0.0,+0.0,+0.0
iter: 108  15:40:51 -11.14  -7.62   -96.850043            -0.0,+0.0,+0.0
iter: 109  15:40:56 -11.27  -7.67   -96.850043            -0.0,+0.0,+0.0
iter: 110  15:41:01 -11.32  -7.69   -96.850043            -0.0,+0.0,+0.0
iter: 111  15:41:06 -11.15  -7.71   -96.850043            -0.0,+0.0,+0.0
iter: 112  15:41:11 -11.30  -7.76   -96.850043            -0.0,+0.0,+0.0
iter: 113  15:41:16 -11.50  -7.73   -96.850043            -0.0,+0.0,+0.0
iter: 114  15:41:21 -11.45  -7.85   -96.850043            -0.0,+0.0,+0.0
iter: 115  15:41:27 -11.23  -7.79   -96.850043            -0.0,+0.0,+0.0
iter: 116  15:41:32 -11.25  -7.89   -96.850043            -0.0,+0.0,+0.0
iter: 117  15:41:37 -11.45  -7.89   -96.850043            -0.0,+0.0,+0.0
iter: 118  15:41:42 -11.24  -7.82   -96.850043            -0.0,+0.0,+0.0
iter: 119  15:41:47 -11.42  -7.84   -96.850043            -0.0,+0.0,+0.0
iter: 120  15:41:52 -11.77  -7.87   -96.850043            -0.0,+0.0,+0.0
iter: 121  15:41:57 -11.37  -7.83   -96.850043            -0.0,+0.0,+0.0
iter: 122  15:42:02 -11.38  -8.02   -96.850043            -0.0,+0.0,+0.0
iter: 123  15:42:08 -11.37  -8.00   -96.850043            -0.0,+0.0,+0.0
iter: 124  15:42:13 -11.59  -7.94   -96.850043            -0.0,+0.0,+0.0
iter: 125  15:42:18 -12.02  -8.00   -96.850043            -0.0,+0.0,+0.0
iter: 126  15:42:23 -11.70  -7.86   -96.850043            -0.0,+0.0,+0.0
iter: 127  15:42:28 -11.75  -8.00   -96.850043            -0.0,+0.0,+0.0
iter: 128  15:42:33 -11.57  -7.97   -96.850043            -0.0,+0.0,+0.0
iter: 129  15:42:38 -12.13  -7.98   -96.850043            -0.0,+0.0,+0.0
iter: 130  15:42:43 -12.20  -7.94   -96.850043            -0.0,+0.0,+0.0
iter: 131  15:42:49 -11.36  -7.99   -96.850043            -0.0,+0.0,+0.0
iter: 132  15:42:54 -12.20  -7.89   -96.850043            -0.0,+0.0,+0.0
iter: 133  15:42:59 -12.15  -8.04   -96.850043            -0.0,+0.0,+0.0
iter: 134  15:43:04 -11.37  -8.04   -96.850043            -0.0,+0.0,+0.0
iter: 135  15:43:09 -12.00  -8.21   -96.850043            -0.0,+0.0,+0.0
iter: 136  15:43:14 -12.23  -8.16   -96.850043            -0.0,+0.0,+0.0
iter: 137  15:43:19 -12.21  -8.17   -96.850043            -0.0,+0.0,+0.0
iter: 138  15:43:24 -11.60  -8.26   -96.850043            -0.0,+0.0,+0.0
iter: 139  15:43:30 -11.80  -8.29   -96.850043            -0.0,+0.0,+0.0
iter: 140  15:43:35 -12.47  -8.29   -96.850043            -0.0,+0.0,+0.0
iter: 141  15:43:40 -11.71  -8.34   -96.850043            -0.0,+0.0,+0.0
iter: 142  15:43:45 -11.42  -8.36   -96.850043            -0.0,+0.0,+0.0
iter: 143  15:43:50 -11.41  -8.39   -96.850043            -0.0,+0.0,+0.0
iter: 144  15:43:55 -10.61  -8.55   -96.850043            -0.0,+0.0,+0.0
iter: 145  15:44:00 -11.49  -8.66   -96.850043            -0.0,+0.0,+0.0
iter: 146  15:44:06 -11.57  -8.68   -96.850043            -0.0,+0.0,+0.0
iter: 147  15:44:11 -11.61  -8.70   -96.850043            -0.0,+0.0,+0.0
iter: 148  15:44:16 -12.04  -8.77   -96.850043            -0.0,+0.0,+0.0
iter: 149  15:44:21 -12.44  -8.84   -96.850043            -0.0,+0.0,+0.0
iter: 150  15:44:26 -12.61  -8.85   -96.850043            -0.0,+0.0,+0.0
iter: 151  15:44:31 -12.77  -8.88   -96.850043            -0.0,+0.0,+0.0
iter: 152  15:44:36 -13.00  -8.92   -96.850043            -0.0,+0.0,+0.0
iter: 153  15:44:42 -13.27  -8.99   -96.850043            -0.0,+0.0,+0.0
iter: 154  15:44:47 -13.27  -9.41   -96.850043            -0.0,+0.0,+0.0

Converged after 154 iterations.

Dipole moment: (-0.000148, -0.000123, 0.020962) |e|*Ang

Total magnetic moment: (-0.000000, 0.000002, 0.000107)
Local magnetic moments:
   0 O  (-0.000025,  0.000030, -0.000081)
   1 O  ( 0.000025,  0.000030, -0.000077)
   2 O  ( 0.000034,  0.000008,  0.000087)
   3 O  (-0.000034,  0.000008,  0.000086)
   4 Cr (-0.000081, -0.000172,  2.208492)
   5 Cr (-0.000081,  0.000173, -2.208861)
   6 Cr ( 0.000081,  0.000173, -2.208867)
   7 Cr ( 0.000081, -0.000172,  2.208491)
   8 O  (-0.000011, -0.000038,  0.000244)
   9 O  ( 0.000011, -0.000038,  0.000243)

Energy contributions relative to reference atoms: (reference = -126274.181857)

Kinetic:        +34.307543
Potential:      -53.938142
External:        +0.000000
XC:             -78.953658
Entropy (-ST):   -0.000000
Local:           +1.734214
--------------------------
Free energy:    -96.850043
Extrapolated:   -96.850043

Showing only first 2 kpts
 Kpt  Band  Eigenvalues  Occupancy
  0    28      2.74841    1.00000
  0    29      2.75221    1.00000
  0    30      2.96346    1.00000
  0    31      2.96795    1.00000

  1    28      2.89358    1.00000
  1    29      2.90364    1.00000
  1    30      2.93927    1.00000
  1    31      2.94276    1.00000


Fermi level: 9.02563

Gap: 0.826 eV
Transition (v -> c):
  (s=0, k=63, n=59, [0.12, 0.12, 0.08]) -> (s=0, k=63, n=60, [0.12, 0.12, 0.08])
Timing:                              incl.     excl.
-----------------------------------------------------------
Hamiltonian:                         0.350     0.002   0.0% |
 Atomic:                             0.130     0.130   0.0% |
  XC Correction:                     0.000     0.000   0.0% |
 Calculate atomic Hamiltonians:      0.024     0.024   0.0% |
 Communicate:                        0.000     0.000   0.0% |
 Initialize Hamiltonian:             0.001     0.001   0.0% |
 Poisson:                            0.001     0.001   0.0% |
 XC 3D grid:                         0.193     0.193   0.0% |
LCAO initialization:                26.496     0.142   0.0% |
 LCAO eigensolver:                  11.648     0.001   0.0% |
  DenseAtomicCorrection:             0.004     0.004   0.0% |
  Distribute overlap matrix:         0.000     0.000   0.0% |
  Orbital Layouts:                   0.009     0.009   0.0% |
  Potential matrix:                 11.605    11.605   1.4% ||
  Sum over cells:                    0.028     0.028   0.0% |
 LCAO to grid:                      14.221    14.221   1.7% ||
 Set positions (LCAO WFS):           0.485     0.113   0.0% |
  Basic WFS set positions:           0.000     0.000   0.0% |
  Basis functions set positions:     0.000     0.000   0.0% |
  P tci:                             0.130     0.130   0.0% |
  ST tci:                            0.155     0.155   0.0% |
  mktci:                             0.087     0.087   0.0% |
PWDescriptor:                        0.007     0.007   0.0% |
SCF-cycle:                         798.270   220.937  26.8% |----------|
 Davidson:                         420.373    30.741   3.7% ||
  Apply H:                          84.278    84.278  10.2% |---|
  Subspace diag:                    98.031     0.049   0.0% |
   calc_h_matrix:                   91.377     4.330   0.5% |
    Apply H:                        87.047    87.047  10.5% |---|
   diagonalize:                      0.831     0.831   0.1% |
   rotate_psi:                       5.775     5.775   0.7% |
  calc. matrices:                  190.661    24.105   2.9% ||
   Apply H:                        166.557   166.557  20.2% |-------|
  diagonalize:                       6.561     6.561   0.8% |
  rotate_psi:                       10.101    10.101   1.2% |
 Density:                          106.598     0.004   0.0% |
  Atomic density matrices:           4.239     4.239   0.5% |
  Mix:                              10.770    10.770   1.3% ||
  Multipole moments:                 0.047     0.047   0.0% |
  Pseudo density:                   91.538    91.531  11.1% |---|
   Symmetrize density:               0.007     0.007   0.0% |
 Hamiltonian:                       50.291     0.422   0.1% |
  Atomic:                           12.779    12.778   1.5% ||
   XC Correction:                    0.001     0.001   0.0% |
  Calculate atomic Hamiltonians:     4.630     4.630   0.6% |
  Communicate:                       0.028     0.028   0.0% |
  Poisson:                           0.149     0.149   0.0% |
  XC 3D grid:                       32.283    32.283   3.9% |-|
 Orthonormalize:                     0.072     0.001   0.0% |
  calc_s_matrix:                     0.016     0.016   0.0% |
  inverse-cholesky:                  0.001     0.001   0.0% |
  projections:                       0.032     0.032   0.0% |
  rotate_psi_s:                      0.021     0.021   0.0% |
Set symmetry:                        0.000     0.000   0.0% |
Other:                               0.763     0.763   0.1% |
-----------------------------------------------------------
Total:                                       825.886 100.0%

Memory usage: 467.30 MiB
Date: Wed Jul  6 15:44:47 2022
