
  ___ ___ ___ _ _ _  
 |   |   |_  | | | | 
 | | | | | . | | | | 
 |__ |  _|___|_____|  21.6.1b1
 |___|_|             

User:   madkru@c018.nifl.fysik.dtu.dk
Date:   Wed Jul  6 17:27:54 2022
Arch:   x86_64
Pid:    244658
Python: 3.8.6
gpaw:   /home/niflheim/madkru/new_venv/gpaw/gpaw (1f0dfc9eae)
_gpaw:  /home/niflheim/madkru/new_venv/gpaw/build/lib.linux-x86_64-skylake-3.8/
        _gpaw.cpython-38-x86_64-linux-gnu.so (c1e45bfab3)
ase:    /home/niflheim/madkru/new_venv/ase/ase (version 3.23.0b1-ca38c75a67)
numpy:  /home/modules/software/SciPy-bundle/2020.11-foss-2020b/lib/python3.8/site-packages/numpy (version 1.19.4)
scipy:  /home/modules/software/SciPy-bundle/2020.11-foss-2020b/lib/python3.8/site-packages/scipy (version 1.5.4)
libxc:  4.3.4
units:  Angstrom and eV
cores: 40
OpenMP: False
OMP_NUM_THREADS: 1

Input parameters:
  convergence: {density: 1e-09}
  experimental: {magmoms: [[0. 0. 0.]
 [0. 0. 0.]
 [0. 0. 0.]
 ...
 [0. 0. 5.]
 [0. 0. 0.]
 [0. 0. 0.]],
                 soc: True}
  kpts: [4 4 6]
  maxiter: 5000
  mixer: {backend: pulay,
          beta: 0.02,
          method: difference,
          nmaxold: 5,
          weight: 100}
  mode: {ecut: 600.0,
         gammacentered: False,
         name: pw}
  occupations: {name: fermi-dirac,
                width: 0.001}
  symmetry: off

System changes: positions, numbers, cell, pbc, initial_charges, initial_magmoms 

Initialize ...

O-setup:
  name: Oxygen
  id: 9b9d51c344dea68c822856295a461509
  Z: 8.0
  valence: 6
  core: 2
  charge: 0.0
  file: /home/modules/software/GPAW-setups/0.9.20000/O.LDA.gz
  compensation charges: gauss, rc=0.21, lmax=2
  cutoffs: 1.17(filt), 0.83(core),
  valence states:
                energy  radius
    2s(2.00)   -23.752   0.688
    2p(4.00)    -9.195   0.598
    *s           3.459   0.688
    *p          18.016   0.598
    *d           0.000   0.619

  Using partial waves for O as LCAO basis

Cr-setup:
  name: Chromium
  id: 444e8044bc0f91048286c984738d87f5
  Z: 24.0
  valence: 6
  core: 18
  charge: 0.0
  file: /home/modules/software/GPAW-setups/0.9.20000/Cr.LDA.gz
  compensation charges: gauss, rc=0.35, lmax=2
  cutoffs: 2.14(filt), 3.04(core),
  valence states:
                energy  radius
    4s(1.00)    -4.191   1.164
    4p(0.00)    -1.079   1.217
    3d(5.00)    -3.128   1.111
    *s          23.021   1.164
    *p          26.132   1.217
    *d          24.083   1.111

  Using partial waves for Cr as LCAO basis

Reference energy: -126274.181857

Non-collinear calculation.
Magnetic moment: (0.000000, 0.000000, 0.000000)

Convergence criteria:
  Maximum total energy change: 0.0005 eV / electron
  Maximum integral of absolute density change: 1e-09 electrons
  Maximum integral of absolute eigenstate change: 4e-08 eV^2
  Maximum number of iterations: 5000

Symmetries present (total): 1

  ( 1  0  0)
  ( 0  1  0)
  ( 0  0  1)

96 k-points: 4 x 4 x 6 Monkhorst-Pack grid
96 k-points in the irreducible part of the Brillouin zone
       k-points in crystal coordinates                weights
   0:    -0.37500000   -0.37500000   -0.41666667          1/96
   1:    -0.37500000   -0.37500000   -0.25000000          1/96
   2:    -0.37500000   -0.37500000   -0.08333333          1/96
   3:    -0.37500000   -0.37500000    0.08333333          1/96
   4:    -0.37500000   -0.37500000    0.25000000          1/96
   5:    -0.37500000   -0.37500000    0.41666667          1/96
   6:    -0.37500000   -0.12500000   -0.41666667          1/96
   7:    -0.37500000   -0.12500000   -0.25000000          1/96
   8:    -0.37500000   -0.12500000   -0.08333333          1/96
   9:    -0.37500000   -0.12500000    0.08333333          1/96
          ...
  95:     0.37500000    0.37500000    0.41666667          1/96

Wave functions: Plane wave expansion
  Cutoff energy: 600.000 eV
  Number of coefficients (min, max): 2899, 2926
  Pulay-stress correction: 0.000000 eV/Ang^3 (de/decut=0.000000)
  Using FFTW library
  ScaLapack parameters: grid=1x1, blocksize=None
  Wavefunction extrapolation:
    Improved wavefunction reuse through dual PAW basis 

Occupation numbers: Fermi-Dirac: width=0.0010 eV
 

Eigensolver
   Davidson(niter=2) 

Densities:
  Coarse grid: 32*32*32 grid
  Fine grid: 64*64*64 grid
  Total Charge: 0.000000 

Density mixing:
  Method: difference
  Backend: pulay
  Linear mixing parameter: 0.02
  Mixing with 5 old densities
  Damping of long wave oscillations: 100 

Hamiltonian:
  XC and Coulomb potentials evaluated on a 64*64*64 grid
  Using the LDA Exchange-Correlation functional
  External potential:
    <gpaw.external.NoExternalPotential object at 0x2b9cf1e80e50>
 

Memory estimate:
  Process memory now: 395.46 MiB
  Calculator: 34.72 MiB
    Density: 15.86 MiB
      Arrays: 6.50 MiB
      Localized functions: 3.86 MiB
      Mixer: 5.50 MiB
    Hamiltonian: 4.34 MiB
      Arrays: 4.25 MiB
      XC: 0.00 MiB
      Poisson: 0.00 MiB
      vbar: 0.09 MiB
    Wavefunctions: 14.51 MiB
      Arrays psit_nG: 7.14 MiB
      Eigensolver: 4.77 MiB
      Projections: 0.37 MiB
      Projectors: 0.89 MiB
      PW-descriptor: 1.34 MiB

Total number of cores used: 40
Parallelization over k-points: 40

Number of atoms: 10
Number of atomic orbitals: 60
Number of bands in calculation: 80
Number of valence electrons: 60
Bands to converge: occupied

... initialized

Initializing position-dependent things.

Density initialized from atomic densities
Creating initial wave functions:
  60 bands from LCAO basis set
  20 bands from random numbers

                          
                          
                          
                          
            Cr            
                          
                          
            Cr            
           O              
         O      O         
                          
        O      O          
             O            
            Cr            
                          
                          
            Cr            
                          
                          
                          
                          

Positions:
   0 O     -0.760634   -1.388941    8.038015    ( 0.0000,  0.0000,  0.0000)
   1 O     -1.582184   -0.036495    5.741550    ( 0.0000,  0.0000,  0.0000)
   2 O     -0.823830    1.351837    8.036873    ( 0.0000,  0.0000,  0.0000)
   3 O      0.823830   -1.352679    5.740630    ( 0.0000,  0.0000,  0.0000)
   4 Cr    -0.000226   -0.000769    2.195940    ( 0.0000,  0.0000,  5.0000)
   5 Cr     0.000216   -0.000920    4.693225    ( 0.0000,  0.0000, -5.0000)
   6 Cr    -0.000216   -0.001289   11.582390    ( 0.0000,  0.0000, -5.0000)
   7 Cr     0.000226   -0.001140    9.085105    ( 0.0000,  0.0000,  5.0000)
   8 O      1.583032    0.037116    8.037194    ( 0.0000,  0.0000,  0.0000)
   9 O      0.759786    1.389561    5.740730    ( 0.0000,  0.0000,  0.0000)

Unit cell:
           periodic     x           y           z      points  spacing
  1. axis:    yes    2.342815    1.352071    4.592704    32     0.1216
  2. axis:    yes   -2.342815    1.352071    4.592704    32     0.1216
  3. axis:    yes    0.000000   -2.704886    4.592923    32     0.1216

  Lengths:   5.330085   5.330085   5.330230
  Angles:   52.139511  52.139510  52.149782

Effective grid spacing dv^(1/3) = 0.1386

                     log10-error:    total        iterations:
           time      wfs    density  energy       poisson
iter:   1  17:28:36                 -99.631747            +0.0,+0.0,-0.0
iter:   2  17:28:41  -0.65  -0.99  -100.952270            +0.0,-0.0,+0.0
iter:   3  17:28:46  -0.08  -1.00   -97.148310            +0.0,-0.0,+0.0
iter:   4  17:28:51  -0.60  -1.35   -97.337829            +0.0,-0.0,+0.0
iter:   5  17:28:56  -1.12  -1.37   -97.424071            +0.0,-0.0,+0.0
iter:   6  17:29:01  -0.38  -1.38   -98.571944            +0.0,-0.0,+0.0
iter:   7  17:29:06  -1.08  -1.55   -97.143534            +0.0,-0.0,+0.0
iter:   8  17:29:11  -2.27  -1.84   -97.265321            +0.0,-0.0,+0.0
iter:   9  17:29:16  -1.38  -1.79   -97.147902            +0.0,-0.0,+0.0
iter:  10  17:29:21  -0.60  -1.83   -97.359036            +0.0,-0.0,+0.0
iter:  11  17:29:26  -1.56  -1.71   -96.852954            +0.0,-0.0,+0.0
iter:  12  17:29:31  -2.68  -2.33   -96.855281            +0.0,-0.0,+0.0
iter:  13  17:29:36  -2.06  -2.42   -96.857871            +0.0,-0.0,+0.0
iter:  14  17:29:41  -2.72  -2.52   -96.859292            +0.0,-0.0,+0.0
iter:  15  17:29:46  -3.13  -2.51   -96.860761            +0.0,-0.0,+0.0
iter:  16  17:29:51  -2.57  -2.42   -96.882586            +0.0,-0.0,+0.0
iter:  17  17:29:57  -3.06  -2.21   -96.876251            +0.0,-0.0,+0.0
iter:  18  17:30:02  -3.08  -2.35   -96.884956            +0.0,-0.0,+0.0
iter:  19  17:30:07  -2.35  -2.24   -96.860958            +0.0,-0.0,+0.0
iter:  20  17:30:12  -2.98  -2.55   -96.857083            +0.0,-0.0,+0.0
iter:  21  17:30:17  -3.17  -2.63   -96.852412            +0.0,-0.0,+0.0
iter:  22  17:30:22  -3.74  -2.80   -96.856842            +0.0,-0.0,+0.0
iter:  23  17:30:27  -3.04  -2.65   -96.851700            +0.0,-0.0,+0.0
iter:  24  17:30:32  -3.73  -2.92   -96.854059            +0.0,-0.0,+0.0
iter:  25  17:30:37  -3.51  -2.83   -96.852013            +0.0,-0.0,+0.0
iter:  26  17:30:42  -4.07  -3.04   -96.851979            +0.0,-0.0,+0.0
iter:  27  17:30:47  -3.73  -3.04   -96.852596            +0.0,-0.0,+0.0
iter:  28  17:30:52  -3.97  -3.04   -96.852186            +0.0,-0.0,+0.0
iter:  29  17:30:57  -4.55  -3.11   -96.852217            +0.0,-0.0,+0.0
iter:  30  17:31:02  -4.43  -3.10   -96.852534            +0.0,-0.0,+0.0
iter:  31  17:31:07  -4.63  -3.09   -96.852108            +0.0,-0.0,+0.0
iter:  32  17:31:12  -5.40  -3.13   -96.852145            +0.0,-0.0,+0.0
iter:  33  17:31:17  -4.23  -3.14   -96.851919            +0.0,-0.0,+0.0
iter:  34  17:31:22  -4.33  -3.39   -96.852070            +0.0,-0.0,+0.0
iter:  35  17:31:27  -4.32  -3.27   -96.852007            +0.0,-0.0,+0.0
iter:  36  17:31:32  -5.40  -3.51   -96.851941            +0.0,-0.0,+0.0
iter:  37  17:31:38  -4.33  -3.54   -96.852104            +0.0,-0.0,+0.0
iter:  38  17:31:43  -5.12  -3.38   -96.852082            +0.0,-0.0,+0.0
iter:  39  17:31:48  -4.78  -3.40   -96.851913            +0.0,-0.0,+0.0
iter:  40  17:31:53  -5.13  -3.71   -96.851917            +0.0,-0.0,+0.0
iter:  41  17:31:58  -4.75  -3.85   -96.852004            +0.0,-0.0,+0.0
iter:  42  17:32:03  -5.04  -3.59   -96.851905            +0.0,-0.0,+0.0
iter:  43  17:32:08  -6.00  -3.97   -96.851906            +0.0,-0.0,+0.0
iter:  44  17:32:13  -6.01  -4.00   -96.851911            +0.0,-0.0,+0.0
iter:  45  17:32:18  -6.46  -3.93   -96.851909            +0.0,-0.0,+0.0
iter:  46  17:32:23  -6.69  -3.96   -96.851908            +0.0,-0.0,+0.0
iter:  47  17:32:28  -6.03  -3.98   -96.851905            +0.0,-0.0,+0.0
iter:  48  17:32:33  -5.70  -4.07   -96.851915            +0.0,-0.0,+0.0
iter:  49  17:32:38  -5.87  -4.10   -96.851907            +0.0,-0.0,+0.0
iter:  50  17:32:43  -6.38  -4.42   -96.851907            +0.0,-0.0,+0.0
iter:  51  17:32:48  -6.67  -4.46   -96.851907            +0.0,-0.0,+0.0
iter:  52  17:32:53  -7.06  -4.48   -96.851906            +0.0,-0.0,+0.0
iter:  53  17:32:58  -7.23  -4.55   -96.851907            +0.0,-0.0,+0.0
iter:  54  17:33:03  -7.42  -4.58   -96.851906            +0.0,-0.0,+0.0
iter:  55  17:33:08  -7.10  -4.62   -96.851906            +0.0,-0.0,+0.0
iter:  56  17:33:13  -7.45  -4.82   -96.851906            +0.0,-0.0,+0.0
iter:  57  17:33:19  -6.95  -4.83   -96.851907            +0.0,-0.0,+0.0
iter:  58  17:33:24  -7.46  -4.57   -96.851907            +0.0,-0.0,+0.0
iter:  59  17:33:29  -7.26  -4.76   -96.851907            +0.0,-0.0,+0.0
iter:  60  17:33:34  -7.04  -4.51   -96.851907            +0.0,-0.0,+0.0
iter:  61  17:33:39  -7.82  -4.85   -96.851907            +0.0,-0.0,+0.0
iter:  62  17:33:44  -7.74  -4.81   -96.851907            +0.0,-0.0,+0.0
iter:  63  17:33:49  -7.42  -4.85   -96.851907            +0.0,-0.0,+0.0
iter:  64  17:33:54  -7.74  -4.86   -96.851906            +0.0,-0.0,+0.0
iter:  65  17:33:59  -7.46  -4.95   -96.851907            +0.0,-0.0,+0.0
iter:  66  17:34:04  -7.77  -4.90   -96.851906            +0.0,-0.0,+0.0
iter:  67  17:34:09  -7.87  -4.96   -96.851907            +0.0,-0.0,+0.0
iter:  68  17:34:14  -8.10  -5.07   -96.851906            +0.0,-0.0,+0.0
iter:  69  17:34:19  -8.24  -5.27   -96.851906            +0.0,-0.0,+0.0
iter:  70  17:34:24  -7.97  -5.34   -96.851906            +0.0,-0.0,+0.0
iter:  71  17:34:29  -8.05  -5.35   -96.851906            +0.0,-0.0,+0.0
iter:  72  17:34:34  -8.58  -5.31   -96.851906            +0.0,-0.0,+0.0
iter:  73  17:34:39  -8.84  -5.34   -96.851906            +0.0,-0.0,+0.0
iter:  74  17:34:44  -8.82  -5.34   -96.851906            +0.0,-0.0,+0.0
iter:  75  17:34:49  -8.95  -5.38   -96.851906            +0.0,-0.0,+0.0
iter:  76  17:34:54  -9.04  -5.41   -96.851906            +0.0,-0.0,+0.0
iter:  77  17:34:59  -8.69  -5.46   -96.851906            +0.0,-0.0,+0.0
iter:  78  17:35:04  -9.12  -5.52   -96.851906            +0.0,-0.0,+0.0
iter:  79  17:35:09  -9.01  -5.55   -96.851906            +0.0,-0.0,+0.0
iter:  80  17:35:15  -9.09  -5.55   -96.851906            +0.0,-0.0,+0.0
iter:  81  17:35:20  -9.50  -5.79   -96.851906            +0.0,-0.0,+0.0
iter:  82  17:35:25  -9.60  -5.78   -96.851906            +0.0,-0.0,+0.0
iter:  83  17:35:30  -9.50  -5.75   -96.851906            +0.0,-0.0,+0.0
iter:  84  17:35:35  -9.74  -5.78   -96.851906            +0.0,-0.0,+0.0
iter:  85  17:35:40  -9.75  -5.76   -96.851906            +0.0,-0.0,+0.0
iter:  86  17:35:45  -9.85  -5.80   -96.851906            +0.0,-0.0,+0.0
iter:  87  17:35:50 -10.00  -5.82   -96.851906            +0.0,-0.0,+0.0
iter:  88  17:35:55 -10.14  -5.85   -96.851906            +0.0,-0.0,+0.0
iter:  89  17:36:00  -9.82  -5.89   -96.851906            +0.0,-0.0,+0.0
iter:  90  17:36:05 -10.19  -6.17   -96.851906            +0.0,-0.0,+0.0
iter:  91  17:36:10 -10.42  -6.21   -96.851906            +0.0,-0.0,+0.0
iter:  92  17:36:15 -10.39  -6.22   -96.851906            +0.0,-0.0,+0.0
iter:  93  17:36:20 -10.46  -6.24   -96.851906            +0.0,-0.0,+0.0
iter:  94  17:36:25 -10.60  -6.30   -96.851906            +0.0,-0.0,+0.0
iter:  95  17:36:30 -10.72  -6.35   -96.851906            +0.0,-0.0,+0.0
iter:  96  17:36:35 -10.40  -6.37   -96.851906            +0.0,-0.0,+0.0
iter:  97  17:36:40 -10.72  -6.56   -96.851906            +0.0,-0.0,+0.0
iter:  98  17:36:45 -10.87  -6.61   -96.851906            +0.0,-0.0,+0.0
iter:  99  17:36:50 -10.97  -6.61   -96.851906            +0.0,-0.0,+0.0
iter: 100  17:36:55 -10.84  -6.65   -96.851906            +0.0,-0.0,+0.0
iter: 101  17:37:01 -11.08  -6.93   -96.851906            +0.0,-0.0,+0.0
iter: 102  17:37:06 -11.21  -7.05   -96.851906            +0.0,-0.0,+0.0
iter: 103  17:37:11 -11.28  -7.15   -96.851906            +0.0,-0.0,+0.0
iter: 104  17:37:16 -11.31  -7.23   -96.851906            +0.0,-0.0,+0.0
iter: 105  17:37:21 -11.17  -7.26   -96.851906            +0.0,-0.0,+0.0
iter: 106  17:37:26 -11.17  -7.28   -96.851906            +0.0,-0.0,+0.0
iter: 107  17:37:31 -11.48  -7.35   -96.851906            +0.0,-0.0,+0.0
iter: 108  17:37:36 -11.56  -7.35   -96.851906            +0.0,-0.0,+0.0
iter: 109  17:37:41 -11.64  -7.34   -96.851906            +0.0,-0.0,+0.0
iter: 110  17:37:46 -11.70  -7.40   -96.851906            +0.0,-0.0,+0.0
iter: 111  17:37:51 -11.23  -7.41   -96.851906            +0.0,-0.0,+0.0
iter: 112  17:37:56 -11.48  -7.44   -96.851906            +0.0,-0.0,+0.0
iter: 113  17:38:01 -11.86  -7.42   -96.851906            +0.0,-0.0,+0.0
iter: 114  17:38:06 -11.54  -7.40   -96.851906            +0.0,-0.0,+0.0
iter: 115  17:38:11 -11.36  -7.40   -96.851906            +0.0,-0.0,+0.0
iter: 116  17:38:16 -11.15  -7.50   -96.851906            +0.0,-0.0,+0.0
iter: 117  17:38:21 -11.59  -7.50   -96.851906            +0.0,-0.0,+0.0
iter: 118  17:38:26 -11.94  -7.49   -96.851906            +0.0,-0.0,+0.0
iter: 119  17:38:31 -12.14  -7.60   -96.851906            +0.0,-0.0,+0.0
iter: 120  17:38:36 -12.15  -7.61   -96.851906            +0.0,-0.0,+0.0
iter: 121  17:38:41 -11.27  -7.66   -96.851906            +0.0,-0.0,+0.0
iter: 122  17:38:46 -11.41  -7.99   -96.851906            +0.0,-0.0,+0.0
iter: 123  17:38:51 -12.03  -8.17   -96.851906            +0.0,-0.0,+0.0
iter: 124  17:38:57 -11.95  -8.19   -96.851906            +0.0,-0.0,+0.0
iter: 125  17:39:02 -11.87  -8.24   -96.851906            +0.0,-0.0,+0.0
iter: 126  17:39:07 -11.86  -8.35   -96.851906            +0.0,-0.0,+0.0
iter: 127  17:39:12 -11.43  -8.40   -96.851906            +0.0,-0.0,+0.0
iter: 128  17:39:17 -11.81  -8.44   -96.851906            +0.0,-0.0,+0.0
iter: 129  17:39:22 -12.46  -8.58   -96.851906            +0.0,-0.0,+0.0
iter: 130  17:39:27 -11.91  -8.60   -96.851906            +0.0,-0.0,+0.0
iter: 131  17:39:32 -11.83  -8.69   -96.851906            +0.0,-0.0,+0.0
iter: 132  17:39:37 -11.91  -8.75   -96.851906            +0.0,-0.0,+0.0
iter: 133  17:39:42 -12.44  -8.77   -96.851906            +0.0,-0.0,+0.0
iter: 134  17:39:47 -11.93  -8.79   -96.851906            +0.0,-0.0,+0.0
iter: 135  17:39:52 -11.79  -8.80   -96.851906            +0.0,-0.0,+0.0
iter: 136  17:39:57 -11.15  -8.83   -96.851906            +0.0,-0.0,+0.0
iter: 137  17:40:02 -12.08  -8.86   -96.851906            +0.0,-0.0,+0.0
iter: 138  17:40:07 -12.01  -8.94   -96.851906            +0.0,-0.0,+0.0
iter: 139  17:40:12 -11.04  -9.10   -96.851906            +0.0,-0.0,+0.0

Converged after 139 iterations.

Dipole moment: (0.008045, 0.000090, 0.000121) |e|*Ang

Total magnetic moment: (0.000000, -0.000094, 0.000093)
Local magnetic moments:
   0 O  (-0.000019,  0.000033, -0.000064)
   1 O  ( 0.000019,  0.000033, -0.000063)
   2 O  ( 0.000034,  0.000000, -0.000197)
   3 O  (-0.000034,  0.000000, -0.000197)
   4 Cr (-0.000122, -0.000158,  2.208827)
   5 Cr (-0.000046,  0.000114, -2.208782)
   6 Cr ( 0.000046,  0.000114, -2.208784)
   7 Cr ( 0.000122, -0.000159,  2.208826)
   8 O  (-0.000017, -0.000034,  0.000260)
   9 O  ( 0.000017, -0.000034,  0.000260)

Energy contributions relative to reference atoms: (reference = -126274.181857)

Kinetic:        +34.277595
Potential:      -53.913120
External:        +0.000000
XC:             -78.950474
Entropy (-ST):   -0.000000
Local:           +1.734093
--------------------------
Free energy:    -96.851906
Extrapolated:   -96.851906

Showing only first 2 kpts
 Kpt  Band  Eigenvalues  Occupancy
  0    28      2.75007    1.00000
  0    29      2.75045    1.00000
  0    30      2.96543    1.00000
  0    31      2.96597    1.00000

  1    28      2.89848    1.00000
  1    29      2.89852    1.00000
  1    30      2.94067    1.00000
  1    31      2.94142    1.00000


Fermi level: 9.02481

Gap: 0.832 eV
Transition (v -> c):
  (s=0, k=63, n=59, [0.12, 0.12, 0.08]) -> (s=0, k=63, n=60, [0.12, 0.12, 0.08])
Timing:                              incl.     excl.
-----------------------------------------------------------
Hamiltonian:                         0.339     0.003   0.0% |
 Atomic:                             0.123     0.123   0.0% |
  XC Correction:                     0.000     0.000   0.0% |
 Calculate atomic Hamiltonians:      0.029     0.029   0.0% |
 Communicate:                        0.000     0.000   0.0% |
 Initialize Hamiltonian:             0.000     0.000   0.0% |
 Poisson:                            0.001     0.001   0.0% |
 XC 3D grid:                         0.181     0.181   0.0% |
LCAO initialization:                27.792     0.142   0.0% |
 LCAO eigensolver:                  11.839     0.001   0.0% |
  DenseAtomicCorrection:             0.004     0.004   0.0% |
  Distribute overlap matrix:         0.000     0.000   0.0% |
  Orbital Layouts:                   0.009     0.009   0.0% |
  Potential matrix:                 11.797    11.797   1.6% ||
  Sum over cells:                    0.028     0.028   0.0% |
 LCAO to grid:                      15.323    15.323   2.1% ||
 Set positions (LCAO WFS):           0.487     0.113   0.0% |
  Basic WFS set positions:           0.000     0.000   0.0% |
  Basis functions set positions:     0.000     0.000   0.0% |
  P tci:                             0.131     0.131   0.0% |
  ST tci:                            0.155     0.155   0.0% |
  mktci:                             0.088     0.088   0.0% |
PWDescriptor:                        0.007     0.007   0.0% |
SCF-cycle:                         709.620   188.176  25.5% |---------|
 Davidson:                         383.084    26.743   3.6% ||
  Apply H:                          79.788    79.788  10.8% |---|
  Subspace diag:                    90.138     0.053   0.0% |
   calc_h_matrix:                   83.888     3.633   0.5% |
    Apply H:                        80.255    80.255  10.9% |---|
   diagonalize:                      0.802     0.802   0.1% |
   rotate_psi:                       5.395     5.395   0.7% |
  calc. matrices:                  170.688    20.027   2.7% ||
   Apply H:                        150.660   150.660  20.4% |-------|
  diagonalize:                       5.929     5.929   0.8% |
  rotate_psi:                        9.798     9.798   1.3% ||
 Density:                           92.896     0.004   0.0% |
  Atomic density matrices:           3.936     3.936   0.5% |
  Mix:                               9.778     9.778   1.3% ||
  Multipole moments:                 0.045     0.045   0.0% |
  Pseudo density:                   79.134    79.128  10.7% |---|
   Symmetrize density:               0.006     0.006   0.0% |
 Hamiltonian:                       45.398     0.274   0.0% |
  Atomic:                           12.870    12.870   1.7% ||
   XC Correction:                    0.001     0.001   0.0% |
  Calculate atomic Hamiltonians:     3.605     3.605   0.5% |
  Communicate:                       0.021     0.021   0.0% |
  Poisson:                           0.145     0.145   0.0% |
  XC 3D grid:                       28.483    28.483   3.9% |-|
 Orthonormalize:                     0.066     0.000   0.0% |
  calc_s_matrix:                     0.015     0.015   0.0% |
  inverse-cholesky:                  0.001     0.001   0.0% |
  projections:                       0.030     0.030   0.0% |
  rotate_psi_s:                      0.019     0.019   0.0% |
Set symmetry:                        0.000     0.000   0.0% |
Other:                               0.761     0.761   0.1% |
-----------------------------------------------------------
Total:                                       738.518 100.0%

Memory usage: 401.58 MiB
Date: Wed Jul  6 17:40:12 2022
