
  ___ ___ ___ _ _ _  
 |   |   |_  | | | | 
 | | | | | . | | | | 
 |__ |  _|___|_____|  21.6.1b1
 |___|_|             

User:   madkru@c130.nifl.fysik.dtu.dk
Date:   Wed Jul  6 14:33:57 2022
Arch:   x86_64
Pid:    254457
Python: 3.8.6
gpaw:   /home/niflheim/madkru/new_venv/gpaw/gpaw (1f0dfc9eae)
_gpaw:  /home/niflheim/madkru/new_venv/gpaw/build/lib.linux-x86_64-skylake-3.8/
        _gpaw.cpython-38-x86_64-linux-gnu.so (c1e45bfab3)
ase:    /home/niflheim/madkru/new_venv/ase/ase (version 3.23.0b1-ca38c75a67)
numpy:  /home/modules/software/SciPy-bundle/2020.11-foss-2020b/lib/python3.8/site-packages/numpy (version 1.19.4)
scipy:  /home/modules/software/SciPy-bundle/2020.11-foss-2020b/lib/python3.8/site-packages/scipy (version 1.5.4)
libxc:  4.3.4
units:  Angstrom and eV
cores: 40
OpenMP: False
OMP_NUM_THREADS: 1

Input parameters:
  convergence: {density: 1e-09}
  experimental: {magmoms: [[0. 0. 0.]
 [0. 0. 0.]
 [0. 0. 0.]
 ...
 [0. 0. 5.]
 [0. 0. 0.]
 [0. 0. 0.]],
                 soc: True}
  kpts: [4 4 6]
  maxiter: 5000
  mixer: {backend: pulay,
          beta: 0.02,
          method: difference,
          nmaxold: 5,
          weight: 100}
  mode: {ecut: 600.0,
         gammacentered: False,
         name: pw}
  occupations: {name: fermi-dirac,
                width: 0.001}
  symmetry: off

System changes: positions, numbers, cell, pbc, initial_charges, initial_magmoms 

Initialize ...

O-setup:
  name: Oxygen
  id: 9b9d51c344dea68c822856295a461509
  Z: 8.0
  valence: 6
  core: 2
  charge: 0.0
  file: /home/modules/software/GPAW-setups/0.9.20000/O.LDA.gz
  compensation charges: gauss, rc=0.21, lmax=2
  cutoffs: 1.17(filt), 0.83(core),
  valence states:
                energy  radius
    2s(2.00)   -23.752   0.688
    2p(4.00)    -9.195   0.598
    *s           3.459   0.688
    *p          18.016   0.598
    *d           0.000   0.619

  Using partial waves for O as LCAO basis

Cr-setup:
  name: Chromium
  id: 444e8044bc0f91048286c984738d87f5
  Z: 24.0
  valence: 6
  core: 18
  charge: 0.0
  file: /home/modules/software/GPAW-setups/0.9.20000/Cr.LDA.gz
  compensation charges: gauss, rc=0.35, lmax=2
  cutoffs: 2.14(filt), 3.04(core),
  valence states:
                energy  radius
    4s(1.00)    -4.191   1.164
    4p(0.00)    -1.079   1.217
    3d(5.00)    -3.128   1.111
    *s          23.021   1.164
    *p          26.132   1.217
    *d          24.083   1.111

  Using partial waves for Cr as LCAO basis

Reference energy: -126274.181857

Non-collinear calculation.
Magnetic moment: (0.000000, 0.000000, 0.000000)

Convergence criteria:
  Maximum total energy change: 0.0005 eV / electron
  Maximum integral of absolute density change: 1e-09 electrons
  Maximum integral of absolute eigenstate change: 4e-08 eV^2
  Maximum number of iterations: 5000

Symmetries present (total): 1

  ( 1  0  0)
  ( 0  1  0)
  ( 0  0  1)

96 k-points: 4 x 4 x 6 Monkhorst-Pack grid
96 k-points in the irreducible part of the Brillouin zone
       k-points in crystal coordinates                weights
   0:    -0.37500000   -0.37500000   -0.41666667          1/96
   1:    -0.37500000   -0.37500000   -0.25000000          1/96
   2:    -0.37500000   -0.37500000   -0.08333333          1/96
   3:    -0.37500000   -0.37500000    0.08333333          1/96
   4:    -0.37500000   -0.37500000    0.25000000          1/96
   5:    -0.37500000   -0.37500000    0.41666667          1/96
   6:    -0.37500000   -0.12500000   -0.41666667          1/96
   7:    -0.37500000   -0.12500000   -0.25000000          1/96
   8:    -0.37500000   -0.12500000   -0.08333333          1/96
   9:    -0.37500000   -0.12500000    0.08333333          1/96
          ...
  95:     0.37500000    0.37500000    0.41666667          1/96

Wave functions: Plane wave expansion
  Cutoff energy: 600.000 eV
  Number of coefficients (min, max): 2899, 2926
  Pulay-stress correction: 0.000000 eV/Ang^3 (de/decut=0.000000)
  Using FFTW library
  ScaLapack parameters: grid=1x1, blocksize=None
  Wavefunction extrapolation:
    Improved wavefunction reuse through dual PAW basis 

Occupation numbers: Fermi-Dirac: width=0.0010 eV
 

Eigensolver
   Davidson(niter=2) 

Densities:
  Coarse grid: 32*32*32 grid
  Fine grid: 64*64*64 grid
  Total Charge: 0.000000 

Density mixing:
  Method: difference
  Backend: pulay
  Linear mixing parameter: 0.02
  Mixing with 5 old densities
  Damping of long wave oscillations: 100 

Hamiltonian:
  XC and Coulomb potentials evaluated on a 64*64*64 grid
  Using the LDA Exchange-Correlation functional
  External potential:
    <gpaw.external.NoExternalPotential object at 0x2b05f63287f0>
 

Memory estimate:
  Process memory now: 408.43 MiB
  Calculator: 34.72 MiB
    Density: 15.86 MiB
      Arrays: 6.50 MiB
      Localized functions: 3.86 MiB
      Mixer: 5.50 MiB
    Hamiltonian: 4.34 MiB
      Arrays: 4.25 MiB
      XC: 0.00 MiB
      Poisson: 0.00 MiB
      vbar: 0.09 MiB
    Wavefunctions: 14.51 MiB
      Arrays psit_nG: 7.14 MiB
      Eigensolver: 4.77 MiB
      Projections: 0.37 MiB
      Projectors: 0.89 MiB
      PW-descriptor: 1.34 MiB

Total number of cores used: 40
Parallelization over k-points: 40

Number of atoms: 10
Number of atomic orbitals: 60
Number of bands in calculation: 80
Number of valence electrons: 60
Bands to converge: occupied

... initialized

Initializing position-dependent things.

Density initialized from atomic densities
Creating initial wave functions:
  60 bands from LCAO basis set
  20 bands from random numbers

                          
                          
                          
                          
            Cr            
                          
                          
            Cr            
           O              
         O      O         
                          
        O      O          
             O            
            Cr            
                          
                          
            Cr            
                          
                          
                          
                          

Positions:
   0 O     -0.760209   -1.389622    8.037806    ( 0.0000,  0.0000,  0.0000)
   1 O     -1.582607   -0.037179    5.741345    ( 0.0000,  0.0000,  0.0000)
   2 O     -0.823830    1.351886    8.037286    ( 0.0000,  0.0000,  0.0000)
   3 O      0.823830   -1.352629    5.741044    ( 0.0000,  0.0000,  0.0000)
   4 Cr    -0.000004   -0.000111    2.195939    ( 0.0000,  0.0000,  5.0000)
   5 Cr    -0.000004   -0.000260    4.693225    ( 0.0000,  0.0000, -5.0000)
   6 Cr     0.000004   -0.000632   11.582391    ( 0.0000,  0.0000, -5.0000)
   7 Cr     0.000004   -0.000483    9.085105    ( 0.0000,  0.0000,  5.0000)
   8 O      1.582607    0.036435    8.036986    ( 0.0000,  0.0000,  0.0000)
   9 O      0.760209    1.388879    5.740525    ( 0.0000,  0.0000,  0.0000)

Unit cell:
           periodic     x           y           z      points  spacing
  1. axis:    yes    2.342815    1.352071    4.592704    32     0.1216
  2. axis:    yes   -2.342815    1.352071    4.592704    32     0.1216
  3. axis:    yes    0.000000   -2.704886    4.592923    32     0.1216

  Lengths:   5.330085   5.330085   5.330230
  Angles:   52.139511  52.139510  52.149782

Effective grid spacing dv^(1/3) = 0.1386

                     log10-error:    total        iterations:
           time      wfs    density  energy       poisson
iter:   1  14:34:40                 -99.631815            +0.0,+0.0,-0.0
iter:   2  14:34:45  -0.65  -0.99  -100.952333            +0.0,+0.0,+0.0
iter:   3  14:34:50  -0.08  -1.00   -97.148373            +0.0,-0.0,+0.0
iter:   4  14:34:55  -0.60  -1.35   -97.337897            +0.0,-0.0,+0.0
iter:   5  14:35:00  -1.12  -1.37   -97.424168            +0.0,+0.0,+0.0
iter:   6  14:35:05  -0.38  -1.38   -98.571941            +0.0,+0.0,+0.0
iter:   7  14:35:10  -1.08  -1.55   -97.143552            +0.0,+0.0,+0.0
iter:   8  14:35:15  -2.27  -1.84   -97.265344            +0.0,-0.0,+0.0
iter:   9  14:35:20  -1.38  -1.79   -97.147963            +0.0,-0.0,+0.0
iter:  10  14:35:25  -0.60  -1.83   -97.359927            +0.0,-0.0,+0.0
iter:  11  14:35:30  -1.56  -1.71   -96.853010            +0.0,-0.0,+0.0
iter:  12  14:35:35  -2.68  -2.33   -96.855345            +0.0,-0.0,+0.0
iter:  13  14:35:40  -2.06  -2.42   -96.857908            +0.0,-0.0,+0.0
iter:  14  14:35:45  -2.72  -2.52   -96.859401            +0.0,-0.0,+0.0
iter:  15  14:35:50  -3.13  -2.51   -96.860831            +0.0,-0.0,+0.0
iter:  16  14:35:55  -2.56  -2.42   -96.883179            +0.0,-0.0,+0.0
iter:  17  14:36:00  -3.06  -2.20   -96.876648            +0.0,-0.0,+0.0
iter:  18  14:36:05  -3.07  -2.35   -96.885660            +0.0,-0.0,+0.0
iter:  19  14:36:10  -2.30  -2.24   -96.859495            +0.0,-0.0,+0.0
iter:  20  14:36:15  -2.92  -2.56   -96.857080            +0.0,-0.0,+0.0
iter:  21  14:36:20  -3.19  -2.63   -96.852777            +0.0,-0.0,+0.0
iter:  22  14:36:25  -3.79  -2.79   -96.856948            +0.0,+0.0,+0.0
iter:  23  14:36:30  -3.15  -2.65   -96.851728            +0.0,+0.0,+0.0
iter:  24  14:36:35  -3.42  -2.87   -96.855048            +0.0,+0.0,+0.0
iter:  25  14:36:40  -3.35  -2.72   -96.858982            +0.0,+0.0,+0.0
iter:  26  14:36:45  -3.63  -2.58   -96.861206            +0.0,+0.0,+0.0
iter:  27  14:36:50  -3.04  -2.56   -96.852073            +0.0,+0.0,+0.0
iter:  28  14:36:55  -3.67  -2.94   -96.851901            +0.0,+0.0,+0.0
iter:  29  14:37:00  -3.98  -3.10   -96.852965            +0.0,+0.0,+0.0
iter:  30  14:37:05  -4.58  -3.00   -96.852386            +0.0,+0.0,+0.0
iter:  31  14:37:10  -4.68  -3.05   -96.852204            +0.0,+0.0,+0.0
iter:  32  14:37:15  -4.96  -3.07   -96.852223            +0.0,+0.0,+0.0
iter:  33  14:37:20  -5.06  -3.09   -96.852137            +0.0,+0.0,+0.0
iter:  34  14:37:25  -4.49  -3.11   -96.852333            +0.0,+0.0,+0.0
iter:  35  14:37:30  -5.16  -3.19   -96.852211            +0.0,+0.0,+0.0
iter:  36  14:37:35  -5.51  -3.22   -96.852174            +0.0,+0.0,+0.0
iter:  37  14:37:40  -4.82  -3.24   -96.852020            +0.0,+0.0,+0.0
iter:  38  14:37:45  -5.58  -3.40   -96.852026            +0.0,+0.0,+0.0
iter:  39  14:37:50  -4.40  -3.40   -96.852176            +0.0,+0.0,+0.0
iter:  40  14:37:55  -5.06  -3.26   -96.852174            +0.0,+0.0,+0.0
iter:  41  14:38:00  -5.62  -3.28   -96.852234            +0.0,+0.0,+0.0
iter:  42  14:38:05  -5.97  -3.23   -96.852243            +0.0,+0.0,+0.0
iter:  43  14:38:10  -4.46  -3.22   -96.852032            +0.0,+0.0,+0.0
iter:  44  14:38:15  -5.12  -3.45   -96.852060            +0.0,+0.0,+0.0
iter:  45  14:38:20  -5.15  -3.43   -96.852140            +0.0,+0.0,+0.0
iter:  46  14:38:25  -5.02  -3.37   -96.852050            +0.0,+0.0,+0.0
iter:  47  14:38:30  -5.42  -3.44   -96.852043            +0.0,+0.0,+0.0
iter:  48  14:38:35  -5.93  -3.44   -96.852035            +0.0,+0.0,+0.0
iter:  49  14:38:40  -4.74  -3.44   -96.852002            +0.0,-0.0,+0.0
iter:  50  14:38:45  -4.95  -3.67   -96.852102            +0.0,+0.0,+0.0
iter:  51  14:38:50  -4.80  -3.53   -96.851985            +0.0,+0.0,+0.0
iter:  52  14:38:55  -4.55  -3.63   -96.852100            +0.0,+0.0,+0.0
iter:  53  14:39:00  -5.19  -3.39   -96.852066            +0.0,+0.0,+0.0
iter:  54  14:39:05  -5.25  -3.42   -96.852086            +0.0,+0.0,+0.0
iter:  55  14:39:10  -4.89  -3.39   -96.851990            +0.0,+0.0,+0.0
iter:  56  14:39:15  -5.65  -3.58   -96.852035            +0.0,+0.0,+0.0
iter:  57  14:39:20  -5.06  -3.55   -96.851996            +0.0,+0.0,+0.0
iter:  58  14:39:25  -5.31  -3.81   -96.851992            +0.0,+0.0,+0.0
iter:  59  14:39:30  -5.59  -3.77   -96.851992            +0.0,+0.0,+0.0
iter:  60  14:39:35  -5.32  -3.79   -96.851979            +0.0,+0.0,+0.0
iter:  61  14:39:40  -5.98  -4.22   -96.851979            +0.0,+0.0,+0.0
iter:  62  14:39:45  -6.45  -4.41   -96.851981            +0.0,+0.0,+0.0
iter:  63  14:39:50  -6.84  -4.33   -96.851978            +0.0,+0.0,+0.0
iter:  64  14:39:55  -7.33  -4.45   -96.851978            +0.0,+0.0,+0.0
iter:  65  14:39:59  -7.00  -4.43   -96.851978            +0.0,+0.0,+0.0
iter:  66  14:40:05  -7.07  -4.42   -96.851979            +0.0,+0.0,+0.0
iter:  67  14:40:10  -6.79  -4.40   -96.851977            +0.0,+0.0,+0.0
iter:  68  14:40:15  -6.86  -4.45   -96.851977            +0.0,+0.0,+0.0
iter:  69  14:40:20  -7.45  -4.63   -96.851977            +0.0,+0.0,+0.0
iter:  70  14:40:24  -7.20  -4.71   -96.851977            +0.0,+0.0,+0.0
iter:  71  14:40:30  -7.52  -4.90   -96.851977            +0.0,+0.0,+0.0
iter:  72  14:40:34  -7.88  -4.91   -96.851977            +0.0,+0.0,+0.0
iter:  73  14:40:39  -7.97  -4.91   -96.851977            +0.0,+0.0,+0.0
iter:  74  14:40:44  -7.65  -5.00   -96.851977            +0.0,+0.0,+0.0
iter:  75  14:40:49  -8.08  -5.10   -96.851977            +0.0,+0.0,+0.0
iter:  76  14:40:54  -7.90  -5.14   -96.851977            +0.0,+0.0,+0.0
iter:  77  14:40:59  -8.23  -5.16   -96.851977            +0.0,+0.0,+0.0
iter:  78  14:41:04  -8.44  -5.19   -96.851977            +0.0,+0.0,+0.0
iter:  79  14:41:09  -8.49  -5.23   -96.851977            +0.0,+0.0,+0.0
iter:  80  14:41:14  -8.22  -5.29   -96.851977            -0.0,+0.0,+0.0
iter:  81  14:41:19  -8.78  -5.75   -96.851977            -0.0,+0.0,+0.0
iter:  82  14:41:24  -9.03  -5.76   -96.851977            +0.0,+0.0,+0.0
iter:  83  14:41:29  -9.05  -5.91   -96.851977            +0.0,+0.0,+0.0
iter:  84  14:41:34  -9.11  -5.85   -96.851977            +0.0,+0.0,+0.0
iter:  85  14:41:39  -9.34  -6.08   -96.851977            +0.0,+0.0,+0.0
iter:  86  14:41:44  -9.41  -6.11   -96.851977            +0.0,+0.0,+0.0
iter:  87  14:41:49  -9.56  -6.07   -96.851977            +0.0,+0.0,+0.0
iter:  88  14:41:54  -9.64  -6.09   -96.851977            +0.0,+0.0,+0.0
iter:  89  14:41:59  -9.68  -6.02   -96.851977            +0.0,+0.0,+0.0
iter:  90  14:42:04  -9.89  -6.29   -96.851977            +0.0,-0.0,+0.0
iter:  91  14:42:09  -9.93  -6.36   -96.851977            +0.0,-0.0,+0.0
iter:  92  14:42:14 -10.04  -6.38   -96.851977            +0.0,-0.0,+0.0
iter:  93  14:42:19 -10.04  -6.23   -96.851977            +0.0,-0.0,+0.0
iter:  94  14:42:24 -10.23  -6.37   -96.851977            -0.0,-0.0,+0.0
iter:  95  14:42:29 -10.18  -6.32   -96.851977            -0.0,-0.0,+0.0
iter:  96  14:42:34 -10.27  -6.34   -96.851977            -0.0,-0.0,+0.0
iter:  97  14:42:39 -10.44  -6.34   -96.851977            -0.0,-0.0,+0.0
iter:  98  14:42:44 -10.46  -6.30   -96.851977            -0.0,-0.0,+0.0
iter:  99  14:42:49 -10.54  -6.28   -96.851977            -0.0,+0.0,+0.0
iter: 100  14:42:54 -10.66  -6.33   -96.851977            -0.0,+0.0,+0.0
iter: 101  14:42:59 -10.40  -6.35   -96.851977            -0.0,+0.0,+0.0
iter: 102  14:43:04 -10.59  -6.48   -96.851977            -0.0,+0.0,+0.0
iter: 103  14:43:08 -10.78  -6.50   -96.851977            -0.0,+0.0,+0.0
iter: 104  14:43:13 -10.95  -6.56   -96.851977            -0.0,+0.0,+0.0
iter: 105  14:43:18 -10.99  -6.55   -96.851977            -0.0,+0.0,+0.0
iter: 106  14:43:23 -10.99  -6.54   -96.851977            -0.0,+0.0,+0.0
iter: 107  14:43:28 -11.10  -6.56   -96.851977            -0.0,+0.0,+0.0
iter: 108  14:43:33 -11.03  -6.51   -96.851977            -0.0,+0.0,+0.0
iter: 109  14:43:38 -11.24  -6.58   -96.851977            -0.0,+0.0,+0.0
iter: 110  14:43:43 -11.12  -6.58   -96.851977            -0.0,+0.0,+0.0
iter: 111  14:43:48 -11.14  -6.54   -96.851977            -0.0,+0.0,+0.0
iter: 112  14:43:53 -11.55  -6.62   -96.851977            -0.0,+0.0,+0.0
iter: 113  14:43:58 -10.84  -6.64   -96.851977            -0.0,+0.0,+0.0
iter: 114  14:44:03 -11.29  -6.71   -96.851977            -0.0,+0.0,+0.0
iter: 115  14:44:08 -11.49  -6.82   -96.851977            -0.0,+0.0,+0.0
iter: 116  14:44:13 -11.41  -6.90   -96.851977            -0.0,+0.0,+0.0
iter: 117  14:44:18 -11.65  -6.94   -96.851977            -0.0,+0.0,+0.0
iter: 118  14:44:23 -11.61  -7.18   -96.851977            -0.0,+0.0,+0.0
iter: 119  14:44:28 -11.87  -7.38   -96.851977            -0.0,+0.0,+0.0
iter: 120  14:44:33 -11.96  -7.39   -96.851977            -0.0,+0.0,+0.0
iter: 121  14:44:38 -11.95  -7.35   -96.851977            -0.0,-0.0,+0.0
iter: 122  14:44:43 -11.58  -7.38   -96.851977            -0.0,-0.0,+0.0
iter: 123  14:44:48 -11.86  -7.40   -96.851977            -0.0,-0.0,+0.0
iter: 124  14:44:53 -12.17  -7.33   -96.851977            +0.0,-0.0,+0.0
iter: 125  14:44:58 -12.12  -7.38   -96.851977            +0.0,-0.0,+0.0
iter: 126  14:45:03 -12.52  -7.38   -96.851977            +0.0,-0.0,+0.0
iter: 127  14:45:08 -12.42  -7.37   -96.851977            +0.0,-0.0,+0.0
iter: 128  14:45:13 -11.79  -7.38   -96.851977            +0.0,-0.0,+0.0
iter: 129  14:45:18 -11.97  -7.36   -96.851977            +0.0,-0.0,+0.0
iter: 130  14:45:23 -12.34  -7.37   -96.851977            -0.0,-0.0,+0.0
iter: 131  14:45:28 -11.89  -7.68   -96.851977            +0.0,-0.0,+0.0
iter: 132  14:45:33 -11.48  -7.75   -96.851977            +0.0,-0.0,+0.0
iter: 133  14:45:38 -11.55  -7.78   -96.851977            +0.0,-0.0,+0.0
iter: 134  14:45:43 -11.37  -7.82   -96.851977            -0.0,-0.0,+0.0
iter: 135  14:45:48 -11.18  -7.90   -96.851977            +0.0,-0.0,+0.0
iter: 136  14:45:53 -11.74  -8.03   -96.851977            +0.0,-0.0,+0.0
iter: 137  14:45:57 -12.31  -8.08   -96.851977            +0.0,-0.0,+0.0
iter: 138  14:46:02 -12.26  -8.08   -96.851977            +0.0,-0.0,+0.0
iter: 139  14:46:07 -11.00  -8.09   -96.851977            +0.0,+0.0,+0.0
iter: 140  14:46:12 -11.96  -8.14   -96.851977            +0.0,+0.0,+0.0
iter: 141  14:46:17 -11.94  -8.15   -96.851977            +0.0,+0.0,+0.0
iter: 142  14:46:22 -10.95  -8.16   -96.851977            +0.0,+0.0,+0.0
iter: 143  14:46:27 -12.00  -8.18   -96.851977            +0.0,+0.0,+0.0
iter: 144  14:46:32 -11.85  -8.26   -96.851977            +0.0,+0.0,+0.0
iter: 145  14:46:37 -11.42  -8.33   -96.851977            +0.0,+0.0,+0.0
iter: 146  14:46:42 -11.59  -8.43   -96.851977            +0.0,+0.0,+0.0
iter: 147  14:46:47 -12.15  -8.45   -96.851977            +0.0,+0.0,+0.0
iter: 148  14:46:52 -11.63  -8.50   -96.851977            +0.0,+0.0,+0.0
iter: 149  14:46:57 -11.60  -8.54   -96.851977            +0.0,+0.0,+0.0
iter: 150  14:47:02 -11.15  -8.59   -96.851977            +0.0,-0.0,+0.0
iter: 151  14:47:07 -12.01  -8.59   -96.851977            +0.0,+0.0,+0.0
iter: 152  14:47:12 -11.99  -8.60   -96.851977            +0.0,+0.0,+0.0
iter: 153  14:47:17 -11.10  -8.69   -96.851977            +0.0,-0.0,+0.0
iter: 154  14:47:22 -12.04  -8.83   -96.851977            +0.0,-0.0,+0.0
iter: 155  14:47:27 -11.98  -8.87   -96.851977            +0.0,-0.0,+0.0
iter: 156  14:47:32 -11.18  -8.89   -96.851977            +0.0,-0.0,+0.0
iter: 157  14:47:37 -12.00  -8.90   -96.851977            +0.0,-0.0,+0.0
iter: 158  14:47:42 -12.06  -8.92   -96.851977            +0.0,-0.0,+0.0
iter: 159  14:47:47 -11.35  -9.03   -96.851977            +0.0,-0.0,+0.0

Converged after 159 iterations.

Dipole moment: (-0.000000, -0.000000, -0.000006) |e|*Ang

Total magnetic moment: (0.000000, -0.000000, 0.000093)
Local magnetic moments:
   0 O  (-0.000018,  0.000033, -0.000162)
   1 O  ( 0.000018,  0.000033, -0.000162)
   2 O  ( 0.000034,  0.000001,  0.000000)
   3 O  (-0.000034,  0.000001,  0.000000)
   4 Cr (-0.000081, -0.000182,  2.208831)
   5 Cr (-0.000081,  0.000182, -2.208788)
   6 Cr ( 0.000081,  0.000182, -2.208788)
   7 Cr ( 0.000081, -0.000182,  2.208831)
   8 O  (-0.000017, -0.000034,  0.000162)
   9 O  ( 0.000017, -0.000034,  0.000162)

Energy contributions relative to reference atoms: (reference = -126274.181857)

Kinetic:        +34.276881
Potential:      -53.912546
External:        +0.000000
XC:             -78.950401
Entropy (-ST):   -0.000000
Local:           +1.734089
--------------------------
Free energy:    -96.851977
Extrapolated:   -96.851977

Showing only first 2 kpts
 Kpt  Band  Eigenvalues  Occupancy
  0    28      2.75024    1.00000
  0    29      2.75028    1.00000
  0    30      2.96569    1.00000
  0    31      2.96571    1.00000

  1    28      2.89849    1.00000
  1    29      2.89852    1.00000
  1    30      2.94102    1.00000
  1    31      2.94109    1.00000


Fermi level: 9.00500

Gap: 0.832 eV
Transition (v -> c):
  (s=0, k=32, n=59, [-0.12, -0.12, -0.08]) -> (s=0, k=32, n=60, [-0.12, -0.12, -0.08])
Timing:                              incl.     excl.
-----------------------------------------------------------
Hamiltonian:                         0.376     0.003   0.0% |
 Atomic:                             0.158     0.158   0.0% |
  XC Correction:                     0.000     0.000   0.0% |
 Calculate atomic Hamiltonians:      0.027     0.027   0.0% |
 Communicate:                        0.000     0.000   0.0% |
 Initialize Hamiltonian:             0.000     0.000   0.0% |
 Poisson:                            0.001     0.001   0.0% |
 XC 3D grid:                         0.187     0.187   0.0% |
LCAO initialization:                26.150     0.142   0.0% |
 LCAO eigensolver:                  11.577     0.001   0.0% |
  DenseAtomicCorrection:             0.004     0.004   0.0% |
  Distribute overlap matrix:         0.000     0.000   0.0% |
  Orbital Layouts:                   0.010     0.010   0.0% |
  Potential matrix:                 11.534    11.534   1.4% ||
  Sum over cells:                    0.028     0.028   0.0% |
 LCAO to grid:                      13.948    13.948   1.7% ||
 Set positions (LCAO WFS):           0.484     0.112   0.0% |
  Basic WFS set positions:           0.000     0.000   0.0% |
  Basis functions set positions:     0.000     0.000   0.0% |
  P tci:                             0.130     0.130   0.0% |
  ST tci:                            0.155     0.155   0.0% |
  mktci:                             0.087     0.087   0.0% |
PWDescriptor:                        0.007     0.007   0.0% |
SCF-cycle:                         802.262   218.439  26.3% |----------|
 Davidson:                         424.725    30.922   3.7% ||
  Apply H:                          86.321    86.321  10.4% |---|
  Subspace diag:                    98.913     0.049   0.0% |
   calc_h_matrix:                   92.048     4.302   0.5% |
    Apply H:                        87.746    87.746  10.6% |---|
   diagonalize:                      0.939     0.939   0.1% |
   rotate_psi:                       5.877     5.877   0.7% |
  calc. matrices:                  191.779    23.619   2.8% ||
   Apply H:                        168.161   168.161  20.3% |-------|
  diagonalize:                       6.656     6.656   0.8% |
  rotate_psi:                       10.134    10.134   1.2% |
 Density:                          107.221     0.005   0.0% |
  Atomic density matrices:           4.603     4.603   0.6% |
  Mix:                              11.369    11.369   1.4% ||
  Multipole moments:                 0.048     0.048   0.0% |
  Pseudo density:                   91.197    91.190  11.0% |---|
   Symmetrize density:               0.007     0.007   0.0% |
 Hamiltonian:                       51.810     0.337   0.0% |
  Atomic:                           13.597    13.596   1.6% ||
   XC Correction:                    0.001     0.001   0.0% |
  Calculate atomic Hamiltonians:     4.372     4.372   0.5% |
  Communicate:                       0.029     0.029   0.0% |
  Poisson:                           0.179     0.179   0.0% |
  XC 3D grid:                       33.297    33.297   4.0% |-|
 Orthonormalize:                     0.066     0.000   0.0% |
  calc_s_matrix:                     0.015     0.015   0.0% |
  inverse-cholesky:                  0.001     0.001   0.0% |
  projections:                       0.030     0.030   0.0% |
  rotate_psi_s:                      0.020     0.020   0.0% |
Set symmetry:                        0.000     0.000   0.0% |
Other:                               0.756     0.756   0.1% |
-----------------------------------------------------------
Total:                                       829.552 100.0%

Memory usage: 417.87 MiB
Date: Wed Jul  6 14:47:47 2022
